 Entering Gaussian System, Link 0=g16
 Initial command:
 /opt/g16/l1.exe "/home/aayush/scratches/g16/Gau-8822.inp" -scrdir="/home/aayush/scratches/g16/"
 Entering Link 1 = /opt/g16/l1.exe PID=      8825.
  
 Copyright (c) 1988,1990,1992,1993,1995,1998,2003,2009,2016,
            Gaussian, Inc.  All Rights Reserved.
  
 This is part of the Gaussian(R) 16 program.  It is based on
 the Gaussian(R) 09 system (copyright 2009, Gaussian, Inc.),
 the Gaussian(R) 03 system (copyright 2003, Gaussian, Inc.),
 the Gaussian(R) 98 system (copyright 1998, Gaussian, Inc.),
 the Gaussian(R) 94 system (copyright 1995, Gaussian, Inc.),
 the Gaussian 92(TM) system (copyright 1992, Gaussian, Inc.),
 the Gaussian 90(TM) system (copyright 1990, Gaussian, Inc.),
 the Gaussian 88(TM) system (copyright 1988, Gaussian, Inc.),
 the Gaussian 86(TM) system (copyright 1986, Carnegie Mellon
 University), and the Gaussian 82(TM) system (copyright 1983,
 Carnegie Mellon University). Gaussian is a federally registered
 trademark of Gaussian, Inc.
  
 This software contains proprietary and confidential information,
 including trade secrets, belonging to Gaussian, Inc.
  
 This software is provided under written license and may be
 used, copied, transmitted, or stored only in accord with that
 written license.
  
 The following legend is applicable only to US Government
 contracts under FAR:
  
                    RESTRICTED RIGHTS LEGEND
  
 Use, reproduction and disclosure by the US Government is
 subject to restrictions as set forth in subparagraphs (a)
 and (c) of the Commercial Computer Software - Restricted
 Rights clause in FAR 52.227-19.
  
 Gaussian, Inc.
 340 Quinnipiac St., Bldg. 40, Wallingford CT 06492
  
  
 ---------------------------------------------------------------
 Warning -- This program may not be used in any manner that
 competes with the business of Gaussian, Inc. or will provide
 assistance to any competitor of Gaussian, Inc.  The licensee
 of this program is prohibited from giving any competitor of
 Gaussian, Inc. access to this program.  By using this program,
 the user acknowledges that Gaussian, Inc. is engaged in the
 business of creating and licensing software in the field of
 computational chemistry and represents and warrants to the
 licensee that it is not a competitor of Gaussian, Inc. and that
 it will not use this program in any manner prohibited above.
 ---------------------------------------------------------------
  

 Cite this work as:
 Gaussian 16, Revision A.03,
 M. J. Frisch, G. W. Trucks, H. B. Schlegel, G. E. Scuseria, 
 M. A. Robb, J. R. Cheeseman, G. Scalmani, V. Barone, 
 G. A. Petersson, H. Nakatsuji, X. Li, M. Caricato, A. V. Marenich, 
 J. Bloino, B. G. Janesko, R. Gomperts, B. Mennucci, H. P. Hratchian, 
 J. V. Ortiz, A. F. Izmaylov, J. L. Sonnenberg, D. Williams-Young, 
 F. Ding, F. Lipparini, F. Egidi, J. Goings, B. Peng, A. Petrone, 
 T. Henderson, D. Ranasinghe, V. G. Zakrzewski, J. Gao, N. Rega, 
 G. Zheng, W. Liang, M. Hada, M. Ehara, K. Toyota, R. Fukuda, 
 J. Hasegawa, M. Ishida, T. Nakajima, Y. Honda, O. Kitao, H. Nakai, 
 T. Vreven, K. Throssell, J. A. Montgomery, Jr., J. E. Peralta, 
 F. Ogliaro, M. J. Bearpark, J. J. Heyd, E. N. Brothers, K. N. Kudin, 
 V. N. Staroverov, T. A. Keith, R. Kobayashi, J. Normand, 
 K. Raghavachari, A. P. Rendell, J. C. Burant, S. S. Iyengar, 
 J. Tomasi, M. Cossi, J. M. Millam, M. Klene, C. Adamo, R. Cammi, 
 J. W. Ochterski, R. L. Martin, K. Morokuma, O. Farkas, 
 J. B. Foresman, and D. J. Fox, Gaussian, Inc., Wallingford CT, 2016.
 
 ******************************************
 Gaussian 16:  ES64L-G16RevA.03 25-Dec-2016
                12-May-2025 
 ******************************************
 %chk=ethyl_propiolate.chk
 %nprocshared=24
 Will use up to   24 processors via shared memory.
 %mem=12GB
 --------------------------
 # ccsd(t)/6-311++g(d,p) sp
 --------------------------
 1/38=1,172=1/1;
 2/12=2,17=6,18=5,40=1/2;
 3/5=4,6=6,7=1111,11=9,25=1,30=1/1,2,3;
 4//1;
 5/5=2,38=5/2;
 8/6=4,9=120000,10=2/1,4;
 9/5=7,14=2/13;
 6/7=2,8=2,9=2,10=2/1;
 99/5=1,9=1/99;
 -------------------
 Title Card Required
 -------------------
 Symbolic Z-matrix:
 Charge =  0 Multiplicity = 2
 C                     1.28636  -1.41004  -1.16344 
 H                     1.65509  -2.29305  -1.63643 
 C                     0.95338  -0.51136  -0.34149 
 C                     0.35786   0.86896  -0.19852 
 O                     0.96769   1.84854  -0.50339 
 O                    -0.83151   0.92564   0.38957 
 C                    -1.57731  -0.27436   0.67488 
 C                    -2.42167  -0.67088  -0.51941 
 H                    -0.89924  -1.06703   0.99161 
 H                    -2.19877  -0.00088   1.52607 
 H                    -3.0748    0.15187  -0.81304 
 H                    -1.79359  -0.94065  -1.37137 
 H                    -3.03964  -1.53414  -0.26415 
 O                     1.35862  -0.87168   1.29272 
 H                     2.3135   -0.72424   1.28871 
 
                          Input orientation:                          
 ---------------------------------------------------------------------
 Center     Atomic      Atomic             Coordinates (Angstroms)
 Number     Number       Type             X           Y           Z
 ---------------------------------------------------------------------
      1          6           0        1.286355   -1.410039   -1.163440
      2          1           0        1.655086   -2.293053   -1.636430
      3          6           0        0.953375   -0.511357   -0.341487
      4          6           0        0.357859    0.868963   -0.198522
      5          8           0        0.967690    1.848536   -0.503386
      6          8           0       -0.831514    0.925642    0.389567
      7          6           0       -1.577308   -0.274360    0.674884
      8          6           0       -2.421667   -0.670876   -0.519408
      9          1           0       -0.899235   -1.067034    0.991610
     10          1           0       -2.198765   -0.000875    1.526065
     11          1           0       -3.074800    0.151873   -0.813041
     12          1           0       -1.793591   -0.940654   -1.371367
     13          1           0       -3.039636   -1.534143   -0.264154
     14          8           0        1.358615   -0.871676    1.292721
     15          1           0        2.313501   -0.724242    1.288709
 ---------------------------------------------------------------------
                    Distance matrix (angstroms):
                    1          2          3          4          5
     1  C    0.000000
     2  H    1.067425   0.000000
     3  C    1.262581   2.311648   0.000000
     4  C    2.643298   3.707927   1.510087   0.000000
     5  O    3.339989   4.348455   2.365483   1.193482   0.000000
     6  O    3.514627   4.543990   2.405252   1.328032   2.210483
     7  C    3.587446   4.457092   2.737432   2.411410   3.517389
     8  C    3.835436   4.527594   3.383491   3.193718   4.223202
     9  H    3.088478   3.864489   2.349061   2.597072   3.771070
    10  H    4.622255   5.487041   3.699234   3.204239   4.191113
    11  H    4.645645   5.387713   4.109554   3.560197   4.395029
    12  H    3.122439   3.713841   2.964923   3.046148   4.019657
    13  H    4.420217   4.949697   4.122646   4.161995   5.249611
    14  O    2.515509   3.269271   1.721826   2.501028   3.283044
    15  H    2.745611   3.383950   2.133730   2.928258   3.412037
                    6          7          8          9         10
     6  O    0.000000
     7  C    1.441395   0.000000
     8  C    2.429751   1.515421   0.000000
     9  H    2.082738   1.090152   2.181265   0.000000
    10  H    2.004853   1.088812   2.163919   1.763835   0.000000
    11  H    2.660323   2.153620   1.090742   3.078243   2.502436
    12  H    2.740354   2.162838   1.092288   2.529724   3.072859
    13  H    3.369525   2.146450   1.091911   2.525163   2.502570
    14  O    2.973668   3.059110   4.196983   2.286202   3.669836
    15  H    3.663563   3.964539   5.068920   3.244603   4.576040
                   11         12         13         14         15
    11  H    0.000000
    12  H    1.773933   0.000000
    13  H    1.773461   1.769400   0.000000
    14  O    5.013687   4.127775   4.712466   0.000000
    15  H    5.849677   4.898065   5.632353   0.966209   0.000000
 Stoichiometry    C5H7O3(2)
 Framework group  C1[X(C5H7O3)]
 Deg. of freedom    39
 Full point group                 C1      NOp   1
 Largest Abelian subgroup         C1      NOp   1
 Largest concise Abelian subgroup C1      NOp   1
                         Standard orientation:                         
 ---------------------------------------------------------------------
 Center     Atomic      Atomic             Coordinates (Angstroms)
 Number     Number       Type             X           Y           Z
 ---------------------------------------------------------------------
      1          6           0        1.348290   -1.385649   -1.122394
      2          1           0        1.717448   -2.279069   -1.575073
      3          6           0        1.011614   -0.470129   -0.320780
      4          6           0        0.421138    0.915274   -0.209616
      5          8           0        1.038375    1.886197   -0.526989
      6          8           0       -0.773533    0.988330    0.365791
      7          6           0       -1.527557   -0.202746    0.666465
      8          6           0       -2.362272   -0.618006   -0.528236
      9          1           0       -0.856213   -0.992295    1.004608
     10          1           0       -2.155860    0.089526    1.506300
     11          1           0       -3.008759    0.201937   -0.843617
     12          1           0       -1.727325   -0.906617   -1.368855
     13          1           0       -2.986635   -1.473547   -0.262732
     14          8           0        1.399531   -0.801301    1.323765
     15          1           0        2.355082   -0.658207    1.326193
 ---------------------------------------------------------------------
 Rotational constants (GHZ):           2.4843069           1.7171318           1.4144292
 Standard basis: 6-311++G(d,p) (5D, 7F)
 There are   233 symmetry adapted cartesian basis functions of A   symmetry.
 There are   225 symmetry adapted basis functions of A   symmetry.
   225 basis functions,   351 primitive gaussians,   233 cartesian basis functions
    31 alpha electrons       30 beta electrons
       nuclear repulsion energy       368.9264404584 Hartrees.
 NAtoms=   15 NActive=   15 NUniq=   15 SFac= 1.00D+00 NAtFMM=   60 NAOKFM=F Big=F
 Integral buffers will be    131072 words long.
 Raffenetti 2 integral format.
 Two-electron integral symmetry is turned on.
 One-electron integrals computed using PRISM.
 NBasis=   225 RedAO= T EigKep=  8.16D-06  NBF=   225
 NBsUse=   225 1.00D-06 EigRej= -1.00D+00 NBFU=   225
 ExpMin= 3.60D-02 ExpMax= 8.59D+03 ExpMxC= 1.30D+03 IAcc=3 IRadAn=         5 AccDes= 0.00D+00
 Harris functional with IExCor=  205 and IRadAn=       5 diagonalized for initial guess.
 HarFok:  IExCor=  205 AccDes= 0.00D+00 IRadAn=         5 IDoV= 1 UseB2=F ITyADJ=14
 ICtDFT=  3500011 ScaDFX=  1.000000  1.000000  1.000000  1.000000
 FoFCou: FMM=F IPFlag=           0 FMFlag=      100000 FMFlg1=           0
         NFxFlg=           0 DoJE=T BraDBF=F KetDBF=T FulRan=T
         wScrn=  0.000000 ICntrl=       500 IOpCl=  0 I1Cent=   200000004 NGrid=           0
         NMat0=    1 NMatS0=      1 NMatT0=    0 NMatD0=    1 NMtDS0=    0 NMtDT0=    0
 Petite list used in FoFCou.
 Initial guess <Sx>= 0.0000 <Sy>= 0.0000 <Sz>= 0.5000 <S**2>= 0.7500 S= 0.5000
 Requested convergence on RMS density matrix=1.00D-08 within 128 cycles.
 Requested convergence on MAX density matrix=1.00D-06.
 Requested convergence on             energy=1.00D-06.
 No special actions if energy rises.
 Initial convergence to 1.0D-05 achieved.  Increase integral accuracy.
 SCF Done:  E(UHF) =  -417.973816772     A.U. after   29 cycles
            NFock= 29  Conv=0.38D-08     -V/T= 2.0011
 <Sx>= 0.0000 <Sy>= 0.0000 <Sz>= 0.5000 <S**2>= 1.0475 S= 0.6391
 <L.S>=  0.00000000000    
 Annihilation of the first spin contaminant:
 S**2 before annihilation     1.0475,   after     0.8123
 ExpMin= 3.60D-02 ExpMax= 8.59D+03 ExpMxC= 1.30D+03 IAcc=3 IRadAn=         5 AccDes= 0.00D+00
 HarFok:  IExCor=  205 AccDes= 0.00D+00 IRadAn=         5 IDoV=-2 UseB2=F ITyADJ=14
 ICtDFT= 12500011 ScaDFX=  1.000000  1.000000  1.000000  1.000000
 Range of M.O.s used for correlation:     9   225
 NBasis=   225 NAE=    31 NBE=    30 NFC=     8 NFV=     0
 NROrb=    217 NOA=    23 NOB=    22 NVA=   194 NVB=   195

 **** Warning!!: The largest alpha MO coefficient is  0.10120089D+03


 **** Warning!!: The largest beta MO coefficient is  0.87866585D+02

 Semi-Direct transformation.
 ModeAB=           4 MOrb=            23 LenV=    1609168856
 LASXX=    109339976 LTotXX=   109339976 LenRXX=   221407890
 LTotAB=   112067914 MaxLAS=   132775573 LenRXY=           0
 NonZer=   330747866 LenScr=   498067456 LnRSAI=   132775573
 LnScr1=   199945216 LExtra=           0 Total=   1052196135
 MaxDsk=          -1 SrtSym=           T ITran=            4
 JobTyp=1 Pass  1:  I=   1 to  23.
 (rs|ai) integrals will be sorted in core.
 ModeAB=           4 MOrb=            22 LenV=    1609168856
 LASXX=    104936601 LTotXX=   104936601 LenRXX=   190867446
 LTotAB=    85930845 MaxLAS=   127002722 LenRXY=           0
 NonZer=   295804047 LenScr=   445446144 LnRSAI=   127002722
 LnScr1=   191264768 LExtra=           0 Total=    954581080
 MaxDsk=          -1 SrtSym=           T ITran=            4
 JobTyp=2 Pass  1:  I=   1 to  22.
 (rs|ai) integrals will be sorted in core.
 SymMOI:  orbitals are not symmetric.
 Spin components of T(2) and E(2):
     alpha-alpha T2 =       0.5262865886D-01 E2=     -0.1715253896D+00
     alpha-beta  T2 =       0.2822750053D+00 E2=     -0.9362631218D+00
     beta-beta   T2 =       0.5033506025D-01 E2=     -0.1610431186D+00
 ANorm=    0.1176961650D+01
 E2 =    -0.1268831630D+01 EUMP2 =    -0.41924264840163D+03
 (S**2,0)=  0.10475D+01           (S**2,1)=  0.96347D+00
 E(PUHF)=      -0.41799922153D+03        E(PMP2)=      -0.41926486038D+03
 Keep R2 and R3 ints in memory in canonical form, NReq=652884060.
 CIDS: In Core Option IDoMem=           1.
 Iterations=  50 Convergence= 0.100D-06
 Produce multiple copies of IABC intergrals
 Iteration Nr.   1
 **********************
 DD1Dir will call FoFMem   1 times, MxPair=      1496
 NAB=   506 NAA=   253 NBB=   231.
 E(PMP3)=      -0.41928678888D+03
 MP4(R+Q)=  0.24794659D-01
 E3=       -0.27058415D-01        EUMP3=      -0.41926970682D+03
 E4(DQ)=   -0.65829851D-02        UMP4(DQ)=   -0.41927628980D+03
 E4(SDQ)=  -0.29006802D-01        UMP4(SDQ)=  -0.41929871362D+03
 DE(Corr)=  -1.2707644     E(Corr)=     -419.24458121    
 NORM(A)=   0.11869804D+01
 Iteration Nr.   2
 **********************
 DD1Dir will call FoFMem   1 times, MxPair=      1496
 NAB=   506 NAA=   253 NBB=   231.
 DE(Corr)=  -1.3160238     E(CORR)=     -419.28984056     Delta=-4.53D-02
 NORM(A)=   0.12096649D+01
 Iteration Nr.   3
 **********************
 DD1Dir will call FoFMem   1 times, MxPair=      1496
 NAB=   506 NAA=   253 NBB=   231.
 DE(Corr)=  -1.3195401     E(CORR)=     -419.29335690     Delta=-3.52D-03
 NORM(A)=   0.12234211D+01
 Iteration Nr.   4
 **********************
 DD1Dir will call FoFMem   1 times, MxPair=      1496
 NAB=   506 NAA=   253 NBB=   231.
 DE(Corr)=  -1.3278042     E(CORR)=     -419.30162098     Delta=-8.26D-03
 NORM(A)=   0.12323891D+01
 Iteration Nr.   5
 **********************
 DD1Dir will call FoFMem   1 times, MxPair=      1496
 NAB=   506 NAA=   253 NBB=   231.
 DE(Corr)=  -1.3302658     E(CORR)=     -419.30408255     Delta=-2.46D-03
 NORM(A)=   0.12367542D+01
 Iteration Nr.   6
 **********************
 DD1Dir will call FoFMem   1 times, MxPair=      1496
 NAB=   506 NAA=   253 NBB=   231.
 DE(Corr)=  -1.3310150     E(CORR)=     -419.30483176     Delta=-7.49D-04
 NORM(A)=   0.12375105D+01
 Iteration Nr.   7
 **********************
 DD1Dir will call FoFMem   1 times, MxPair=      1496
 NAB=   506 NAA=   253 NBB=   231.
 DE(Corr)=  -1.3311342     E(CORR)=     -419.30495096     Delta=-1.19D-04
 NORM(A)=   0.12376754D+01
 Iteration Nr.   8
 **********************
 DD1Dir will call FoFMem   1 times, MxPair=      1496
 NAB=   506 NAA=   253 NBB=   231.
 DE(Corr)=  -1.3311130     E(CORR)=     -419.30492978     Delta= 2.12D-05
 NORM(A)=   0.12377307D+01
 Iteration Nr.   9
 **********************
 DD1Dir will call FoFMem   1 times, MxPair=      1496
 NAB=   506 NAA=   253 NBB=   231.
 DE(Corr)=  -1.3311346     E(CORR)=     -419.30495133     Delta=-2.15D-05
 NORM(A)=   0.12377412D+01
 Iteration Nr.  10
 **********************
 DD1Dir will call FoFMem   1 times, MxPair=      1496
 NAB=   506 NAA=   253 NBB=   231.
 DE(Corr)=  -1.3311304     E(CORR)=     -419.30494714     Delta= 4.19D-06
 NORM(A)=   0.12377567D+01
 Iteration Nr.  11
 **********************
 DD1Dir will call FoFMem   1 times, MxPair=      1496
 NAB=   506 NAA=   253 NBB=   231.
 DE(Corr)=  -1.3311444     E(CORR)=     -419.30496118     Delta=-1.40D-05
 NORM(A)=   0.12377836D+01
 Iteration Nr.  12
 **********************
 DD1Dir will call FoFMem   1 times, MxPair=      1496
 NAB=   506 NAA=   253 NBB=   231.
 DE(Corr)=  -1.3311487     E(CORR)=     -419.30496551     Delta=-4.33D-06
 NORM(A)=   0.12378149D+01
 Iteration Nr.  13
 **********************
 DD1Dir will call FoFMem   1 times, MxPair=      1496
 NAB=   506 NAA=   253 NBB=   231.
 DE(Corr)=  -1.3311560     E(CORR)=     -419.30497275     Delta=-7.23D-06
 NORM(A)=   0.12378399D+01
 Iteration Nr.  14
 **********************
 DD1Dir will call FoFMem   1 times, MxPair=      1496
 NAB=   506 NAA=   253 NBB=   231.
 DE(Corr)=  -1.3311610     E(CORR)=     -419.30497781     Delta=-5.07D-06
 NORM(A)=   0.12378540D+01
 Iteration Nr.  15
 **********************
 DD1Dir will call FoFMem   1 times, MxPair=      1496
 NAB=   506 NAA=   253 NBB=   231.
 DE(Corr)=  -1.3311629     E(CORR)=     -419.30497966     Delta=-1.85D-06
 NORM(A)=   0.12378609D+01
 Iteration Nr.  16
 **********************
 DD1Dir will call FoFMem   1 times, MxPair=      1496
 NAB=   506 NAA=   253 NBB=   231.
 DE(Corr)=  -1.3311644     E(CORR)=     -419.30498121     Delta=-1.55D-06
 NORM(A)=   0.12378635D+01
 Iteration Nr.  17
 **********************
 DD1Dir will call FoFMem   1 times, MxPair=      1496
 NAB=   506 NAA=   253 NBB=   231.
 DE(Corr)=  -1.3311647     E(CORR)=     -419.30498145     Delta=-2.42D-07
 NORM(A)=   0.12378647D+01
 Iteration Nr.  18
 **********************
 DD1Dir will call FoFMem   1 times, MxPair=      1496
 NAB=   506 NAA=   253 NBB=   231.
 DE(Corr)=  -1.3311650     E(CORR)=     -419.30498172     Delta=-2.73D-07
 NORM(A)=   0.12378652D+01
 Iteration Nr.  19
 **********************
 DD1Dir will call FoFMem   1 times, MxPair=      1496
 NAB=   506 NAA=   253 NBB=   231.
 DE(Corr)=  -1.3311650     E(CORR)=     -419.30498180     Delta=-7.33D-08
 NORM(A)=   0.12378656D+01
 Wavefunction amplitudes converged. E(Corr)=     -419.30498180    
 Largest amplitude= 6.18D-02
 Time for triples=    34562.81 seconds.
 T4(CCSD)= -0.59652035D-01
 T5(CCSD)=  0.42172916D-02
 CCSD(T)= -0.41936041654D+03

 S**2, projected HF & approx projected MPn energies after annihilation of
 unwanted spin states (see manual for definitions):

 spins       (S**2,0) (S**2,1)    PUHF        PMP2        PMP3        PMP4
 annihilated
 s+1         0.71332  0.73678 -417.999222 -419.264860 -419.286789
 s+1,s+2     0.75072  0.74985 -417.996683 -419.262458 -419.284569
 s+1 to s+3  0.74999  0.75000 -417.996741 -419.262499 -419.284585
 s+1 to s+4  0.75000  0.75000 -417.996740 -419.262498 -419.284585
 s+1 to s+5  0.75000  0.75000 -417.996740
 s+1 to s+6  0.75000  0.75000 -417.996740

 Discarding MO integrals.

 **********************************************************************

            Population analysis using the SCF density.

 **********************************************************************

 Orbital symmetries:
 Alpha Orbitals:
       Occupied  (A) (A) (A) (A) (A) (A) (A) (A) (A) (A) (A) (A)
                 (A) (A) (A) (A) (A) (A) (A) (A) (A) (A) (A) (A)
                 (A) (A) (A) (A) (A) (A) (A)
       Virtual   (A) (A) (A) (A) (A) (A) (A) (A) (A) (A) (A) (A)
                 (A) (A) (A) (A) (A) (A) (A) (A) (A) (A) (A) (A)
                 (A) (A) (A) (A) (A) (A) (A) (A) (A) (A) (A) (A)
                 (A) (A) (A) (A) (A) (A) (A) (A) (A) (A) (A) (A)
                 (A) (A) (A) (A) (A) (A) (A) (A) (A) (A) (A) (A)
                 (A) (A) (A) (A) (A) (A) (A) (A) (A) (A) (A) (A)
                 (A) (A) (A) (A) (A) (A) (A) (A) (A) (A) (A) (A)
                 (A) (A) (A) (A) (A) (A) (A) (A) (A) (A) (A) (A)
                 (A) (A) (A) (A) (A) (A) (A) (A) (A) (A) (A) (A)
                 (A) (A) (A) (A) (A) (A) (A) (A) (A) (A) (A) (A)
                 (A) (A) (A) (A) (A) (A) (A) (A) (A) (A) (A) (A)
                 (A) (A) (A) (A) (A) (A) (A) (A) (A) (A) (A) (A)
                 (A) (A) (A) (A) (A) (A) (A) (A) (A) (A) (A) (A)
                 (A) (A) (A) (A) (A) (A) (A) (A) (A) (A) (A) (A)
                 (A) (A) (A) (A) (A) (A) (A) (A) (A) (A) (A) (A)
                 (A) (A) (A) (A) (A) (A) (A) (A) (A) (A) (A) (A)
                 (A) (A)
 Beta  Orbitals:
       Occupied  (A) (A) (A) (A) (A) (A) (A) (A) (A) (A) (A) (A)
                 (A) (A) (A) (A) (A) (A) (A) (A) (A) (A) (A) (A)
                 (A) (A) (A) (A) (A) (A)
       Virtual   (A) (A) (A) (A) (A) (A) (A) (A) (A) (A) (A) (A)
                 (A) (A) (A) (A) (A) (A) (A) (A) (A) (A) (A) (A)
                 (A) (A) (A) (A) (A) (A) (A) (A) (A) (A) (A) (A)
                 (A) (A) (A) (A) (A) (A) (A) (A) (A) (A) (A) (A)
                 (A) (A) (A) (A) (A) (A) (A) (A) (A) (A) (A) (A)
                 (A) (A) (A) (A) (A) (A) (A) (A) (A) (A) (A) (A)
                 (A) (A) (A) (A) (A) (A) (A) (A) (A) (A) (A) (A)
                 (A) (A) (A) (A) (A) (A) (A) (A) (A) (A) (A) (A)
                 (A) (A) (A) (A) (A) (A) (A) (A) (A) (A) (A) (A)
                 (A) (A) (A) (A) (A) (A) (A) (A) (A) (A) (A) (A)
                 (A) (A) (A) (A) (A) (A) (A) (A) (A) (A) (A) (A)
                 (A) (A) (A) (A) (A) (A) (A) (A) (A) (A) (A) (A)
                 (A) (A) (A) (A) (A) (A) (A) (A) (A) (A) (A) (A)
                 (A) (A) (A) (A) (A) (A) (A) (A) (A) (A) (A) (A)
                 (A) (A) (A) (A) (A) (A) (A) (A) (A) (A) (A) (A)
                 (A) (A) (A) (A) (A) (A) (A) (A) (A) (A) (A) (A)
                 (A) (A) (A)
 The electronic state is 2-A.
 Alpha  occ. eigenvalues --  -20.60865 -20.60821 -20.55322 -11.41206 -11.31368
 Alpha  occ. eigenvalues --  -11.29990 -11.29505 -11.23382  -1.47524  -1.37844
 Alpha  occ. eigenvalues --   -1.36629  -1.09388  -1.04927  -0.91656  -0.87945
 Alpha  occ. eigenvalues --   -0.76455  -0.73071  -0.70068  -0.68676  -0.65701
 Alpha  occ. eigenvalues --   -0.62985  -0.62047  -0.57795  -0.55887  -0.54500
 Alpha  occ. eigenvalues --   -0.52853  -0.50702  -0.47692  -0.45423  -0.44822
 Alpha  occ. eigenvalues --   -0.42396
 Alpha virt. eigenvalues --    0.03170   0.04571   0.05354   0.06513   0.06898
 Alpha virt. eigenvalues --    0.08564   0.09124   0.10900   0.11674   0.11841
 Alpha virt. eigenvalues --    0.13118   0.13879   0.14279   0.14622   0.16201
 Alpha virt. eigenvalues --    0.17206   0.17302   0.17543   0.19225   0.19352
 Alpha virt. eigenvalues --    0.19432   0.20059   0.20657   0.21234   0.22384
 Alpha virt. eigenvalues --    0.23227   0.23945   0.25657   0.27820   0.30278
 Alpha virt. eigenvalues --    0.30565   0.31348   0.32010   0.32915   0.33569
 Alpha virt. eigenvalues --    0.35825   0.36279   0.37596   0.38331   0.40786
 Alpha virt. eigenvalues --    0.41221   0.41658   0.42842   0.43606   0.44501
 Alpha virt. eigenvalues --    0.45135   0.45601   0.46668   0.47755   0.50556
 Alpha virt. eigenvalues --    0.52150   0.53884   0.57099   0.58992   0.61403
 Alpha virt. eigenvalues --    0.62065   0.64685   0.65406   0.70289   0.71474
 Alpha virt. eigenvalues --    0.74503   0.74844   0.78211   0.80259   0.80353
 Alpha virt. eigenvalues --    0.84356   0.84928   0.86680   0.87540   0.88353
 Alpha virt. eigenvalues --    0.89147   0.92660   0.93703   0.94835   0.97580
 Alpha virt. eigenvalues --    0.98277   1.01261   1.06847   1.07681   1.16828
 Alpha virt. eigenvalues --    1.17746   1.22072   1.23084   1.28173   1.33256
 Alpha virt. eigenvalues --    1.35758   1.36274   1.40243   1.44037   1.45125
 Alpha virt. eigenvalues --    1.47835   1.48167   1.50233   1.50919   1.52650
 Alpha virt. eigenvalues --    1.55908   1.58593   1.59753   1.63030   1.67276
 Alpha virt. eigenvalues --    1.69190   1.69688   1.71708   1.77824   1.79560
 Alpha virt. eigenvalues --    1.80713   1.83061   1.85316   1.85761   1.88770
 Alpha virt. eigenvalues --    1.89631   1.93049   1.93506   1.94923   1.99004
 Alpha virt. eigenvalues --    2.01915   2.03338   2.07622   2.11328   2.14618
 Alpha virt. eigenvalues --    2.15863   2.17658   2.26342   2.30054   2.32927
 Alpha virt. eigenvalues --    2.37928   2.38513   2.42738   2.49054   2.50625
 Alpha virt. eigenvalues --    2.58892   2.63420   2.66808   2.78574   2.81535
 Alpha virt. eigenvalues --    2.83818   2.85217   2.89051   2.92420   2.93108
 Alpha virt. eigenvalues --    2.93582   2.95836   2.99858   3.02490   3.04937
 Alpha virt. eigenvalues --    3.08478   3.10617   3.13006   3.17191   3.22617
 Alpha virt. eigenvalues --    3.25296   3.28865   3.30952   3.35174   3.40189
 Alpha virt. eigenvalues --    3.44453   3.47488   3.48423   3.49746   3.52704
 Alpha virt. eigenvalues --    3.61619   3.67103   3.70607   3.73814   3.79795
 Alpha virt. eigenvalues --    3.85041   3.96534   4.01286   4.13679   4.20884
 Alpha virt. eigenvalues --    4.21790   4.23893   4.30670   4.42259   4.48013
 Alpha virt. eigenvalues --    4.51970   4.70182   5.58974   5.62999   5.64153
 Alpha virt. eigenvalues --    5.66276   5.73844   5.89667   6.07480   6.17337
 Alpha virt. eigenvalues --    6.47087  24.65196  24.98377  25.02589  25.13284
 Alpha virt. eigenvalues --   25.81914  51.58415  51.60281  51.72572
  Beta  occ. eigenvalues --  -20.60774 -20.58586 -20.55684 -11.40844 -11.33538
  Beta  occ. eigenvalues --  -11.30007 -11.26398 -11.23379  -1.47597  -1.38381
  Beta  occ. eigenvalues --   -1.29783  -1.06680  -1.04889  -0.90470  -0.86152
  Beta  occ. eigenvalues --   -0.75375  -0.72016  -0.70026  -0.67910  -0.64879
  Beta  occ. eigenvalues --   -0.62839  -0.58115  -0.56874  -0.54613  -0.51365
  Beta  occ. eigenvalues --   -0.50821  -0.50110  -0.47431  -0.46177  -0.43015
  Beta virt. eigenvalues --    0.03289   0.03410   0.04579   0.06298   0.06572
  Beta virt. eigenvalues --    0.07222   0.08384   0.09908   0.11046   0.11600
  Beta virt. eigenvalues --    0.12666   0.13297   0.14068   0.14926   0.15582
  Beta virt. eigenvalues --    0.16686   0.17581   0.17661   0.17793   0.19296
  Beta virt. eigenvalues --    0.19656   0.19917   0.20241   0.21104   0.22041
  Beta virt. eigenvalues --    0.22645   0.23768   0.24161   0.25986   0.27645
  Beta virt. eigenvalues --    0.30158   0.30826   0.31520   0.32258   0.33526
  Beta virt. eigenvalues --    0.34959   0.36085   0.36583   0.38244   0.38702
  Beta virt. eigenvalues --    0.40618   0.41420   0.41802   0.42820   0.43658
  Beta virt. eigenvalues --    0.44653   0.45353   0.46296   0.46937   0.47679
  Beta virt. eigenvalues --    0.50951   0.52478   0.54176   0.57235   0.59989
  Beta virt. eigenvalues --    0.61888   0.62102   0.64689   0.65573   0.70814
  Beta virt. eigenvalues --    0.73110   0.74513   0.77317   0.80016   0.80898
  Beta virt. eigenvalues --    0.83430   0.84404   0.85106   0.86811   0.87295
  Beta virt. eigenvalues --    0.87968   0.88718   0.92544   0.93961   0.94921
  Beta virt. eigenvalues --    0.96881   0.98515   1.02078   1.07059   1.08745
  Beta virt. eigenvalues --    1.17189   1.17847   1.22249   1.23507   1.28405
  Beta virt. eigenvalues --    1.35055   1.36292   1.37311   1.41760   1.44709
  Beta virt. eigenvalues --    1.46268   1.48805   1.49997   1.50752   1.53775
  Beta virt. eigenvalues --    1.55098   1.56938   1.59068   1.61036   1.63598
  Beta virt. eigenvalues --    1.68553   1.70265   1.71020   1.71760   1.77930
  Beta virt. eigenvalues --    1.80385   1.80781   1.82731   1.85196   1.85787
  Beta virt. eigenvalues --    1.88898   1.89770   1.93121   1.93960   1.94937
  Beta virt. eigenvalues --    1.99423   2.01857   2.03247   2.07767   2.11657
  Beta virt. eigenvalues --    2.14868   2.16590   2.17652   2.26375   2.30130
  Beta virt. eigenvalues --    2.34042   2.38421   2.38651   2.42783   2.49098
  Beta virt. eigenvalues --    2.50520   2.59100   2.63427   2.66923   2.79409
  Beta virt. eigenvalues --    2.81549   2.83856   2.85241   2.89101   2.92454
  Beta virt. eigenvalues --    2.93426   2.94007   2.95904   3.00181   3.02976
  Beta virt. eigenvalues --    3.05008   3.10428   3.10803   3.14729   3.21020
  Beta virt. eigenvalues --    3.22700   3.25031   3.28950   3.31338   3.34347
  Beta virt. eigenvalues --    3.44319   3.45047   3.47868   3.49821   3.50775
  Beta virt. eigenvalues --    3.56548   3.62107   3.67095   3.70312   3.74299
  Beta virt. eigenvalues --    3.79343   3.86831   3.96405   4.02498   4.13474
  Beta virt. eigenvalues --    4.20904   4.21791   4.23865   4.32561   4.42242
  Beta virt. eigenvalues --    4.47773   4.51999   4.70208   5.59228   5.63172
  Beta virt. eigenvalues --    5.66249   5.69839   5.74614   5.89658   6.08913
  Beta virt. eigenvalues --    6.17241   6.47049  24.65121  24.98594  25.02625
  Beta virt. eigenvalues --   25.13286  25.82550  51.59067  51.60928  51.72396
          Condensed to atoms (all electrons):
               1          2          3          4          5          6
     1  C   10.288418   0.429421  -2.339239  -1.678402  -0.198479  -0.141751
     2  H    0.429421   0.406497  -0.094720   0.020141  -0.003523  -0.001751
     3  C   -2.339239  -0.094720   8.813928  -0.766400   0.081303  -0.127504
     4  C   -1.678402   0.020141  -0.766400   7.920626   0.477603   0.217058
     5  O   -0.198479  -0.003523   0.081303   0.477603   8.048567  -0.061808
     6  O   -0.141751  -0.001751  -0.127504   0.217058  -0.061808   8.183277
     7  C    0.175392  -0.008776  -0.154733  -0.104868  -0.024590   0.246972
     8  C   -0.128011   0.008066  -0.006963   0.118654   0.021044  -0.153793
     9  H   -0.043645   0.000142   0.017427  -0.021430   0.001849  -0.005328
    10  H    0.042178  -0.000594   0.029739  -0.047461  -0.002524  -0.077813
    11  H   -0.019070   0.000605  -0.016993   0.030854   0.000662  -0.008346
    12  H   -0.012649  -0.005578   0.078891  -0.056728   0.000322  -0.005393
    13  H    0.000078  -0.000261   0.014205  -0.015054   0.000187   0.015336
    14  O   -0.309724  -0.002929   0.416373  -0.157966  -0.006796   0.028451
    15  H   -0.010439  -0.000418  -0.008423   0.049989  -0.003912  -0.002889
               7          8          9         10         11         12
     1  C    0.175392  -0.128011  -0.043645   0.042178  -0.019070  -0.012649
     2  H   -0.008776   0.008066   0.000142  -0.000594   0.000605  -0.005578
     3  C   -0.154733  -0.006963   0.017427   0.029739  -0.016993   0.078891
     4  C   -0.104868   0.118654  -0.021430  -0.047461   0.030854  -0.056728
     5  O   -0.024590   0.021044   0.001849  -0.002524   0.000662   0.000322
     6  O    0.246972  -0.153793  -0.005328  -0.077813  -0.008346  -0.005393
     7  C    5.654476  -0.215343   0.402365   0.482104  -0.053301  -0.020516
     8  C   -0.215343   5.636707  -0.031801  -0.098987   0.447160   0.348000
     9  H    0.402365  -0.031801   0.522427  -0.034170  -0.003348  -0.000568
    10  H    0.482104  -0.098987  -0.034170   0.528679  -0.004243   0.010200
    11  H   -0.053301   0.447160  -0.003348  -0.004243   0.533116  -0.046796
    12  H   -0.020516   0.348000  -0.000568   0.010200  -0.046796   0.635596
    13  H   -0.057072   0.414540  -0.001026  -0.001673  -0.030547  -0.037059
    14  O   -0.050982   0.023108   0.007385  -0.007680  -0.000214  -0.001458
    15  H    0.003307  -0.000812  -0.005222   0.000560   0.000281  -0.000201
              13         14         15
     1  C    0.000078  -0.309724  -0.010439
     2  H   -0.000261  -0.002929  -0.000418
     3  C    0.014205   0.416373  -0.008423
     4  C   -0.015054  -0.157966   0.049989
     5  O    0.000187  -0.006796  -0.003912
     6  O    0.015336   0.028451  -0.002889
     7  C   -0.057072  -0.050982   0.003307
     8  C    0.414540   0.023108  -0.000812
     9  H   -0.001026   0.007385  -0.005222
    10  H   -0.001673  -0.007680   0.000560
    11  H   -0.030547  -0.000214   0.000281
    12  H   -0.037059  -0.001458  -0.000201
    13  H    0.566130   0.000336  -0.000328
    14  O    0.000336   8.052373   0.257119
    15  H   -0.000328   0.257119   0.452404
          Atomic-Atomic Spin Densities.
               1          2          3          4          5          6
     1  C    2.189184   0.037096  -0.361548  -0.023622   0.006869  -0.008021
     2  H    0.037096  -0.080963  -0.042608  -0.008290  -0.000016  -0.000215
     3  C   -0.361548  -0.042608  -0.913776   0.089962   0.006355   0.027580
     4  C   -0.023622  -0.008290   0.089962   0.046529   0.009349  -0.044779
     5  O    0.006869  -0.000016   0.006355   0.009349  -0.096921  -0.000736
     6  O   -0.008021  -0.000215   0.027580  -0.044779  -0.000736   0.031530
     7  C   -0.022631  -0.001723   0.002054   0.005849   0.002651  -0.007200
     8  C    0.004831   0.000979  -0.012517   0.011299  -0.001350   0.002348
     9  H    0.010672   0.000382   0.017116  -0.003721   0.000138   0.000740
    10  H   -0.004073  -0.000138  -0.004882   0.009961   0.000279  -0.001490
    11  H   -0.000077  -0.000083   0.004317  -0.004476  -0.000060   0.000137
    12  H   -0.008769  -0.001293   0.009212   0.003183  -0.000187  -0.000352
    13  H    0.001934   0.000241  -0.001704  -0.000758   0.000016   0.000129
    14  O   -0.255924  -0.007142   0.146784   0.078409   0.001527  -0.000995
    15  H    0.029063   0.000598  -0.021307  -0.007793  -0.000018   0.000366
               7          8          9         10         11         12
     1  C   -0.022631   0.004831   0.010672  -0.004073  -0.000077  -0.008769
     2  H   -0.001723   0.000979   0.000382  -0.000138  -0.000083  -0.001293
     3  C    0.002054  -0.012517   0.017116  -0.004882   0.004317   0.009212
     4  C    0.005849   0.011299  -0.003721   0.009961  -0.004476   0.003183
     5  O    0.002651  -0.001350   0.000138   0.000279  -0.000060  -0.000187
     6  O   -0.007200   0.002348   0.000740  -0.001490   0.000137  -0.000352
     7  C    0.007231   0.003713  -0.008203   0.004208  -0.001662  -0.001654
     8  C    0.003713  -0.004868   0.000744  -0.003133   0.001463  -0.000161
     9  H   -0.008203   0.000744   0.002201  -0.002013   0.000491  -0.000260
    10  H    0.004208  -0.003133  -0.002013   0.000283   0.000499   0.000104
    11  H   -0.001662   0.001463   0.000491   0.000499  -0.000557   0.000230
    12  H   -0.001654  -0.000161  -0.000260   0.000104   0.000230   0.001546
    13  H    0.000488  -0.000474   0.000228  -0.000421  -0.000016  -0.000335
    14  O    0.010954  -0.004511  -0.014117  -0.000558   0.000355   0.001795
    15  H   -0.001047   0.000130   0.000900   0.000042  -0.000004  -0.000173
              13         14         15
     1  C    0.001934  -0.255924   0.029063
     2  H    0.000241  -0.007142   0.000598
     3  C   -0.001704   0.146784  -0.021307
     4  C   -0.000758   0.078409  -0.007793
     5  O    0.000016   0.001527  -0.000018
     6  O    0.000129  -0.000995   0.000366
     7  C    0.000488   0.010954  -0.001047
     8  C   -0.000474  -0.004511   0.000130
     9  H    0.000228  -0.014117   0.000900
    10  H   -0.000421  -0.000558   0.000042
    11  H   -0.000016   0.000355  -0.000004
    12  H   -0.000335   0.001795  -0.000173
    13  H    0.000329  -0.000535   0.000019
    14  O   -0.000535   0.534971   0.004748
    15  H    0.000019   0.004748  -0.024245
 Mulliken charges and spin densities:
               1          2
     1  C   -0.054078   1.594984
     2  H    0.253676  -0.103175
     3  C    0.063109  -1.054961
     4  C    0.013384   0.161101
     5  O   -0.329905  -0.072106
     6  O   -0.104720  -0.000957
     7  C   -0.274436  -0.006971
     8  C   -0.381571  -0.001507
     9  H    0.194943   0.005299
    10  H    0.181686  -0.001332
    11  H    0.170180   0.000557
    12  H    0.113938   0.002888
    13  H    0.132208  -0.000858
    14  O   -0.247395   0.495761
    15  H    0.268983  -0.018723
 Sum of Mulliken charges =  -0.00000   1.00000
 Mulliken charges and spin densities with hydrogens summed into heavy atoms:
               1          2
     1  C    0.199598   1.491809
     3  C    0.063109  -1.054961
     4  C    0.013384   0.161101
     5  O   -0.329905  -0.072106
     6  O   -0.104720  -0.000957
     7  C    0.102192  -0.003004
     8  C    0.034754   0.001080
    14  O    0.021588   0.477038
 Electronic spatial extent (au):  <R**2>=            965.6067
 Charge=             -0.0000 electrons
 Dipole moment (field-independent basis, Debye):
    X=             -0.5304    Y=             -4.6199    Z=             -0.7511  Tot=              4.7105
 Quadrupole moment (field-independent basis, Debye-Ang):
   XX=            -39.6337   YY=            -52.9941   ZZ=            -47.3753
   XY=             -4.6734   XZ=             -0.3696   YZ=              5.0082
 Traceless Quadrupole moment (field-independent basis, Debye-Ang):
   XX=              7.0340   YY=             -6.3264   ZZ=             -0.7076
   XY=             -4.6734   XZ=             -0.3696   YZ=              5.0082
 Octapole moment (field-independent basis, Debye-Ang**2):
  XXX=             11.6619  YYY=            -18.2358  ZZZ=              3.5626  XYY=              0.9149
  XXY=            -11.2742  XXZ=             11.0894  XZZ=              2.3182  YZZ=             -1.4760
  YYZ=             -3.8131  XYZ=              9.4347
 Hexadecapole moment (field-independent basis, Debye-Ang**3):
 XXXX=           -587.8298 YYYY=           -378.2167 ZZZZ=           -229.0166 XXXY=            -23.6503
 XXXZ=             23.5888 YYYX=            -28.9042 YYYZ=             22.8080 ZZZX=             -0.0116
 ZZZY=              4.9218 XXYY=           -162.8288 XXZZ=           -130.3051 YYZZ=            -91.6767
 XXYZ=              5.9453 YYXZ=             -9.7298 ZZXY=            -11.3876
 N-N= 3.689264404584D+02 E-N=-1.720491922743D+03  KE= 4.175331492226D+02
 1\1\GINC-AJ\SP\UCCSD(T)-FC\6-311++G(d,p)\C5H7O3(2)\AAYUSH\12-May-2025\
 0\\# ccsd(t)/6-311++g(d,p) sp\\Title Card Required\\0,2\C,0,1.286355,-
 1.410039,-1.16344\H,0,1.655086,-2.293053,-1.63643\C,0,0.953375,-0.5113
 57,-0.341487\C,0,0.357859,0.868963,-0.198522\O,0,0.96769,1.848536,-0.5
 03386\O,0,-0.831514,0.925642,0.389567\C,0,-1.577308,-0.27436,0.674884\
 C,0,-2.421667,-0.670876,-0.519408\H,0,-0.899235,-1.067034,0.99161\H,0,
 -2.198765,-0.000875,1.526065\H,0,-3.0748,0.151873,-0.813041\H,0,-1.793
 591,-0.940654,-1.371367\H,0,-3.039636,-1.534143,-0.264154\O,0,1.358615
 ,-0.871676,1.292721\H,0,2.313501,-0.724242,1.288709\\Version=ES64L-G16
 RevA.03\State=2-A\HF=-417.9738168\MP2=-419.2426484\MP3=-419.2697068\MP
 4D=-419.3010845\MP4DQ=-419.2762898\PUHF=-417.9992215\PMP2-0=-419.26486
 04\PMP3-0=-419.2867889\MP4SDQ=-419.2987136\CCSD=-419.3049818\CCSD(T)=-
 419.3604165\S2=1.047464\S2-1=0.963475\S2A=0.812304\RMSD=3.809e-09\PG=C
 01 [X(C5H7O3)]\\@


 IF YOU PERCEIVE THAT THERE ARE FOUR POSSIBLE WAYS IN
 WHICH A PROCEDURE CAN GO WRONG AND CIRCUMVENT THESE, 
 THEN A FIFTH WAY WILL DEVELOP.

                              -- MURPHY'S TWELFTH LAW
 Job cpu time:       0 days 16 hours 41 minutes 43.4 seconds.
 Elapsed time:       0 days  0 hours 41 minutes 51.8 seconds.
 File lengths (MBytes):  RWF=  44733 Int=      0 D2E=      0 Chk=      6 Scr=      1
 Normal termination of Gaussian 16 at Mon May 12 01:34:54 2025.
