 Entering Gaussian System, Link 0=g16
 Initial command:
 /opt/g16/l1.exe "/home/aayush/scratches/g16/Gau-9577.inp" -scrdir="/home/aayush/scratches/g16/"
 Entering Link 1 = /opt/g16/l1.exe PID=      9580.
  
 Copyright (c) 1988,1990,1992,1993,1995,1998,2003,2009,2016,
            Gaussian, Inc.  All Rights Reserved.
  
 This is part of the Gaussian(R) 16 program.  It is based on
 the Gaussian(R) 09 system (copyright 2009, Gaussian, Inc.),
 the Gaussian(R) 03 system (copyright 2003, Gaussian, Inc.),
 the Gaussian(R) 98 system (copyright 1998, Gaussian, Inc.),
 the Gaussian(R) 94 system (copyright 1995, Gaussian, Inc.),
 the Gaussian 92(TM) system (copyright 1992, Gaussian, Inc.),
 the Gaussian 90(TM) system (copyright 1990, Gaussian, Inc.),
 the Gaussian 88(TM) system (copyright 1988, Gaussian, Inc.),
 the Gaussian 86(TM) system (copyright 1986, Carnegie Mellon
 University), and the Gaussian 82(TM) system (copyright 1983,
 Carnegie Mellon University). Gaussian is a federally registered
 trademark of Gaussian, Inc.
  
 This software contains proprietary and confidential information,
 including trade secrets, belonging to Gaussian, Inc.
  
 This software is provided under written license and may be
 used, copied, transmitted, or stored only in accord with that
 written license.
  
 The following legend is applicable only to US Government
 contracts under FAR:
  
                    RESTRICTED RIGHTS LEGEND
  
 Use, reproduction and disclosure by the US Government is
 subject to restrictions as set forth in subparagraphs (a)
 and (c) of the Commercial Computer Software - Restricted
 Rights clause in FAR 52.227-19.
  
 Gaussian, Inc.
 340 Quinnipiac St., Bldg. 40, Wallingford CT 06492
  
  
 ---------------------------------------------------------------
 Warning -- This program may not be used in any manner that
 competes with the business of Gaussian, Inc. or will provide
 assistance to any competitor of Gaussian, Inc.  The licensee
 of this program is prohibited from giving any competitor of
 Gaussian, Inc. access to this program.  By using this program,
 the user acknowledges that Gaussian, Inc. is engaged in the
 business of creating and licensing software in the field of
 computational chemistry and represents and warrants to the
 licensee that it is not a competitor of Gaussian, Inc. and that
 it will not use this program in any manner prohibited above.
 ---------------------------------------------------------------
  

 Cite this work as:
 Gaussian 16, Revision A.03,
 M. J. Frisch, G. W. Trucks, H. B. Schlegel, G. E. Scuseria, 
 M. A. Robb, J. R. Cheeseman, G. Scalmani, V. Barone, 
 G. A. Petersson, H. Nakatsuji, X. Li, M. Caricato, A. V. Marenich, 
 J. Bloino, B. G. Janesko, R. Gomperts, B. Mennucci, H. P. Hratchian, 
 J. V. Ortiz, A. F. Izmaylov, J. L. Sonnenberg, D. Williams-Young, 
 F. Ding, F. Lipparini, F. Egidi, J. Goings, B. Peng, A. Petrone, 
 T. Henderson, D. Ranasinghe, V. G. Zakrzewski, J. Gao, N. Rega, 
 G. Zheng, W. Liang, M. Hada, M. Ehara, K. Toyota, R. Fukuda, 
 J. Hasegawa, M. Ishida, T. Nakajima, Y. Honda, O. Kitao, H. Nakai, 
 T. Vreven, K. Throssell, J. A. Montgomery, Jr., J. E. Peralta, 
 F. Ogliaro, M. J. Bearpark, J. J. Heyd, E. N. Brothers, K. N. Kudin, 
 V. N. Staroverov, T. A. Keith, R. Kobayashi, J. Normand, 
 K. Raghavachari, A. P. Rendell, J. C. Burant, S. S. Iyengar, 
 J. Tomasi, M. Cossi, J. M. Millam, M. Klene, C. Adamo, R. Cammi, 
 J. W. Ochterski, R. L. Martin, K. Morokuma, O. Farkas, 
 J. B. Foresman, and D. J. Fox, Gaussian, Inc., Wallingford CT, 2016.
 
 ******************************************
 Gaussian 16:  ES64L-G16RevA.03 25-Dec-2016
                12-May-2025 
 ******************************************
 %chk=ethyl_propiolate.chk
 %nprocshared=24
 Will use up to   24 processors via shared memory.
 %mem=12GB
 --------------------------
 # ccsd(t)/6-311++g(d,p) sp
 --------------------------
 1/38=1,172=1/1;
 2/12=2,17=6,18=5,40=1/2;
 3/5=4,6=6,7=1111,11=9,25=1,30=1/1,2,3;
 4//1;
 5/5=2,38=5/2;
 8/6=4,9=120000,10=2/1,4;
 9/5=7,14=2/13;
 6/7=2,8=2,9=2,10=2/1;
 99/5=1,9=1/99;
 -------------------
 Title Card Required
 -------------------
 Symbolic Z-matrix:
 Charge =  0 Multiplicity = 2
 C                     1.29372  -1.42204  -1.15044 
 H                     1.65737  -2.29522  -1.64207 
 C                     0.91438  -0.48263  -0.46042 
 C                     0.35541   0.87271  -0.2017 
 O                     0.96881   1.85244  -0.49868 
 O                    -0.82996   0.92507   0.39194 
 C                    -1.576    -0.27522   0.67432 
 C                    -2.42207  -0.67057  -0.51951 
 H                    -0.89429  -1.06718   0.9857 
 H                    -2.1964   -0.00333   1.52677 
 H                    -3.07588   0.15216  -0.81174 
 H                    -1.79583  -0.94054  -1.37225 
 H                    -3.03979  -1.53372  -0.26322 
 O                     1.37917  -0.88916   1.36745 
 H                     2.33368  -0.733     1.30707 
 
                          Input orientation:                          
 ---------------------------------------------------------------------
 Center     Atomic      Atomic             Coordinates (Angstroms)
 Number     Number       Type             X           Y           Z
 ---------------------------------------------------------------------
      1          6           0        1.293723   -1.422037   -1.150439
      2          1           0        1.657368   -2.295221   -1.642067
      3          6           0        0.914378   -0.482632   -0.460415
      4          6           0        0.355414    0.872710   -0.201696
      5          8           0        0.968810    1.852443   -0.498678
      6          8           0       -0.829961    0.925070    0.391935
      7          6           0       -1.576003   -0.275217    0.674315
      8          6           0       -2.422066   -0.670574   -0.519512
      9          1           0       -0.894288   -1.067183    0.985700
     10          1           0       -2.196405   -0.003328    1.526767
     11          1           0       -3.075880    0.152164   -0.811737
     12          1           0       -1.795834   -0.940539   -1.372252
     13          1           0       -3.039794   -1.533721   -0.263223
     14          8           0        1.379174   -0.889158    1.367445
     15          1           0        2.333681   -0.732998    1.307072
 ---------------------------------------------------------------------
                    Distance matrix (angstroms):
                    1          2          3          4          5
     1  C    0.000000
     2  H    1.066014   0.000000
     3  C    1.225772   2.287753   0.000000
     4  C    2.654506   3.715581   1.488734   0.000000
     5  O    3.354487   4.357128   2.336023   1.193453   0.000000
     6  O    3.521060   4.549093   2.398092   1.326745   2.211061
     7  C    3.588907   4.461023   2.744564   2.411535   3.518369
     8  C    3.843157   4.532261   3.342256   3.193294   4.226593
     9  H    3.078377   3.863183   2.388351   2.595159   3.768120
    10  H    4.621814   5.490524   3.722311   3.204186   4.191050
    11  H    4.656851   5.392845   4.055681   3.558808   4.398690
    12  H    3.134710   3.719216   2.895924   3.047284   4.025809
    13  H    4.424816   4.954233   4.096236   4.161987   5.252661
    14  O    2.575073   3.333402   1.929345   2.571861   3.341735
    15  H    2.756020   3.405196   2.280595   2.961118   3.436293
                    6          7          8          9         10
     6  O    0.000000
     7  C    1.441182   0.000000
     8  C    2.431381   1.515702   0.000000
     9  H    2.079848   1.090370   2.181070   0.000000
    10  H    2.004229   1.088805   2.164116   1.766366   0.000000
    11  H    2.662773   2.154214   1.090764   3.078462   2.503249
    12  H    2.743312   2.163196   1.091885   2.527600   3.072968
    13  H    3.370200   2.146041   1.091922   2.525997   2.501494
    14  O    3.020483   3.096841   4.249448   2.312153   3.687119
    15  H    3.687180   3.986925   5.094844   3.261095   4.593731
                   11         12         13         14         15
    11  H    0.000000
    12  H    1.773893   0.000000
    13  H    1.773239   1.768968   0.000000
    14  O    5.067612   4.193955   4.754137   0.000000
    15  H    5.876752   4.926941   5.655194   0.969079   0.000000
 Stoichiometry    C5H7O3(2)
 Framework group  C1[X(C5H7O3)]
 Deg. of freedom    39
 Full point group                 C1      NOp   1
 Largest Abelian subgroup         C1      NOp   1
 Largest concise Abelian subgroup C1      NOp   1
                         Standard orientation:                         
 ---------------------------------------------------------------------
 Center     Atomic      Atomic             Coordinates (Angstroms)
 Number     Number       Type             X           Y           Z
 ---------------------------------------------------------------------
      1          6           0        1.352090   -1.378260   -1.136570
      2          1           0        1.715964   -2.254742   -1.622123
      3          6           0        0.972047   -0.434392   -0.453052
      4          6           0        0.414138    0.923145   -0.203737
      5          8           0        1.029646    1.900350   -0.504652
      6          8           0       -0.772824    0.980471    0.386254
      7          6           0       -1.521225   -0.217197    0.673469
      8          6           0       -2.364462   -0.618353   -0.520423
      9          1           0       -0.841423   -1.008232    0.991336
     10          1           0       -2.143653    0.060418    1.522592
     11          1           0       -3.016377    0.203527   -0.819230
     12          1           0       -1.736201   -0.894054   -1.369829
     13          1           0       -2.984035   -1.479204   -0.260886
     14          8           0        1.431193   -0.830946    1.378423
     15          1           0        2.386069   -0.676373    1.319827
 ---------------------------------------------------------------------
 Rotational constants (GHZ):           2.4259669           1.6929079           1.4096838
 Standard basis: 6-311++G(d,p) (5D, 7F)
 There are   233 symmetry adapted cartesian basis functions of A   symmetry.
 There are   225 symmetry adapted basis functions of A   symmetry.
   225 basis functions,   351 primitive gaussians,   233 cartesian basis functions
    31 alpha electrons       30 beta electrons
       nuclear repulsion energy       366.8424580925 Hartrees.
 NAtoms=   15 NActive=   15 NUniq=   15 SFac= 1.00D+00 NAtFMM=   60 NAOKFM=F Big=F
 Integral buffers will be    131072 words long.
 Raffenetti 2 integral format.
 Two-electron integral symmetry is turned on.
 One-electron integrals computed using PRISM.
 NBasis=   225 RedAO= T EigKep=  3.86D-06  NBF=   225
 NBsUse=   225 1.00D-06 EigRej= -1.00D+00 NBFU=   225
 ExpMin= 3.60D-02 ExpMax= 8.59D+03 ExpMxC= 1.30D+03 IAcc=3 IRadAn=         5 AccDes= 0.00D+00
 Harris functional with IExCor=  205 and IRadAn=       5 diagonalized for initial guess.
 HarFok:  IExCor=  205 AccDes= 0.00D+00 IRadAn=         5 IDoV= 1 UseB2=F ITyADJ=14
 ICtDFT=  3500011 ScaDFX=  1.000000  1.000000  1.000000  1.000000
 FoFCou: FMM=F IPFlag=           0 FMFlag=      100000 FMFlg1=           0
         NFxFlg=           0 DoJE=T BraDBF=F KetDBF=T FulRan=T
         wScrn=  0.000000 ICntrl=       500 IOpCl=  0 I1Cent=   200000004 NGrid=           0
         NMat0=    1 NMatS0=      1 NMatT0=    0 NMatD0=    1 NMtDS0=    0 NMtDT0=    0
 Petite list used in FoFCou.
 Initial guess <Sx>= 0.0000 <Sy>= 0.0000 <Sz>= 0.5000 <S**2>= 0.7500 S= 0.5000
 Requested convergence on RMS density matrix=1.00D-08 within 128 cycles.
 Requested convergence on MAX density matrix=1.00D-06.
 Requested convergence on             energy=1.00D-06.
 No special actions if energy rises.
 Initial convergence to 1.0D-05 achieved.  Increase integral accuracy.
 SCF Done:  E(UHF) =  -417.967660348     A.U. after   34 cycles
            NFock= 34  Conv=0.77D-08     -V/T= 2.0006
 <Sx>= 0.0000 <Sy>= 0.0000 <Sz>= 0.5000 <S**2>= 1.0677 S= 0.6479
 <L.S>=  0.00000000000    
 Annihilation of the first spin contaminant:
 S**2 before annihilation     1.0677,   after     0.8153
 ExpMin= 3.60D-02 ExpMax= 8.59D+03 ExpMxC= 1.30D+03 IAcc=3 IRadAn=         5 AccDes= 0.00D+00
 HarFok:  IExCor=  205 AccDes= 0.00D+00 IRadAn=         5 IDoV=-2 UseB2=F ITyADJ=14
 ICtDFT= 12500011 ScaDFX=  1.000000  1.000000  1.000000  1.000000
 Range of M.O.s used for correlation:     9   225
 NBasis=   225 NAE=    31 NBE=    30 NFC=     8 NFV=     0
 NROrb=    217 NOA=    23 NOB=    22 NVA=   194 NVB=   195

 **** Warning!!: The largest alpha MO coefficient is  0.16075139D+03


 **** Warning!!: The largest beta MO coefficient is  0.13248797D+03

 Semi-Direct transformation.
 ModeAB=           4 MOrb=            23 LenV=    1609169168
 LASXX=    109339976 LTotXX=   109339976 LenRXX=   221407890
 LTotAB=   112067914 MaxLAS=   132550978 LenRXY=           0
 NonZer=   330747866 LenScr=   498067456 LnRSAI=   132550978
 LnScr1=   199606272 LExtra=           0 Total=   1051632596
 MaxDsk=          -1 SrtSym=           T ITran=            4
 JobTyp=1 Pass  1:  I=   1 to  23.
 (rs|ai) integrals will be sorted in core.
 ModeAB=           4 MOrb=            22 LenV=    1609169168
 LASXX=    104936601 LTotXX=   104936601 LenRXX=   190867446
 LTotAB=    85930845 MaxLAS=   126787892 LenRXY=           0
 NonZer=   295804047 LenScr=   445446144 LnRSAI=   126787892
 LnScr1=   190943232 LExtra=           0 Total=    954044714
 MaxDsk=          -1 SrtSym=           T ITran=            4
 JobTyp=2 Pass  1:  I=   1 to  22.
 (rs|ai) integrals will be sorted in core.
 SymMOI:  orbitals are not symmetric.
 Spin components of T(2) and E(2):
     alpha-alpha T2 =       0.5236895457D-01 E2=     -0.1704735082D+00
     alpha-beta  T2 =       0.2810991244D+00 E2=     -0.9299593969D+00
     beta-beta   T2 =       0.5023505001D-01 E2=     -0.1584372813D+00
 ANorm=    0.1176309113D+01
 E2 =    -0.1258870186D+01 EUMP2 =    -0.41922653053494D+03
 (S**2,0)=  0.10677D+01           (S**2,1)=  0.98051D+00
 E(PUHF)=      -0.41799396969D+03        E(PMP2)=      -0.41924961904D+03
 Keep R2 and R3 ints in memory in canonical form, NReq=652884060.
 CIDS: In Core Option IDoMem=           1.
 Iterations=  50 Convergence= 0.100D-06
 Produce multiple copies of IABC intergrals
 Iteration Nr.   1
 **********************
 DD1Dir will call FoFMem   1 times, MxPair=      1496
 NAB=   506 NAA=   253 NBB=   231.
 E(PMP3)=      -0.41927394612D+03
 MP4(R+Q)=  0.24633729D-01
 E3=       -0.29756796D-01        EUMP3=      -0.41925628733D+03
 E4(DQ)=   -0.59115118D-02        UMP4(DQ)=   -0.41926219884D+03
 E4(SDQ)=  -0.28268871D-01        UMP4(SDQ)=  -0.41928455620D+03
 DE(Corr)=  -1.2637521     E(Corr)=     -419.23141244    
 NORM(A)=   0.11868825D+01
 Iteration Nr.   2
 **********************
 DD1Dir will call FoFMem   1 times, MxPair=      1496
 NAB=   506 NAA=   253 NBB=   231.
 DE(Corr)=  -1.3083907     E(CORR)=     -419.27605100     Delta=-4.46D-02
 NORM(A)=   0.12100846D+01
 Iteration Nr.   3
 **********************
 DD1Dir will call FoFMem   1 times, MxPair=      1496
 NAB=   506 NAA=   253 NBB=   231.
 DE(Corr)=  -1.3122743     E(CORR)=     -419.27993463     Delta=-3.88D-03
 NORM(A)=   0.12252430D+01
 Iteration Nr.   4
 **********************
 DD1Dir will call FoFMem   1 times, MxPair=      1496
 NAB=   506 NAA=   253 NBB=   231.
 DE(Corr)=  -1.3209248     E(CORR)=     -419.28858514     Delta=-8.65D-03
 NORM(A)=   0.12355403D+01
 Iteration Nr.   5
 **********************
 DD1Dir will call FoFMem   1 times, MxPair=      1496
 NAB=   506 NAA=   253 NBB=   231.
 DE(Corr)=  -1.3236470     E(CORR)=     -419.29130738     Delta=-2.72D-03
 NORM(A)=   0.12401841D+01
 Iteration Nr.   6
 **********************
 DD1Dir will call FoFMem   1 times, MxPair=      1496
 NAB=   506 NAA=   253 NBB=   231.
 DE(Corr)=  -1.3244314     E(CORR)=     -419.29209176     Delta=-7.84D-04
 NORM(A)=   0.12408972D+01
 Iteration Nr.   7
 **********************
 DD1Dir will call FoFMem   1 times, MxPair=      1496
 NAB=   506 NAA=   253 NBB=   231.
 DE(Corr)=  -1.3245342     E(CORR)=     -419.29219454     Delta=-1.03D-04
 NORM(A)=   0.12410266D+01
 Iteration Nr.   8
 **********************
 DD1Dir will call FoFMem   1 times, MxPair=      1496
 NAB=   506 NAA=   253 NBB=   231.
 DE(Corr)=  -1.3245110     E(CORR)=     -419.29217131     Delta= 2.32D-05
 NORM(A)=   0.12410449D+01
 Iteration Nr.   9
 **********************
 DD1Dir will call FoFMem   1 times, MxPair=      1496
 NAB=   506 NAA=   253 NBB=   231.
 DE(Corr)=  -1.3245257     E(CORR)=     -419.29218600     Delta=-1.47D-05
 NORM(A)=   0.12410083D+01
 Iteration Nr.  10
 **********************
 DD1Dir will call FoFMem   1 times, MxPair=      1496
 NAB=   506 NAA=   253 NBB=   231.
 DE(Corr)=  -1.3245036     E(CORR)=     -419.29216390     Delta= 2.21D-05
 NORM(A)=   0.12410007D+01
 Iteration Nr.  11
 **********************
 DD1Dir will call FoFMem   1 times, MxPair=      1496
 NAB=   506 NAA=   253 NBB=   231.
 DE(Corr)=  -1.3245244     E(CORR)=     -419.29218479     Delta=-2.09D-05
 NORM(A)=   0.12410600D+01
 Iteration Nr.  12
 **********************
 DD1Dir will call FoFMem   1 times, MxPair=      1496
 NAB=   506 NAA=   253 NBB=   231.
 DE(Corr)=  -1.3245277     E(CORR)=     -419.29218807     Delta=-3.28D-06
 NORM(A)=   0.12411582D+01
 Iteration Nr.  13
 **********************
 DD1Dir will call FoFMem   1 times, MxPair=      1496
 NAB=   506 NAA=   253 NBB=   231.
 DE(Corr)=  -1.3245490     E(CORR)=     -419.29220934     Delta=-2.13D-05
 NORM(A)=   0.12412571D+01
 Iteration Nr.  14
 **********************
 DD1Dir will call FoFMem   1 times, MxPair=      1496
 NAB=   506 NAA=   253 NBB=   231.
 DE(Corr)=  -1.3245674     E(CORR)=     -419.29222774     Delta=-1.84D-05
 NORM(A)=   0.12413246D+01
 Iteration Nr.  15
 **********************
 DD1Dir will call FoFMem   1 times, MxPair=      1496
 NAB=   506 NAA=   253 NBB=   231.
 DE(Corr)=  -1.3245773     E(CORR)=     -419.29223770     Delta=-9.96D-06
 NORM(A)=   0.12413591D+01
 Iteration Nr.  16
 **********************
 DD1Dir will call FoFMem   1 times, MxPair=      1496
 NAB=   506 NAA=   253 NBB=   231.
 DE(Corr)=  -1.3245848     E(CORR)=     -419.29224512     Delta=-7.43D-06
 NORM(A)=   0.12413684D+01
 Iteration Nr.  17
 **********************
 DD1Dir will call FoFMem   1 times, MxPair=      1496
 NAB=   506 NAA=   253 NBB=   231.
 DE(Corr)=  -1.3245848     E(CORR)=     -419.29224519     Delta=-6.55D-08
 NORM(A)=   0.12413671D+01
 Iteration Nr.  18
 **********************
 DD1Dir will call FoFMem   1 times, MxPair=      1496
 NAB=   506 NAA=   253 NBB=   231.
 DE(Corr)=  -1.3245845     E(CORR)=     -419.29224485     Delta= 3.41D-07
 NORM(A)=   0.12413627D+01
 Iteration Nr.  19
 **********************
 DD1Dir will call FoFMem   1 times, MxPair=      1496
 NAB=   506 NAA=   253 NBB=   231.
 DE(Corr)=  -1.3245831     E(CORR)=     -419.29224343     Delta= 1.42D-06
 NORM(A)=   0.12413594D+01
 Iteration Nr.  20
 **********************
 DD1Dir will call FoFMem   1 times, MxPair=      1496
 NAB=   506 NAA=   253 NBB=   231.
 DE(Corr)=  -1.3245822     E(CORR)=     -419.29224254     Delta= 8.85D-07
 NORM(A)=   0.12413568D+01
 Iteration Nr.  21
 **********************
 DD1Dir will call FoFMem   1 times, MxPair=      1496
 NAB=   506 NAA=   253 NBB=   231.
 DE(Corr)=  -1.3245815     E(CORR)=     -419.29224182     Delta= 7.24D-07
 NORM(A)=   0.12413573D+01
 Iteration Nr.  22
 **********************
 DD1Dir will call FoFMem   1 times, MxPair=      1496
 NAB=   506 NAA=   253 NBB=   231.
 DE(Corr)=  -1.3245814     E(CORR)=     -419.29224177     Delta= 4.66D-08
 NORM(A)=   0.12413598D+01
 Wavefunction amplitudes converged. E(Corr)=     -419.29224177    
 Largest amplitude= 6.27D-02
 Time for triples=    35900.08 seconds.
 T4(CCSD)= -0.59651141D-01
 T5(CCSD)=  0.44071014D-02
 CCSD(T)= -0.41934748581D+03

 S**2, projected HF & approx projected MPn energies after annihilation of
 unwanted spin states (see manual for definitions):

 spins       (S**2,0) (S**2,1)    PUHF        PMP2        PMP3        PMP4
 annihilated
 s+1         0.71168  0.73505 -417.993970 -419.249619 -419.273946
 s+1,s+2     0.75083  0.74988 -417.991423 -419.247194 -419.271686
 s+1 to s+3  0.74999  0.75001 -417.991488 -419.247242 -419.271706
 s+1 to s+4  0.75000  0.75000 -417.991488 -419.247241 -419.271705
 s+1 to s+5  0.75000  0.75000 -417.991488
 s+1 to s+6  0.75000  0.75000 -417.991488

 Discarding MO integrals.

 **********************************************************************

            Population analysis using the SCF density.

 **********************************************************************

 Orbital symmetries:
 Alpha Orbitals:
       Occupied  (A) (A) (A) (A) (A) (A) (A) (A) (A) (A) (A) (A)
                 (A) (A) (A) (A) (A) (A) (A) (A) (A) (A) (A) (A)
                 (A) (A) (A) (A) (A) (A) (A)
       Virtual   (A) (A) (A) (A) (A) (A) (A) (A) (A) (A) (A) (A)
                 (A) (A) (A) (A) (A) (A) (A) (A) (A) (A) (A) (A)
                 (A) (A) (A) (A) (A) (A) (A) (A) (A) (A) (A) (A)
                 (A) (A) (A) (A) (A) (A) (A) (A) (A) (A) (A) (A)
                 (A) (A) (A) (A) (A) (A) (A) (A) (A) (A) (A) (A)
                 (A) (A) (A) (A) (A) (A) (A) (A) (A) (A) (A) (A)
                 (A) (A) (A) (A) (A) (A) (A) (A) (A) (A) (A) (A)
                 (A) (A) (A) (A) (A) (A) (A) (A) (A) (A) (A) (A)
                 (A) (A) (A) (A) (A) (A) (A) (A) (A) (A) (A) (A)
                 (A) (A) (A) (A) (A) (A) (A) (A) (A) (A) (A) (A)
                 (A) (A) (A) (A) (A) (A) (A) (A) (A) (A) (A) (A)
                 (A) (A) (A) (A) (A) (A) (A) (A) (A) (A) (A) (A)
                 (A) (A) (A) (A) (A) (A) (A) (A) (A) (A) (A) (A)
                 (A) (A) (A) (A) (A) (A) (A) (A) (A) (A) (A) (A)
                 (A) (A) (A) (A) (A) (A) (A) (A) (A) (A) (A) (A)
                 (A) (A) (A) (A) (A) (A) (A) (A) (A) (A) (A) (A)
                 (A) (A)
 Beta  Orbitals:
       Occupied  (A) (A) (A) (A) (A) (A) (A) (A) (A) (A) (A) (A)
                 (A) (A) (A) (A) (A) (A) (A) (A) (A) (A) (A) (A)
                 (A) (A) (A) (A) (A) (A)
       Virtual   (A) (A) (A) (A) (A) (A) (A) (A) (A) (A) (A) (A)
                 (A) (A) (A) (A) (A) (A) (A) (A) (A) (A) (A) (A)
                 (A) (A) (A) (A) (A) (A) (A) (A) (A) (A) (A) (A)
                 (A) (A) (A) (A) (A) (A) (A) (A) (A) (A) (A) (A)
                 (A) (A) (A) (A) (A) (A) (A) (A) (A) (A) (A) (A)
                 (A) (A) (A) (A) (A) (A) (A) (A) (A) (A) (A) (A)
                 (A) (A) (A) (A) (A) (A) (A) (A) (A) (A) (A) (A)
                 (A) (A) (A) (A) (A) (A) (A) (A) (A) (A) (A) (A)
                 (A) (A) (A) (A) (A) (A) (A) (A) (A) (A) (A) (A)
                 (A) (A) (A) (A) (A) (A) (A) (A) (A) (A) (A) (A)
                 (A) (A) (A) (A) (A) (A) (A) (A) (A) (A) (A) (A)
                 (A) (A) (A) (A) (A) (A) (A) (A) (A) (A) (A) (A)
                 (A) (A) (A) (A) (A) (A) (A) (A) (A) (A) (A) (A)
                 (A) (A) (A) (A) (A) (A) (A) (A) (A) (A) (A) (A)
                 (A) (A) (A) (A) (A) (A) (A) (A) (A) (A) (A) (A)
                 (A) (A) (A) (A) (A) (A) (A) (A) (A) (A) (A) (A)
                 (A) (A) (A)
 The electronic state is 2-A.
 Alpha  occ. eigenvalues --  -20.62840 -20.60723 -20.55006 -11.41319 -11.29917
 Alpha  occ. eigenvalues --  -11.28395 -11.27907 -11.23204  -1.47423  -1.38690
 Alpha  occ. eigenvalues --   -1.37627  -1.08515  -1.04800  -0.91507  -0.87626
 Alpha  occ. eigenvalues --   -0.76015  -0.73183  -0.69996  -0.68631  -0.66392
 Alpha  occ. eigenvalues --   -0.64698  -0.62668  -0.57852  -0.56262  -0.54490
 Alpha  occ. eigenvalues --   -0.54042  -0.50595  -0.47244  -0.45270  -0.44042
 Alpha  occ. eigenvalues --   -0.42825
 Alpha virt. eigenvalues --    0.03203   0.04573   0.05277   0.06526   0.06968
 Alpha virt. eigenvalues --    0.08556   0.09164   0.10967   0.11025   0.11770
 Alpha virt. eigenvalues --    0.13158   0.13966   0.14534   0.14754   0.16256
 Alpha virt. eigenvalues --    0.17215   0.17364   0.17576   0.19186   0.19550
 Alpha virt. eigenvalues --    0.19768   0.20313   0.21306   0.21981   0.22545
 Alpha virt. eigenvalues --    0.23656   0.24355   0.26186   0.27325   0.29849
 Alpha virt. eigenvalues --    0.30501   0.31093   0.31542   0.32389   0.33519
 Alpha virt. eigenvalues --    0.35878   0.36214   0.37250   0.38181   0.40446
 Alpha virt. eigenvalues --    0.41376   0.41509   0.42844   0.43490   0.44291
 Alpha virt. eigenvalues --    0.44844   0.45647   0.47081   0.47925   0.49946
 Alpha virt. eigenvalues --    0.51973   0.53595   0.57285   0.59724   0.62077
 Alpha virt. eigenvalues --    0.62978   0.65037   0.65526   0.70719   0.72756
 Alpha virt. eigenvalues --    0.74364   0.76043   0.79463   0.81681   0.82481
 Alpha virt. eigenvalues --    0.85167   0.85587   0.86809   0.87026   0.88479
 Alpha virt. eigenvalues --    0.89568   0.92575   0.93489   0.95191   0.97765
 Alpha virt. eigenvalues --    0.98907   1.02186   1.07075   1.10115   1.17036
 Alpha virt. eigenvalues --    1.18610   1.22495   1.25816   1.29525   1.33276
 Alpha virt. eigenvalues --    1.34171   1.36474   1.39727   1.42353   1.44493
 Alpha virt. eigenvalues --    1.47005   1.48503   1.49808   1.50201   1.52283
 Alpha virt. eigenvalues --    1.56316   1.57978   1.58965   1.62045   1.66292
 Alpha virt. eigenvalues --    1.67194   1.69336   1.71774   1.77159   1.78787
 Alpha virt. eigenvalues --    1.80886   1.83493   1.85075   1.85765   1.87942
 Alpha virt. eigenvalues --    1.89507   1.92601   1.94358   1.95101   2.00826
 Alpha virt. eigenvalues --    2.02381   2.03336   2.07759   2.10821   2.15077
 Alpha virt. eigenvalues --    2.17207   2.19709   2.25932   2.28982   2.31682
 Alpha virt. eigenvalues --    2.35478   2.38456   2.42791   2.49032   2.59230
 Alpha virt. eigenvalues --    2.62186   2.64592   2.73335   2.81830   2.82391
 Alpha virt. eigenvalues --    2.84539   2.85442   2.87569   2.91986   2.93880
 Alpha virt. eigenvalues --    2.95593   2.98461   3.00181   3.03118   3.06414
 Alpha virt. eigenvalues --    3.10587   3.12414   3.15496   3.16664   3.23089
 Alpha virt. eigenvalues --    3.24775   3.28147   3.31527   3.35924   3.39408
 Alpha virt. eigenvalues --    3.44398   3.45362   3.47549   3.48824   3.56331
 Alpha virt. eigenvalues --    3.61112   3.67235   3.67564   3.73456   3.77801
 Alpha virt. eigenvalues --    3.79670   3.85992   3.97998   4.14474   4.21022
 Alpha virt. eigenvalues --    4.21943   4.24178   4.27322   4.42571   4.50410
 Alpha virt. eigenvalues --    4.52229   4.70370   5.55414   5.56342   5.61819
 Alpha virt. eigenvalues --    5.66338   5.74117   5.89983   6.04788   6.18028
 Alpha virt. eigenvalues --    6.47442  24.67806  24.99530  25.02864  25.13522
 Alpha virt. eigenvalues --   26.05429  51.55155  51.60221  51.73492
  Beta  occ. eigenvalues --  -20.60662 -20.59274 -20.55534 -11.40910 -11.30014
  Beta  occ. eigenvalues --  -11.29934 -11.25902 -11.23202  -1.47544  -1.38409
  Beta  occ. eigenvalues --   -1.26424  -1.07318  -1.04787  -0.90621  -0.86506
  Beta  occ. eigenvalues --   -0.75308  -0.72339  -0.69719  -0.67383  -0.64566
  Beta  occ. eigenvalues --   -0.62797  -0.58284  -0.56289  -0.54561  -0.51103
  Beta  occ. eigenvalues --   -0.50726  -0.48750  -0.46639  -0.45356  -0.42948
  Beta virt. eigenvalues --    0.03294   0.03788   0.04572   0.06513   0.06672
  Beta virt. eigenvalues --    0.07557   0.08469   0.09977   0.11141   0.11641
  Beta virt. eigenvalues --    0.11878   0.13582   0.14349   0.14927   0.15365
  Beta virt. eigenvalues --    0.16770   0.17423   0.17666   0.17715   0.19222
  Beta virt. eigenvalues --    0.19887   0.20015   0.20438   0.21638   0.22621
  Beta virt. eigenvalues --    0.22912   0.23766   0.24484   0.26490   0.26960
  Beta virt. eigenvalues --    0.29825   0.30653   0.31703   0.32012   0.33480
  Beta virt. eigenvalues --    0.34351   0.36153   0.36455   0.38097   0.38456
  Beta virt. eigenvalues --    0.40285   0.41455   0.41656   0.42982   0.43635
  Beta virt. eigenvalues --    0.44419   0.45026   0.45957   0.47110   0.47837
  Beta virt. eigenvalues --    0.50829   0.52055   0.53904   0.57341   0.60251
  Beta virt. eigenvalues --    0.62044   0.63422   0.65106   0.65596   0.71051
  Beta virt. eigenvalues --    0.74045   0.75820   0.77612   0.80817   0.81216
  Beta virt. eigenvalues --    0.84129   0.84851   0.85925   0.86892   0.87382
  Beta virt. eigenvalues --    0.88127   0.89124   0.92348   0.93621   0.95235
  Beta virt. eigenvalues --    0.97251   0.99194   1.02521   1.07239   1.10946
  Beta virt. eigenvalues --    1.17642   1.18691   1.22548   1.26386   1.30149
  Beta virt. eigenvalues --    1.34659   1.36022   1.38377   1.41344   1.43348
  Beta virt. eigenvalues --    1.45118   1.48108   1.48957   1.50370   1.50938
  Beta virt. eigenvalues --    1.53947   1.58070   1.58903   1.59773   1.62535
  Beta virt. eigenvalues --    1.67716   1.68161   1.70203   1.71824   1.78398
  Beta virt. eigenvalues --    1.80043   1.80848   1.83442   1.85157   1.85499
  Beta virt. eigenvalues --    1.87913   1.89266   1.92692   1.94435   1.95108
  Beta virt. eigenvalues --    2.00879   2.02358   2.03199   2.07851   2.11077
  Beta virt. eigenvalues --    2.15161   2.17559   2.20236   2.26021   2.29282
  Beta virt. eigenvalues --    2.32132   2.36584   2.38586   2.42818   2.49080
  Beta virt. eigenvalues --    2.59212   2.62131   2.64511   2.73350   2.81832
  Beta virt. eigenvalues --    2.82513   2.84597   2.85498   2.87921   2.92057
  Beta virt. eigenvalues --    2.93851   2.95614   2.99318   3.00409   3.03647
  Beta virt. eigenvalues --    3.06831   3.10736   3.14778   3.17652   3.22405
  Beta virt. eigenvalues --    3.23183   3.24911   3.27458   3.32303   3.38319
  Beta virt. eigenvalues --    3.41222   3.45654   3.48097   3.49980   3.52844
  Beta virt. eigenvalues --    3.56869   3.61701   3.67280   3.69426   3.73195
  Beta virt. eigenvalues --    3.78379   3.79187   3.86825   3.97794   4.14156
  Beta virt. eigenvalues --    4.21070   4.21932   4.24145   4.30005   4.42531
  Beta virt. eigenvalues --    4.50192   4.52251   4.70402   5.57513   5.62073
  Beta virt. eigenvalues --    5.65068   5.66739   5.74231   5.89982   6.07057
  Beta virt. eigenvalues --    6.17890   6.47382  24.67686  24.99749  25.02932
  Beta virt. eigenvalues --   25.13524  26.05750  51.57066  51.60330  51.73234
          Condensed to atoms (all electrons):
               1          2          3          4          5          6
     1  C   16.670369   0.458965  -5.687214  -4.328384  -0.221053  -0.173363
     2  H    0.458965   0.404444  -0.110550   0.008761  -0.003846  -0.002882
     3  C   -5.687214  -0.110550  11.416029  -0.213902   0.074783  -0.120153
     4  C   -4.328384   0.008761  -0.213902   9.971918   0.486218   0.234765
     5  O   -0.221053  -0.003846   0.074783   0.486218   8.062003  -0.055184
     6  O   -0.173363  -0.002882  -0.120153   0.234765  -0.055184   8.182402
     7  C    0.204622  -0.009085  -0.164015  -0.150498  -0.020047   0.257183
     8  C   -0.151332   0.006756   0.041379   0.107684   0.018574  -0.152886
     9  H   -0.089537  -0.000859   0.032928   0.015239   0.002381  -0.007917
    10  H    0.069448  -0.000455   0.032858  -0.085370  -0.002829  -0.075332
    11  H   -0.029407   0.000522  -0.012322   0.036482   0.000730  -0.008196
    12  H    0.015239  -0.004685   0.053151  -0.064409   0.000140  -0.005516
    13  H    0.008628  -0.000228   0.011244  -0.019493   0.000229   0.014891
    14  O   -0.313615  -0.003984   0.329861  -0.122441  -0.010445   0.019753
    15  H   -0.027324  -0.000762   0.015043   0.059049  -0.004258  -0.002017
               7          8          9         10         11         12
     1  C    0.204622  -0.151332  -0.089537   0.069448  -0.029407   0.015239
     2  H   -0.009085   0.006756  -0.000859  -0.000455   0.000522  -0.004685
     3  C   -0.164015   0.041379   0.032928   0.032858  -0.012322   0.053151
     4  C   -0.150498   0.107684   0.015239  -0.085370   0.036482  -0.064409
     5  O   -0.020047   0.018574   0.002381  -0.002829   0.000730   0.000140
     6  O    0.257183  -0.152886  -0.007917  -0.075332  -0.008196  -0.005516
     7  C    5.612016  -0.183090   0.402205   0.475847  -0.050543  -0.023587
     8  C   -0.183090   5.590124  -0.030416  -0.088667   0.442265   0.364166
     9  H    0.402205  -0.030416   0.529282  -0.035901  -0.002219  -0.000896
    10  H    0.475847  -0.088667  -0.035901   0.530199  -0.005084   0.009521
    11  H   -0.050543   0.442265  -0.002219  -0.005084   0.535591  -0.046181
    12  H   -0.023587   0.364166  -0.000896   0.009521  -0.046181   0.619556
    13  H   -0.053798   0.412634  -0.001920  -0.000677  -0.031351  -0.037501
    14  O   -0.038257   0.013709   0.007512  -0.005731  -0.000027  -0.000155
    15  H    0.001445  -0.000476  -0.004363  -0.000018   0.000276  -0.000280
              13         14         15
     1  C    0.008628  -0.313615  -0.027324
     2  H   -0.000228  -0.003984  -0.000762
     3  C    0.011244   0.329861   0.015043
     4  C   -0.019493  -0.122441   0.059049
     5  O    0.000229  -0.010445  -0.004258
     6  O    0.014891   0.019753  -0.002017
     7  C   -0.053798  -0.038257   0.001445
     8  C    0.412634   0.013709  -0.000476
     9  H   -0.001920   0.007512  -0.004363
    10  H   -0.000677  -0.005731  -0.000018
    11  H   -0.031351  -0.000027   0.000276
    12  H   -0.037501  -0.000155  -0.000280
    13  H    0.568021  -0.000206  -0.000254
    14  O   -0.000206   8.044802   0.255237
    15  H   -0.000254   0.255237   0.453383
          Atomic-Atomic Spin Densities.
               1          2          3          4          5          6
     1  C    1.663660   0.013431  -0.321098   0.175677   0.009238  -0.013700
     2  H    0.013431  -0.071731  -0.025189   0.001992  -0.000095  -0.000412
     3  C   -0.321098  -0.025189  -0.813136  -0.035394   0.019447   0.026462
     4  C    0.175677   0.001992  -0.035394  -0.030098   0.003935  -0.042723
     5  O    0.009238  -0.000095   0.019447   0.003935  -0.143843  -0.001712
     6  O   -0.013700  -0.000412   0.026462  -0.042723  -0.001712   0.037215
     7  C   -0.047348  -0.001795   0.011457   0.017739   0.003080  -0.006541
     8  C    0.020153   0.001110  -0.013086  -0.002184  -0.001249   0.001759
     9  H    0.013486   0.000460   0.013501  -0.006327   0.000317   0.001457
    10  H   -0.009930  -0.000222  -0.004321   0.015083   0.000286  -0.001335
    11  H    0.002436  -0.000016   0.002572  -0.005262  -0.000117   0.000111
    12  H   -0.015886  -0.001171   0.015730   0.004530  -0.000087  -0.000206
    13  H    0.002668   0.000191  -0.002526  -0.000290  -0.000005  -0.000045
    14  O   -0.292594  -0.006349   0.142522   0.108195   0.001303  -0.001653
    15  H    0.038210   0.000807  -0.032935  -0.013913   0.000154   0.000724
               7          8          9         10         11         12
     1  C   -0.047348   0.020153   0.013486  -0.009930   0.002436  -0.015886
     2  H   -0.001795   0.001110   0.000460  -0.000222  -0.000016  -0.001171
     3  C    0.011457  -0.013086   0.013501  -0.004321   0.002572   0.015730
     4  C    0.017739  -0.002184  -0.006327   0.015083  -0.005262   0.004530
     5  O    0.003080  -0.001249   0.000317   0.000286  -0.000117  -0.000087
     6  O   -0.006541   0.001759   0.001457  -0.001335   0.000111  -0.000206
     7  C    0.021128  -0.007554  -0.014524   0.007412  -0.001901   0.000733
     8  C   -0.007554   0.004539   0.006048  -0.005848   0.001707  -0.002355
     9  H   -0.014524   0.006048   0.007534  -0.003772   0.000415  -0.001429
    10  H    0.007412  -0.005848  -0.003772   0.001402   0.000663   0.000323
    11  H   -0.001901   0.001707   0.000415   0.000663  -0.000794   0.000268
    12  H    0.000733  -0.002355  -0.001429   0.000323   0.000268   0.001357
    13  H    0.000658  -0.000949   0.000454  -0.000621   0.000180  -0.000180
    14  O    0.013663  -0.006685  -0.014042  -0.001001   0.000355   0.001553
    15  H   -0.001697   0.000561   0.001324   0.000130  -0.000034  -0.000187
              13         14         15
     1  C    0.002668  -0.292594   0.038210
     2  H    0.000191  -0.006349   0.000807
     3  C   -0.002526   0.142522  -0.032935
     4  C   -0.000290   0.108195  -0.013913
     5  O   -0.000005   0.001303   0.000154
     6  O   -0.000045  -0.001653   0.000724
     7  C    0.000658   0.013663  -0.001697
     8  C   -0.000949  -0.006685   0.000561
     9  H    0.000454  -0.014042   0.001324
    10  H   -0.000621  -0.001001   0.000130
    11  H    0.000180   0.000355  -0.000034
    12  H   -0.000180   0.001553  -0.000187
    13  H    0.000193  -0.000553   0.000041
    14  O   -0.000553   0.861257   0.015329
    15  H    0.000041   0.015329  -0.040656
 Mulliken charges and spin densities:
               1          2
     1  C   -0.406041   1.238403
     2  H    0.257888  -0.088989
     3  C    0.300881  -1.015994
     4  C    0.064379   0.190959
     5  O   -0.327395  -0.109349
     6  O   -0.105547  -0.000599
     7  C   -0.260399  -0.005490
     8  C   -0.390426  -0.004035
     9  H    0.184482   0.004900
    10  H    0.182192  -0.001750
    11  H    0.169466   0.000581
    12  H    0.121436   0.002991
    13  H    0.129782  -0.000785
    14  O   -0.176014   0.821300
    15  H    0.255319  -0.032143
 Sum of Mulliken charges =  -0.00000   1.00000
 Mulliken charges and spin densities with hydrogens summed into heavy atoms:
               1          2
     1  C   -0.148154   1.149414
     3  C    0.300881  -1.015994
     4  C    0.064379   0.190959
     5  O   -0.327395  -0.109349
     6  O   -0.105547  -0.000599
     7  C    0.106274  -0.002340
     8  C    0.030257  -0.001247
    14  O    0.079305   0.789157
 Electronic spatial extent (au):  <R**2>=            974.2644
 Charge=             -0.0000 electrons
 Dipole moment (field-independent basis, Debye):
    X=             -0.3819    Y=             -4.6637    Z=             -0.2906  Tot=              4.6883
 Quadrupole moment (field-independent basis, Debye-Ang):
   XX=            -39.3204   YY=            -53.0445   ZZ=            -46.4808
   XY=             -4.8606   XZ=              0.3085   YZ=              4.5857
 Traceless Quadrupole moment (field-independent basis, Debye-Ang):
   XX=              6.9615   YY=             -6.7626   ZZ=             -0.1989
   XY=             -4.8606   XZ=              0.3085   YZ=              4.5857
 Octapole moment (field-independent basis, Debye-Ang**2):
  XXX=             13.3851  YYY=            -18.5845  ZZZ=              5.8895  XYY=              0.9970
  XXY=            -11.8148  XXZ=             12.1263  XZZ=              3.8253  YZZ=             -2.6494
  YYZ=             -4.0372  XYZ=              9.1114
 Hexadecapole moment (field-independent basis, Debye-Ang**3):
 XXXX=           -585.6706 YYYY=           -381.2964 ZZZZ=           -232.2831 XXXY=            -25.3388
 XXXZ=             26.2599 YYYX=            -29.5284 YYYZ=             22.5575 ZZZX=              2.8534
 ZZZY=              4.1752 XXYY=           -162.7941 XXZZ=           -129.5797 YYZZ=            -91.5826
 XXYZ=              5.3521 YYXZ=             -9.8358 ZZXY=            -13.0239
 N-N= 3.668424580925D+02 E-N=-1.716589322936D+03  KE= 4.177042261019D+02
 1\1\GINC-AJ\SP\UCCSD(T)-FC\6-311++G(d,p)\C5H7O3(2)\AAYUSH\12-May-2025\
 0\\# ccsd(t)/6-311++g(d,p) sp\\Title Card Required\\0,2\C,0,1.293723,-
 1.422037,-1.150439\H,0,1.657368,-2.295221,-1.642067\C,0,0.914378,-0.48
 2632,-0.460415\C,0,0.355414,0.87271,-0.201696\O,0,0.96881,1.852443,-0.
 498678\O,0,-0.829961,0.92507,0.391935\C,0,-1.576003,-0.275217,0.674315
 \C,0,-2.422066,-0.670574,-0.519512\H,0,-0.894288,-1.067183,0.9857\H,0,
 -2.196405,-0.003328,1.526767\H,0,-3.07588,0.152164,-0.811737\H,0,-1.79
 5834,-0.940539,-1.372252\H,0,-3.039794,-1.533721,-0.263223\O,0,1.37917
 4,-0.889158,1.367445\H,0,2.333681,-0.732998,1.307072\\Version=ES64L-G1
 6RevA.03\State=2-A\HF=-417.9676603\MP2=-419.2265305\MP3=-419.2562873\M
 P4D=-419.2868326\MP4DQ=-419.2621988\PUHF=-417.9939697\PMP2-0=-419.2496
 19\PMP3-0=-419.2739461\MP4SDQ=-419.2845562\CCSD=-419.2922418\CCSD(T)=-
 419.3474858\S2=1.067668\S2-1=0.980507\S2A=0.815259\RMSD=7.678e-09\PG=C
 01 [X(C5H7O3)]\\@


 IT IS IMPOSSIBLE TO MEDITATE ON TIME AND THE MYSTERY 
 OF NATURE WITHOUT AN OVERWHELMING EMOTION AT THE
 LIMITATIONS OF HUMAN INTELLIGENCE.

                                         -- ALFRED NORTH WHITEHEAD
 Job cpu time:       0 days 18 hours  4 minutes 58.3 seconds.
 Elapsed time:       0 days  0 hours 45 minutes 23.8 seconds.
 File lengths (MBytes):  RWF=  44733 Int=      0 D2E=      0 Chk=      6 Scr=      1
 Normal termination of Gaussian 16 at Mon May 12 03:12:03 2025.
