 Entering Gaussian System, Link 0=g16
 Initial command:
 /opt/g16/l1.exe "/home/loki/Research/Transition_states/Addition/ts1_irc_points/Gau-158234.inp" -scrdir="/home/loki/Research/Transition_states/Addition/ts1_irc_points/"
 Entering Link 1 = /opt/g16/l1.exe PID=    158237.
  
 Copyright (c) 1988,1990,1992,1993,1995,1998,2003,2009,2016,
            Gaussian, Inc.  All Rights Reserved.
  
 This is part of the Gaussian(R) 16 program.  It is based on
 the Gaussian(R) 09 system (copyright 2009, Gaussian, Inc.),
 the Gaussian(R) 03 system (copyright 2003, Gaussian, Inc.),
 the Gaussian(R) 98 system (copyright 1998, Gaussian, Inc.),
 the Gaussian(R) 94 system (copyright 1995, Gaussian, Inc.),
 the Gaussian 92(TM) system (copyright 1992, Gaussian, Inc.),
 the Gaussian 90(TM) system (copyright 1990, Gaussian, Inc.),
 the Gaussian 88(TM) system (copyright 1988, Gaussian, Inc.),
 the Gaussian 86(TM) system (copyright 1986, Carnegie Mellon
 University), and the Gaussian 82(TM) system (copyright 1983,
 Carnegie Mellon University). Gaussian is a federally registered
 trademark of Gaussian, Inc.
  
 This software contains proprietary and confidential information,
 including trade secrets, belonging to Gaussian, Inc.
  
 This software is provided under written license and may be
 used, copied, transmitted, or stored only in accord with that
 written license.
  
 The following legend is applicable only to US Government
 contracts under FAR:
  
                    RESTRICTED RIGHTS LEGEND
  
 Use, reproduction and disclosure by the US Government is
 subject to restrictions as set forth in subparagraphs (a)
 and (c) of the Commercial Computer Software - Restricted
 Rights clause in FAR 52.227-19.
  
 Gaussian, Inc.
 340 Quinnipiac St., Bldg. 40, Wallingford CT 06492
  
  
 ---------------------------------------------------------------
 Warning -- This program may not be used in any manner that
 competes with the business of Gaussian, Inc. or will provide
 assistance to any competitor of Gaussian, Inc.  The licensee
 of this program is prohibited from giving any competitor of
 Gaussian, Inc. access to this program.  By using this program,
 the user acknowledges that Gaussian, Inc. is engaged in the
 business of creating and licensing software in the field of
 computational chemistry and represents and warrants to the
 licensee that it is not a competitor of Gaussian, Inc. and that
 it will not use this program in any manner prohibited above.
 ---------------------------------------------------------------
  

 Cite this work as:
 Gaussian 16, Revision A.03,
 M. J. Frisch, G. W. Trucks, H. B. Schlegel, G. E. Scuseria, 
 M. A. Robb, J. R. Cheeseman, G. Scalmani, V. Barone, 
 G. A. Petersson, H. Nakatsuji, X. Li, M. Caricato, A. V. Marenich, 
 J. Bloino, B. G. Janesko, R. Gomperts, B. Mennucci, H. P. Hratchian, 
 J. V. Ortiz, A. F. Izmaylov, J. L. Sonnenberg, D. Williams-Young, 
 F. Ding, F. Lipparini, F. Egidi, J. Goings, B. Peng, A. Petrone, 
 T. Henderson, D. Ranasinghe, V. G. Zakrzewski, J. Gao, N. Rega, 
 G. Zheng, W. Liang, M. Hada, M. Ehara, K. Toyota, R. Fukuda, 
 J. Hasegawa, M. Ishida, T. Nakajima, Y. Honda, O. Kitao, H. Nakai, 
 T. Vreven, K. Throssell, J. A. Montgomery, Jr., J. E. Peralta, 
 F. Ogliaro, M. J. Bearpark, J. J. Heyd, E. N. Brothers, K. N. Kudin, 
 V. N. Staroverov, T. A. Keith, R. Kobayashi, J. Normand, 
 K. Raghavachari, A. P. Rendell, J. C. Burant, S. S. Iyengar, 
 J. Tomasi, M. Cossi, J. M. Millam, M. Klene, C. Adamo, R. Cammi, 
 J. W. Ochterski, R. L. Martin, K. Morokuma, O. Farkas, 
 J. B. Foresman, and D. J. Fox, Gaussian, Inc., Wallingford CT, 2016.
 
 ******************************************
 Gaussian 16:  ES64L-G16RevA.03 25-Dec-2016
                28-Mar-2025 
 ******************************************
 %chk=ethyl_propiolate.chk
 %nprocshared=4
 Will use up to    4 processors via shared memory.
 %mem=10GB
 --------------------------
 # freq 6-311++g(d,p) m062x
 --------------------------
 1/10=4,30=1,38=1/1,3;
 2/12=2,17=6,18=5,40=1/2;
 3/5=4,6=6,7=1111,11=2,25=1,30=1,71=2,74=-55,140=1/1,2,3;
 4//1;
 5/5=2,38=5,98=1/2;
 8/6=4,10=90,11=11/1;
 11/6=1,8=1,9=11,15=111,16=1/1,2,10;
 10/6=1/2;
 6/7=2,8=2,9=2,10=2,28=1/1;
 7/8=1,10=1,25=1/1,2,3,16;
 1/10=4,30=1/3;
 99//99;
 -------------------
 Title Card Required
 -------------------
 Symbolic Z-matrix:
 Charge =  0 Multiplicity = 2
 C                    -2.03972  -1.11658  -0.85718 
 H                    -2.70194  -1.84318  -1.2683 
 C                    -1.25886  -0.33514  -0.36694 
 C                    -0.55151   0.89287   0.04689 
 O                    -1.15751   1.77906   0.571 
 O                     0.74457   0.98426  -0.22 
 C                     1.5157   -0.09057  -0.78899 
 C                     2.60548  -0.47889   0.18641 
 H                     0.87124  -0.93842  -1.02097 
 H                     1.92964   0.30503  -1.71782 
 H                     3.21928   0.38763   0.43578 
 H                     2.16468  -0.88      1.09892 
 H                     3.24448  -1.2428   -0.26131 
 O                    -0.27455  -1.54622   1.05369 
 H                    -1.04418  -1.66991   1.63209 
 

 GradGradGradGradGradGradGradGradGradGradGradGradGradGradGradGradGradGrad
 Berny optimization.
 Initialization pass.
 Trust Radius=3.00D-01 FncErr=1.00D-07 GrdErr=1.00D-07 EigMax=2.50D+02 EigMin=1.00D-04
 Number of steps in this run=      2 maximum allowed number of steps=      2.
 GradGradGradGradGradGradGradGradGradGradGradGradGradGradGradGradGradGrad

                          Input orientation:                          
 ---------------------------------------------------------------------
 Center     Atomic      Atomic             Coordinates (Angstroms)
 Number     Number       Type             X           Y           Z
 ---------------------------------------------------------------------
      1          6           0       -2.039723   -1.116579   -0.857180
      2          1           0       -2.701941   -1.843179   -1.268301
      3          6           0       -1.258855   -0.335137   -0.366935
      4          6           0       -0.551506    0.892870    0.046888
      5          8           0       -1.157507    1.779059    0.570995
      6          8           0        0.744567    0.984255   -0.219995
      7          6           0        1.515696   -0.090565   -0.788990
      8          6           0        2.605475   -0.478894    0.186414
      9          1           0        0.871240   -0.938420   -1.020968
     10          1           0        1.929639    0.305026   -1.717821
     11          1           0        3.219279    0.387631    0.435775
     12          1           0        2.164677   -0.879996    1.098915
     13          1           0        3.244479   -1.242795   -0.261306
     14          8           0       -0.274552   -1.546224    1.053691
     15          1           0       -1.044183   -1.669912    1.632086
 ---------------------------------------------------------------------
                    Distance matrix (angstroms):
                    1          2          3          4          5
     1  C    0.000000
     2  H    1.065599   0.000000
     3  C    1.208614   2.273576   0.000000
     4  C    2.658950   3.720223   1.476345   0.000000
     5  O    3.347045   4.346136   2.315126   1.194678   0.000000
     6  O    3.545670   4.579492   2.403349   1.326417   2.208000
     7  C    3.701129   4.592369   2.817105   2.437039   3.534270
     8  C    4.803498   5.669756   3.906393   3.444958   4.405257
     9  H    2.921005   3.694237   2.308466   2.553066   3.746312
    10  H    4.303196   5.125269   3.521533   3.100942   4.116057
    11  H    5.620630   6.552956   4.606563   3.824306   4.594629
    12  H    4.643195   5.496854   3.763796   3.409907   4.287911
    13  H    5.319190   6.060892   4.595108   4.366412   5.403870
    14  O    2.636636   3.372247   2.110394   2.653212   3.474207
    15  H    2.737466   3.345210   2.413254   3.053430   3.610285
                    6          7          8          9         10
     6  O    0.000000
     7  C    1.440012   0.000000
     8  C    2.401864   1.513219   0.000000
     9  H    2.086692   1.089952   2.162523   0.000000
    10  H    2.027124   1.091132   2.167348   1.775379   0.000000
    11  H    2.628725   2.151956   1.090780   3.064930   2.511567
    12  H    2.689176   2.146756   1.089882   2.484008   3.064885
    13  H    3.348286   2.143543   1.091936   2.510377   2.499198
    14  O    3.010682   2.952864   3.191539   2.446727   3.995856
    15  H    3.697896   3.861208   4.102255   3.353002   4.895495
                   11         12         13         14         15
    11  H    0.000000
    12  H    1.777306   0.000000
    13  H    1.773371   1.774203   0.000000
    14  O    4.040850   2.528981   3.768934   0.000000
    15  H    4.882802   3.347390   4.707439   0.970655   0.000000
 Stoichiometry    C5H7O3(2)
 Framework group  C1[X(C5H7O3)]
 Deg. of freedom    39
 Full point group                 C1      NOp   1
 Largest Abelian subgroup         C1      NOp   1
 Largest concise Abelian subgroup C1      NOp   1
                         Standard orientation:                         
 ---------------------------------------------------------------------
 Center     Atomic      Atomic             Coordinates (Angstroms)
 Number     Number       Type             X           Y           Z
 ---------------------------------------------------------------------
      1          6           0       -2.100655   -1.069183   -0.851559
      2          1           0       -2.761238   -1.794400   -1.267722
      3          6           0       -1.321369   -0.289423   -0.356145
      4          6           0       -0.617818    0.937339    0.067721
      5          8           0       -1.225706    1.815434    0.603143
      6          8           0        0.676851    1.037124   -0.202941
      7          6           0        1.450516   -0.028407   -0.785795
      8          6           0        2.545567   -0.421987    0.181566
      9          1           0        0.808883   -0.876637   -1.024141
     10          1           0        1.859303    0.378523   -1.712008
     11          1           0        3.156533    0.444599    0.437597
     12          1           0        2.109889   -0.834378    1.091490
     13          1           0        3.186212   -1.178444   -0.276334
     14          8           0       -0.326583   -1.510752    1.048319
     15          1           0       -1.093526   -1.643744    1.628218
 ---------------------------------------------------------------------
 Rotational constants (GHZ):           2.5967131           1.6632846           1.2805123
 Standard basis: 6-311++G(d,p) (5D, 7F)
 There are   233 symmetry adapted cartesian basis functions of A   symmetry.
 There are   225 symmetry adapted basis functions of A   symmetry.
   225 basis functions,   351 primitive gaussians,   233 cartesian basis functions
    31 alpha electrons       30 beta electrons
       nuclear repulsion energy       364.5553319717 Hartrees.
 NAtoms=   15 NActive=   15 NUniq=   15 SFac= 1.00D+00 NAtFMM=   60 NAOKFM=F Big=F
 Integral buffers will be    131072 words long.
 Raffenetti 2 integral format.
 Two-electron integral symmetry is turned on.
 One-electron integrals computed using PRISM.
 NBasis=   225 RedAO= T EigKep=  2.06D-06  NBF=   225
 NBsUse=   225 1.00D-06 EigRej= -1.00D+00 NBFU=   225
 ExpMin= 3.60D-02 ExpMax= 8.59D+03 ExpMxC= 1.30D+03 IAcc=3 IRadAn=         5 AccDes= 0.00D+00
 Harris functional with IExCor= 1009 and IRadAn=       5 diagonalized for initial guess.
 HarFok:  IExCor= 1009 AccDes= 0.00D+00 IRadAn=         5 IDoV= 1 UseB2=F ITyADJ=14
 ICtDFT=  3500011 ScaDFX=  1.000000  1.000000  1.000000  1.000000
 FoFCou: FMM=F IPFlag=           0 FMFlag=      100000 FMFlg1=           0
         NFxFlg=           0 DoJE=T BraDBF=F KetDBF=T FulRan=T
         wScrn=  0.000000 ICntrl=       500 IOpCl=  0 I1Cent=   200000004 NGrid=           0
         NMat0=    1 NMatS0=      1 NMatT0=    0 NMatD0=    1 NMtDS0=    0 NMtDT0=    0
 Petite list used in FoFCou.
 Initial guess <Sx>= 0.0000 <Sy>= 0.0000 <Sz>= 0.5000 <S**2>= 0.7500 S= 0.5000
 Keep R1 and R2 ints in memory in canonical form, NReq=652863693.
 Requested convergence on RMS density matrix=1.00D-08 within 128 cycles.
 Requested convergence on MAX density matrix=1.00D-06.
 Requested convergence on             energy=1.00D-06.
 No special actions if energy rises.
 SCF Done:  E(UM062X) =  -420.197854983     A.U. after   24 cycles
            NFock= 24  Conv=0.23D-08     -V/T= 2.0032
 <Sx>= 0.0000 <Sy>= 0.0000 <Sz>= 0.5000 <S**2>= 0.7649 S= 0.5074
 <L.S>=  0.00000000000    
 Annihilation of the first spin contaminant:
 S**2 before annihilation     0.7649,   after     0.7501
 DoSCS=F DFT=T ScalE2(SS,OS)=  1.000000  1.000000
 Range of M.O.s used for correlation:     1   225
 NBasis=   225 NAE=    31 NBE=    30 NFC=     0 NFV=     0
 NROrb=    225 NOA=    31 NOB=    30 NVA=   194 NVB=   195

 **** Warning!!: The largest alpha MO coefficient is  0.25274990D+03


 **** Warning!!: The largest beta MO coefficient is  0.25589836D+03

 Symmetrizing basis deriv contribution to polar:
 IMax=3 JMax=2 DiffMx= 0.00D+00
 G2DrvN: will do    16 centers at a time, making    1 passes.
 Calling FoFCou, ICntrl=  3107 FMM=F I1Cent=   0 AccDes= 0.00D+00.
 End of G2Drv F.D. properties file   721 does not exist.
 End of G2Drv F.D. properties file   722 does not exist.
 End of G2Drv F.D. properties file   788 does not exist.
          IDoAtm=111111111111111
          Differentiating once with respect to electric field.
                with respect to dipole field.
          Differentiating once with respect to nuclear coordinates.
 Keep R1 and R2 ints in memory in canonical form, NReq=652870569.
          There are    48 degrees of freedom in the 1st order CPHF.  IDoFFX=6 NUNeed=     3.
     45 vectors produced by pass  0 Test12= 2.47D-14 2.08D-09 XBig12= 8.64D+01 2.63D+00.
 AX will form    45 AO Fock derivatives at one time.
     45 vectors produced by pass  1 Test12= 2.47D-14 2.08D-09 XBig12= 1.72D+01 4.23D-01.
     45 vectors produced by pass  2 Test12= 2.47D-14 2.08D-09 XBig12= 4.91D-01 9.16D-02.
     45 vectors produced by pass  3 Test12= 2.47D-14 2.08D-09 XBig12= 7.05D-03 1.46D-02.
     45 vectors produced by pass  4 Test12= 2.47D-14 2.08D-09 XBig12= 9.41D-05 1.31D-03.
     45 vectors produced by pass  5 Test12= 2.47D-14 2.08D-09 XBig12= 1.02D-06 1.18D-04.
     42 vectors produced by pass  6 Test12= 2.47D-14 2.08D-09 XBig12= 8.73D-09 9.90D-06.
     21 vectors produced by pass  7 Test12= 2.47D-14 2.08D-09 XBig12= 6.74D-11 6.71D-07.
      4 vectors produced by pass  8 Test12= 2.47D-14 2.08D-09 XBig12= 4.95D-13 6.33D-08.
      3 vectors produced by pass  9 Test12= 2.47D-14 2.08D-09 XBig12= 4.01D-15 9.31D-09.
      2 vectors produced by pass 10 Test12= 2.47D-14 2.08D-09 XBig12= 5.89D-16 5.66D-09.
      1 vectors produced by pass 11 Test12= 2.47D-14 2.08D-09 XBig12= 1.34D-16 2.49D-09.
 InvSVY:  IOpt=1 It=  1 EMax= 8.88D-15
 Solved reduced A of dimension   343 with    48 vectors.
 Isotropic polarizability for W=    0.000000       74.55 Bohr**3.
 End of Minotr F.D. properties file   721 does not exist.
 End of Minotr F.D. properties file   722 does not exist.
 End of Minotr F.D. properties file   788 does not exist.

 **********************************************************************

            Population analysis using the SCF density.

 **********************************************************************

 Orbital symmetries:
 Alpha Orbitals:
       Occupied  (A) (A) (A) (A) (A) (A) (A) (A) (A) (A) (A) (A)
                 (A) (A) (A) (A) (A) (A) (A) (A) (A) (A) (A) (A)
                 (A) (A) (A) (A) (A) (A) (A)
       Virtual   (A) (A) (A) (A) (A) (A) (A) (A) (A) (A) (A) (A)
                 (A) (A) (A) (A) (A) (A) (A) (A) (A) (A) (A) (A)
                 (A) (A) (A) (A) (A) (A) (A) (A) (A) (A) (A) (A)
                 (A) (A) (A) (A) (A) (A) (A) (A) (A) (A) (A) (A)
                 (A) (A) (A) (A) (A) (A) (A) (A) (A) (A) (A) (A)
                 (A) (A) (A) (A) (A) (A) (A) (A) (A) (A) (A) (A)
                 (A) (A) (A) (A) (A) (A) (A) (A) (A) (A) (A) (A)
                 (A) (A) (A) (A) (A) (A) (A) (A) (A) (A) (A) (A)
                 (A) (A) (A) (A) (A) (A) (A) (A) (A) (A) (A) (A)
                 (A) (A) (A) (A) (A) (A) (A) (A) (A) (A) (A) (A)
                 (A) (A) (A) (A) (A) (A) (A) (A) (A) (A) (A) (A)
                 (A) (A) (A) (A) (A) (A) (A) (A) (A) (A) (A) (A)
                 (A) (A) (A) (A) (A) (A) (A) (A) (A) (A) (A) (A)
                 (A) (A) (A) (A) (A) (A) (A) (A) (A) (A) (A) (A)
                 (A) (A) (A) (A) (A) (A) (A) (A) (A) (A) (A) (A)
                 (A) (A) (A) (A) (A) (A) (A) (A) (A) (A) (A) (A)
                 (A) (A)
 Beta  Orbitals:
       Occupied  (A) (A) (A) (A) (A) (A) (A) (A) (A) (A) (A) (A)
                 (A) (A) (A) (A) (A) (A) (A) (A) (A) (A) (A) (A)
                 (A) (A) (A) (A) (A) (A)
       Virtual   (A) (A) (A) (A) (A) (A) (A) (A) (A) (A) (A) (A)
                 (A) (A) (A) (A) (A) (A) (A) (A) (A) (A) (A) (A)
                 (A) (A) (A) (A) (A) (A) (A) (A) (A) (A) (A) (A)
                 (A) (A) (A) (A) (A) (A) (A) (A) (A) (A) (A) (A)
                 (A) (A) (A) (A) (A) (A) (A) (A) (A) (A) (A) (A)
                 (A) (A) (A) (A) (A) (A) (A) (A) (A) (A) (A) (A)
                 (A) (A) (A) (A) (A) (A) (A) (A) (A) (A) (A) (A)
                 (A) (A) (A) (A) (A) (A) (A) (A) (A) (A) (A) (A)
                 (A) (A) (A) (A) (A) (A) (A) (A) (A) (A) (A) (A)
                 (A) (A) (A) (A) (A) (A) (A) (A) (A) (A) (A) (A)
                 (A) (A) (A) (A) (A) (A) (A) (A) (A) (A) (A) (A)
                 (A) (A) (A) (A) (A) (A) (A) (A) (A) (A) (A) (A)
                 (A) (A) (A) (A) (A) (A) (A) (A) (A) (A) (A) (A)
                 (A) (A) (A) (A) (A) (A) (A) (A) (A) (A) (A) (A)
                 (A) (A) (A) (A) (A) (A) (A) (A) (A) (A) (A) (A)
                 (A) (A) (A) (A) (A) (A) (A) (A) (A) (A) (A) (A)
                 (A) (A) (A)
 The electronic state is 2-A.
 Alpha  occ. eigenvalues --  -19.67832 -19.67706 -19.62468 -10.70706 -10.60637
 Alpha  occ. eigenvalues --  -10.59473 -10.58955 -10.53361  -1.24981  -1.16350
 Alpha  occ. eigenvalues --   -1.13685  -0.90642  -0.88093  -0.76476  -0.73808
 Alpha  occ. eigenvalues --   -0.64728  -0.62375  -0.59358  -0.56232  -0.55251
 Alpha  occ. eigenvalues --   -0.53123  -0.50168  -0.47643  -0.47484  -0.44941
 Alpha  occ. eigenvalues --   -0.42829  -0.41808  -0.40091  -0.37565  -0.36423
 Alpha  occ. eigenvalues --   -0.35708
 Alpha virt. eigenvalues --   -0.01370  -0.00745   0.00561   0.00994   0.02180
 Alpha virt. eigenvalues --    0.02431   0.03396   0.04739   0.05676   0.05951
 Alpha virt. eigenvalues --    0.07159   0.07412   0.08615   0.09435   0.10193
 Alpha virt. eigenvalues --    0.11219   0.11297   0.11838   0.12787   0.13306
 Alpha virt. eigenvalues --    0.13768   0.14497   0.14747   0.15110   0.15408
 Alpha virt. eigenvalues --    0.16688   0.17747   0.18430   0.19559   0.20134
 Alpha virt. eigenvalues --    0.20975   0.21769   0.22449   0.23273   0.23636
 Alpha virt. eigenvalues --    0.25228   0.26976   0.27595   0.29334   0.30682
 Alpha virt. eigenvalues --    0.31087   0.32268   0.32642   0.33220   0.33713
 Alpha virt. eigenvalues --    0.34156   0.36560   0.37383   0.37647   0.39963
 Alpha virt. eigenvalues --    0.40679   0.41945   0.46264   0.47568   0.50741
 Alpha virt. eigenvalues --    0.51112   0.52151   0.54424   0.58074   0.59329
 Alpha virt. eigenvalues --    0.60333   0.61082   0.65030   0.65971   0.68506
 Alpha virt. eigenvalues --    0.68889   0.70324   0.70623   0.71558   0.73502
 Alpha virt. eigenvalues --    0.74780   0.75630   0.77704   0.78073   0.79035
 Alpha virt. eigenvalues --    0.82973   0.85506   0.90988   0.94934   0.98027
 Alpha virt. eigenvalues --    1.00485   1.06091   1.07638   1.08477   1.11648
 Alpha virt. eigenvalues --    1.15460   1.18130   1.21167   1.23167   1.24742
 Alpha virt. eigenvalues --    1.27054   1.28651   1.29400   1.30979   1.31485
 Alpha virt. eigenvalues --    1.32782   1.36720   1.39363   1.42973   1.43448
 Alpha virt. eigenvalues --    1.44883   1.47380   1.51727   1.53423   1.55298
 Alpha virt. eigenvalues --    1.58880   1.60569   1.62187   1.62684   1.64119
 Alpha virt. eigenvalues --    1.65753   1.69007   1.72236   1.73758   1.76378
 Alpha virt. eigenvalues --    1.78855   1.81120   1.83803   1.86173   1.90308
 Alpha virt. eigenvalues --    1.90831   1.95916   1.98721   2.01357   2.05360
 Alpha virt. eigenvalues --    2.10283   2.12453   2.14606   2.21523   2.32235
 Alpha virt. eigenvalues --    2.34790   2.39259   2.47055   2.52211   2.52906
 Alpha virt. eigenvalues --    2.53710   2.56664   2.61267   2.62393   2.64492
 Alpha virt. eigenvalues --    2.65059   2.67807   2.70394   2.74279   2.74704
 Alpha virt. eigenvalues --    2.81240   2.82466   2.83605   2.90349   2.91751
 Alpha virt. eigenvalues --    2.92988   2.94624   3.00602   3.02756   3.05191
 Alpha virt. eigenvalues --    3.08554   3.11046   3.12951   3.16847   3.17900
 Alpha virt. eigenvalues --    3.27137   3.28890   3.33709   3.37365   3.41054
 Alpha virt. eigenvalues --    3.43976   3.53641   3.62966   3.77202   3.84798
 Alpha virt. eigenvalues --    3.85613   3.88431   3.93258   4.03335   4.15208
 Alpha virt. eigenvalues --    4.19222   4.29267   5.09530   5.13368   5.17956
 Alpha virt. eigenvalues --    5.20497   5.28708   5.43078   5.59949   5.70736
 Alpha virt. eigenvalues --    5.99646  23.60382  23.93546  23.93910  24.05870
 Alpha virt. eigenvalues --   25.05883  49.95733  50.00440  50.13880
  Beta  occ. eigenvalues --  -19.67830 -19.66223 -19.62488 -10.70689 -10.60639
  Beta  occ. eigenvalues --  -10.59487 -10.58778 -10.53359  -1.24976  -1.16384
  Beta  occ. eigenvalues --   -1.07241  -0.89844  -0.88035  -0.76279  -0.73635
  Beta  occ. eigenvalues --   -0.64555  -0.62029  -0.58834  -0.56190  -0.53177
  Beta  occ. eigenvalues --   -0.52008  -0.47887  -0.47581  -0.44740  -0.42010
  Beta  occ. eigenvalues --   -0.40542  -0.39773  -0.39079  -0.37320  -0.35955
  Beta virt. eigenvalues --   -0.10598  -0.00742  -0.00497   0.00612   0.01296
  Beta virt. eigenvalues --    0.02348   0.02552   0.03525   0.04738   0.05802
  Beta virt. eigenvalues --    0.06107   0.07211   0.07496   0.08600   0.09483
  Beta virt. eigenvalues --    0.10471   0.11309   0.11483   0.11837   0.12898
  Beta virt. eigenvalues --    0.13151   0.13889   0.14616   0.14935   0.15298
  Beta virt. eigenvalues --    0.15475   0.17021   0.17749   0.18496   0.19648
  Beta virt. eigenvalues --    0.20117   0.21015   0.22138   0.22413   0.23503
  Beta virt. eigenvalues --    0.23593   0.25288   0.27042   0.27357   0.29200
  Beta virt. eigenvalues --    0.30714   0.31144   0.32243   0.32736   0.33220
  Beta virt. eigenvalues --    0.33714   0.34126   0.36637   0.37532   0.37708
  Beta virt. eigenvalues --    0.39978   0.40716   0.41931   0.46254   0.47564
  Beta virt. eigenvalues --    0.50820   0.51159   0.52203   0.54485   0.58711
  Beta virt. eigenvalues --    0.59722   0.60456   0.61560   0.65094   0.65912
  Beta virt. eigenvalues --    0.68494   0.68881   0.70273   0.70578   0.71534
  Beta virt. eigenvalues --    0.73528   0.74804   0.75628   0.77708   0.78169
  Beta virt. eigenvalues --    0.79006   0.83046   0.85547   0.91059   0.95261
  Beta virt. eigenvalues --    0.98176   1.00732   1.06911   1.07697   1.08959
  Beta virt. eigenvalues --    1.12385   1.16499   1.18721   1.21288   1.23672
  Beta virt. eigenvalues --    1.24836   1.27370   1.28869   1.29450   1.31521
  Beta virt. eigenvalues --    1.31686   1.34335   1.36901   1.39838   1.43132
  Beta virt. eigenvalues --    1.43742   1.45288   1.48221   1.51965   1.53858
  Beta virt. eigenvalues --    1.55640   1.59042   1.60625   1.62234   1.62716
  Beta virt. eigenvalues --    1.64105   1.65795   1.69092   1.72256   1.73799
  Beta virt. eigenvalues --    1.76476   1.78919   1.81225   1.84030   1.86399
  Beta virt. eigenvalues --    1.90547   1.91320   1.96219   1.98832   2.01518
  Beta virt. eigenvalues --    2.05390   2.11452   2.12533   2.14648   2.21531
  Beta virt. eigenvalues --    2.32291   2.34784   2.39589   2.47111   2.52201
  Beta virt. eigenvalues --    2.52921   2.53747   2.56695   2.61682   2.62679
  Beta virt. eigenvalues --    2.64794   2.65069   2.68172   2.70446   2.74553
  Beta virt. eigenvalues --    2.74978   2.81734   2.83498   2.85673   2.90483
  Beta virt. eigenvalues --    2.93299   2.94168   2.96505   3.01482   3.03729
  Beta virt. eigenvalues --    3.05775   3.10817   3.11360   3.13784   3.18715
  Beta virt. eigenvalues --    3.19903   3.27783   3.29981   3.33728   3.37568
  Beta virt. eigenvalues --    3.41244   3.43933   3.54143   3.62947   3.77235
  Beta virt. eigenvalues --    3.85150   3.85832   3.88446   3.95845   4.03330
  Beta virt. eigenvalues --    4.15121   4.19224   4.29268   5.11029   5.16861
  Beta virt. eigenvalues --    5.19617   5.23677   5.28907   5.43081   5.62295
  Beta virt. eigenvalues --    5.70712   5.99639  23.60440  23.93547  23.93915
  Beta virt. eigenvalues --   24.05871  25.06220  49.95308  50.00358  50.13900
          Condensed to atoms (all electrons):
               1          2          3          4          5          6
     1  C   24.005080   0.567718  -8.957244  -7.736553  -0.197867  -0.107963
     2  H    0.567718   0.429181  -0.176247  -0.029592  -0.002677  -0.003132
     3  C   -8.957244  -0.176247  13.226136   1.004957  -0.065188  -0.190358
     4  C   -7.736553  -0.029592   1.004957  11.756597   0.600819   0.174666
     5  O   -0.197867  -0.002677  -0.065188   0.600819   7.996893  -0.071772
     6  O   -0.107963  -0.003132  -0.190358   0.174666  -0.071772   8.181783
     7  C   -0.273246  -0.001889   0.032491   0.165682  -0.007868   0.271220
     8  C   -0.040168  -0.000217   0.045453  -0.014414   0.009121  -0.165542
     9  H    0.037719  -0.000507   0.044132  -0.070193  -0.000979  -0.030811
    10  H   -0.056358   0.000421  -0.045069   0.084233   0.000155  -0.056596
    11  H    0.007119   0.000166  -0.001000  -0.000206   0.001247  -0.017830
    12  H   -0.027978  -0.000107  -0.020995   0.036970  -0.000970   0.004100
    13  H   -0.015540  -0.000124   0.001669   0.005850   0.000028   0.023109
    14  O   -0.296054  -0.003085   0.268271  -0.062718  -0.011349   0.014891
    15  H    0.045935   0.000265   0.011943  -0.011708  -0.002621  -0.002035
               7          8          9         10         11         12
     1  C   -0.273246  -0.040168   0.037719  -0.056358   0.007119  -0.027978
     2  H   -0.001889  -0.000217  -0.000507   0.000421   0.000166  -0.000107
     3  C    0.032491   0.045453   0.044132  -0.045069  -0.001000  -0.020995
     4  C    0.165682  -0.014414  -0.070193   0.084233  -0.000206   0.036970
     5  O   -0.007868   0.009121  -0.000979   0.000155   0.001247  -0.000970
     6  O    0.271220  -0.165542  -0.030811  -0.056596  -0.017830   0.004100
     7  C    5.446545   0.049137   0.382608   0.423574  -0.038858  -0.051043
     8  C    0.049137   5.429909  -0.021913  -0.050369   0.419473   0.405668
     9  H    0.382608  -0.021913   0.539950  -0.031878  -0.000174  -0.002765
    10  H    0.423574  -0.050369  -0.031878   0.512578  -0.004579   0.004486
    11  H   -0.038858   0.419473  -0.000174  -0.004579   0.531412  -0.036476
    12  H   -0.051043   0.405668  -0.002765   0.004486  -0.036476   0.536709
    13  H   -0.031204   0.391719  -0.011212   0.004169  -0.036644  -0.030915
    14  O   -0.008498  -0.013504  -0.008148   0.004694  -0.001777   0.005841
    15  H    0.003458  -0.002901  -0.003801   0.000309  -0.000074   0.000147
              13         14         15
     1  C   -0.015540  -0.296054   0.045935
     2  H   -0.000124  -0.003085   0.000265
     3  C    0.001669   0.268271   0.011943
     4  C    0.005850  -0.062718  -0.011708
     5  O    0.000028  -0.011349  -0.002621
     6  O    0.023109   0.014891  -0.002035
     7  C   -0.031204  -0.008498   0.003458
     8  C    0.391719  -0.013504  -0.002901
     9  H   -0.011212  -0.008148  -0.003801
    10  H    0.004169   0.004694   0.000309
    11  H   -0.036644  -0.001777  -0.000074
    12  H   -0.030915   0.005841   0.000147
    13  H    0.544450   0.001062   0.000156
    14  O    0.001062   8.131675   0.236076
    15  H    0.000156   0.236076   0.472253
          Atomic-Atomic Spin Densities.
               1          2          3          4          5          6
     1  C    0.653097   0.003398  -0.104931  -0.081777   0.010757  -0.010191
     2  H    0.003398  -0.008737  -0.004839  -0.000351   0.000037  -0.000201
     3  C   -0.104931  -0.004839  -0.041772   0.027080   0.006211   0.006350
     4  C   -0.081777  -0.000351   0.027080   0.027109  -0.013441   0.000542
     5  O    0.010757   0.000037   0.006211  -0.013441  -0.013580   0.000017
     6  O   -0.010191  -0.000201   0.006350   0.000542   0.000017   0.002634
     7  C   -0.008917   0.000091   0.008134   0.003591   0.000501   0.000758
     8  C   -0.008368  -0.000159  -0.001948   0.007440  -0.000301  -0.000781
     9  H    0.014290   0.000144  -0.003123  -0.005729   0.000301  -0.000934
    10  H    0.002573   0.000070  -0.000252  -0.002185   0.000137  -0.000381
    11  H   -0.000394  -0.000008   0.000524  -0.000229  -0.000030   0.000209
    12  H    0.006771   0.000054   0.001458  -0.008028   0.000005  -0.000633
    13  H   -0.001651  -0.000008  -0.000461   0.002275  -0.000002   0.000081
    14  O   -0.252381  -0.003941   0.043990   0.094477   0.000777   0.001365
    15  H    0.037571   0.000475  -0.022533  -0.014573  -0.000144   0.000196
               7          8          9         10         11         12
     1  C   -0.008917  -0.008368   0.014290   0.002573  -0.000394   0.006771
     2  H    0.000091  -0.000159   0.000144   0.000070  -0.000008   0.000054
     3  C    0.008134  -0.001948  -0.003123  -0.000252   0.000524   0.001458
     4  C    0.003591   0.007440  -0.005729  -0.002185  -0.000229  -0.008028
     5  O    0.000501  -0.000301   0.000301   0.000137  -0.000030   0.000005
     6  O    0.000758  -0.000781  -0.000934  -0.000381   0.000209  -0.000633
     7  C   -0.000236  -0.004167   0.002475   0.001539  -0.000898   0.003072
     8  C   -0.004167   0.012355  -0.001700  -0.002462   0.000326  -0.000692
     9  H    0.002475  -0.001700   0.000232   0.000273  -0.000101   0.000507
    10  H    0.001539  -0.002462   0.000273   0.003068  -0.000548   0.001040
    11  H   -0.000898   0.000326  -0.000101  -0.000548   0.000774  -0.000936
    12  H    0.003072  -0.000692   0.000507   0.001040  -0.000936  -0.001749
    13  H    0.000872  -0.000923  -0.000399  -0.000374   0.000552  -0.000410
    14  O    0.004282  -0.001110  -0.007400  -0.001081   0.000419  -0.000193
    15  H   -0.000700  -0.000587   0.000768   0.000075  -0.000054   0.000073
              13         14         15
     1  C   -0.001651  -0.252381   0.037571
     2  H   -0.000008  -0.003941   0.000475
     3  C   -0.000461   0.043990  -0.022533
     4  C    0.002275   0.094477  -0.014573
     5  O   -0.000002   0.000777  -0.000144
     6  O    0.000081   0.001365   0.000196
     7  C    0.000872   0.004282  -0.000700
     8  C   -0.000923  -0.001110  -0.000587
     9  H   -0.000399  -0.007400   0.000768
    10  H   -0.000374  -0.001081   0.000075
    11  H    0.000552   0.000419  -0.000054
    12  H   -0.000410  -0.000193   0.000073
    13  H    0.000078  -0.000382   0.000073
    14  O   -0.000382   0.937668   0.008741
    15  H    0.000073   0.008741  -0.028521
 Mulliken charges and spin densities:
               1          2
     1  C   -0.954601   0.259847
     2  H    0.219827  -0.013974
     3  C    0.821050  -0.086113
     4  C    0.095609   0.036201
     5  O   -0.246971  -0.008756
     6  O   -0.023732  -0.000969
     7  C   -0.362110   0.010395
     8  C   -0.441450  -0.003079
     9  H    0.177974  -0.000399
    10  H    0.210229   0.001490
    11  H    0.178201  -0.000395
    12  H    0.177330   0.000340
    13  H    0.153425  -0.000680
    14  O   -0.257377   0.825231
    15  H    0.252597  -0.019141
 Sum of Mulliken charges =  -0.00000   1.00000
 Mulliken charges and spin densities with hydrogens summed into heavy atoms:
               1          2
     1  C   -0.734774   0.245873
     3  C    0.821050  -0.086113
     4  C    0.095609   0.036201
     5  O   -0.246971  -0.008756
     6  O   -0.023732  -0.000969
     7  C    0.026093   0.011487
     8  C    0.067505  -0.003814
    14  O   -0.004780   0.806090
 APT charges:
               1
     1  C   -0.151650
     2  H    0.237081
     3  C   -0.440096
     4  C    1.538088
     5  O   -0.854156
     6  O   -0.933515
     7  C    0.509779
     8  C   -0.020088
     9  H   -0.011601
    10  H   -0.032001
    11  H    0.009998
    12  H    0.030770
    13  H    0.004091
    14  O   -0.142315
    15  H    0.255613
 Sum of APT charges =   0.00000
 APT charges with hydrogens summed into heavy atoms:
               1
     1  C    0.085432
     3  C   -0.440096
     4  C    1.538088
     5  O   -0.854156
     6  O   -0.933515
     7  C    0.466178
     8  C    0.024772
    14  O    0.113297
 Electronic spatial extent (au):  <R**2>=           1000.6136
 Charge=             -0.0000 electrons
 Dipole moment (field-independent basis, Debye):
    X=             -0.0899    Y=             -3.8731    Z=             -1.6674  Tot=              4.2178
 Quadrupole moment (field-independent basis, Debye-Ang):
   XX=            -40.9465   YY=            -52.5292   ZZ=            -43.8687
   XY=              7.8561   XZ=              0.5561   YZ=             -1.7361
 Traceless Quadrupole moment (field-independent basis, Debye-Ang):
   XX=              4.8350   YY=             -6.7478   ZZ=              1.9128
   XY=              7.8561   XZ=              0.5561   YZ=             -1.7361
 Octapole moment (field-independent basis, Debye-Ang**2):
  XXX=             -3.5177  YYY=            -11.1620  ZZZ=              9.6387  XYY=             -4.8570
  XXY=            -20.1475  XXZ=             -7.3155  XZZ=             -4.6205  YZZ=             -6.8626
  YYZ=             -3.9661  XYZ=              0.7274
 Hexadecapole moment (field-independent basis, Debye-Ang**3):
 XXXX=           -705.3659 YYYY=           -404.0426 ZZZZ=           -170.8363 XXXY=             47.3526
 XXXZ=             12.9059 YYYX=             29.5381 YYYZ=             -8.1697 ZZZX=            -13.6368
 ZZZY=            -15.1652 XXYY=           -164.7723 XXZZ=           -138.5544 YYZZ=            -81.3634
 XXYZ=              9.7149 YYXZ=              8.3062 ZZXY=             17.0752
 N-N= 3.645553319717D+02 E-N=-1.713786230940D+03  KE= 4.188457896318D+02
  Exact polarizability:  85.891   0.230  71.172   8.612   2.451  66.586
 Approx polarizability:  92.018   3.656  85.476   8.099   9.385  77.131
                          Isotropic Fermi Contact Couplings
        Atom                 a.u.       MegaHertz       Gauss      10(-4) cm-1
     1  C(13)              0.03948      44.37973      15.83579      14.80349
     2  H(1)              -0.00452     -20.21701      -7.21393      -6.74367
     3  C(13)              0.01958      22.01624       7.85594       7.34383
     4  C(13)              0.00896      10.07280       3.59423       3.35992
     5  O(17)             -0.00342       2.07021       0.73870       0.69055
     6  O(17)              0.00003      -0.01533      -0.00547      -0.00511
     7  C(13)             -0.00137      -1.53875      -0.54906      -0.51327
     8  C(13)              0.00084       0.94974       0.33889       0.31680
     9  H(1)               0.00024       1.08080       0.38566       0.36052
    10  H(1)               0.00019       0.83523       0.29803       0.27860
    11  H(1)               0.00004       0.19359       0.06908       0.06458
    12  H(1)               0.00016       0.73147       0.26101       0.24399
    13  H(1)              -0.00003      -0.13593      -0.04850      -0.04534
    14  O(17)              0.13517     -81.94117     -29.23865     -27.33263
    15  H(1)              -0.01403     -62.71072     -22.37674     -20.91804
 --------------------------------------------------------
       Center         ----  Spin Dipole Couplings  ----
                      3XX-RR        3YY-RR        3ZZ-RR
 --------------------------------------------------------
     1   Atom       -0.067929      0.024016      0.043913
     2   Atom        0.001430      0.004275     -0.005705
     3   Atom       -0.010699      0.023165     -0.012466
     4   Atom       -0.011952      0.019725     -0.007773
     5   Atom        0.006307      0.039240     -0.045547
     6   Atom        0.003083      0.007233     -0.010316
     7   Atom        0.000700     -0.001528      0.000828
     8   Atom        0.004381     -0.003031     -0.001350
     9   Atom       -0.000577     -0.007023      0.007600
    10   Atom        0.000337     -0.000778      0.000441
    11   Atom        0.002189     -0.000477     -0.001712
    12   Atom        0.012536     -0.005744     -0.006792
    13   Atom        0.003608     -0.002229     -0.001379
    14   Atom        0.142965     -1.093769      0.950804
    15   Atom        0.073344     -0.102212      0.028868
 --------------------------------------------------------
                        XY            XZ            YZ
 --------------------------------------------------------
     1   Atom       -0.135604      0.103539     -0.187892
     2   Atom        0.015143      0.018476      0.006144
     3   Atom        0.029705      0.031104     -0.000433
     4   Atom        0.003648      0.002696     -0.010307
     5   Atom        0.007307     -0.033545     -0.003580
     6   Atom        0.013707     -0.009114     -0.004827
     7   Atom        0.003162     -0.004909     -0.004425
     8   Atom        0.004285     -0.004257     -0.002731
     9   Atom        0.003102     -0.008617     -0.005069
    10   Atom        0.001609     -0.002013     -0.001762
    11   Atom        0.002468     -0.000611     -0.000366
    12   Atom        0.006712     -0.000996     -0.000872
    13   Atom        0.000511     -0.002264     -0.000199
    14   Atom       -0.982266      2.170538     -1.185018
    15   Atom        0.015614     -0.096790     -0.041324
 --------------------------------------------------------


 ---------------------------------------------------------------------------------
              Anisotropic Spin Dipole Couplings in Principal Axis System
 ---------------------------------------------------------------------------------

       Atom             a.u.   MegaHertz   Gauss  10(-4) cm-1        Axes

              Baa    -0.1749   -23.472    -8.376    -7.830  0.5878  0.7300  0.3487
     1 C(13)  Bbb    -0.1247   -16.738    -5.972    -5.583  0.6926 -0.2315 -0.6831
              Bcc     0.2996    40.210    14.348    13.413 -0.4180  0.6431 -0.6417
 
              Baa    -0.0221   -11.816    -4.216    -3.941  0.6886 -0.2351 -0.6860
     2 H(1)   Bbb    -0.0053    -2.811    -1.003    -0.938 -0.2757  0.7900 -0.5476
              Bcc     0.0274    14.627     5.219     4.879  0.6707  0.5662  0.4792
 
              Baa    -0.0494    -6.626    -2.364    -2.210  0.7273 -0.3015 -0.6165
     3 C(13)  Bbb     0.0041     0.547     0.195     0.183  0.3787 -0.5728  0.7270
              Bcc     0.0453     6.079     2.169     2.028  0.5723  0.7622  0.3025
 
              Baa    -0.0154    -2.068    -0.738    -0.690  0.7484 -0.2571 -0.6114
     4 C(13)  Bbb    -0.0079    -1.066    -0.381    -0.356  0.6591  0.1847  0.7291
              Bcc     0.0234     3.134     1.118     1.045  0.0745  0.9486 -0.3077
 
              Baa    -0.0620     4.487     1.601     1.497  0.4407 -0.0001  0.8976
     5 O(17)  Bbb     0.0194    -1.406    -0.502    -0.469  0.8303 -0.3800 -0.4077
              Bcc     0.0426    -3.081    -1.099    -1.028  0.3411  0.9250 -0.1674
 
              Baa    -0.0152     1.099     0.392     0.367  0.5235 -0.1390  0.8406
     6 O(17)  Bbb    -0.0067     0.487     0.174     0.162 -0.5501  0.6983  0.4580
              Bcc     0.0219    -1.586    -0.566    -0.529  0.6507  0.7022 -0.2891
 
              Baa    -0.0050    -0.677    -0.241    -0.226  0.2239  0.6790  0.6991
     7 C(13)  Bbb    -0.0035    -0.471    -0.168    -0.157  0.7710 -0.5622  0.2991
              Bcc     0.0086     1.148     0.409     0.383 -0.5961 -0.4721  0.6494
 
              Baa    -0.0053    -0.708    -0.253    -0.236 -0.2361  0.8989  0.3691
     8 C(13)  Bbb    -0.0035    -0.475    -0.169    -0.158  0.5435 -0.1927  0.8170
              Bcc     0.0088     1.183     0.422     0.395  0.8055  0.3935 -0.4430
 
              Baa    -0.0087    -4.617    -1.647    -1.540 -0.1140  0.9640  0.2402
     9 H(1)   Bbb    -0.0060    -3.214    -1.147    -1.072  0.8498 -0.0306  0.5261
              Bcc     0.0147     7.831     2.794     2.612 -0.5146 -0.2641  0.8158
 
              Baa    -0.0021    -1.101    -0.393    -0.367 -0.2155  0.8718  0.4399
    10 H(1)   Bbb    -0.0016    -0.861    -0.307    -0.287  0.7622 -0.1314  0.6338
              Bcc     0.0037     1.963     0.700     0.655 -0.6104 -0.4719  0.6362
 
              Baa    -0.0019    -1.040    -0.371    -0.347 -0.5110  0.8595  0.0108
    11 H(1)   Bbb    -0.0018    -0.963    -0.344    -0.321  0.1166  0.0569  0.9916
              Bcc     0.0038     2.003     0.715     0.668  0.8516  0.5080 -0.1293
 
              Baa    -0.0082    -4.349    -1.552    -1.451 -0.2702  0.8880  0.3721
    12 H(1)   Bbb    -0.0067    -3.550    -1.267    -1.184  0.1662 -0.3376  0.9265
              Bcc     0.0148     7.899     2.819     2.635  0.9484  0.3122 -0.0564
 
              Baa    -0.0023    -1.213    -0.433    -0.405 -0.0494  0.9942  0.0959
    13 H(1)   Bbb    -0.0023    -1.202    -0.429    -0.401  0.3649 -0.0714  0.9283
              Bcc     0.0045     2.416     0.862     0.806  0.9298  0.0809 -0.3592
 
              Baa    -1.6610   120.192    42.888    40.092  0.7530 -0.0642 -0.6549
    14 O(17)  Bbb    -1.6335   118.200    42.177    39.427  0.2633  0.9415  0.2105
              Bcc     3.2946  -238.392   -85.064   -79.519  0.6030 -0.3310  0.7258
 
              Baa    -0.1153   -61.493   -21.942   -20.512  0.0922  0.9390  0.3312
    15 H(1)   Bbb    -0.0408   -21.768    -7.767    -7.261  0.6391 -0.3109  0.7035
              Bcc     0.1561    83.261    29.710    27.773  0.7636  0.1468 -0.6288
 

 ---------------------------------------------------------------------------------

 Calling FoFJK, ICntrl=    100127 FMM=F ISym2X=0 I1Cent= 0 IOpClX= 1 NMat=1 NMatS=1 NMatT=0.
 Full mass-weighted force constant matrix:
 Low frequencies --- -285.8360  -45.0474  -30.7588  -13.8655   -0.0012   -0.0008
 Low frequencies ---   -0.0001   66.8790   87.7258
 ******    1 imaginary frequencies (negative Signs) ****** 
 Diagonal vibrational polarizability:
       21.5685884      66.7606491      50.4183100
 Harmonic frequencies (cm**-1), IR intensities (KM/Mole), Raman scattering
 activities (A**4/AMU), depolarization ratios for plane and unpolarized
 incident light, reduced masses (AMU), force constants (mDyne/A),
 and normal coordinates:
                      1                      2                      3
                      A                      A                      A
 Frequencies --   -285.8349                62.9758                87.5443
 Red. masses --     11.6761                 7.1467                 5.2920
 Frc consts  --      0.5621                 0.0167                 0.0239
 IR Inten    --     33.2507                 4.5939                 0.9983
  Atom  AN      X      Y      Z        X      Y      Z        X      Y      Z
     1   6     0.00   0.05   0.05     0.13  -0.04  -0.25     0.03  -0.02  -0.05
     2   1    -0.09   0.25  -0.16     0.19  -0.03  -0.36     0.06  -0.03  -0.08
     3   6     0.26  -0.41   0.53     0.05  -0.05  -0.11    -0.00  -0.01  -0.00
     4   6     0.05  -0.07   0.09     0.03  -0.08   0.04    -0.05   0.01   0.02
     5   8    -0.04  -0.04  -0.08     0.04  -0.20   0.24    -0.13   0.08  -0.20
     6   8     0.01   0.02  -0.04     0.00  -0.00  -0.06     0.03  -0.10   0.36
     7   6     0.04   0.02  -0.01    -0.01   0.01  -0.09    -0.04   0.03   0.04
     8   6    -0.00  -0.01   0.02     0.02   0.00  -0.13     0.15  -0.09  -0.23
     9   1     0.06   0.02  -0.05    -0.01   0.00  -0.07    -0.04   0.04   0.03
    10   1     0.07   0.05   0.02    -0.04   0.01  -0.11    -0.22   0.18   0.02
    11   1    -0.01  -0.01   0.06     0.02   0.00  -0.13     0.14  -0.11  -0.16
    12   1    -0.05  -0.03  -0.01     0.05  -0.01  -0.12     0.34  -0.31  -0.24
    13   1     0.01   0.00   0.02     0.02   0.02  -0.16     0.12   0.04  -0.50
    14   8    -0.23   0.32  -0.38    -0.21   0.29   0.29     0.00   0.09   0.06
    15   1    -0.00  -0.02  -0.17    -0.31   0.42   0.18    -0.02  -0.04  -0.00
                      4                      5                      6
                      A                      A                      A
 Frequencies --    113.2934               138.3634               176.4199
 Red. masses --      2.6920                 6.2382                 2.2941
 Frc consts  --      0.0204                 0.0704                 0.0421
 IR Inten    --      0.9356                 9.8209                13.5076
  Atom  AN      X      Y      Z        X      Y      Z        X      Y      Z
     1   6    -0.10   0.07  -0.02    -0.21   0.09  -0.10     0.19  -0.03  -0.12
     2   1    -0.16   0.13  -0.03    -0.31   0.20  -0.13     0.34  -0.08  -0.28
     3   6    -0.04  -0.00  -0.00    -0.12  -0.00  -0.10    -0.02   0.03   0.11
     4   6     0.01  -0.03   0.00    -0.05  -0.07  -0.00    -0.03   0.05   0.06
     5   8     0.04  -0.01   0.00    -0.01  -0.09   0.06     0.02   0.11   0.02
     6   8     0.01  -0.07   0.00    -0.04  -0.12   0.02    -0.04  -0.01  -0.02
     7   6     0.01  -0.10   0.05    -0.02  -0.14   0.08    -0.12  -0.10   0.03
     8   6     0.19   0.22  -0.03     0.02  -0.01   0.10    -0.04   0.00  -0.03
     9   1     0.06  -0.21   0.33     0.01  -0.18   0.16    -0.15  -0.12   0.20
    10   1    -0.17  -0.24  -0.09    -0.04  -0.20   0.05    -0.20  -0.23  -0.07
    11   1     0.12   0.34  -0.27     0.02   0.03  -0.04     0.14  -0.03  -0.35
    12   1     0.35   0.35   0.11     0.06   0.12   0.17     0.02   0.32   0.15
    13   1     0.22   0.20   0.05     0.00  -0.07   0.18    -0.23  -0.23   0.10
    14   8    -0.12  -0.08  -0.02     0.33   0.33  -0.08     0.04  -0.02  -0.01
    15   1    -0.13   0.02  -0.00     0.32  -0.34  -0.25     0.00  -0.34  -0.13
                      7                      8                      9
                      A                      A                      A
 Frequencies --    209.7869               225.4009               258.5398
 Red. masses --      1.8034                 1.3400                 1.7125
 Frc consts  --      0.0468                 0.0401                 0.0674
 IR Inten    --     29.6215                 1.2516                39.1156
  Atom  AN      X      Y      Z        X      Y      Z        X      Y      Z
     1   6     0.05  -0.11   0.06    -0.05   0.04   0.02    -0.02   0.12  -0.11
     2   1     0.13  -0.25   0.19    -0.13   0.10   0.05    -0.06   0.24  -0.26
     3   6    -0.03   0.06  -0.08     0.06  -0.03  -0.03     0.03  -0.05   0.08
     4   6    -0.01   0.02  -0.01     0.02  -0.01  -0.01    -0.01  -0.02   0.02
     5   8     0.01   0.00   0.05    -0.05  -0.06  -0.02    -0.03   0.00  -0.04
     6   8     0.00  -0.02   0.04     0.03   0.05   0.03    -0.02   0.00  -0.02
     7   6    -0.02  -0.04   0.04     0.02   0.06   0.00    -0.03  -0.02   0.00
     8   6     0.01  -0.01   0.01     0.00  -0.02  -0.02    -0.02  -0.01   0.00
     9   1    -0.03  -0.04   0.09    -0.00   0.08  -0.01    -0.04  -0.02   0.02
    10   1    -0.06  -0.06   0.01     0.02   0.06   0.00    -0.03  -0.04  -0.01
    11   1     0.10  -0.03  -0.13     0.39  -0.19  -0.38    -0.07   0.02   0.04
    12   1     0.03   0.13   0.08    -0.05   0.45   0.18    -0.01  -0.06  -0.02
    13   1    -0.08  -0.12   0.05    -0.37  -0.44   0.16     0.02   0.05  -0.02
    14   8    -0.02   0.05  -0.15    -0.00  -0.02   0.03     0.08  -0.08   0.04
    15   1     0.17   0.79   0.28    -0.02   0.00   0.00     0.27   0.71   0.48
                     10                     11                     12
                      A                      A                      A
 Frequencies --    351.6446               399.8669               547.0213
 Red. masses --      2.9032                 3.3551                 5.7719
 Frc consts  --      0.2115                 0.3161                 1.0176
 IR Inten    --      0.4749                 7.5260                18.4558
  Atom  AN      X      Y      Z        X      Y      Z        X      Y      Z
     1   6     0.04   0.06   0.07    -0.02  -0.02  -0.03    -0.15  -0.19  -0.11
     2   1    -0.07   0.09   0.18     0.08  -0.07  -0.11    -0.29  -0.06  -0.13
     3   6     0.18   0.01  -0.09    -0.13   0.03   0.07    -0.05  -0.25  -0.07
     4   6     0.05   0.06  -0.03    -0.08   0.03   0.00     0.02  -0.06  -0.05
     5   8    -0.12  -0.09   0.01    -0.07   0.02   0.04     0.32   0.09  -0.02
     6   8     0.04   0.15  -0.04    -0.09   0.09  -0.17     0.01   0.17   0.05
     7   6    -0.14  -0.10   0.12     0.13   0.04   0.13    -0.15   0.17   0.19
     8   6    -0.01  -0.05  -0.02     0.23  -0.15   0.01    -0.05   0.02  -0.02
     9   1    -0.26  -0.09   0.45     0.16   0.02   0.09    -0.22   0.17   0.36
    10   1    -0.26  -0.41  -0.06     0.20  -0.00   0.15    -0.21  -0.06   0.07
    11   1    -0.13   0.02   0.05     0.45  -0.31   0.02     0.09  -0.09   0.01
    12   1     0.19  -0.31  -0.05     0.41  -0.30   0.03     0.13  -0.15  -0.00
    13   1     0.09   0.16  -0.25     0.00  -0.15  -0.32    -0.22   0.06  -0.32
    14   8     0.01  -0.00  -0.01    -0.01  -0.00  -0.00     0.01  -0.01   0.01
    15   1    -0.07  -0.08  -0.14     0.03  -0.01   0.05     0.11  -0.07   0.14
                     13                     14                     15
                      A                      A                      A
 Frequencies --    620.4768               669.4767               706.1565
 Red. masses --      3.7503                 1.2220                 1.3344
 Frc consts  --      0.8507                 0.3227                 0.3921
 IR Inten    --     22.3210                58.3703                29.3137
  Atom  AN      X      Y      Z        X      Y      Z        X      Y      Z
     1   6     0.01   0.02   0.03     0.01   0.01  -0.01     0.10  -0.12   0.02
     2   1    -0.29   0.21   0.18    -0.09   0.03   0.13    -0.68   0.69  -0.15
     3   6     0.26  -0.13  -0.14     0.07  -0.01  -0.05    -0.05   0.04  -0.00
     4   6    -0.13   0.06   0.03    -0.04   0.04  -0.03     0.01   0.00   0.03
     5   8     0.03   0.17   0.07    -0.01   0.03   0.03    -0.02   0.00  -0.00
     6   8    -0.18  -0.13  -0.03    -0.03  -0.03   0.00     0.02   0.01  -0.00
     7   6    -0.00  -0.01   0.02     0.01  -0.01  -0.01     0.01  -0.01  -0.01
     8   6     0.03  -0.01   0.01     0.01  -0.00   0.00     0.00  -0.00  -0.00
     9   1     0.16  -0.07  -0.20     0.04  -0.02  -0.04    -0.01  -0.00   0.00
    10   1     0.07   0.18   0.14     0.02   0.03   0.01     0.00  -0.02  -0.02
    11   1     0.10  -0.04  -0.04     0.01  -0.00  -0.00    -0.01   0.01   0.01
    12   1     0.11  -0.03   0.04     0.01   0.00   0.00    -0.02   0.01  -0.01
    13   1    -0.04  -0.02  -0.08     0.01  -0.01   0.01     0.02  -0.01   0.03
    14   8     0.04  -0.02   0.02    -0.05   0.01  -0.01    -0.01   0.00  -0.01
    15   1    -0.38   0.32  -0.46     0.54  -0.48   0.66     0.01   0.02   0.01
                     16                     17                     18
                      A                      A                      A
 Frequencies --    741.6632               747.8037               762.7218
 Red. masses --      5.3453                 1.4045                 5.0068
 Frc consts  --      1.7323                 0.4628                 1.7161
 IR Inten    --     30.5927                36.5157                18.9948
  Atom  AN      X      Y      Z        X      Y      Z        X      Y      Z
     1   6     0.05   0.06   0.14     0.08   0.05  -0.12    -0.13  -0.10  -0.12
     2   1     0.30   0.14  -0.37    -0.34  -0.15   0.89    -0.13  -0.37   0.33
     3   6     0.05   0.16  -0.14    -0.03   0.04   0.05    -0.01  -0.12  -0.13
     4   6     0.10  -0.28   0.35     0.02  -0.05   0.02     0.05   0.00   0.39
     5   8     0.05  -0.03  -0.17     0.02  -0.03  -0.03    -0.12   0.17  -0.01
     6   8    -0.11  -0.05  -0.11    -0.02  -0.02  -0.01     0.10   0.13  -0.03
     7   6    -0.08   0.07   0.11    -0.02   0.02   0.03     0.09  -0.10  -0.14
     8   6    -0.05   0.03  -0.00    -0.01   0.01   0.00     0.06  -0.04  -0.01
     9   1     0.02   0.07  -0.13    -0.00   0.02  -0.03    -0.04  -0.05   0.07
    10   1     0.07   0.17   0.21     0.02   0.04   0.06    -0.07  -0.18  -0.23
    11   1     0.06  -0.01  -0.12     0.02  -0.00  -0.03    -0.12   0.05   0.09
    12   1     0.21  -0.07   0.07     0.06  -0.02   0.02    -0.22   0.10  -0.07
    13   1    -0.19   0.07  -0.27    -0.05   0.02  -0.08     0.26  -0.08   0.36
    14   8    -0.04   0.03  -0.03     0.00   0.00  -0.00    -0.00   0.00  -0.00
    15   1     0.18  -0.12   0.22    -0.03   0.02  -0.04     0.04   0.01   0.05
                     19                     20                     21
                      A                      A                      A
 Frequencies --    817.8540               963.0775              1096.0126
 Red. masses --      1.1550                 2.1884                 4.0195
 Frc consts  --      0.4552                 1.1959                 2.8448
 IR Inten    --      7.6892                16.3988                56.2561
  Atom  AN      X      Y      Z        X      Y      Z        X      Y      Z
     1   6     0.02   0.02   0.01     0.04   0.04   0.02     0.04   0.04   0.03
     2   1     0.01   0.02   0.03     0.03   0.05   0.03     0.03   0.06   0.04
     3   6     0.01   0.02  -0.00     0.02   0.03   0.00     0.01   0.03  -0.00
     4   6    -0.02  -0.03   0.01    -0.07  -0.09  -0.03    -0.16  -0.14  -0.03
     5   8     0.01  -0.00  -0.01     0.07  -0.03  -0.03     0.07  -0.00  -0.02
     6   8    -0.03  -0.03  -0.00    -0.10   0.09   0.03    -0.10   0.17   0.09
     7   6     0.04   0.06  -0.02    -0.10   0.03  -0.07     0.27  -0.15   0.09
     8   6     0.02   0.03  -0.01     0.16  -0.12   0.03    -0.13  -0.01  -0.17
     9   1     0.13  -0.15   0.47    -0.23   0.14  -0.09     0.30  -0.20   0.22
    10   1    -0.35  -0.16  -0.28    -0.26   0.12  -0.10     0.33  -0.23   0.10
    11   1     0.21  -0.22   0.40    -0.17   0.11   0.07    -0.38   0.18  -0.28
    12   1    -0.38  -0.08  -0.25    -0.05   0.18   0.08    -0.28   0.17  -0.17
    13   1    -0.14  -0.14   0.04     0.53  -0.13   0.58     0.02   0.03  -0.01
    14   8     0.00   0.00  -0.00    -0.00   0.00  -0.00    -0.00   0.00  -0.00
    15   1     0.00   0.00  -0.00    -0.01  -0.00  -0.01    -0.01  -0.00  -0.01
                     22                     23                     24
                      A                      A                      A
 Frequencies --   1140.1534              1178.8807              1282.9879
 Red. masses --      2.4206                 1.7923                 2.5212
 Frc consts  --      1.8540                 1.4676                 2.4452
 IR Inten    --     35.0383                48.0270               348.3360
  Atom  AN      X      Y      Z        X      Y      Z        X      Y      Z
     1   6    -0.01  -0.02  -0.01     0.01   0.01   0.01    -0.03  -0.03  -0.02
     2   1    -0.02  -0.02  -0.01     0.00   0.02   0.02    -0.02  -0.04  -0.04
     3   6    -0.00  -0.01   0.00     0.01   0.00  -0.00    -0.01  -0.00   0.01
     4   6     0.05   0.06   0.00    -0.08  -0.04   0.01     0.23   0.12   0.00
     5   8    -0.04   0.00   0.02    -0.02   0.02   0.01     0.01  -0.04  -0.02
     6   8     0.04  -0.10  -0.09     0.05  -0.07  -0.02    -0.17   0.01   0.02
     7   6    -0.00   0.09   0.23     0.07   0.17  -0.04     0.11  -0.00  -0.03
     8   6     0.01  -0.06  -0.17    -0.07  -0.10   0.04    -0.06  -0.08   0.04
     9   1     0.01   0.13   0.09    -0.12   0.19   0.42     0.24  -0.19   0.30
    10   1    -0.05   0.19   0.25     0.05  -0.43  -0.32    -0.52   0.40  -0.11
    11   1    -0.40   0.18   0.02    -0.20   0.12  -0.33    -0.16   0.10  -0.34
    12   1    -0.43   0.32  -0.20     0.30   0.08   0.28     0.15   0.03   0.18
    13   1     0.28  -0.12   0.37     0.18   0.18  -0.06     0.10   0.14  -0.09
    14   8     0.00  -0.00   0.00    -0.00   0.00  -0.00     0.00  -0.00   0.00
    15   1     0.00  -0.00   0.00    -0.00   0.00  -0.00     0.01  -0.01   0.01
                     25                     26                     27
                      A                      A                      A
 Frequencies --   1361.3331              1403.3975              1434.9577
 Red. masses --      1.4183                 1.2587                 1.3627
 Frc consts  --      1.5487                 1.4606                 1.6532
 IR Inten    --    152.7823                26.7911                14.6340
  Atom  AN      X      Y      Z        X      Y      Z        X      Y      Z
     1   6     0.01   0.01   0.01    -0.01  -0.01  -0.00    -0.01  -0.01  -0.00
     2   1     0.01   0.01   0.01    -0.01  -0.01  -0.01    -0.01  -0.01  -0.01
     3   6    -0.00   0.00  -0.00    -0.00  -0.00   0.00    -0.00   0.00   0.00
     4   6    -0.10  -0.05  -0.00     0.04   0.03   0.00     0.03   0.02   0.01
     5   8    -0.00   0.02   0.01     0.00  -0.01  -0.01     0.00  -0.01  -0.01
     6   8     0.11   0.02  -0.03    -0.03   0.00   0.02    -0.02   0.01   0.02
     7   6    -0.05   0.01   0.01    -0.04   0.03  -0.02    -0.11   0.05  -0.05
     8   6    -0.04  -0.03   0.01    -0.08   0.02  -0.09     0.09  -0.05   0.03
     9   1     0.58  -0.47  -0.02     0.22  -0.21   0.15     0.39  -0.38   0.17
    10   1    -0.41   0.43   0.03     0.38  -0.15   0.09     0.50  -0.19   0.11
    11   1    -0.04  -0.01  -0.05     0.22  -0.28   0.28    -0.27   0.22  -0.03
    12   1     0.17   0.00   0.13     0.42  -0.03   0.13    -0.28   0.19  -0.03
    13   1     0.05   0.04   0.03     0.29  -0.01   0.45    -0.14  -0.05  -0.28
    14   8    -0.00   0.00  -0.00    -0.00  -0.00   0.00     0.00  -0.00   0.00
    15   1    -0.00   0.00  -0.00     0.00   0.00   0.00     0.00   0.00   0.00
                     28                     29                     30
                      A                      A                      A
 Frequencies --   1488.4791              1503.1279              1528.8193
 Red. masses --      1.0378                 1.0478                 1.1007
 Frc consts  --      1.3548                 1.3948                 1.5157
 IR Inten    --      5.5536                 4.4867                 5.1935
  Atom  AN      X      Y      Z        X      Y      Z        X      Y      Z
     1   6     0.00   0.00   0.00    -0.00  -0.00  -0.00     0.00   0.01   0.00
     2   1    -0.00   0.00   0.00    -0.00  -0.00  -0.00     0.00   0.01   0.01
     3   6     0.00   0.00  -0.00    -0.00  -0.00   0.00     0.00  -0.00  -0.00
     4   6    -0.00  -0.00   0.00     0.01   0.00  -0.00    -0.02  -0.02  -0.00
     5   8     0.00  -0.00  -0.00     0.00  -0.00  -0.00    -0.00   0.01   0.00
     6   8     0.00   0.00  -0.00    -0.01   0.00   0.01     0.02  -0.01  -0.01
     7   6    -0.02  -0.01   0.01     0.02  -0.01   0.02     0.01  -0.04  -0.06
     8   6    -0.03  -0.03   0.02     0.00  -0.03  -0.04     0.00  -0.00  -0.01
     9   1    -0.00  -0.01  -0.04     0.03   0.05  -0.26    -0.34   0.06   0.59
    10   1     0.04  -0.01   0.04    -0.17  -0.15  -0.14     0.19   0.54   0.29
    11   1     0.42  -0.29  -0.13    -0.17  -0.07   0.56    -0.04  -0.03   0.21
    12   1    -0.38   0.30  -0.01     0.18   0.53   0.31     0.06   0.18   0.11
    13   1     0.43   0.50  -0.22    -0.11   0.05  -0.30    -0.06   0.02  -0.13
    14   8     0.00  -0.00   0.00    -0.00  -0.00  -0.00     0.00   0.00  -0.00
    15   1    -0.00  -0.00  -0.00     0.00   0.00   0.00    -0.00   0.00  -0.00
                     31                     32                     33
                      A                      A                      A
 Frequencies --   1862.0301              2171.0259              3075.7441
 Red. masses --     12.9379                 6.0070                 1.0354
 Frc consts  --     26.4293                16.6817                 5.7713
 IR Inten    --    528.7005                80.4803                11.8997
  Atom  AN      X      Y      Z        X      Y      Z        X      Y      Z
     1   6    -0.03  -0.03  -0.02    -0.25  -0.26  -0.16     0.00   0.00   0.00
     2   1    -0.06  -0.03  -0.01    -0.47  -0.48  -0.30    -0.00  -0.00  -0.00
     3   6     0.03   0.02   0.00     0.33   0.38   0.19    -0.00  -0.00  -0.00
     4   6    -0.43   0.59   0.37    -0.04  -0.08  -0.02     0.00   0.00  -0.00
     5   8     0.27  -0.41  -0.25    -0.00   0.00   0.00    -0.00   0.00   0.00
     6   8     0.04  -0.03  -0.02     0.00  -0.00  -0.00    -0.00  -0.00   0.00
     7   6     0.03  -0.01  -0.01    -0.00  -0.00  -0.00     0.00   0.00   0.00
     8   6    -0.01   0.00   0.00    -0.00   0.00  -0.00    -0.04   0.01  -0.02
     9   1    -0.08   0.04   0.05    -0.02   0.01   0.00    -0.01  -0.02  -0.01
    10   1    -0.02   0.08  -0.00    -0.00   0.00   0.00    -0.00   0.00  -0.00
    11   1     0.00  -0.00   0.01     0.00  -0.00   0.00     0.32   0.46   0.13
    12   1     0.01   0.00   0.01     0.00   0.00   0.00    -0.21  -0.19   0.41
    13   1    -0.02   0.00  -0.02    -0.00  -0.00  -0.00     0.37  -0.45  -0.27
    14   8     0.00  -0.00   0.00     0.01  -0.01   0.01     0.00   0.00  -0.00
    15   1     0.01   0.02   0.01     0.00  -0.00  -0.00    -0.00   0.00   0.00
                     34                     35                     36
                      A                      A                      A
 Frequencies --   3097.1884              3145.4076              3154.5641
 Red. masses --      1.0606                 1.1051                 1.1011
 Frc consts  --      5.9940                 6.4416                 6.4560
 IR Inten    --     20.3460                 4.4127                12.1566
  Atom  AN      X      Y      Z        X      Y      Z        X      Y      Z
     1   6    -0.00   0.00   0.00    -0.00   0.00   0.00    -0.00   0.00   0.00
     2   1    -0.00   0.00   0.00    -0.00  -0.00  -0.00    -0.00   0.00   0.00
     3   6    -0.00   0.00   0.00    -0.00  -0.00   0.00    -0.00   0.00  -0.00
     4   6    -0.00   0.00   0.00    -0.00  -0.00   0.00    -0.00   0.00   0.00
     5   8     0.00  -0.00  -0.00     0.00  -0.00  -0.00     0.00  -0.00  -0.00
     6   8     0.00  -0.00  -0.00     0.00  -0.00  -0.00    -0.00   0.00   0.00
     7   6    -0.00  -0.01  -0.07    -0.04  -0.05   0.02    -0.03  -0.04   0.00
     8   6    -0.01   0.00   0.01     0.01   0.06   0.01     0.03  -0.05  -0.06
     9   1     0.33   0.43   0.10     0.36   0.46   0.13     0.29   0.37   0.10
    10   1    -0.32  -0.32   0.69     0.16   0.16  -0.36     0.07   0.07  -0.16
    11   1    -0.01  -0.01   0.00    -0.30  -0.43  -0.12     0.22   0.29   0.08
    12   1     0.03   0.03  -0.06    -0.07  -0.05   0.14    -0.17  -0.17   0.35
    13   1     0.05  -0.07  -0.04     0.22  -0.25  -0.16    -0.38   0.44   0.26
    14   8    -0.00  -0.00   0.00    -0.00  -0.00   0.00     0.00  -0.00   0.00
    15   1     0.00  -0.00  -0.00     0.00   0.00  -0.00    -0.00   0.00  -0.00
                     37                     38                     39
                      A                      A                      A
 Frequencies --   3171.6209              3476.6342              3807.7778
 Red. masses --      1.1055                 1.1586                 1.0675
 Frc consts  --      6.5521                 8.2512                 9.1189
 IR Inten    --     15.6266                70.1878                48.2068
  Atom  AN      X      Y      Z        X      Y      Z        X      Y      Z
     1   6     0.00  -0.00  -0.00    -0.07  -0.08  -0.04     0.00   0.00   0.00
     2   1     0.00  -0.00  -0.00     0.62   0.68   0.39    -0.00  -0.00  -0.00
     3   6     0.00   0.00   0.00     0.02   0.02   0.01    -0.00   0.00  -0.00
     4   6     0.00   0.00  -0.00    -0.00  -0.00  -0.00    -0.00  -0.00  -0.00
     5   8    -0.00   0.00   0.00     0.00  -0.00  -0.00     0.00   0.00   0.00
     6   8    -0.00  -0.00   0.00     0.00  -0.00  -0.00     0.00   0.00  -0.00
     7   6     0.03   0.03  -0.02    -0.00   0.00   0.00     0.00   0.00   0.00
     8   6     0.05   0.05  -0.05     0.00   0.00  -0.00     0.00   0.00  -0.00
     9   1    -0.21  -0.26  -0.07    -0.00   0.00   0.00    -0.00  -0.00  -0.00
    10   1    -0.11  -0.11   0.25     0.00   0.00  -0.00    -0.00  -0.00   0.00
    11   1    -0.27  -0.39  -0.12    -0.00  -0.00   0.00    -0.00  -0.00   0.00
    12   1    -0.29  -0.27   0.61    -0.00   0.00   0.00    -0.00  -0.00   0.00
    13   1    -0.07   0.10   0.05     0.00  -0.00  -0.00    -0.00  -0.00   0.00
    14   8     0.00   0.00  -0.00     0.00  -0.00   0.00    -0.05  -0.01   0.04
    15   1    -0.00   0.00   0.00     0.00   0.00  -0.00     0.79   0.14  -0.59

 -------------------
 - Thermochemistry -
 -------------------
 Temperature   298.150 Kelvin.  Pressure   1.00000 Atm.
 Atom     1 has atomic number  6 and mass  12.00000
 Atom     2 has atomic number  1 and mass   1.00783
 Atom     3 has atomic number  6 and mass  12.00000
 Atom     4 has atomic number  6 and mass  12.00000
 Atom     5 has atomic number  8 and mass  15.99491
 Atom     6 has atomic number  8 and mass  15.99491
 Atom     7 has atomic number  6 and mass  12.00000
 Atom     8 has atomic number  6 and mass  12.00000
 Atom     9 has atomic number  1 and mass   1.00783
 Atom    10 has atomic number  1 and mass   1.00783
 Atom    11 has atomic number  1 and mass   1.00783
 Atom    12 has atomic number  1 and mass   1.00783
 Atom    13 has atomic number  1 and mass   1.00783
 Atom    14 has atomic number  8 and mass  15.99491
 Atom    15 has atomic number  1 and mass   1.00783
 Molecular mass:   115.03952 amu.
 Principal axes and moments of inertia in atomic units:
                           1         2         3
     Eigenvalues --   695.009861085.046551409.38997
           X            0.99978   0.02079   0.00210
           Y           -0.02078   0.99977  -0.00533
           Z           -0.00221   0.00529   0.99998
 This molecule is an asymmetric top.
 Rotational symmetry number  1.
 Warning -- assumption of classical behavior for rotation
           may cause significant error
 Rotational temperatures (Kelvin)      0.12462     0.07983     0.06145
 Rotational constants (GHZ):           2.59671     1.66328     1.28051
    1 imaginary frequencies ignored.
 Zero-point vibrational energy     292966.8 (Joules/Mol)
                                   70.02075 (Kcal/Mol)
 Warning -- explicit consideration of  12 degrees of freedom as
           vibrations may cause significant error
 Vibrational temperatures:     90.61   125.96   163.00   199.07   253.83
          (Kelvin)            301.84   324.30   371.98   505.94   575.32
                              787.04   892.73   963.23  1016.00  1067.09
                             1075.92  1097.39  1176.71  1385.65  1576.92
                             1640.43  1696.15  1845.93  1958.65  2019.18
                             2064.58  2141.59  2162.67  2199.63  2679.05
                             3123.62  4425.31  4456.16  4525.54  4538.71
                             4563.26  5002.10  5478.54
 
 Zero-point correction=                           0.111585 (Hartree/Particle)
 Thermal correction to Energy=                    0.121256
 Thermal correction to Enthalpy=                  0.122201
 Thermal correction to Gibbs Free Energy=         0.076042
 Sum of electronic and zero-point Energies=           -420.086270
 Sum of electronic and thermal Energies=              -420.076599
 Sum of electronic and thermal Enthalpies=            -420.075654
 Sum of electronic and thermal Free Energies=         -420.121813
 
                     E (Thermal)             CV                S
                      KCal/Mol        Cal/Mol-Kelvin    Cal/Mol-Kelvin
 Total                   76.090             32.596             97.150
 Electronic               0.000              0.000              1.377
 Translational            0.889              2.981             40.136
 Rotational               0.889              2.981             28.454
 Vibrational             74.312             26.634             27.183
 Vibration     1          0.597              1.972              4.362
 Vibration     2          0.601              1.958              3.714
 Vibration     3          0.607              1.938              3.212
 Vibration     4          0.614              1.915              2.826
 Vibration     5          0.628              1.871              2.366
 Vibration     6          0.642              1.826              2.046
 Vibration     7          0.650              1.802              1.915
 Vibration     8          0.667              1.748              1.672
 Vibration     9          0.728              1.572              1.159
 Vibration    10          0.766              1.470              0.963
 Vibration    11          0.902              1.146              0.550
 Vibration    12          0.981              0.989              0.416
                       Q            Log10(Q)             Ln(Q)
 Total Bot       0.105512D-34        -34.976698        -80.536823
 Total V=0       0.223292D+17         16.348874         37.644673
 Vib (Bot)       0.294759D-48        -48.530533       -111.745682
 Vib (Bot)    1  0.327791D+01          0.515598          1.187207
 Vib (Bot)    2  0.234957D+01          0.370989          0.854233
 Vib (Bot)    3  0.180651D+01          0.256841          0.591399
 Vib (Bot)    4  0.147022D+01          0.167382          0.385412
 Vib (Bot)    5  0.113987D+01          0.056857          0.130917
 Vib (Bot)    6  0.946832D+00         -0.023727         -0.054633
 Vib (Bot)    7  0.875556D+00         -0.057716         -0.132897
 Vib (Bot)    8  0.751801D+00         -0.123897         -0.285283
 Vib (Bot)    9  0.524115D+00         -0.280574         -0.646045
 Vib (Bot)   10  0.445782D+00         -0.350877         -0.807925
 Vib (Bot)   11  0.287705D+00         -0.541053         -1.245821
 Vib (Bot)   12  0.235572D+00         -0.627876         -1.445739
 Vib (V=0)       0.623790D+03          2.795039          6.435814
 Vib (V=0)    1  0.381583D+01          0.581589          1.339158
 Vib (V=0)    2  0.290218D+01          0.462725          1.065464
 Vib (V=0)    3  0.237443D+01          0.375560          0.864758
 Vib (V=0)    4  0.205292D+01          0.312371          0.719261
 Vib (V=0)    5  0.174471D+01          0.241724          0.556590
 Vib (V=0)    6  0.157074D+01          0.196105          0.451549
 Vib (V=0)    7  0.150826D+01          0.178478          0.410960
 Vib (V=0)    8  0.140289D+01          0.147023          0.338532
 Vib (V=0)    9  0.122436D+01          0.087909          0.202418
 Vib (V=0)   10  0.116987D+01          0.068136          0.156890
 Vib (V=0)   11  0.107687D+01          0.032162          0.074055
 Vib (V=0)   12  0.105272D+01          0.022311          0.051373
 Electronic      0.200000D+01          0.301030          0.693147
 Translational   0.484981D+08          7.685724         17.697035
 Rotational      0.369046D+06          5.567081         12.818677
 ***** Axes restored to original set *****
 -------------------------------------------------------------------
 Center     Atomic                   Forces (Hartrees/Bohr)
 Number     Number              X              Y              Z
 -------------------------------------------------------------------
      1        6          -0.000240126   -0.000790300   -0.000291689
      2        1           0.000143732   -0.000213035    0.000191025
      3        6          -0.003268071    0.005149150   -0.006538795
      4        6          -0.000700677    0.000763978   -0.001001894
      5        8           0.000576218    0.000513805    0.001078820
      6        8           0.000038018   -0.000220918    0.000562064
      7        6          -0.000318884   -0.000125069   -0.000199608
      8        6           0.000118282    0.000032283    0.000073579
      9        1          -0.000062175    0.000058901    0.000134518
     10        1          -0.000041755   -0.000065305    0.000098096
     11        1          -0.000027140   -0.000052325   -0.000113662
     12        1          -0.000022686    0.000028418   -0.000054559
     13        1          -0.000042187    0.000001964   -0.000009840
     14        8           0.003757109   -0.005051744    0.005981367
     15        1           0.000090343   -0.000029804    0.000090579
 -------------------------------------------------------------------
 Cartesian Forces:  Max     0.006538795 RMS     0.001889711

 GradGradGradGradGradGradGradGradGradGradGradGradGradGradGradGradGradGrad
 Berny optimization.
 Search for a local minimum.
 Step number   1 out of a maximum of    2
 All quantities printed in internal units (Hartrees-Bohrs-Radians)
 Second derivative matrix not updated -- analytic derivatives used.
 ITU=  0
     Eigenvalues ---   -0.04024   0.00091   0.00122   0.00175   0.00233
     Eigenvalues ---    0.00340   0.00552   0.00592   0.01064   0.02032
     Eigenvalues ---    0.02474   0.02876   0.03430   0.05603   0.06668
     Eigenvalues ---    0.07609   0.07850   0.08391   0.09096   0.10273
     Eigenvalues ---    0.11555   0.13910   0.16403   0.17992   0.22987
     Eigenvalues ---    0.24593   0.26482   0.36047   0.50447   0.62036
     Eigenvalues ---    0.70885   0.76832   0.78423   0.86395   0.89994
     Eigenvalues ---    0.94616   1.00670   1.77099   2.53118
 Eigenvalue     1 is  -4.02D-02 should be greater than     0.000000 Eigenvector:
                          Z3        Z14       Y3        Y14       X14
   1                    0.54125  -0.44225  -0.41088   0.37115  -0.29571
                          X3        Z15       Y2        Z4        Z5
   1                    0.25832  -0.09022   0.08643   0.08553  -0.07858
 Quadratic step=4.269D-01 exceeds max=3.000D-01 adjusted using Lamda=-3.186D-03.
 Angle between NR and scaled steps=  29.28 degrees.
 Angle between quadratic step and forces=  13.76 degrees.
 Linear search not attempted -- first point.
 B after Tr=     0.002786   -0.000583    0.000054
         Rot=    1.000000    0.000113   -0.000246   -0.000166 Ang=   0.04 deg.
 Variable       Old X    -DE/DX   Delta X   Delta X   Delta X     New X
                                 (Linear)    (Quad)   (Total)
    X1       -3.85452  -0.00024   0.00000  -0.01536  -0.01267  -3.86719
    Y1       -2.11003  -0.00079   0.00000  -0.00458  -0.00681  -2.11684
    Z1       -1.61984  -0.00029   0.00000   0.00183   0.00427  -1.61557
    X2       -5.10593   0.00014   0.00000  -0.02548  -0.02271  -5.12864
    Y2       -3.48310  -0.00021   0.00000   0.00232  -0.00050  -3.48360
    Z2       -2.39674   0.00019   0.00000   0.01356   0.01692  -2.37982
    X3       -2.37889  -0.00327   0.00000  -0.07804  -0.07549  -2.45438
    Y3       -0.63332   0.00515   0.00000   0.11742   0.11583  -0.51749
    Z3       -0.69341  -0.00654   0.00000  -0.14676  -0.14538  -0.83879
    X4       -1.04220  -0.00070   0.00000  -0.01560  -0.01335  -1.05555
    Y4        1.68728   0.00076   0.00000   0.01989   0.01897   1.70625
    Z4        0.08861  -0.00100   0.00000  -0.02906  -0.02887   0.05973
    X5       -2.18737   0.00058   0.00000   0.00917   0.01136  -2.17601
    Y5        3.36193   0.00051   0.00000   0.01826   0.01720   3.37914
    Z5        1.07902   0.00108   0.00000   0.00777   0.00813   1.08716
    X6        1.40703   0.00004   0.00000  -0.00433  -0.00237   1.40466
    Y6        1.85997  -0.00022   0.00000  -0.00274  -0.00295   1.85702
    Z6       -0.41573   0.00056   0.00000   0.00106   0.00000  -0.41573
    X7        2.86425  -0.00032   0.00000  -0.00326  -0.00115   2.86310
    Y7       -0.17114  -0.00013   0.00000   0.00142   0.00145  -0.16970
    Z7       -1.49098  -0.00020   0.00000  -0.00107  -0.00239  -1.49336
    X8        4.92363   0.00012   0.00000  -0.00969  -0.00643   4.91721
    Y8       -0.90498   0.00003   0.00000  -0.00083   0.00030  -0.90467
    Z8        0.35227   0.00007   0.00000   0.00749   0.00533   0.35760
    X9        1.64640  -0.00006   0.00000  -0.00136   0.00105   1.64746
    Y9       -1.77336   0.00006   0.00000   0.00226   0.00178  -1.77157
    Z9       -1.92935   0.00013   0.00000  -0.00976  -0.01012  -1.93947
   X10        3.64649  -0.00004   0.00000   0.00999   0.01099   3.65748
   Y10        0.57642  -0.00007   0.00000   0.00304   0.00294   0.57935
   Z10       -3.24621   0.00010   0.00000   0.00507   0.00319  -3.24302
   X11        6.08356  -0.00003   0.00000  -0.00810  -0.00515   6.07841
   Y11        0.73252  -0.00005   0.00000  -0.00337  -0.00174   0.73077
   Z11        0.82350  -0.00011   0.00000   0.01196   0.00886   0.83235
   X12        4.09065  -0.00002   0.00000  -0.01730  -0.01294   4.07771
   Y12       -1.66295   0.00003   0.00000   0.00306   0.00430  -1.65865
   Z12        2.07665  -0.00005   0.00000   0.00509   0.00351   2.08016
   X13        6.13118  -0.00004   0.00000  -0.00836  -0.00503   6.12614
   Y13       -2.34854   0.00000   0.00000  -0.00434  -0.00300  -2.35154
   Z13       -0.49380  -0.00001   0.00000   0.01550   0.01307  -0.48073
   X14       -0.51883   0.00376   0.00000   0.11593   0.12077  -0.39806
   Y14       -2.92194  -0.00505   0.00000  -0.12385  -0.12409  -3.04603
   Z14        1.99119   0.00598   0.00000   0.12212   0.12306   2.11425
   X15       -1.97322   0.00009   0.00000   0.00775   0.01311  -1.96011
   Y15       -3.15568  -0.00003   0.00000  -0.02314  -0.02368  -3.17936
   Z15        3.08420   0.00009   0.00000  -0.00132   0.00042   3.08461
         Item               Value     Threshold  Converged?
 Maximum Force            0.006539     0.000450     NO 
 RMS     Force            0.001890     0.000300     NO 
 Maximum Displacement     0.145385     0.001800     NO 
 RMS     Displacement     0.044685     0.001200     NO 
 Predicted change in Energy=-5.340141D-03
 GradGradGradGradGradGradGradGradGradGradGradGradGradGradGradGradGradGrad


 ----------------------------------------------------------------------

 Electric dipole moment (input orientation):
 (Debye = 10**-18 statcoulomb cm , SI units = C m)
                  (au)            (Debye)         (10**-30 SI)
   Tot        0.165939D+01      0.421776D+01      0.140689D+02
   x         -0.396117D-01     -0.100683D+00     -0.335842D+00
   y         -0.153031D+01     -0.388967D+01     -0.129746D+02
   z         -0.640435D+00     -0.162782D+01     -0.542983D+01

 Dipole polarizability, Alpha (input orientation).
 (esu units = cm**3 , SI units = C**2 m**2 J**-1)
 Alpha(0;0):
               (au)            (10**-24 esu)      (10**-40 SI)
   iso        0.745496D+02      0.110471D+02      0.122916D+02
   aniso      0.233632D+02      0.346207D+01      0.385207D+01
   xx         0.858290D+02      0.127185D+02      0.141513D+02
   yx         0.246388D+00      0.365109D-01      0.406239D-01
   yy         0.712198D+02      0.105537D+02      0.117426D+02
   zx         0.869068D+01      0.128783D+01      0.143290D+01
   zy         0.236720D+01      0.350783D+00      0.390299D+00
   zz         0.666000D+02      0.986911D+01      0.109809D+02

 ----------------------------------------------------------------------

 Dipole orientation:
     6         -3.78074995         -0.73983598          2.66307482
     1         -4.99129049         -0.94569036          4.25905798
     6         -2.35130104         -0.43256894          0.90845704
     6         -1.07068265         -0.58673188         -1.56534959
     8         -2.26563041         -0.33855786         -3.46464795
     8          1.38682941         -1.07965427         -1.58842903
     6          2.90138249         -1.26337856          0.66489145
     6          4.92757534          0.75272014          0.58109243
     1          1.71995196         -1.06797278          2.34073368
     1          3.71332517         -3.15847882          0.63423471
     1          6.04976125          0.57305707         -1.13858180
     1          4.06580700          2.62257916          0.63447475
     1          6.17774762          0.54937531          2.21007573
     8         -0.51973475          2.95696693          1.93854713
     1         -1.99590734          4.03215711          1.76697905

 Electric dipole moment (dipole orientation):
 (Debye = 10**-18 statcoulomb cm , SI units = C m)
                  (au)            (Debye)         (10**-30 SI)
   Tot        0.165939D+01      0.421776D+01      0.140689D+02
   x          0.000000D+00      0.000000D+00      0.000000D+00
   y          0.000000D+00      0.000000D+00      0.000000D+00
   z          0.165939D+01      0.421776D+01      0.140689D+02

 Dipole polarizability, Alpha (dipole orientation).
 (esu units = cm**3 , SI units = C**2 m**2 J**-1)
 Alpha(0;0):
               (au)            (10**-24 esu)      (10**-40 SI)
   iso        0.745496D+02      0.110471D+02      0.122916D+02
   aniso      0.233632D+02      0.346207D+01      0.385207D+01
   xx         0.853936D+02      0.126540D+02      0.140795D+02
   yx         0.823367D+01      0.122010D+01      0.135755D+01
   yy         0.658592D+02      0.975932D+01      0.108587D+02
   zx        -0.389936D+01     -0.577826D+00     -0.642918D+00
   zy        -0.267472D+00     -0.396353D-01     -0.441002D-01
   zz         0.723960D+02      0.107280D+02      0.119365D+02

 ----------------------------------------------------------------------
 1\1\GINC-BOSON\Freq\UM062X\6-311++G(d,p)\C5H7O3(2)\LOKI\28-Mar-2025\0\
 \# freq 6-311++g(d,p) m062x\\Title Card Required\\0,2\C,-2.039723,-1.1
 16579,-0.85718\H,-2.701941,-1.843179,-1.268301\C,-1.258855,-0.335137,-
 0.366935\C,-0.551506,0.89287,0.046888\O,-1.157507,1.779059,0.570995\O,
 0.744567,0.984255,-0.219995\C,1.515696,-0.090565,-0.78899\C,2.605475,-
 0.478894,0.186414\H,0.87124,-0.93842,-1.020968\H,1.929639,0.305026,-1.
 717821\H,3.219279,0.387631,0.435775\H,2.164677,-0.879996,1.098915\H,3.
 244479,-1.242795,-0.261306\O,-0.274552,-1.546224,1.053691\H,-1.044183,
 -1.669912,1.632086\\Version=ES64L-G16RevA.03\State=2-A\HF=-420.197855\
 S2=0.764907\S2-1=0.\S2A=0.750101\RMSD=2.328e-09\RMSF=1.890e-03\ZeroPoi
 nt=0.1115852\Thermal=0.1212564\Dipole=-0.0396117,-1.5303149,-0.6404348
 \DipoleDeriv=-0.0721329,-0.2015912,0.1668622,0.0598548,-0.3670463,0.16
 3017,0.0786096,-0.0868266,-0.0157694,0.2606922,0.0172682,0.0242285,0.0
 358012,0.2293597,0.0351521,0.0190301,0.026292,0.2211925,-0.5211385,0.1
 130448,-0.4491386,-0.1327569,-0.2677391,0.0110207,-0.3473655,0.1619563
 ,-0.531409,2.3458732,-0.1150524,-0.5058601,0.0635108,1.5942655,0.29261
 86,-0.3886527,0.5543492,0.6741255,-0.9056792,0.2217105,0.1946837,0.334
 8504,-1.1236438,-0.3038955,0.2720309,-0.3878047,-0.5331465,-1.7606151,
 0.3259683,0.424353,0.1378188,-0.6043377,-0.0720026,0.3389043,-0.171495
 6,-0.4355915,0.6819055,-0.2118802,-0.1134229,-0.3976004,0.4535458,0.08
 03374,-0.1878516,0.0389465,0.3938866,-0.0500226,0.0358324,-0.0232889,0
 .0524336,0.0425074,0.018195,-0.0641342,0.0604133,-0.0527489,-0.0445665
 ,-0.038871,-0.0429977,0.009723,-0.0256458,-0.0403176,-0.0299257,-0.020
 9992,0.0354093,-0.0246411,0.0201488,0.0475761,0.0126263,0.015128,0.076
 2888,0.0710928,0.0311998,-0.0864888,0.0035317,-0.0478794,-0.0395123,-0
 .1007553,-0.0376957,-0.0341103,-0.035797,-0.0061214,0.0641586,0.067465
 2,-0.0263892,0.0678741,-0.0112305,0.0537029,0.0429144,0.0261757,0.0470
 865,-0.028857,-0.0160628,0.0701464,0.0235519,0.0986807,-0.0080119,-0.0
 555933,0.0403244,-0.0676177,0.0363478,-0.1053652,-0.1798255,0.232875,-
 0.147901,-0.2662445,-0.1841843,0.1172269,-0.1520675,-0.0553365,0.14075
 59,0.0173696,-0.0077839,-0.0150554,0.3118554,-0.0294403,0.0903319,-0.0
 273109,0.3142273\Polar=85.8290045,0.246388,71.219756,8.6906807,2.36720
 1,66.6000223\Quadrupole=3.6425226,-5.0931506,1.450628,5.8116539,0.3560
 4,-1.2041733\PG=C01 [X(C5H7O3)]\NImag=1\\0.62708546,0.60211865,0.68983
 162,0.35716074,0.37260960,0.28024660,-0.17740033,-0.16646307,-0.094357
 42,0.16897191,-0.17129668,-0.21111585,-0.10597131,0.16851851,0.1994854
 3,-0.09333846,-0.10212328,-0.08559303,0.09497077,0.10452838,0.07604745
 ,-0.43439663,-0.42218073,-0.24782489,0.00494595,0.00522222,0.00063814,
 0.55706946,-0.45515974,-0.49459570,-0.28399482,-0.00100021,0.00990798,
 -0.00177984,0.54942242,0.70822795,-0.23766831,-0.25376349,-0.17783198,
 0.00073041,0.00214232,0.00641060,0.23796382,0.35204330,0.20524856,0.00
 665293,0.00082592,0.00127968,0.00326541,-0.00341746,-0.00248566,-0.120
 19320,-0.08035505,-0.02977663,0.68406402,0.01510194,0.01126127,0.00856
 364,-0.00106839,0.00124499,-0.00120595,-0.08447474,-0.15394503,-0.0454
 9227,-0.15756557,0.75686790,-0.00390343,-0.00612367,-0.00012413,-0.001
 43195,-0.00157903,0.00442386,-0.01644038,-0.02397339,-0.07409272,-0.17
 208212,0.28083728,0.36549573,-0.00110977,-0.00308862,-0.00111044,-0.00
 021610,0.00058518,0.00038106,0.01913412,0.00455874,0.00282228,-0.24905
 444,0.24536880,0.14536390,0.31140610,-0.00382575,-0.00238045,-0.001238
 10,-0.00083041,0.00086352,0.00116775,0.01028852,-0.06132544,-0.0379007
 2,0.25466837,-0.49440091,-0.23923317,-0.30185933,0.54122793,-0.0003630
 6,0.00038824,0.00054864,-0.00021979,0.00074476,-0.00043647,0.00390495,
 -0.03826258,0.00395915,0.15002065,-0.23861577,-0.21520671,-0.19532970,
 0.29239508,0.20494283,-0.00451732,-0.00677896,-0.00338847,0.00054120,0
 .00027188,-0.00011018,-0.03306070,-0.01913440,0.00860284,-0.29971764,-
 0.05441491,0.03575618,-0.07841794,0.04479366,0.04146354,0.55275778,-0.
 00207392,-0.00260798,-0.00168895,0.00062946,-0.00047313,-0.00037316,-0
 .03161338,-0.00803560,-0.00100593,-0.02425302,-0.10850718,-0.01847736,
 0.05997312,0.01026197,-0.01708289,-0.06549810,0.30567557,0.00134103,0.
 00089959,0.00092003,0.00015592,0.00012112,-0.00070975,-0.00482465,-0.0
 0625861,0.01261276,0.04593974,-0.01213622,-0.05850873,0.04783213,-0.01
 375705,-0.00176884,-0.13387500,0.11140181,0.13105950,0.00130245,0.0026
 8912,0.00138310,-0.00023691,-0.00007872,0.00000323,-0.00330550,0.00156
 545,-0.00054138,-0.03476426,0.02335812,0.01425852,0.00291616,-0.002904
 06,-0.00070755,-0.10084653,0.02338586,0.02431541,0.53513534,-0.0006957
 2,-0.00306965,-0.00208798,0.00013864,-0.00003745,-0.00006800,-0.005133
 78,0.00079316,0.00392623,0.02850633,0.00702925,0.00067021,-0.01296865,
 0.00707620,0.00343744,0.03997035,-0.15871838,-0.05239479,0.10523179,0.
 53408804,-0.00031646,-0.00121504,-0.00077121,0.00011878,0.00001147,0.0
 0000757,-0.00245415,0.00001205,0.00196070,0.01514201,0.00166297,-0.019
 19712,-0.00251488,0.00015085,0.00920247,0.02962265,-0.04729804,-0.0827
 1252,-0.00681259,-0.02955136,0.56472390,-0.00030813,-0.00020581,0.0000
 4238,0.00002458,0.00002962,0.00000843,-0.00047643,-0.00014867,0.000122
 75,0.00084387,0.00281946,-0.00270532,-0.00097951,-0.00000709,0.0012809
 7,-0.02599823,0.01687044,-0.00795829,-0.14358298,0.01487786,-0.0644808
 4,0.54006104,-0.00035448,0.00039011,0.00035802,0.00005202,0.00000169,0
 .00000261,0.00044166,0.00015884,-0.00006101,-0.00506074,-0.00427100,0.
 00296268,0.00254387,-0.00065202,-0.00204927,0.03663436,-0.01502637,0.0
 1046052,0.00903333,-0.08233222,0.01970430,0.01905584,0.58106165,0.0005
 1643,0.00062520,0.00033462,0.00002096,0.00001136,0.00000269,-0.0009414
 3,0.00051282,-0.00097005,-0.00320910,-0.00375941,0.00239451,0.00217508
 ,-0.00057953,-0.00211820,0.01952644,-0.00610526,0.01199315,-0.07473236
 ,0.02633265,-0.15002832,-0.04442717,0.01660205,0.55442691,-0.00130033,
 0.00036199,0.00062313,-0.00012949,0.00001198,0.00002069,-0.00479475,0.
 00011140,0.00014614,0.00511569,0.00339013,0.00053293,-0.00135842,-0.00
 050025,0.00003269,0.00809893,0.02214709,0.00744934,-0.15249149,-0.1326
 0916,-0.03312239,-0.01398782,-0.01806921,-0.00468351,0.16856462,-0.000
 80714,0.00028778,0.00051451,-0.00001668,0.00009027,0.00001844,0.001246
 94,0.00043662,0.00016815,-0.00776158,-0.00067312,0.00086478,0.00170332
 ,-0.00010621,-0.00036997,-0.00283006,-0.02816753,-0.01072942,-0.121416
 27,-0.21008949,-0.04309769,0.00593884,0.01069776,0.00247756,0.13130804
 ,0.23386306,0.00005562,0.00037533,0.00008456,-0.00001268,0.00001549,0.
 00011786,0.00087571,0.00007093,-0.00056906,-0.00434917,-0.00191916,0.0
 0171700,0.00102189,0.00023002,-0.00033545,-0.00286829,-0.01672268,-0.0
 0610022,-0.02730683,-0.03685115,-0.06197592,-0.01405700,-0.01634772,-0
 .00386722,0.03199349,0.04885567,0.06477284,-0.00034067,-0.00019716,-0.
 00009849,0.00001133,0.00003500,0.00004355,0.00025441,-0.00033333,-0.00
 006441,0.00348051,0.00131283,0.00337299,-0.00199142,0.00101275,-0.0002
 3170,-0.01672913,0.00161586,0.01948641,-0.08690310,-0.04176177,0.08081
 707,0.01081714,0.01001681,-0.02307960,-0.00568869,-0.00733421,0.016049
 09,0.09938816,0.00017386,0.00049519,0.00027193,0.00001354,0.00001695,0
 .00003232,-0.00006517,-0.00000291,-0.00028294,-0.00497384,-0.00169299,
 -0.00333640,0.00292334,-0.00161719,0.00006955,0.02456958,0.00308037,-0
 .02879192,-0.04815519,-0.09176604,0.09405335,-0.00381458,-0.00226007,0
 .00624775,-0.00801897,-0.00647761,0.02123404,0.03534072,0.09904012,-0.
 00000337,0.00013168,0.00007996,-0.00000862,-0.00000678,-0.00002111,0.0
 0038785,0.00002940,-0.00010263,-0.00454147,-0.00098430,-0.00143612,0.0
 0153340,-0.00061208,-0.00022973,0.01464192,-0.00374700,-0.00967746,0.0
 8238324,0.08682794,-0.24009699,0.00672687,0.00971026,-0.01726511,-0.00
 305699,-0.00134453,0.00787064,-0.09471361,-0.09063112,0.26090344,0.000
 02967,0.00021901,0.00018347,0.00002828,0.00001507,0.00000829,0.0000092
 5,0.00012562,-0.00025202,-0.00109108,-0.00052502,0.00021713,0.00029421
 ,0.00010038,-0.00000798,0.00269602,-0.00069804,0.00086578,-0.01609848,
 -0.02011078,-0.00637612,-0.13166496,-0.12160179,-0.03269389,-0.0023304
 7,0.00209683,-0.00326586,0.00091464,0.00050519,0.00050478,0.14217605,0
 .00015458,0.00008202,0.00000498,0.00000434,0.00000429,0.00000920,-0.00
 020505,-0.00004076,-0.00024834,0.00061357,0.00004760,-0.00017555,-0.00
 022217,0.00012385,0.00016669,-0.00133995,0.00141247,0.00026587,0.00738
 602,0.00790963,0.00261861,-0.12400887,-0.22325858,-0.04865062,0.002165
 17,0.00007032,0.00128796,-0.00052003,0.00059781,-0.00065534,0.13336921
 ,0.23817531,-0.00022995,-0.00012477,0.00000451,0.00001214,0.00000584,-
 0.00000003,0.00039440,-0.00013601,0.00036414,0.00023043,0.00019560,0.0
 0011855,-0.00010778,-0.00003814,-0.00004617,0.00184076,0.00025437,0.00
 066425,-0.01367425,-0.02054658,-0.00668080,-0.03302812,-0.04621958,-0.
 06161232,-0.00303553,0.00234713,-0.00214901,0.00065415,-0.00046437,0.0
 0055087,0.04018304,0.05191906,0.06466346,-0.00028736,-0.00034189,-0.00
 013375,-0.00003045,-0.00002654,-0.00002847,0.00059003,-0.00013399,0.00
 064131,0.00009412,0.00063761,0.00003110,-0.00009179,-0.00018872,-0.000
 13974,0.00187366,-0.00160322,0.00123202,0.01029037,0.01051844,-0.02408
 105,-0.09447398,-0.04308956,0.09810328,0.00114082,-0.00033556,0.000738
 62,-0.00376480,0.00171306,-0.00358053,-0.00730533,-0.00446857,0.014345
 21,0.10132145,-0.00004199,-0.00019965,-0.00002739,-0.00001668,0.000023
 33,-0.00000638,0.00008798,-0.00012361,0.00013799,0.00083967,0.00026970
 ,0.00045026,-0.00017767,-0.00006080,-0.00013793,-0.00139794,0.00050588
 ,-0.00066781,-0.00216460,-0.00434385,0.00784931,-0.04259387,-0.0858233
 7,0.08432329,0.00026301,0.00016295,-0.00078320,0.00120548,0.00076843,0
 .00096137,-0.00938176,-0.00859033,0.02209153,0.04559407,0.08793578,-0.
 00026606,-0.00028830,-0.00015685,-0.00001498,-0.00001665,-0.00002074,0
 .00050945,-0.00012806,0.00058793,0.00081631,0.00077758,-0.00012122,-0.
 00040766,-0.00000226,0.00002778,-0.00051623,-0.00100366,0.00236728,0.0
 0972850,0.00764715,-0.02178260,0.09355739,0.08438505,-0.23865928,0.000
 48848,-0.00014208,0.00054961,-0.00383371,0.00078794,-0.00123772,-0.003
 79264,-0.00310863,0.00820416,-0.10086563,-0.09362936,0.25997216,-0.000
 09415,-0.00019727,-0.00006338,-0.00000542,0.00003631,0.00001011,-0.000
 02222,-0.00013732,0.00003776,0.00265334,0.00123586,-0.00107668,-0.0010
 0027,0.00031690,0.00076256,-0.00655744,0.00207350,-0.00301383,-0.01103
 341,0.01429925,0.01375702,-0.13919670,0.11073464,0.06344513,0.00019433
 ,-0.00078717,0.00028329,0.00082000,0.00005113,-0.00019255,0.01258489,-
 0.01282952,-0.00780987,-0.00755191,0.00871300,0.00369660,0.14939624,0.
 00010199,0.00009925,0.00007349,-0.00001241,-0.00000859,-0.00001003,0.0
 0006311,0.00011842,-0.00016847,-0.00132008,-0.00037161,0.00081304,0.00
 045359,-0.00023513,-0.00028629,0.00294070,0.00061850,0.00078949,0.0020
 4283,-0.00657012,-0.00474169,0.11133080,-0.17894783,-0.07774343,0.0002
 1261,0.00020789,0.00018704,-0.00026202,0.00004691,0.00031230,0.0159394
 4,-0.01646223,-0.00945408,-0.00809250,0.00978402,0.00434641,-0.1233400
 3,0.19179706,-0.00013617,-0.00013692,-0.00011563,-0.00000491,-0.000011
 88,0.00000313,0.00016328,-0.00006970,0.00027200,0.00108246,0.00136562,
 -0.00089391,-0.00086407,0.00024918,0.00072837,-0.00686420,0.00230492,-
 0.00119663,-0.00920365,0.01450844,0.01008417,0.06529600,-0.07960694,-0
 .09463363,0.00041886,-0.00066421,0.00069169,0.00122339,-0.00002578,0.0
 0040180,0.00427922,-0.00355048,-0.00394934,0.01416435,-0.02039886,-0.0
 0940661,-0.06976544,0.08585086,0.09806435,-0.01682755,-0.00869857,-0.0
 1312614,0.00023957,0.00001947,0.00004784,0.01483838,-0.00117158,0.0240
 6597,-0.00070132,0.00572588,-0.00210877,0.00053925,-0.00128501,-0.0006
 9987,-0.00066672,-0.00114539,0.00142180,-0.00048232,-0.00104296,0.0005
 1693,-0.00103040,-0.00025077,-0.00001484,-0.00082530,-0.00079313,0.001
 12874,-0.00017495,-0.00010992,-0.00002047,-0.00016814,-0.00007535,0.00
 018695,-0.00187513,-0.00089635,0.00060057,-0.00015562,-0.00003597,0.00
 018368,0.34212605,0.01672664,0.01155867,0.01277096,0.00008277,-0.00034
 915,0.00008047,-0.02050099,0.00022051,-0.02187457,0.00113813,-0.013059
 59,0.00362788,-0.00052919,0.00182321,0.00099445,0.00133601,0.00030474,
 0.00084772,0.00012997,-0.00037060,0.00009177,-0.00003391,0.00033216,-0
 .00005593,-0.00069800,-0.00014895,0.00025489,-0.00022345,-0.00020821,0
 .00000116,0.00001253,-0.00004276,0.00004732,-0.00012474,-0.00024625,0.
 00004208,-0.00013475,-0.00001341,0.00015400,0.05500002,0.01137371,-0.0
 2224937,-0.01078653,-0.01654224,0.00028010,0.00011820,0.00006218,0.024
 43640,0.00180800,0.02375210,-0.00002938,0.00713137,-0.00561531,-0.0005
 2561,0.00050300,0.00150757,-0.00216412,0.00003673,0.00104786,0.0001922
 3,-0.00147372,-0.00240157,-0.00011485,0.00021671,-0.00046447,0.0019187
 4,0.00101889,-0.00090212,0.00044261,0.00073060,0.00025571,0.00013304,0
 .00008463,0.00000978,-0.00053024,-0.00023966,-0.00006229,-0.00004332,-
 0.00000880,0.00001549,-0.24789209,-0.03917748,0.18651193,0.00151173,0.
 00193740,-0.00056952,-0.00000953,0.00007414,-0.00016934,-0.00059214,0.
 00179066,-0.00683054,-0.00064794,-0.00090201,0.00021589,-0.00007017,0.
 00022004,0.00023404,0.00054406,0.00018975,-0.00036781,0.00010067,0.000
 78015,0.00018401,-0.00004750,-0.00008597,-0.00000541,-0.00020763,-0.00
 021216,-0.00028662,-0.00009343,-0.00015274,-0.00006047,-0.00007455,-0.
 00002339,0.00003843,0.00007030,-0.00003234,0.00029960,-0.00003166,-0.0
 0002208,0.00002719,-0.33483580,-0.05218104,0.24614584,0.33438359,-0.00
 012224,-0.00003662,-0.00015857,-0.00003141,0.00034570,-0.00027251,-0.0
 0259901,-0.00179442,0.00237976,-0.00188466,0.00020073,0.00267244,0.000
 73566,-0.00059853,-0.00139153,0.00087779,-0.00032335,-0.00005030,-0.00
 010367,0.00040154,-0.00025084,-0.00011007,-0.00007075,-0.00023850,-0.0
 0007584,-0.00015374,0.00011254,0.00009254,-0.00002076,0.00000704,-0.00
 006589,-0.00002863,0.00012268,-0.00005789,-0.00006223,0.00033281,-0.00
 003453,-0.00006313,0.00003174,-0.04524039,-0.01117408,0.04003807,0.048
 61959,0.01337826,-0.00059919,-0.00046763,-0.00108384,-0.00023873,-0.00
 011330,-0.00029422,0.00321149,0.00012652,-0.00160152,0.00196224,0.0035
 7903,0.00104631,-0.00026959,-0.00133483,-0.00077525,-0.00166785,-0.000
 49290,0.00000932,0.00071440,-0.00037649,-0.00033176,-0.00026321,-0.000
 11767,0.00046672,0.00027393,0.00008277,0.00009481,-0.00006773,0.000105
 06,0.00000445,0.00001373,0.00003196,-0.00014205,0.00010352,0.00007684,
 -0.00026160,-0.00002740,0.00004017,-0.00006526,0.23570968,0.04219529,-
 0.18717461,-0.23885530,-0.04333482,0.19010848\\0.00024013,0.00079030,0
 .00029169,-0.00014373,0.00021304,-0.00019102,0.00326807,-0.00514915,0.
 00653879,0.00070068,-0.00076398,0.00100189,-0.00057622,-0.00051380,-0.
 00107882,-0.00003802,0.00022092,-0.00056206,0.00031888,0.00012507,0.00
 019961,-0.00011828,-0.00003228,-0.00007358,0.00006218,-0.00005890,-0.0
 0013452,0.00004176,0.00006531,-0.00009810,0.00002714,0.00005232,0.0001
 1366,0.00002269,-0.00002842,0.00005456,0.00004219,-0.00000196,0.000009
 84,-0.00375711,0.00505174,-0.00598137,-0.00009034,0.00002980,-0.000090
 58\\\@


 ACHIEVEMENT--  THE MAN WHO ROWS THE BOAT GENERALLY 
                DOESN'T HAVE TIME TO ROCK IT.

                   -- FROM THE BACK OF A SUGAR PACKET
 Job cpu time:       0 days  0 hours 50 minutes 43.7 seconds.
 Elapsed time:       0 days  0 hours 12 minutes 51.0 seconds.
 File lengths (MBytes):  RWF=    146 Int=      0 D2E=      0 Chk=      5 Scr=      1
 Normal termination of Gaussian 16 at Fri Mar 28 07:37:37 2025.
