 Entering Gaussian System, Link 0=g16
 Initial command:
 /opt/g16/l1.exe "/home/aayush/scratches/g16/Gau-12442.inp" -scrdir="/home/aayush/scratches/g16/"
 Entering Link 1 = /opt/g16/l1.exe PID=     12445.
  
 Copyright (c) 1988,1990,1992,1993,1995,1998,2003,2009,2016,
            Gaussian, Inc.  All Rights Reserved.
  
 This is part of the Gaussian(R) 16 program.  It is based on
 the Gaussian(R) 09 system (copyright 2009, Gaussian, Inc.),
 the Gaussian(R) 03 system (copyright 2003, Gaussian, Inc.),
 the Gaussian(R) 98 system (copyright 1998, Gaussian, Inc.),
 the Gaussian(R) 94 system (copyright 1995, Gaussian, Inc.),
 the Gaussian 92(TM) system (copyright 1992, Gaussian, Inc.),
 the Gaussian 90(TM) system (copyright 1990, Gaussian, Inc.),
 the Gaussian 88(TM) system (copyright 1988, Gaussian, Inc.),
 the Gaussian 86(TM) system (copyright 1986, Carnegie Mellon
 University), and the Gaussian 82(TM) system (copyright 1983,
 Carnegie Mellon University). Gaussian is a federally registered
 trademark of Gaussian, Inc.
  
 This software contains proprietary and confidential information,
 including trade secrets, belonging to Gaussian, Inc.
  
 This software is provided under written license and may be
 used, copied, transmitted, or stored only in accord with that
 written license.
  
 The following legend is applicable only to US Government
 contracts under FAR:
  
                    RESTRICTED RIGHTS LEGEND
  
 Use, reproduction and disclosure by the US Government is
 subject to restrictions as set forth in subparagraphs (a)
 and (c) of the Commercial Computer Software - Restricted
 Rights clause in FAR 52.227-19.
  
 Gaussian, Inc.
 340 Quinnipiac St., Bldg. 40, Wallingford CT 06492
  
  
 ---------------------------------------------------------------
 Warning -- This program may not be used in any manner that
 competes with the business of Gaussian, Inc. or will provide
 assistance to any competitor of Gaussian, Inc.  The licensee
 of this program is prohibited from giving any competitor of
 Gaussian, Inc. access to this program.  By using this program,
 the user acknowledges that Gaussian, Inc. is engaged in the
 business of creating and licensing software in the field of
 computational chemistry and represents and warrants to the
 licensee that it is not a competitor of Gaussian, Inc. and that
 it will not use this program in any manner prohibited above.
 ---------------------------------------------------------------
  

 Cite this work as:
 Gaussian 16, Revision A.03,
 M. J. Frisch, G. W. Trucks, H. B. Schlegel, G. E. Scuseria, 
 M. A. Robb, J. R. Cheeseman, G. Scalmani, V. Barone, 
 G. A. Petersson, H. Nakatsuji, X. Li, M. Caricato, A. V. Marenich, 
 J. Bloino, B. G. Janesko, R. Gomperts, B. Mennucci, H. P. Hratchian, 
 J. V. Ortiz, A. F. Izmaylov, J. L. Sonnenberg, D. Williams-Young, 
 F. Ding, F. Lipparini, F. Egidi, J. Goings, B. Peng, A. Petrone, 
 T. Henderson, D. Ranasinghe, V. G. Zakrzewski, J. Gao, N. Rega, 
 G. Zheng, W. Liang, M. Hada, M. Ehara, K. Toyota, R. Fukuda, 
 J. Hasegawa, M. Ishida, T. Nakajima, Y. Honda, O. Kitao, H. Nakai, 
 T. Vreven, K. Throssell, J. A. Montgomery, Jr., J. E. Peralta, 
 F. Ogliaro, M. J. Bearpark, J. J. Heyd, E. N. Brothers, K. N. Kudin, 
 V. N. Staroverov, T. A. Keith, R. Kobayashi, J. Normand, 
 K. Raghavachari, A. P. Rendell, J. C. Burant, S. S. Iyengar, 
 J. Tomasi, M. Cossi, J. M. Millam, M. Klene, C. Adamo, R. Cammi, 
 J. W. Ochterski, R. L. Martin, K. Morokuma, O. Farkas, 
 J. B. Foresman, and D. J. Fox, Gaussian, Inc., Wallingford CT, 2016.
 
 ******************************************
 Gaussian 16:  ES64L-G16RevA.03 25-Dec-2016
                13-May-2025 
 ******************************************
 %chk=ethyl_propiolate.chk
 %nprocshared=24
 Will use up to   24 processors via shared memory.
 %mem=12GB
 --------------------------
 # ccsd(t)/6-311++g(d,p) sp
 --------------------------
 1/38=1,172=1/1;
 2/12=2,17=6,18=5,40=1/2;
 3/5=4,6=6,7=1111,11=9,25=1,30=1/1,2,3;
 4//1;
 5/5=2,38=5/2;
 8/6=4,9=120000,10=2/1,4;
 9/5=7,14=2/13;
 6/7=2,8=2,9=2,10=2/1;
 99/5=1,9=1/99;
 -------------------
 Title Card Required
 -------------------
 Symbolic Z-matrix:
 Charge =  0 Multiplicity = 2
 C                    -2.03964  -1.10915  -0.85763 
 H                    -2.7079   -1.821    -1.28552 
 C                    -1.22756  -0.3825   -0.308 
 C                    -0.54786   0.88818   0.05348 
 O                    -1.16072   1.77592   0.56507 
 O                     0.7444    0.9855   -0.22288 
 C                     1.51783  -0.09003  -0.78965 
 C                     2.60555  -0.47881   0.18722 
 H                     0.87562  -0.93886  -1.02308 
 H                     1.93227   0.30737  -1.71741 
 H                     3.21941   0.38738   0.43771 
 H                     2.16141  -0.88124   1.09746 
 H                     3.24479  -1.24244  -0.26067 
 O                    -0.29891  -1.51335   1.01571 
 H                    -1.04558  -1.66044   1.6159 
 
                          Input orientation:                          
 ---------------------------------------------------------------------
 Center     Atomic      Atomic             Coordinates (Angstroms)
 Number     Number       Type             X           Y           Z
 ---------------------------------------------------------------------
      1          6           0       -2.039640   -1.109151   -0.857631
      2          1           0       -2.707898   -1.821001   -1.285520
      3          6           0       -1.227561   -0.382500   -0.308003
      4          6           0       -0.547856    0.888180    0.053481
      5          8           0       -1.160720    1.775915    0.565070
      6          8           0        0.744396    0.985503   -0.222881
      7          6           0        1.517834   -0.090030   -0.789651
      8          6           0        2.605549   -0.478810    0.187221
      9          1           0        0.875622   -0.938861   -1.023077
     10          1           0        1.932265    0.307369   -1.717413
     11          1           0        3.219413    0.387382    0.437714
     12          1           0        2.161413   -0.881236    1.097457
     13          1           0        3.244793   -1.242439   -0.260674
     14          8           0       -0.298905   -1.513351    1.015711
     15          1           0       -1.045576   -1.660443    1.615899
 ---------------------------------------------------------------------
                    Distance matrix (angstroms):
                    1          2          3          4          5
     1  C    0.000000
     2  H    1.066015   0.000000
     3  C    1.220486   2.283905   0.000000
     4  C    2.654218   3.714615   1.485698   0.000000
     5  O    3.334694   4.330848   2.329266   1.193901   0.000000
     6  O    3.541375   4.574276   2.401519   1.325052   2.207959
     7  C    3.701196   4.593360   2.802627   2.436153   3.534356
     8  C    4.802794   5.674783   3.866168   3.439551   4.405830
     9  H    2.924914   3.699819   2.290032   2.554084   3.746853
    10  H    4.303694   5.123241   3.528010   3.102323   4.114962
    11  H    5.619179   6.555876   4.574319   3.819784   4.596717
    12  H    4.639306   5.501993   3.702594   3.400126   4.287243
    13  H    5.319714   6.067913   4.554524   4.361470   5.403782
    14  O    2.589005   3.345678   1.973181   2.599080   3.430025
    15  H    2.722212   3.347734   2.316820   3.030570   3.595282
                    6          7          8          9         10
     6  O    0.000000
     7  C    1.440905   0.000000
     8  C    2.403391   1.512796   0.000000
     9  H    2.088231   1.089696   2.160814   0.000000
    10  H    2.025963   1.091064   2.167722   1.775299   0.000000
    11  H    2.630560   2.151678   1.090809   3.063688   2.511518
    12  H    2.689971   2.145082   1.089832   2.480573   3.064112
    13  H    3.349200   2.142487   1.091958   2.507267   2.499345
    14  O    2.977727   2.930139   3.192573   2.422026   3.970278
    15  H    3.685938   3.850187   4.094886   3.343034   4.883727
                   11         12         13         14         15
    11  H    0.000000
    12  H    1.778768   0.000000
    13  H    1.773332   1.774458   0.000000
    14  O    4.040474   2.541538   3.776288   0.000000
    15  H    4.875637   3.340767   4.701438   0.969216   0.000000
 Stoichiometry    C5H7O3(2)
 Framework group  C1[X(C5H7O3)]
 Deg. of freedom    39
 Full point group                 C1      NOp   1
 Largest Abelian subgroup         C1      NOp   1
 Largest concise Abelian subgroup C1      NOp   1
                         Standard orientation:                         
 ---------------------------------------------------------------------
 Center     Atomic      Atomic             Coordinates (Angstroms)
 Number     Number       Type             X           Y           Z
 ---------------------------------------------------------------------
      1          6           0       -2.102525   -1.061653   -0.847298
      2          1           0       -2.771251   -1.774039   -1.273559
      3          6           0       -1.290097   -0.334250   -0.299182
      4          6           0       -0.609093    0.936724    0.058808
      5          8           0       -1.221345    1.826999    0.566701
      6          8           0        0.683606    1.031376   -0.216390
      7          6           0        1.456241   -0.047098   -0.778647
      8          6           0        2.542309   -0.434052    0.200780
      9          1           0        0.813153   -0.895845   -1.009956
     10          1           0        1.872273    0.346618   -1.707262
     11          1           0        3.157053    0.432152    0.449065
     12          1           0        2.096585   -0.832813    1.111853
     13          1           0        3.181035   -1.200044   -0.243806
     14          8           0       -0.364488   -1.461888    1.029398
     15          1           0       -1.112046   -1.605954    1.629217
 ---------------------------------------------------------------------
 Rotational constants (GHZ):           2.6444635           1.6762963           1.2879125
 Standard basis: 6-311++G(d,p) (5D, 7F)
 There are   233 symmetry adapted cartesian basis functions of A   symmetry.
 There are   225 symmetry adapted basis functions of A   symmetry.
   225 basis functions,   351 primitive gaussians,   233 cartesian basis functions
    31 alpha electrons       30 beta electrons
       nuclear repulsion energy       366.1054765604 Hartrees.
 NAtoms=   15 NActive=   15 NUniq=   15 SFac= 1.00D+00 NAtFMM=   60 NAOKFM=F Big=F
 Integral buffers will be    131072 words long.
 Raffenetti 2 integral format.
 Two-electron integral symmetry is turned on.
 One-electron integrals computed using PRISM.
 NBasis=   225 RedAO= T EigKep=  3.38D-06  NBF=   225
 NBsUse=   225 1.00D-06 EigRej= -1.00D+00 NBFU=   225
 ExpMin= 3.60D-02 ExpMax= 8.59D+03 ExpMxC= 1.30D+03 IAcc=3 IRadAn=         5 AccDes= 0.00D+00
 Harris functional with IExCor=  205 and IRadAn=       5 diagonalized for initial guess.
 HarFok:  IExCor=  205 AccDes= 0.00D+00 IRadAn=         5 IDoV= 1 UseB2=F ITyADJ=14
 ICtDFT=  3500011 ScaDFX=  1.000000  1.000000  1.000000  1.000000
 FoFCou: FMM=F IPFlag=           0 FMFlag=      100000 FMFlg1=           0
         NFxFlg=           0 DoJE=T BraDBF=F KetDBF=T FulRan=T
         wScrn=  0.000000 ICntrl=       500 IOpCl=  0 I1Cent=   200000004 NGrid=           0
         NMat0=    1 NMatS0=      1 NMatT0=    0 NMatD0=    1 NMtDS0=    0 NMtDT0=    0
 Petite list used in FoFCou.
 Initial guess <Sx>= 0.0000 <Sy>= 0.0000 <Sz>= 0.5000 <S**2>= 0.7500 S= 0.5000
 Requested convergence on RMS density matrix=1.00D-08 within 128 cycles.
 Requested convergence on MAX density matrix=1.00D-06.
 Requested convergence on             energy=1.00D-06.
 No special actions if energy rises.
 Initial convergence to 1.0D-05 achieved.  Increase integral accuracy.
 SCF Done:  E(UHF) =  -417.968286970     A.U. after   35 cycles
            NFock= 35  Conv=0.62D-08     -V/T= 2.0006
 <Sx>= 0.0000 <Sy>= 0.0000 <Sz>= 0.5000 <S**2>= 1.0377 S= 0.6348
 <L.S>=  0.00000000000    
 Annihilation of the first spin contaminant:
 S**2 before annihilation     1.0377,   after     0.8021
 ExpMin= 3.60D-02 ExpMax= 8.59D+03 ExpMxC= 1.30D+03 IAcc=3 IRadAn=         5 AccDes= 0.00D+00
 HarFok:  IExCor=  205 AccDes= 0.00D+00 IRadAn=         5 IDoV=-2 UseB2=F ITyADJ=14
 ICtDFT= 12500011 ScaDFX=  1.000000  1.000000  1.000000  1.000000
 Range of M.O.s used for correlation:     9   225
 NBasis=   225 NAE=    31 NBE=    30 NFC=     8 NFV=     0
 NROrb=    217 NOA=    23 NOB=    22 NVA=   194 NVB=   195

 **** Warning!!: The largest alpha MO coefficient is  0.18952052D+03


 **** Warning!!: The largest beta MO coefficient is  0.20032300D+03

 Semi-Direct transformation.
 ModeAB=           4 MOrb=            23 LenV=    1609170523
 LASXX=    109339976 LTotXX=   109339976 LenRXX=   221407890
 LTotAB=   112067914 MaxLAS=   131777373 LenRXY=           0
 NonZer=   330747866 LenScr=   498067456 LnRSAI=   131777373
 LnScr1=   198449152 LExtra=           0 Total=   1049701871
 MaxDsk=          -1 SrtSym=           T ITran=            4
 JobTyp=1 Pass  1:  I=   1 to  23.
 (rs|ai) integrals will be sorted in core.
 ModeAB=           4 MOrb=            22 LenV=    1609170523
 LASXX=    104936601 LTotXX=   104936601 LenRXX=   190867446
 LTotAB=    85930845 MaxLAS=   126047922 LenRXY=           0
 NonZer=   295804047 LenScr=   445446144 LnRSAI=   126047922
 LnScr1=   189829632 LExtra=           0 Total=    952191144
 MaxDsk=          -1 SrtSym=           T ITran=            4
 JobTyp=2 Pass  1:  I=   1 to  22.
 (rs|ai) integrals will be sorted in core.
 SymMOI:  orbitals are not symmetric.
 Spin components of T(2) and E(2):
     alpha-alpha T2 =       0.5239399354D-01 E2=     -0.1704117018D+00
     alpha-beta  T2 =       0.2817601558D+00 E2=     -0.9305901328D+00
     beta-beta   T2 =       0.5024616741D-01 E2=     -0.1581245568D+00
 ANorm=    0.1176605421D+01
 E2 =    -0.1259126391D+01 EUMP2 =    -0.41922741336163D+03
 (S**2,0)=  0.10377D+01           (S**2,1)=  0.95853D+00
 E(PUHF)=      -0.41799197312D+03        E(PMP2)=      -0.41924815381D+03
 Keep R2 and R3 ints in memory in canonical form, NReq=652884060.
 CIDS: In Core Option IDoMem=           1.
 Iterations=  50 Convergence= 0.100D-06
 Produce multiple copies of IABC intergrals
 Iteration Nr.   1
 **********************
 DD1Dir will call FoFMem   1 times, MxPair=      1496
 NAB=   506 NAA=   253 NBB=   231.
 E(PMP3)=      -0.41927263054D+03
 MP4(R+Q)=  0.24706576D-01
 E3=       -0.29489903D-01        EUMP3=      -0.41925690326D+03
 E4(DQ)=   -0.58326019D-02        UMP4(DQ)=   -0.41926273587D+03
 E4(SDQ)=  -0.27909818D-01        UMP4(SDQ)=  -0.41928481308D+03
 DE(Corr)=  -1.2636329     E(Corr)=     -419.23191986    
 NORM(A)=   0.11867832D+01
 Iteration Nr.   2
 **********************
 DD1Dir will call FoFMem   1 times, MxPair=      1496
 NAB=   506 NAA=   253 NBB=   231.
 DE(Corr)=  -1.3080425     E(CORR)=     -419.27632950     Delta=-4.44D-02
 NORM(A)=   0.12094833D+01
 Iteration Nr.   3
 **********************
 DD1Dir will call FoFMem   1 times, MxPair=      1496
 NAB=   506 NAA=   253 NBB=   231.
 DE(Corr)=  -1.3116348     E(CORR)=     -419.27992181     Delta=-3.59D-03
 NORM(A)=   0.12237991D+01
 Iteration Nr.   4
 **********************
 DD1Dir will call FoFMem   1 times, MxPair=      1496
 NAB=   506 NAA=   253 NBB=   231.
