 Entering Gaussian System, Link 0=g16
 Initial command:
 /opt/g16/l1.exe "/home/loki/Research/Transition_states/Addition/ts1_irc_points/Gau-184229.inp" -scrdir="/home/loki/Research/Transition_states/Addition/ts1_irc_points/"
 Entering Link 1 = /opt/g16/l1.exe PID=    184232.
  
 Copyright (c) 1988,1990,1992,1993,1995,1998,2003,2009,2016,
            Gaussian, Inc.  All Rights Reserved.
  
 This is part of the Gaussian(R) 16 program.  It is based on
 the Gaussian(R) 09 system (copyright 2009, Gaussian, Inc.),
 the Gaussian(R) 03 system (copyright 2003, Gaussian, Inc.),
 the Gaussian(R) 98 system (copyright 1998, Gaussian, Inc.),
 the Gaussian(R) 94 system (copyright 1995, Gaussian, Inc.),
 the Gaussian 92(TM) system (copyright 1992, Gaussian, Inc.),
 the Gaussian 90(TM) system (copyright 1990, Gaussian, Inc.),
 the Gaussian 88(TM) system (copyright 1988, Gaussian, Inc.),
 the Gaussian 86(TM) system (copyright 1986, Carnegie Mellon
 University), and the Gaussian 82(TM) system (copyright 1983,
 Carnegie Mellon University). Gaussian is a federally registered
 trademark of Gaussian, Inc.
  
 This software contains proprietary and confidential information,
 including trade secrets, belonging to Gaussian, Inc.
  
 This software is provided under written license and may be
 used, copied, transmitted, or stored only in accord with that
 written license.
  
 The following legend is applicable only to US Government
 contracts under FAR:
  
                    RESTRICTED RIGHTS LEGEND
  
 Use, reproduction and disclosure by the US Government is
 subject to restrictions as set forth in subparagraphs (a)
 and (c) of the Commercial Computer Software - Restricted
 Rights clause in FAR 52.227-19.
  
 Gaussian, Inc.
 340 Quinnipiac St., Bldg. 40, Wallingford CT 06492
  
  
 ---------------------------------------------------------------
 Warning -- This program may not be used in any manner that
 competes with the business of Gaussian, Inc. or will provide
 assistance to any competitor of Gaussian, Inc.  The licensee
 of this program is prohibited from giving any competitor of
 Gaussian, Inc. access to this program.  By using this program,
 the user acknowledges that Gaussian, Inc. is engaged in the
 business of creating and licensing software in the field of
 computational chemistry and represents and warrants to the
 licensee that it is not a competitor of Gaussian, Inc. and that
 it will not use this program in any manner prohibited above.
 ---------------------------------------------------------------
  

 Cite this work as:
 Gaussian 16, Revision A.03,
 M. J. Frisch, G. W. Trucks, H. B. Schlegel, G. E. Scuseria, 
 M. A. Robb, J. R. Cheeseman, G. Scalmani, V. Barone, 
 G. A. Petersson, H. Nakatsuji, X. Li, M. Caricato, A. V. Marenich, 
 J. Bloino, B. G. Janesko, R. Gomperts, B. Mennucci, H. P. Hratchian, 
 J. V. Ortiz, A. F. Izmaylov, J. L. Sonnenberg, D. Williams-Young, 
 F. Ding, F. Lipparini, F. Egidi, J. Goings, B. Peng, A. Petrone, 
 T. Henderson, D. Ranasinghe, V. G. Zakrzewski, J. Gao, N. Rega, 
 G. Zheng, W. Liang, M. Hada, M. Ehara, K. Toyota, R. Fukuda, 
 J. Hasegawa, M. Ishida, T. Nakajima, Y. Honda, O. Kitao, H. Nakai, 
 T. Vreven, K. Throssell, J. A. Montgomery, Jr., J. E. Peralta, 
 F. Ogliaro, M. J. Bearpark, J. J. Heyd, E. N. Brothers, K. N. Kudin, 
 V. N. Staroverov, T. A. Keith, R. Kobayashi, J. Normand, 
 K. Raghavachari, A. P. Rendell, J. C. Burant, S. S. Iyengar, 
 J. Tomasi, M. Cossi, J. M. Millam, M. Klene, C. Adamo, R. Cammi, 
 J. W. Ochterski, R. L. Martin, K. Morokuma, O. Farkas, 
 J. B. Foresman, and D. J. Fox, Gaussian, Inc., Wallingford CT, 2016.
 
 ******************************************
 Gaussian 16:  ES64L-G16RevA.03 25-Dec-2016
                28-Mar-2025 
 ******************************************
 %chk=ethyl_propiolate.chk
 %nprocshared=6
 Will use up to    6 processors via shared memory.
 %mem=12GB
 --------------------------
 # freq 6-311++g(d,p) m062x
 --------------------------
 1/10=4,30=1,38=1/1,3;
 2/12=2,17=6,18=5,40=1/2;
 3/5=4,6=6,7=1111,11=2,25=1,30=1,71=2,74=-55,140=1/1,2,3;
 4//1;
 5/5=2,38=5,98=1/2;
 8/6=4,10=90,11=11/1;
 11/6=1,8=1,9=11,15=111,16=1/1,2,10;
 10/6=1/2;
 6/7=2,8=2,9=2,10=2,28=1/1;
 7/8=1,10=1,25=1/1,2,3,16;
 1/10=4,30=1/3;
 99//99;
 -------------------
 Title Card Required
 -------------------
 Symbolic Z-matrix:
 Charge =  0 Multiplicity = 2
 C                    -2.041    -1.12087  -0.86006 
 H                    -2.69552  -1.86437  -1.25236 
 C                    -1.27955  -0.30269  -0.41032 
 C                    -0.55583   0.89924   0.03838 
 O                    -1.15431   1.7824    0.57728 
 O                     0.74402   0.98287  -0.2168 
 C                     1.51314  -0.09153  -0.78823 
 C                     2.60536  -0.47876   0.18535 
 H                     0.86727  -0.93922  -1.01768 
 H                     1.92562   0.30234  -1.71853 
 H                     3.2193    0.38828   0.43255 
 H                     2.16749  -0.87843   1.09982 
 H                     3.24381  -1.24296  -0.26263 
 O                    -0.25554  -1.57197   1.08391 
 H                    -1.04358  -1.67109   1.64311 
 

 GradGradGradGradGradGradGradGradGradGradGradGradGradGradGradGradGradGrad
 Berny optimization.
 Initialization pass.
 Trust Radius=3.00D-01 FncErr=1.00D-07 GrdErr=1.00D-07 EigMax=2.50D+02 EigMin=1.00D-04
 Number of steps in this run=      2 maximum allowed number of steps=      2.
 GradGradGradGradGradGradGradGradGradGradGradGradGradGradGradGradGradGrad

                          Input orientation:                          
 ---------------------------------------------------------------------
 Center     Atomic      Atomic             Coordinates (Angstroms)
 Number     Number       Type             X           Y           Z
 ---------------------------------------------------------------------
      1          6           0       -2.040995   -1.120865   -0.860064
      2          1           0       -2.695515   -1.864369   -1.252355
      3          6           0       -1.279551   -0.302689   -0.410316
      4          6           0       -0.555829    0.899243    0.038379
      5          8           0       -1.154314    1.782400    0.577276
      6          8           0        0.744016    0.982868   -0.216803
      7          6           0        1.513135   -0.091530   -0.788232
      8          6           0        2.605364   -0.478761    0.185350
      9          1           0        0.867274   -0.939216   -1.017676
     10          1           0        1.925617    0.302341   -1.718530
     11          1           0        3.219300    0.388279    0.432546
     12          1           0        2.167487   -0.878433    1.099822
     13          1           0        3.243812   -1.242963   -0.262634
     14          8           0       -0.255543   -1.571968    1.083913
     15          1           0       -1.043578   -1.671092    1.643111
 ---------------------------------------------------------------------
                    Distance matrix (angstroms):
                    1          2          3          4          5
     1  C    0.000000
     2  H    1.065405   0.000000
     3  C    1.204775   2.269984   0.000000
     4  C    2.663410   3.725829   1.473004   0.000000
     5  O    3.358734   4.361396   2.310545   1.195224   0.000000
     6  O    3.549051   4.583612   2.405188   1.327293   2.207594
     7  C    3.700882   4.590327   2.826040   2.438346   3.534333
     8  C    4.805605   5.664470   3.934258   3.451614   4.404729
     9  H    2.918196   3.688421   2.320110   2.553509   3.746716
    10  H    4.300755   5.125116   3.514340   3.098483   4.116707
    11  H    5.623083   6.549683   4.628986   3.829889   4.592714
    12  H    4.648790   5.491229   3.807108   3.421000   4.288059
    13  H    5.319870   6.053206   4.622417   4.372291   5.403867
    14  O    2.677756   3.390739   2.211873   2.700036   3.509452
    15  H    2.750177   3.339158   2.478865   3.069151   3.615919
                    6          7          8          9         10
     6  O    0.000000
     7  C    1.439585   0.000000
     8  C    2.400563   1.513530   0.000000
     9  H    2.085904   1.090116   2.163388   0.000000
    10  H    2.028419   1.091206   2.167241   1.775598   0.000000
    11  H    2.627208   2.152095   1.090771   3.065520   2.511599
    12  H    2.687790   2.147590   1.089832   2.485568   3.065263
    13  H    3.347447   2.144130   1.091930   2.512028   2.499047
    14  O    3.036143   2.970664   3.191756   2.465313   4.015492
    15  H    3.701118   3.865647   4.106275   3.356603   4.900121
                   11         12         13         14         15
    11  H    0.000000
    12  H    1.776549   0.000000
    13  H    1.773366   1.774160   0.000000
    14  O    4.042447   2.520381   3.763897   0.000000
    15  H    4.886574   3.351777   4.711356   0.971353   0.000000
 Stoichiometry    C5H7O3(2)
 Framework group  C1[X(C5H7O3)]
 Deg. of freedom    39
 Full point group                 C1      NOp   1
 Largest Abelian subgroup         C1      NOp   1
 Largest concise Abelian subgroup C1      NOp   1
                         Standard orientation:                         
 ---------------------------------------------------------------------
 Center     Atomic      Atomic             Coordinates (Angstroms)
 Number     Number       Type             X           Y           Z
 ---------------------------------------------------------------------
      1          6           0       -2.100034   -1.075034   -0.857108
      2          1           0       -2.750681   -1.816485   -1.259596
      3          6           0       -1.342714   -0.259098   -0.396460
      4          6           0       -0.626691    0.940160    0.071336
      5          8           0       -1.229100    1.806358    0.632910
      6          8           0        0.670267    1.041308   -0.192058
      7          6           0        1.444820   -0.013799   -0.791411
      8          6           0        2.548247   -0.410590    0.165553
      9          1           0        0.805086   -0.862668   -1.033306
     10          1           0        1.846272    0.402984   -1.716538
     11          1           0        3.156019    0.456961    0.425839
     12          1           0        2.121332   -0.833088    1.074933
     13          1           0        3.190226   -1.159352   -0.302986
     14          8           0       -0.295191   -1.549052    1.063367
     15          1           0       -1.077836   -1.667095    1.626448
 ---------------------------------------------------------------------
 Rotational constants (GHZ):           2.5570320           1.6530302           1.2745397
 Standard basis: 6-311++G(d,p) (5D, 7F)
 There are   233 symmetry adapted cartesian basis functions of A   symmetry.
 There are   225 symmetry adapted basis functions of A   symmetry.
   225 basis functions,   351 primitive gaussians,   233 cartesian basis functions
    31 alpha electrons       30 beta electrons
       nuclear repulsion energy       363.3096574814 Hartrees.
 NAtoms=   15 NActive=   15 NUniq=   15 SFac= 1.00D+00 NAtFMM=   60 NAOKFM=F Big=F
 Integral buffers will be    131072 words long.
 Raffenetti 2 integral format.
 Two-electron integral symmetry is turned on.
 One-electron integrals computed using PRISM.
 NBasis=   225 RedAO= T EigKep=  1.56D-06  NBF=   225
 NBsUse=   225 1.00D-06 EigRej= -1.00D+00 NBFU=   225
 ExpMin= 3.60D-02 ExpMax= 8.59D+03 ExpMxC= 1.30D+03 IAcc=3 IRadAn=         5 AccDes= 0.00D+00
 Harris functional with IExCor= 1009 and IRadAn=       5 diagonalized for initial guess.
 HarFok:  IExCor= 1009 AccDes= 0.00D+00 IRadAn=         5 IDoV= 1 UseB2=F ITyADJ=14
 ICtDFT=  3500011 ScaDFX=  1.000000  1.000000  1.000000  1.000000
 FoFCou: FMM=F IPFlag=           0 FMFlag=      100000 FMFlg1=           0
         NFxFlg=           0 DoJE=T BraDBF=F KetDBF=T FulRan=T
         wScrn=  0.000000 ICntrl=       500 IOpCl=  0 I1Cent=   200000004 NGrid=           0
         NMat0=    1 NMatS0=      1 NMatT0=    0 NMatD0=    1 NMtDS0=    0 NMtDT0=    0
 Petite list used in FoFCou.
 Initial guess <Sx>= 0.0000 <Sy>= 0.0000 <Sz>= 0.5000 <S**2>= 0.7500 S= 0.5000
 Keep R1 and R2 ints in memory in canonical form, NReq=652863693.
 Requested convergence on RMS density matrix=1.00D-08 within 128 cycles.
 Requested convergence on MAX density matrix=1.00D-06.
 Requested convergence on             energy=1.00D-06.
 No special actions if energy rises.
 SCF Done:  E(UM062X) =  -420.199816167     A.U. after   25 cycles
            NFock= 25  Conv=0.23D-08     -V/T= 2.0032
 <Sx>= 0.0000 <Sy>= 0.0000 <Sz>= 0.5000 <S**2>= 0.7596 S= 0.5048
 <L.S>=  0.00000000000    
 Annihilation of the first spin contaminant:
 S**2 before annihilation     0.7596,   after     0.7501
 DoSCS=F DFT=T ScalE2(SS,OS)=  1.000000  1.000000
 Range of M.O.s used for correlation:     1   225
 NBasis=   225 NAE=    31 NBE=    30 NFC=     0 NFV=     0
 NROrb=    225 NOA=    31 NOB=    30 NVA=   194 NVB=   195

 **** Warning!!: The largest alpha MO coefficient is  0.23871725D+03


 **** Warning!!: The largest beta MO coefficient is  0.24942290D+03

 Symmetrizing basis deriv contribution to polar:
 IMax=3 JMax=2 DiffMx= 0.00D+00
 G2DrvN: will do    16 centers at a time, making    1 passes.
 Calling FoFCou, ICntrl=  3107 FMM=F I1Cent=   0 AccDes= 0.00D+00.
 End of G2Drv F.D. properties file   721 does not exist.
 End of G2Drv F.D. properties file   722 does not exist.
 End of G2Drv F.D. properties file   788 does not exist.
          IDoAtm=111111111111111
          Differentiating once with respect to electric field.
                with respect to dipole field.
          Differentiating once with respect to nuclear coordinates.
 Keep R1 and R2 ints in memory in canonical form, NReq=652870569.
          There are    48 degrees of freedom in the 1st order CPHF.  IDoFFX=6 NUNeed=     3.
     45 vectors produced by pass  0 Test12= 2.47D-14 2.08D-09 XBig12= 8.33D+01 2.75D+00.
 AX will form    45 AO Fock derivatives at one time.
     45 vectors produced by pass  1 Test12= 2.47D-14 2.08D-09 XBig12= 1.58D+01 4.08D-01.
     45 vectors produced by pass  2 Test12= 2.47D-14 2.08D-09 XBig12= 4.64D-01 1.00D-01.
     45 vectors produced by pass  3 Test12= 2.47D-14 2.08D-09 XBig12= 7.32D-03 1.65D-02.
     45 vectors produced by pass  4 Test12= 2.47D-14 2.08D-09 XBig12= 8.63D-05 1.41D-03.
     45 vectors produced by pass  5 Test12= 2.47D-14 2.08D-09 XBig12= 8.39D-07 1.05D-04.
     42 vectors produced by pass  6 Test12= 2.47D-14 2.08D-09 XBig12= 7.60D-09 9.25D-06.
     20 vectors produced by pass  7 Test12= 2.47D-14 2.08D-09 XBig12= 5.68D-11 5.93D-07.
      3 vectors produced by pass  8 Test12= 2.47D-14 2.08D-09 XBig12= 4.44D-13 6.09D-08.
      3 vectors produced by pass  9 Test12= 2.47D-14 2.08D-09 XBig12= 5.93D-15 1.48D-08.
      2 vectors produced by pass 10 Test12= 2.47D-14 2.08D-09 XBig12= 1.17D-15 5.83D-09.
 InvSVY:  IOpt=1 It=  1 EMax= 8.88D-15
 Solved reduced A of dimension   340 with    48 vectors.
 Isotropic polarizability for W=    0.000000       73.04 Bohr**3.
 End of Minotr F.D. properties file   721 does not exist.
 End of Minotr F.D. properties file   722 does not exist.
 End of Minotr F.D. properties file   788 does not exist.

 **********************************************************************

            Population analysis using the SCF density.

 **********************************************************************

 Orbital symmetries:
 Alpha Orbitals:
       Occupied  (A) (A) (A) (A) (A) (A) (A) (A) (A) (A) (A) (A)
                 (A) (A) (A) (A) (A) (A) (A) (A) (A) (A) (A) (A)
                 (A) (A) (A) (A) (A) (A) (A)
       Virtual   (A) (A) (A) (A) (A) (A) (A) (A) (A) (A) (A) (A)
                 (A) (A) (A) (A) (A) (A) (A) (A) (A) (A) (A) (A)
                 (A) (A) (A) (A) (A) (A) (A) (A) (A) (A) (A) (A)
                 (A) (A) (A) (A) (A) (A) (A) (A) (A) (A) (A) (A)
                 (A) (A) (A) (A) (A) (A) (A) (A) (A) (A) (A) (A)
                 (A) (A) (A) (A) (A) (A) (A) (A) (A) (A) (A) (A)
                 (A) (A) (A) (A) (A) (A) (A) (A) (A) (A) (A) (A)
                 (A) (A) (A) (A) (A) (A) (A) (A) (A) (A) (A) (A)
                 (A) (A) (A) (A) (A) (A) (A) (A) (A) (A) (A) (A)
                 (A) (A) (A) (A) (A) (A) (A) (A) (A) (A) (A) (A)
                 (A) (A) (A) (A) (A) (A) (A) (A) (A) (A) (A) (A)
                 (A) (A) (A) (A) (A) (A) (A) (A) (A) (A) (A) (A)
                 (A) (A) (A) (A) (A) (A) (A) (A) (A) (A) (A) (A)
                 (A) (A) (A) (A) (A) (A) (A) (A) (A) (A) (A) (A)
                 (A) (A) (A) (A) (A) (A) (A) (A) (A) (A) (A) (A)
                 (A) (A) (A) (A) (A) (A) (A) (A) (A) (A) (A) (A)
                 (A) (A)
 Beta  Orbitals:
       Occupied  (A) (A) (A) (A) (A) (A) (A) (A) (A) (A) (A) (A)
                 (A) (A) (A) (A) (A) (A) (A) (A) (A) (A) (A) (A)
                 (A) (A) (A) (A) (A) (A)
       Virtual   (A) (A) (A) (A) (A) (A) (A) (A) (A) (A) (A) (A)
                 (A) (A) (A) (A) (A) (A) (A) (A) (A) (A) (A) (A)
                 (A) (A) (A) (A) (A) (A) (A) (A) (A) (A) (A) (A)
                 (A) (A) (A) (A) (A) (A) (A) (A) (A) (A) (A) (A)
                 (A) (A) (A) (A) (A) (A) (A) (A) (A) (A) (A) (A)
                 (A) (A) (A) (A) (A) (A) (A) (A) (A) (A) (A) (A)
                 (A) (A) (A) (A) (A) (A) (A) (A) (A) (A) (A) (A)
                 (A) (A) (A) (A) (A) (A) (A) (A) (A) (A) (A) (A)
                 (A) (A) (A) (A) (A) (A) (A) (A) (A) (A) (A) (A)
                 (A) (A) (A) (A) (A) (A) (A) (A) (A) (A) (A) (A)
                 (A) (A) (A) (A) (A) (A) (A) (A) (A) (A) (A) (A)
                 (A) (A) (A) (A) (A) (A) (A) (A) (A) (A) (A) (A)
                 (A) (A) (A) (A) (A) (A) (A) (A) (A) (A) (A) (A)
                 (A) (A) (A) (A) (A) (A) (A) (A) (A) (A) (A) (A)
                 (A) (A) (A) (A) (A) (A) (A) (A) (A) (A) (A) (A)
                 (A) (A) (A) (A) (A) (A) (A) (A) (A) (A) (A) (A)
                 (A) (A) (A)
 The electronic state is 2-A.
 Alpha  occ. eigenvalues --  -19.68437 -19.67781 -19.62410 -10.70657 -10.60634
 Alpha  occ. eigenvalues --  -10.58877 -10.58529 -10.53392  -1.24905  -1.16279
 Alpha  occ. eigenvalues --   -1.14269  -0.90319  -0.88072  -0.76388  -0.73747
 Alpha  occ. eigenvalues --   -0.64609  -0.62191  -0.59374  -0.56185  -0.55735
 Alpha  occ. eigenvalues --   -0.52948  -0.50432  -0.47649  -0.47586  -0.45015
 Alpha  occ. eigenvalues --   -0.43307  -0.41841  -0.39963  -0.37636  -0.36487
 Alpha  occ. eigenvalues --   -0.36078
 Alpha virt. eigenvalues --   -0.01521  -0.00747   0.00567   0.00975   0.02217
 Alpha virt. eigenvalues --    0.02441   0.03465   0.04748   0.05703   0.05976
 Alpha virt. eigenvalues --    0.07214   0.07442   0.08664   0.09465   0.10265
 Alpha virt. eigenvalues --    0.11229   0.11377   0.11664   0.12806   0.13065
 Alpha virt. eigenvalues --    0.13791   0.14500   0.14838   0.15103   0.15627
 Alpha virt. eigenvalues --    0.16850   0.17609   0.18421   0.19460   0.20046
 Alpha virt. eigenvalues --    0.20614   0.22052   0.22570   0.23105   0.23747
 Alpha virt. eigenvalues --    0.25132   0.26919   0.27800   0.28755   0.30536
 Alpha virt. eigenvalues --    0.31062   0.32347   0.32595   0.33128   0.33692
 Alpha virt. eigenvalues --    0.33866   0.36371   0.37347   0.37715   0.39684
 Alpha virt. eigenvalues --    0.40512   0.42012   0.46307   0.47482   0.51165
 Alpha virt. eigenvalues --    0.51717   0.51974   0.54422   0.57942   0.59459
 Alpha virt. eigenvalues --    0.60204   0.61218   0.64979   0.66174   0.68690
 Alpha virt. eigenvalues --    0.69110   0.70454   0.70861   0.71591   0.73086
 Alpha virt. eigenvalues --    0.74174   0.75395   0.77509   0.78257   0.78951
 Alpha virt. eigenvalues --    0.84652   0.85963   0.90788   0.95997   0.99535
 Alpha virt. eigenvalues --    1.00957   1.05623   1.08063   1.09087   1.11075
 Alpha virt. eigenvalues --    1.14527   1.17489   1.21475   1.22772   1.24449
 Alpha virt. eigenvalues --    1.26224   1.27713   1.29102   1.30521   1.31629
 Alpha virt. eigenvalues --    1.32528   1.36433   1.38224   1.42125   1.43365
 Alpha virt. eigenvalues --    1.43916   1.46963   1.51405   1.53201   1.54842
 Alpha virt. eigenvalues --    1.58714   1.60451   1.62252   1.62802   1.64058
 Alpha virt. eigenvalues --    1.65585   1.69000   1.72216   1.73581   1.76159
 Alpha virt. eigenvalues --    1.79185   1.81301   1.83404   1.86036   1.89425
 Alpha virt. eigenvalues --    1.90673   1.96597   1.98931   2.01388   2.05251
 Alpha virt. eigenvalues --    2.09531   2.12383   2.14698   2.21450   2.32400
 Alpha virt. eigenvalues --    2.34773   2.40845   2.47855   2.51688   2.52448
 Alpha virt. eigenvalues --    2.53558   2.56828   2.61716   2.62184   2.64895
 Alpha virt. eigenvalues --    2.64957   2.67933   2.70381   2.74168   2.74580
 Alpha virt. eigenvalues --    2.80883   2.82126   2.83193   2.89885   2.91778
 Alpha virt. eigenvalues --    2.93188   2.94191   3.00586   3.02628   3.04445
 Alpha virt. eigenvalues --    3.05556   3.11019   3.12677   3.15927   3.17312
 Alpha virt. eigenvalues --    3.27379   3.29564   3.33581   3.37244   3.41110
 Alpha virt. eigenvalues --    3.43895   3.55595   3.63502   3.77288   3.84501
 Alpha virt. eigenvalues --    3.85532   3.88420   3.92431   4.03386   4.16086
 Alpha virt. eigenvalues --    4.19584   4.29339   5.08017   5.12361   5.17753
 Alpha virt. eigenvalues --    5.20090   5.28750   5.43062   5.58487   5.70802
 Alpha virt. eigenvalues --    5.99731  23.61092  23.93430  23.94185  24.05804
 Alpha virt. eigenvalues --   25.10156  49.94578  50.00203  50.14276
  Beta  occ. eigenvalues --  -19.67780 -19.66897 -19.62426 -10.70646 -10.60636
  Beta  occ. eigenvalues --  -10.58861 -10.58414 -10.53390  -1.24904  -1.16306
  Beta  occ. eigenvalues --   -1.07161  -0.89737  -0.88021  -0.76250  -0.73621
  Beta  occ. eigenvalues --   -0.64497  -0.61921  -0.58804  -0.56144  -0.53499
  Beta  occ. eigenvalues --   -0.51885  -0.47898  -0.47580  -0.44740  -0.42015
  Beta  occ. eigenvalues --   -0.40421  -0.39848  -0.39145  -0.37263  -0.35949
  Beta virt. eigenvalues --   -0.10306  -0.00981  -0.00594   0.00614   0.01305
  Beta virt. eigenvalues --    0.02350   0.02547   0.03558   0.04781   0.05830
  Beta virt. eigenvalues --    0.06133   0.07287   0.07535   0.08683   0.09506
  Beta virt. eigenvalues --    0.10531   0.11304   0.11546   0.11671   0.12913
  Beta virt. eigenvalues --    0.12974   0.13916   0.14588   0.14990   0.15225
  Beta virt. eigenvalues --    0.15707   0.17153   0.17674   0.18479   0.19519
  Beta virt. eigenvalues --    0.20054   0.20690   0.22204   0.22620   0.23337
  Beta virt. eigenvalues --    0.23657   0.25207   0.26977   0.27548   0.28588
  Beta virt. eigenvalues --    0.30573   0.31106   0.32338   0.32724   0.33119
  Beta virt. eigenvalues --    0.33682   0.33897   0.36479   0.37463   0.37799
  Beta virt. eigenvalues --    0.39658   0.40538   0.42009   0.46289   0.47466
  Beta virt. eigenvalues --    0.51190   0.51770   0.52073   0.54494   0.58642
  Beta virt. eigenvalues --    0.59753   0.60397   0.61598   0.65026   0.66145
  Beta virt. eigenvalues --    0.68684   0.69111   0.70428   0.70842   0.71568
  Beta virt. eigenvalues --    0.73190   0.74254   0.75403   0.77533   0.78325
  Beta virt. eigenvalues --    0.78940   0.84765   0.86079   0.90877   0.96209
  Beta virt. eigenvalues --    0.99739   1.01161   1.06707   1.08390   1.09848
  Beta virt. eigenvalues --    1.11554   1.15378   1.17963   1.21606   1.23148
  Beta virt. eigenvalues --    1.24570   1.26442   1.27970   1.29131   1.31025
  Beta virt. eigenvalues --    1.31764   1.33990   1.36628   1.38609   1.42480
  Beta virt. eigenvalues --    1.43565   1.44312   1.47735   1.51590   1.53776
  Beta virt. eigenvalues --    1.55091   1.58870   1.60497   1.62295   1.62842
  Beta virt. eigenvalues --    1.64056   1.65647   1.69077   1.72230   1.73633
  Beta virt. eigenvalues --    1.76300   1.79255   1.81406   1.83759   1.86184
  Beta virt. eigenvalues --    1.90021   1.90694   1.96839   1.99020   2.01533
  Beta virt. eigenvalues --    2.05290   2.10806   2.12436   2.14719   2.21445
  Beta virt. eigenvalues --    2.32439   2.34765   2.41209   2.47903   2.51670
  Beta virt. eigenvalues --    2.52460   2.53583   2.56852   2.61903   2.62454
  Beta virt. eigenvalues --    2.64956   2.65199   2.68281   2.70458   2.74326
  Beta virt. eigenvalues --    2.74967   2.81833   2.83444   2.84390   2.90324
  Beta virt. eigenvalues --    2.93584   2.94463   2.96827   3.01328   3.03570
  Beta virt. eigenvalues --    3.05863   3.05980   3.11166   3.13913   3.17919
  Beta virt. eigenvalues --    3.19374   3.27639   3.30541   3.33601   3.37433
  Beta virt. eigenvalues --    3.41255   3.43861   3.55942   3.63491   3.77324
  Beta virt. eigenvalues --    3.85040   3.85711   3.88442   3.95078   4.03380
  Beta virt. eigenvalues --    4.16049   4.19588   4.29340   5.09799   5.16551
  Beta virt. eigenvalues --    5.19188   5.22823   5.28844   5.43063   5.60727
  Beta virt. eigenvalues --    5.70782   5.99726  23.61135  23.93429  23.94192
  Beta virt. eigenvalues --   24.05805  25.10396  49.94147  50.00159  50.14292
          Condensed to atoms (all electrons):
               1          2          3          4          5          6
     1  C   34.208136   0.784508 -14.995308 -11.664227  -0.265045  -0.182593
     2  H    0.784508   0.437261  -0.337985  -0.080030  -0.003771  -0.004133
     3  C  -14.995308  -0.337985  17.803953   2.257764  -0.023908  -0.185182
     4  C  -11.664227  -0.080030   2.257764  14.362564   0.626374   0.244613
     5  O   -0.265045  -0.003771  -0.023908   0.626374   7.997627  -0.070032
     6  O   -0.182593  -0.004133  -0.185182   0.244613  -0.070032   8.187512
     7  C   -0.189293  -0.001905   0.065180   0.048321  -0.007934   0.268474
     8  C   -0.077727  -0.000419   0.031284   0.036637   0.008017  -0.160610
     9  H    0.023997   0.000030   0.038564  -0.046359  -0.000120  -0.032446
    10  H   -0.070400   0.000038  -0.038130   0.091640   0.000118  -0.057514
    11  H    0.009199   0.000215   0.000179  -0.003508   0.001164  -0.017022
    12  H   -0.031588  -0.000191  -0.017154   0.037953  -0.000870   0.003940
    13  H   -0.026235  -0.000290   0.003184   0.014480   0.000069   0.023288
    14  O   -0.246238  -0.002479   0.218802  -0.036904  -0.011091   0.008131
    15  H    0.036882   0.000089   0.008609  -0.007010  -0.002501  -0.001568
               7          8          9         10         11         12
     1  C   -0.189293  -0.077727   0.023997  -0.070400   0.009199  -0.031588
     2  H   -0.001905  -0.000419   0.000030   0.000038   0.000215  -0.000191
     3  C    0.065180   0.031284   0.038564  -0.038130   0.000179  -0.017154
     4  C    0.048321   0.036637  -0.046359   0.091640  -0.003508   0.037953
     5  O   -0.007934   0.008017  -0.000120   0.000118   0.001164  -0.000870
     6  O    0.268474  -0.160610  -0.032446  -0.057514  -0.017022   0.003940
     7  C    5.430445   0.059594   0.383567   0.421950  -0.039045  -0.051356
     8  C    0.059594   5.419220  -0.021566  -0.048955   0.418926   0.405244
     9  H    0.383567  -0.021566   0.540073  -0.030827  -0.000130  -0.002942
    10  H    0.421950  -0.048955  -0.030827   0.512634  -0.004297   0.003963
    11  H   -0.039045   0.418926  -0.000130  -0.004297   0.529665  -0.036193
    12  H   -0.051356   0.405244  -0.002942   0.003963  -0.036193   0.538726
    13  H   -0.032771   0.393916  -0.011010   0.004319  -0.035844  -0.031333
    14  O   -0.003995  -0.014251  -0.007820   0.004873  -0.001668   0.006551
    15  H    0.003817  -0.002775  -0.003582   0.000275  -0.000102   0.000096
              13         14         15
     1  C   -0.026235  -0.246238   0.036882
     2  H   -0.000290  -0.002479   0.000089
     3  C    0.003184   0.218802   0.008609
     4  C    0.014480  -0.036904  -0.007010
     5  O    0.000069  -0.011091  -0.002501
     6  O    0.023288   0.008131  -0.001568
     7  C   -0.032771  -0.003995   0.003817
     8  C    0.393916  -0.014251  -0.002775
     9  H   -0.011010  -0.007820  -0.003582
    10  H    0.004319   0.004873   0.000275
    11  H   -0.035844  -0.001668  -0.000102
    12  H   -0.031333   0.006551   0.000096
    13  H    0.542813   0.000701   0.000174
    14  O    0.000701   8.099278   0.239479
    15  H    0.000174   0.239479   0.472080
          Atomic-Atomic Spin Densities.
               1          2          3          4          5          6
     1  C    0.052232  -0.012038   0.235475   0.077077   0.010819  -0.010216
     2  H   -0.012038  -0.007531   0.010037   0.002591   0.000048  -0.000230
     3  C    0.235475   0.010037  -0.277286  -0.051703   0.004458   0.006467
     4  C    0.077077   0.002591  -0.051703  -0.055839  -0.013688   0.000883
     5  O    0.010819   0.000048   0.004458  -0.013688  -0.010524   0.000286
     6  O   -0.010216  -0.000230   0.006467   0.000883   0.000286   0.000958
     7  C   -0.028867  -0.000167   0.010252   0.020061   0.000794   0.001303
     8  C    0.005144  -0.000016  -0.001990  -0.005499  -0.000225  -0.000963
     9  H    0.010678   0.000055  -0.001120  -0.005841   0.000210  -0.000970
    10  H   -0.007692  -0.000106   0.002149   0.005407   0.000210  -0.000147
    11  H    0.000355   0.000002   0.000231  -0.000664  -0.000033   0.000162
    12  H    0.002630  -0.000016   0.002382  -0.005295   0.000037  -0.000587
    13  H   -0.001237  -0.000003  -0.000396   0.001865  -0.000005   0.000086
    14  O   -0.194912  -0.002796   0.018673   0.084835   0.000451   0.001645
    15  H    0.037813   0.000467  -0.022912  -0.014982  -0.000193   0.000116
               7          8          9         10         11         12
     1  C   -0.028867   0.005144   0.010678  -0.007692   0.000355   0.002630
     2  H   -0.000167  -0.000016   0.000055  -0.000106   0.000002  -0.000016
     3  C    0.010252  -0.001990  -0.001120   0.002149   0.000231   0.002382
     4  C    0.020061  -0.005499  -0.005841   0.005407  -0.000664  -0.005295
     5  O    0.000794  -0.000225   0.000210   0.000210  -0.000033   0.000037
     6  O    0.001303  -0.000963  -0.000970  -0.000147   0.000162  -0.000587
     7  C    0.002173  -0.004228   0.001865   0.000920  -0.000526   0.002895
     8  C   -0.004228   0.011034  -0.001082  -0.001779  -0.000033  -0.000083
     9  H    0.001865  -0.001082   0.000383   0.000383  -0.000113   0.000413
    10  H    0.000920  -0.001779   0.000383   0.003006  -0.000473   0.001069
    11  H   -0.000526  -0.000033  -0.000113  -0.000473   0.000761  -0.000902
    12  H    0.002895  -0.000083   0.000413   0.001069  -0.000902  -0.001441
    13  H    0.000696  -0.000734  -0.000367  -0.000530   0.000577  -0.000656
    14  O    0.002464  -0.001476  -0.006594  -0.001035   0.000412  -0.000542
    15  H   -0.000496  -0.000610   0.000550   0.000091  -0.000053   0.000088
              13         14         15
     1  C   -0.001237  -0.194912   0.037813
     2  H   -0.000003  -0.002796   0.000467
     3  C   -0.000396   0.018673  -0.022912
     4  C    0.001865   0.084835  -0.014982
     5  O   -0.000005   0.000451  -0.000193
     6  O    0.000086   0.001645   0.000116
     7  C    0.000696   0.002464  -0.000496
     8  C   -0.000734  -0.001476  -0.000610
     9  H   -0.000367  -0.006594   0.000550
    10  H   -0.000530  -0.001035   0.000091
    11  H    0.000577   0.000412  -0.000053
    12  H   -0.000656  -0.000542   0.000088
    13  H    0.000199  -0.000354   0.000069
    14  O   -0.000354   0.970928   0.009723
    15  H    0.000069   0.009723  -0.029433
 Mulliken charges and spin densities:
               1          2
     1  C   -1.314068   0.177260
     2  H    0.209060  -0.009703
     3  C    1.170148  -0.065283
     4  C    0.117693   0.039208
     5  O   -0.248096  -0.007356
     6  O   -0.024857  -0.001208
     7  C   -0.355051   0.009139
     8  C   -0.446534  -0.002541
     9  H    0.170573  -0.001551
    10  H    0.210313   0.001471
    11  H    0.178461  -0.000296
    12  H    0.175153  -0.000009
    13  H    0.154538  -0.000789
    14  O   -0.253372   0.881420
    15  H    0.256038  -0.019762
 Sum of Mulliken charges =  -0.00000   1.00000
 Mulliken charges and spin densities with hydrogens summed into heavy atoms:
               1          2
     1  C   -1.105007   0.167557
     3  C    1.170148  -0.065283
     4  C    0.117693   0.039208
     5  O   -0.248096  -0.007356
     6  O   -0.024857  -0.001208
     7  C    0.025835   0.009059
     8  C    0.061618  -0.003635
    14  O    0.002666   0.861658
 APT charges:
               1
     1  C   -0.185716
     2  H    0.234531
     3  C   -0.358421
     4  C    1.538267
     5  O   -0.855250
     6  O   -0.939732
     7  C    0.512545
     8  C   -0.017654
     9  H   -0.010152
    10  H   -0.032562
    11  H    0.009374
    12  H    0.027193
    13  H    0.003452
    14  O   -0.188199
    15  H    0.262323
 Sum of APT charges =   0.00000
 APT charges with hydrogens summed into heavy atoms:
               1
     1  C    0.048815
     3  C   -0.358421
     4  C    1.538267
     5  O   -0.855250
     6  O   -0.939732
     7  C    0.469831
     8  C    0.022365
    14  O    0.074124
 Electronic spatial extent (au):  <R**2>=           1006.7650
 Charge=             -0.0000 electrons
 Dipole moment (field-independent basis, Debye):
    X=              0.0022    Y=             -3.9377    Z=             -1.5628  Tot=              4.2365
 Quadrupole moment (field-independent basis, Debye-Ang):
   XX=            -41.3184   YY=            -52.2279   ZZ=            -43.9125
   XY=              7.9140   XZ=              0.3762   YZ=             -2.1176
 Traceless Quadrupole moment (field-independent basis, Debye-Ang):
   XX=              4.5012   YY=             -6.4083   ZZ=              1.9071
   XY=              7.9140   XZ=              0.3762   YZ=             -2.1176
 Octapole moment (field-independent basis, Debye-Ang**2):
  XXX=             -2.3451  YYY=            -11.5893  ZZZ=             10.3880  XYY=             -5.2455
  XXY=            -20.0392  XXZ=             -6.8508  XZZ=             -4.1531  YZZ=             -7.3504
  YYZ=             -3.8043  XYZ=              0.9895
 Hexadecapole moment (field-independent basis, Debye-Ang**3):
 XXXX=           -709.7495 YYYY=           -405.8208 ZZZZ=           -174.1468 XXXY=             46.9608
 XXXZ=             11.5529 YYYX=             30.3145 YYYZ=             -9.2120 ZZZX=            -14.1749
 ZZZY=            -16.2972 XXYY=           -164.9970 XXZZ=           -140.2949 YYZZ=            -82.0135
 XXYZ=              9.1675 YYXZ=              8.2908 ZZXY=             17.1365
 N-N= 3.633096574814D+02 E-N=-1.711308478436D+03  KE= 4.188552165825D+02
  Exact polarizability:  84.336   1.509  70.864   6.341   4.077  63.933
 Approx polarizability:  90.289   5.072  86.068   5.792  10.742  74.813
                          Isotropic Fermi Contact Couplings
        Atom                 a.u.       MegaHertz       Gauss      10(-4) cm-1
     1  C(13)              0.03002      33.75150      12.04337      11.25829
     2  H(1)              -0.00311     -13.88222      -4.95352      -4.63061
     3  C(13)              0.01910      21.47279       7.66202       7.16255
     4  C(13)              0.00611       6.87142       2.45189       2.29206
     5  O(17)             -0.00262       1.58918       0.56706       0.53009
     6  O(17)             -0.00017       0.10457       0.03731       0.03488
     7  C(13)             -0.00102      -1.14516      -0.40862      -0.38198
     8  C(13)              0.00077       0.86614       0.30906       0.28891
     9  H(1)               0.00028       1.25269       0.44699       0.41785
    10  H(1)               0.00021       0.95173       0.33960       0.31746
    11  H(1)               0.00006       0.26885       0.09593       0.08968
    12  H(1)               0.00016       0.70068       0.25002       0.23372
    13  H(1)              -0.00003      -0.13517      -0.04823      -0.04509
    14  O(17)              0.13040     -79.04648     -28.20575     -26.36707
    15  H(1)              -0.01467     -65.58787     -23.40338     -21.87776
 --------------------------------------------------------
       Center         ----  Spin Dipole Couplings  ----
                      3XX-RR        3YY-RR        3ZZ-RR
 --------------------------------------------------------
     1   Atom       -0.037118      0.001991      0.035127
     2   Atom        0.001655      0.002194     -0.003849
     3   Atom       -0.012514      0.018914     -0.006400
     4   Atom       -0.010603      0.017663     -0.007060
     5   Atom        0.005668      0.029260     -0.034929
     6   Atom        0.001855      0.006326     -0.008181
     7   Atom        0.000503     -0.001077      0.000574
     8   Atom        0.004476     -0.002952     -0.001524
     9   Atom       -0.001268     -0.006966      0.008234
    10   Atom        0.000112     -0.000725      0.000613
    11   Atom        0.002212     -0.000432     -0.001780
    12   Atom        0.013101     -0.005868     -0.007232
    13   Atom        0.003708     -0.002329     -0.001379
    14   Atom        0.042305     -1.160018      1.117713
    15   Atom        0.083469     -0.108601      0.025133
 --------------------------------------------------------
                        XY            XZ            YZ
 --------------------------------------------------------
     1   Atom       -0.097728      0.085852     -0.127622
     2   Atom        0.010933      0.014491      0.004660
     3   Atom        0.012443      0.028993     -0.012432
     4   Atom        0.002097      0.002202     -0.009398
     5   Atom        0.005480     -0.023537      0.001687
     6   Atom        0.010340     -0.005934     -0.003467
     7   Atom        0.003907     -0.005066     -0.004727
     8   Atom        0.004568     -0.004399     -0.002893
     9   Atom        0.003344     -0.009136     -0.005634
    10   Atom        0.001648     -0.002109     -0.001936
    11   Atom        0.002620     -0.000699     -0.000423
    12   Atom        0.007367     -0.001295     -0.001011
    13   Atom        0.000625     -0.002484     -0.000265
    14   Atom       -1.009079      2.271056     -1.279485
    15   Atom        0.013862     -0.100796     -0.040854
 --------------------------------------------------------


 ---------------------------------------------------------------------------------
              Anisotropic Spin Dipole Couplings in Principal Axis System
 ---------------------------------------------------------------------------------

       Atom             a.u.   MegaHertz   Gauss  10(-4) cm-1        Axes

              Baa    -0.1222   -16.395    -5.850    -5.469  0.5622  0.7651  0.3139
     1 C(13)  Bbb    -0.0916   -12.295    -4.387    -4.101 -0.6883  0.2226  0.6904
              Bcc     0.2138    28.690    10.237     9.570  0.4583 -0.6042  0.6518
 
              Baa    -0.0166    -8.875    -3.167    -2.960 -0.6843  0.2258  0.6934
     2 H(1)   Bbb    -0.0041    -2.203    -0.786    -0.735 -0.2531  0.8182 -0.5162
              Bcc     0.0208    11.078     3.953     3.695  0.6838  0.5288  0.5027
 
              Baa    -0.0436    -5.844    -2.085    -1.949  0.7129 -0.2708 -0.6469
     3 C(13)  Bbb     0.0195     2.619     0.935     0.874  0.6984  0.1907  0.6898
              Bcc     0.0240     3.225     1.151     1.076  0.0634  0.9436 -0.3250
 
              Baa    -0.0132    -1.772    -0.632    -0.591  0.7335 -0.2431 -0.6347
     4 C(13)  Bbb    -0.0077    -1.030    -0.368    -0.344  0.6784  0.2054  0.7054
              Bcc     0.0209     2.802     1.000     0.935  0.0411  0.9480 -0.3156
 
              Baa    -0.0459     3.322     1.185     1.108  0.4191 -0.0509  0.9065
     5 O(17)  Bbb     0.0152    -1.098    -0.392    -0.366  0.8635 -0.2862 -0.4153
              Bcc     0.0307    -2.224    -0.794    -0.742  0.2806  0.9568 -0.0760
 
              Baa    -0.0111     0.802     0.286     0.267  0.4918 -0.1204  0.8624
     6 O(17)  Bbb    -0.0053     0.383     0.137     0.128 -0.6030  0.6674  0.4370
              Bcc     0.0164    -1.184    -0.423    -0.395  0.6281  0.7349 -0.2556
 
              Baa    -0.0051    -0.685    -0.244    -0.228  0.1908  0.6639  0.7231
     7 C(13)  Bbb    -0.0041    -0.554    -0.198    -0.185  0.7838 -0.5465  0.2950
              Bcc     0.0092     1.239     0.442     0.413 -0.5910 -0.5104  0.6246
 
              Baa    -0.0054    -0.730    -0.260    -0.243 -0.2356  0.8892  0.3923
     8 C(13)  Bbb    -0.0038    -0.504    -0.180    -0.168  0.5492 -0.2112  0.8086
              Bcc     0.0092     1.234     0.440     0.412  0.8018  0.4060 -0.4386
 
              Baa    -0.0089    -4.729    -1.687    -1.577 -0.1178  0.9601  0.2534
     9 H(1)   Bbb    -0.0068    -3.635    -1.297    -1.212  0.8592 -0.0294  0.5107
              Bcc     0.0157     8.364     2.984     2.790 -0.4978 -0.2780  0.8215
 
              Baa    -0.0021    -1.138    -0.406    -0.379 -0.2229  0.8690  0.4417
    10 H(1)   Bbb    -0.0018    -0.937    -0.334    -0.312  0.7849 -0.1088  0.6101
              Bcc     0.0039     2.074     0.740     0.692 -0.5782 -0.4827  0.6578
 
              Baa    -0.0020    -1.091    -0.389    -0.364 -0.5284  0.8480 -0.0399
    11 H(1)   Bbb    -0.0019    -1.012    -0.361    -0.338  0.0993  0.1084  0.9891
              Bcc     0.0039     2.103     0.750     0.701  0.8431  0.5187 -0.1415
 
              Baa    -0.0086    -4.597    -1.640    -1.534 -0.2758  0.8808  0.3849
    12 H(1)   Bbb    -0.0071    -3.796    -1.354    -1.266  0.1845 -0.3445  0.9205
              Bcc     0.0157     8.393     2.995     2.800  0.9433  0.3249 -0.0675
 
              Baa    -0.0024    -1.282    -0.457    -0.428  0.1799  0.7537  0.6321
    13 H(1)   Bbb    -0.0024    -1.271    -0.454    -0.424  0.3431 -0.6503  0.6777
              Bcc     0.0048     2.553     0.911     0.851  0.9219  0.0950 -0.3756
 
              Baa    -1.7540   126.920    45.288    42.336  0.7618 -0.0882 -0.6418
    14 O(17)  Bbb    -1.7314   125.284    44.704    41.790  0.2777  0.9395  0.2005
              Bcc     3.4854  -252.204   -89.993   -84.126  0.5852 -0.3310  0.7402
 
              Baa    -0.1215   -64.815   -23.127   -21.620  0.0985  0.9390  0.3294
    15 H(1)   Bbb    -0.0425   -22.655    -8.084    -7.557  0.6136 -0.3179  0.7228
              Bcc     0.1639    87.469    31.211    29.177  0.7835  0.1309 -0.6075
 

 ---------------------------------------------------------------------------------

 Calling FoFJK, ICntrl=    100127 FMM=F ISym2X=0 I1Cent= 0 IOpClX= 1 NMat=1 NMatS=1 NMatT=0.
 Full mass-weighted force constant matrix:
 Low frequencies ---  -49.8559  -32.6109  -10.7441   -0.0011   -0.0009   -0.0002
 Low frequencies ---   56.5027   86.0455  112.9262
 Diagonal vibrational polarizability:
       21.7872666      67.7292615      45.9270860
 Harmonic frequencies (cm**-1), IR intensities (KM/Mole), Raman scattering
 activities (A**4/AMU), depolarization ratios for plane and unpolarized
 incident light, reduced masses (AMU), force constants (mDyne/A),
 and normal coordinates:
                      1                      2                      3
                      A                      A                      A
 Frequencies --     48.8924                85.8911               112.0818
 Red. masses --      6.9084                 5.5637                 3.6859
 Frc consts  --      0.0097                 0.0242                 0.0273
 IR Inten    --      2.3139                 0.8542                 3.2289
  Atom  AN      X      Y      Z        X      Y      Z        X      Y      Z
     1   6     0.11  -0.03  -0.26     0.02  -0.01  -0.04     0.03  -0.04   0.01
     2   1     0.17  -0.03  -0.34     0.06  -0.03  -0.06     0.03  -0.03  -0.02
     3   6     0.02   0.00  -0.18    -0.02   0.02  -0.02     0.04  -0.07   0.05
     4   6     0.01  -0.08   0.02    -0.06   0.02   0.01    -0.01  -0.02   0.02
     5   8     0.03  -0.19   0.22    -0.13   0.12  -0.21    -0.05  -0.04   0.00
     6   8     0.00  -0.02  -0.02     0.03  -0.11   0.37    -0.01   0.03   0.01
     7   6    -0.02   0.00  -0.08    -0.05   0.02   0.05     0.01   0.07  -0.03
     8   6     0.05   0.00  -0.15     0.15  -0.09  -0.22    -0.17  -0.22   0.05
     9   1    -0.02  -0.01  -0.04    -0.05   0.02   0.05    -0.02   0.17  -0.31
    10   1    -0.08   0.01  -0.11    -0.24   0.16   0.03     0.19   0.21   0.11
    11   1     0.04   0.01  -0.16     0.14  -0.10  -0.16    -0.11  -0.33   0.29
    12   1     0.10  -0.02  -0.13     0.34  -0.30  -0.23    -0.32  -0.36  -0.09
    13   1     0.03   0.03  -0.20     0.12   0.05  -0.49    -0.18  -0.19  -0.02
    14   8    -0.16   0.25   0.33     0.05   0.05   0.06     0.15   0.27  -0.07
    15   1    -0.27   0.43   0.21     0.02  -0.07  -0.00     0.19  -0.11  -0.10
                      4                      5                      6
                      A                      A                      A
 Frequencies --    124.8089               150.1169               185.0368
 Red. masses --      3.9960                 5.5435                 2.7384
 Frc consts  --      0.0367                 0.0736                 0.0552
 IR Inten    --      3.3363                11.2500                14.8995
  Atom  AN      X      Y      Z        X      Y      Z        X      Y      Z
     1   6    -0.23   0.11  -0.05     0.06   0.02  -0.16     0.20  -0.06  -0.08
     2   1    -0.36   0.25  -0.10     0.18  -0.07  -0.18     0.35  -0.09  -0.27
     3   6    -0.07  -0.05  -0.01    -0.14   0.19  -0.18     0.02  -0.04   0.19
     4   6    -0.01  -0.09   0.01    -0.07   0.08  -0.02    -0.01   0.03   0.08
     5   8     0.01  -0.08   0.02     0.02   0.08   0.06     0.02   0.09   0.02
     6   8    -0.01  -0.12   0.01    -0.06  -0.02  -0.03    -0.03  -0.01  -0.02
     7   6     0.02  -0.14   0.08    -0.13  -0.11   0.05    -0.09  -0.09   0.02
     8   6     0.13   0.12   0.06    -0.11  -0.06   0.05    -0.01   0.02  -0.04
     9   1     0.07  -0.23   0.26    -0.17  -0.11   0.16    -0.11  -0.12   0.19
    10   1    -0.09  -0.23  -0.01    -0.14  -0.24  -0.01    -0.19  -0.20  -0.07
    11   1     0.07   0.23  -0.13     0.05  -0.09  -0.20     0.15   0.00  -0.35
    12   1     0.24   0.24   0.17    -0.10   0.23   0.19     0.06   0.32   0.13
    13   1     0.17   0.11   0.14    -0.27  -0.27   0.18    -0.18  -0.19   0.07
    14   8     0.11   0.22  -0.11     0.35  -0.11   0.15    -0.08   0.08  -0.10
    15   1     0.12  -0.21  -0.18     0.25  -0.22  -0.01    -0.08  -0.35  -0.20
                      7                      8                      9
                      A                      A                      A
 Frequencies --    210.0772               224.6426               264.3171
 Red. masses --      1.8332                 1.3080                 1.7668
 Frc consts  --      0.0477                 0.0389                 0.0727
 IR Inten    --     31.8231                 1.3803                39.4139
  Atom  AN      X      Y      Z        X      Y      Z        X      Y      Z
     1   6     0.04  -0.10   0.07    -0.04   0.03   0.02    -0.01   0.10  -0.12
     2   1     0.12  -0.25   0.21    -0.12   0.08   0.06    -0.04   0.23  -0.30
     3   6    -0.04   0.07  -0.10     0.06  -0.03  -0.03     0.04  -0.09   0.14
     4   6    -0.02   0.02  -0.02     0.02  -0.01  -0.01    -0.00  -0.03   0.04
     5   8     0.01  -0.00   0.06    -0.05  -0.06  -0.02    -0.03   0.01  -0.04
     6   8    -0.00  -0.03   0.05     0.03   0.05   0.03    -0.02   0.01  -0.02
     7   6    -0.02  -0.04   0.04     0.01   0.05   0.00    -0.02  -0.01   0.00
     8   6     0.01  -0.01   0.01     0.00  -0.02  -0.02    -0.02  -0.00  -0.00
     9   1    -0.02  -0.04   0.08    -0.01   0.07  -0.00    -0.03  -0.01   0.01
    10   1    -0.05  -0.06   0.01     0.01   0.05   0.00    -0.03  -0.03  -0.01
    11   1     0.07  -0.02  -0.09     0.39  -0.18  -0.39    -0.04   0.01   0.01
    12   1     0.04   0.09   0.07    -0.04   0.45   0.18    -0.01  -0.03  -0.01
    13   1    -0.05  -0.08   0.04    -0.37  -0.45   0.15     0.00   0.02  -0.01
    14   8    -0.02   0.05  -0.14    -0.01  -0.01   0.01     0.05  -0.05   0.01
    15   1     0.17   0.81   0.28    -0.02   0.01   0.00     0.25   0.72   0.45
                     10                     11                     12
                      A                      A                      A
 Frequencies --    349.6043               399.3125               546.1631
 Red. masses --      2.9124                 3.3491                 5.1460
 Frc consts  --      0.2097                 0.3146                 0.9044
 IR Inten    --      0.6095                 7.0824                16.5331
  Atom  AN      X      Y      Z        X      Y      Z        X      Y      Z
     1   6     0.04   0.07   0.06    -0.02  -0.03  -0.03    -0.14  -0.18  -0.10
     2   1    -0.08   0.12   0.16     0.08  -0.08  -0.10    -0.25  -0.08  -0.11
     3   6     0.19   0.00  -0.07    -0.14   0.03   0.06    -0.06  -0.22  -0.07
     4   6     0.05   0.05  -0.02    -0.09   0.03   0.00     0.03  -0.06  -0.05
     5   8    -0.12  -0.09   0.01    -0.07   0.02   0.04     0.30   0.07  -0.02
     6   8     0.04   0.15  -0.04    -0.09   0.10  -0.16     0.02   0.17   0.05
     7   6    -0.14  -0.11   0.12     0.13   0.04   0.14    -0.14   0.15   0.18
     8   6    -0.00  -0.05  -0.03     0.23  -0.14   0.01    -0.05   0.02  -0.02
     9   1    -0.26  -0.10   0.45     0.16   0.02   0.10    -0.22   0.16   0.35
    10   1    -0.26  -0.41  -0.07     0.20  -0.00   0.15    -0.20  -0.06   0.05
    11   1    -0.14   0.02   0.05     0.45  -0.30   0.01     0.07  -0.08   0.01
    12   1     0.20  -0.31  -0.05     0.41  -0.30   0.02     0.11  -0.14  -0.01
    13   1     0.09   0.17  -0.25     0.00  -0.15  -0.32    -0.20   0.06  -0.29
    14   8     0.01   0.00  -0.02    -0.01  -0.01   0.00    -0.01   0.00  -0.01
    15   1    -0.06  -0.05  -0.12     0.02  -0.01   0.04     0.23  -0.17   0.30
                     13                     14                     15
                      A                      A                      A
 Frequencies --    584.3072               632.1149               718.8648
 Red. masses --      1.1491                 4.8100                 1.3438
 Frc consts  --      0.2311                 1.1324                 0.4091
 IR Inten    --     95.3083                 3.0041                35.1307
  Atom  AN      X      Y      Z        X      Y      Z        X      Y      Z
     1   6     0.02   0.02  -0.00     0.03   0.03   0.02    -0.11   0.11   0.02
     2   1     0.06  -0.03   0.01    -0.36   0.25   0.25     0.77  -0.61  -0.07
     3   6    -0.03   0.05  -0.00     0.33  -0.13  -0.18     0.06  -0.03  -0.01
     4   6     0.01   0.01  -0.02    -0.16   0.07   0.03    -0.01  -0.01  -0.01
     5   8    -0.03  -0.03  -0.00     0.03   0.18   0.09     0.02  -0.00  -0.00
     6   8     0.03   0.01   0.00    -0.21  -0.14  -0.05    -0.02  -0.01  -0.00
     7   6     0.01  -0.01  -0.02     0.00  -0.01   0.02    -0.01   0.01   0.02
     8   6     0.00   0.00  -0.00     0.04  -0.01   0.01    -0.01   0.00   0.00
     9   1    -0.01  -0.00   0.01     0.19  -0.09  -0.23     0.01   0.00  -0.01
    10   1     0.00  -0.03  -0.03     0.09   0.20   0.15     0.00   0.02   0.03
    11   1    -0.02   0.01   0.01     0.11  -0.04  -0.05     0.01  -0.01  -0.01
    12   1    -0.03   0.02  -0.01     0.13  -0.03   0.05     0.02  -0.01   0.01
    13   1     0.03  -0.00   0.04    -0.04  -0.02  -0.08    -0.03   0.01  -0.04
    14   8    -0.05   0.01  -0.01    -0.02   0.00  -0.00     0.00  -0.00   0.00
    15   1     0.53  -0.47   0.69     0.25  -0.23   0.33     0.00  -0.02   0.00
                     16                     17                     18
                      A                      A                      A
 Frequencies --    747.0072               754.3433               764.7070
 Red. masses --      6.5660                 1.4521                 3.9874
 Frc consts  --      2.1587                 0.4869                 1.3738
 IR Inten    --     18.4657                25.4646                29.3437
  Atom  AN      X      Y      Z        X      Y      Z        X      Y      Z
     1   6     0.10   0.05   0.13     0.06   0.08  -0.12    -0.11  -0.07  -0.13
     2   1     0.09   0.28  -0.24    -0.18  -0.27   0.91    -0.10  -0.44   0.52
     3   6    -0.01   0.23  -0.14    -0.01   0.02   0.07    -0.02  -0.09  -0.11
     4   6     0.12  -0.34   0.37     0.01  -0.03  -0.03     0.05  -0.02   0.35
     5   8     0.05  -0.05  -0.20     0.03  -0.04  -0.02    -0.10   0.14  -0.01
     6   8    -0.11  -0.05  -0.12    -0.03  -0.03  -0.01     0.08   0.11  -0.03
     7   6    -0.09   0.09   0.13    -0.03   0.03   0.04     0.07  -0.08  -0.11
     8   6    -0.06   0.04  -0.00    -0.02   0.01   0.00     0.05  -0.04  -0.01
     9   1     0.01   0.09  -0.14     0.00   0.02  -0.03    -0.04  -0.04   0.05
    10   1     0.08   0.18   0.24     0.02   0.05   0.07    -0.06  -0.15  -0.19
    11   1     0.07  -0.01  -0.13     0.03  -0.01  -0.03    -0.10   0.05   0.07
    12   1     0.24  -0.08   0.08     0.07  -0.03   0.02    -0.18   0.09  -0.06
    13   1    -0.22   0.09  -0.31    -0.07   0.03  -0.10     0.22  -0.07   0.29
    14   8    -0.02   0.02  -0.02     0.00  -0.00   0.00     0.00   0.00  -0.00
    15   1     0.06  -0.02   0.08    -0.02  -0.01  -0.03     0.02   0.01   0.03
                     19                     20                     21
                      A                      A                      A
 Frequencies --    818.9528               963.8662              1096.6516
 Red. masses --      1.1523                 2.1842                 3.9523
 Frc consts  --      0.4553                 1.1956                 2.8005
 IR Inten    --      7.3765                15.2528                52.4178
  Atom  AN      X      Y      Z        X      Y      Z        X      Y      Z
     1   6     0.02   0.02   0.01     0.04   0.04   0.02     0.04   0.05   0.03
     2   1     0.01   0.02   0.03     0.03   0.05   0.03     0.03   0.06   0.04
     3   6     0.01   0.02  -0.00     0.02   0.03   0.01     0.01   0.03   0.00
     4   6    -0.02  -0.03   0.00    -0.06  -0.09  -0.03    -0.16  -0.13  -0.03
     5   8     0.01  -0.00  -0.01     0.07  -0.03  -0.03     0.07  -0.00  -0.02
     6   8    -0.03  -0.03  -0.00    -0.10   0.08   0.03    -0.10   0.17   0.09
     7   6     0.04   0.06  -0.02    -0.10   0.03  -0.07     0.27  -0.15   0.09
     8   6     0.02   0.03  -0.01     0.16  -0.12   0.03    -0.13  -0.01  -0.18
     9   1     0.13  -0.15   0.46    -0.24   0.14  -0.09     0.30  -0.20   0.21
    10   1    -0.35  -0.16  -0.28    -0.27   0.12  -0.10     0.32  -0.21   0.10
    11   1     0.21  -0.23   0.39    -0.17   0.10   0.07    -0.39   0.19  -0.27
    12   1    -0.38  -0.08  -0.24    -0.05   0.18   0.08    -0.29   0.18  -0.17
    13   1    -0.14  -0.14   0.04     0.54  -0.13   0.57     0.04   0.02   0.01
    14   8     0.00   0.00  -0.00    -0.00   0.00  -0.00    -0.00   0.00  -0.00
    15   1     0.00   0.00  -0.00    -0.01  -0.00  -0.01    -0.01  -0.00  -0.01
                     22                     23                     24
                      A                      A                      A
 Frequencies --   1140.7968              1179.3673              1284.9756
 Red. masses --      2.4712                 1.7816                 2.4811
 Frc consts  --      1.8949                 1.4600                 2.4137
 IR Inten    --     37.2256                48.4347               358.7364
  Atom  AN      X      Y      Z        X      Y      Z        X      Y      Z
     1   6    -0.02  -0.02  -0.01     0.01   0.01   0.01    -0.03  -0.03  -0.02
     2   1    -0.02  -0.02  -0.01     0.00   0.02   0.02    -0.02  -0.05  -0.03
     3   6    -0.00  -0.01   0.00     0.01   0.00  -0.00    -0.01  -0.00   0.00
     4   6     0.06   0.07   0.01    -0.08  -0.04   0.01     0.23   0.12   0.00
     5   8    -0.04   0.01   0.02    -0.02   0.02   0.01     0.00  -0.04  -0.02
     6   8     0.05  -0.10  -0.09     0.05  -0.07  -0.02    -0.17   0.01   0.02
     7   6    -0.01   0.09   0.23     0.07   0.17  -0.04     0.11  -0.00  -0.03
     8   6     0.01  -0.05  -0.17    -0.07  -0.10   0.04    -0.06  -0.08   0.04
     9   1     0.00   0.13   0.09    -0.12   0.18   0.42     0.25  -0.19   0.29
    10   1    -0.06   0.19   0.25     0.05  -0.43  -0.33    -0.53   0.41  -0.11
    11   1    -0.40   0.18   0.03    -0.21   0.13  -0.33    -0.16   0.10  -0.33
    12   1    -0.43   0.32  -0.19     0.30   0.07   0.28     0.15   0.02   0.17
    13   1     0.28  -0.13   0.37     0.18   0.18  -0.07     0.10   0.14  -0.09
    14   8     0.00  -0.00   0.00    -0.00   0.00  -0.00    -0.00  -0.00   0.00
    15   1     0.00  -0.00   0.00    -0.00   0.01  -0.00     0.01  -0.01   0.02
                     25                     26                     27
                      A                      A                      A
 Frequencies --   1360.9153              1403.4663              1435.0197
 Red. masses --      1.4357                 1.2590                 1.3629
 Frc consts  --      1.5667                 1.4611                 1.6536
 IR Inten    --    162.5057                27.6478                12.7119
  Atom  AN      X      Y      Z        X      Y      Z        X      Y      Z
     1   6     0.01   0.01   0.01    -0.01  -0.01  -0.00    -0.01  -0.01  -0.00
     2   1     0.01   0.02   0.01    -0.01  -0.01  -0.01    -0.01  -0.01  -0.01
     3   6    -0.00   0.00  -0.00    -0.00  -0.00   0.00    -0.00   0.00   0.00
     4   6    -0.10  -0.05  -0.01     0.04   0.03   0.01     0.04   0.02   0.01
     5   8    -0.00   0.02   0.01     0.00  -0.01  -0.01     0.00  -0.01  -0.01
     6   8     0.12   0.03  -0.03    -0.03   0.00   0.02    -0.02   0.01   0.02
     7   6    -0.05   0.01   0.01    -0.04   0.03  -0.02    -0.11   0.06  -0.05
     8   6    -0.04  -0.03   0.01    -0.08   0.02  -0.09     0.09  -0.05   0.03
     9   1     0.58  -0.47  -0.03     0.22  -0.21   0.14     0.40  -0.39   0.16
    10   1    -0.41   0.42   0.04     0.37  -0.15   0.09     0.50  -0.20   0.10
    11   1    -0.04  -0.01  -0.05     0.22  -0.29   0.27    -0.27   0.21  -0.03
    12   1     0.17   0.00   0.13     0.42  -0.03   0.13    -0.27   0.19  -0.02
    13   1     0.05   0.04   0.03     0.29  -0.01   0.45    -0.14  -0.04  -0.28
    14   8    -0.00   0.00  -0.00    -0.00  -0.00   0.00     0.00  -0.00   0.00
    15   1    -0.00   0.00  -0.00    -0.00   0.00   0.00     0.00   0.00   0.00
                     28                     29                     30
                      A                      A                      A
 Frequencies --   1488.4586              1503.4982              1530.4072
 Red. masses --      1.0378                 1.0474                 1.1001
 Frc consts  --      1.3547                 1.3950                 1.5180
 IR Inten    --      5.3859                 3.8394                 4.5696
  Atom  AN      X      Y      Z        X      Y      Z        X      Y      Z
     1   6     0.00   0.00   0.00    -0.00  -0.00  -0.00     0.00   0.01   0.00
     2   1    -0.00   0.00  -0.00    -0.00  -0.00  -0.00     0.00   0.01   0.01
     3   6     0.00   0.00  -0.00    -0.00  -0.00   0.00     0.00  -0.00  -0.00
     4   6    -0.00  -0.00   0.00     0.01   0.00  -0.00    -0.02  -0.02  -0.00
     5   8     0.00  -0.00  -0.00     0.00  -0.00  -0.00    -0.00   0.01   0.00
     6   8     0.00   0.00  -0.00    -0.01   0.00   0.00     0.02  -0.01  -0.01
     7   6    -0.02  -0.01   0.01     0.02  -0.01   0.02     0.01  -0.04  -0.07
     8   6    -0.03  -0.03   0.02     0.00  -0.03  -0.04     0.00  -0.00  -0.01
     9   1    -0.00  -0.01  -0.04     0.02   0.05  -0.24    -0.33   0.05   0.60
    10   1     0.04  -0.01   0.04    -0.16  -0.13  -0.13     0.20   0.54   0.30
    11   1     0.42  -0.28  -0.13    -0.18  -0.07   0.57    -0.04  -0.03   0.20
    12   1    -0.37   0.31  -0.00     0.19   0.53   0.31     0.06   0.17   0.10
    13   1     0.42   0.50  -0.22    -0.12   0.04  -0.29    -0.06   0.02  -0.12
    14   8     0.00  -0.00   0.00    -0.00  -0.00   0.00     0.00   0.00  -0.00
    15   1     0.00  -0.00  -0.00    -0.00   0.00   0.00    -0.00   0.00  -0.00
                     31                     32                     33
                      A                      A                      A
 Frequencies --   1859.0962              2207.4546              3076.1590
 Red. masses --     12.9482                 5.8789                 1.0355
 Frc consts  --     26.3672                16.8783                 5.7734
 IR Inten    --    517.4413                61.8603                11.9243
  Atom  AN      X      Y      Z        X      Y      Z        X      Y      Z
     1   6    -0.02  -0.03  -0.01    -0.24  -0.27  -0.15     0.00   0.00   0.00
     2   1    -0.06  -0.03  -0.01    -0.47  -0.50  -0.29    -0.00  -0.00  -0.00
     3   6     0.03   0.02   0.00     0.32   0.38   0.19    -0.00  -0.00  -0.00
     4   6    -0.43   0.59   0.38    -0.04  -0.07  -0.03     0.00   0.00  -0.00
     5   8     0.26  -0.40  -0.26    -0.00   0.00   0.00    -0.00   0.00   0.00
     6   8     0.04  -0.03  -0.02     0.00  -0.00  -0.00    -0.00  -0.00   0.00
     7   6     0.03  -0.01  -0.01    -0.00  -0.00  -0.00     0.00   0.00   0.00
     8   6    -0.01   0.00   0.00    -0.00   0.00   0.00    -0.04   0.01  -0.02
     9   1    -0.08   0.04   0.05    -0.01   0.01   0.00    -0.01  -0.02  -0.01
    10   1    -0.02   0.08   0.00    -0.00   0.00   0.00    -0.00   0.00  -0.00
    11   1     0.00  -0.00   0.01     0.00  -0.00   0.00     0.32   0.47   0.13
    12   1     0.01  -0.00   0.01     0.00   0.00   0.00    -0.20  -0.19   0.41
    13   1    -0.02   0.00  -0.02    -0.00  -0.00  -0.00     0.38  -0.44  -0.28
    14   8     0.00  -0.00   0.00     0.00  -0.00   0.00     0.00   0.00  -0.00
    15   1     0.01   0.02   0.01     0.00  -0.00  -0.00    -0.00   0.00   0.00
                     34                     35                     36
                      A                      A                      A
 Frequencies --   3096.3022              3145.0396              3154.6171
 Red. masses --      1.0605                 1.1051                 1.1011
 Frc consts  --      5.9900                 6.4406                 6.4562
 IR Inten    --     20.3319                 4.3125                12.4747
  Atom  AN      X      Y      Z        X      Y      Z        X      Y      Z
     1   6    -0.00   0.00   0.00    -0.00   0.00   0.00    -0.00   0.00   0.00
     2   1    -0.00   0.00   0.00    -0.00  -0.00  -0.00    -0.00   0.00   0.00
     3   6    -0.00   0.00   0.00    -0.00  -0.00   0.00    -0.00   0.00  -0.00
     4   6    -0.00   0.00   0.00    -0.00  -0.00   0.00    -0.00   0.00   0.00
     5   8     0.00  -0.00  -0.00     0.00  -0.00  -0.00     0.00  -0.00  -0.00
     6   8     0.00  -0.00  -0.00     0.00  -0.00  -0.00    -0.00   0.00   0.00
     7   6    -0.00  -0.01  -0.07    -0.04  -0.05   0.02    -0.03  -0.04   0.00
     8   6    -0.01   0.00   0.01     0.01   0.06   0.01     0.03  -0.05  -0.06
     9   1     0.33   0.43   0.10     0.37   0.48   0.13     0.28   0.36   0.10
    10   1    -0.31  -0.33   0.69     0.16   0.17  -0.37     0.06   0.07  -0.15
    11   1    -0.01  -0.01   0.00    -0.29  -0.41  -0.12     0.23   0.31   0.09
    12   1     0.03   0.03  -0.06    -0.07  -0.05   0.14    -0.16  -0.17   0.33
    13   1     0.05  -0.06  -0.04     0.21  -0.24  -0.15    -0.38   0.44   0.27
    14   8    -0.00  -0.00   0.00    -0.00  -0.00   0.00     0.00  -0.00   0.00
    15   1     0.00  -0.00  -0.00     0.00   0.00  -0.00    -0.00   0.00  -0.00
                     37                     38                     39
                      A                      A                      A
 Frequencies --   3171.8388              3480.7952              3801.1194
 Red. masses --      1.1053                 1.1636                 1.0673
 Frc consts  --      6.5515                 8.3064                 9.0861
 IR Inten    --     15.9936                69.8331                42.7583
  Atom  AN      X      Y      Z        X      Y      Z        X      Y      Z
     1   6     0.00  -0.00  -0.00    -0.07  -0.08  -0.04     0.00   0.00   0.00
     2   1     0.00   0.00  -0.00     0.61   0.69   0.37     0.00   0.00  -0.00
     3   6     0.00   0.00   0.00     0.02   0.02   0.01    -0.00   0.00  -0.00
     4   6     0.00   0.00  -0.00    -0.00  -0.00  -0.00    -0.00  -0.00  -0.00
     5   8    -0.00   0.00   0.00     0.00  -0.00  -0.00    -0.00   0.00   0.00
     6   8    -0.00  -0.00   0.00     0.00  -0.00  -0.00     0.00   0.00  -0.00
     7   6     0.02   0.03  -0.01    -0.00   0.00   0.00     0.00   0.00   0.00
     8   6     0.05   0.05  -0.05    -0.00   0.00  -0.00     0.00   0.00  -0.00
     9   1    -0.19  -0.25  -0.07    -0.00   0.00   0.00    -0.00  -0.00  -0.00
    10   1    -0.10  -0.11   0.24     0.00   0.00  -0.00    -0.00  -0.00   0.00
    11   1    -0.26  -0.38  -0.12     0.00  -0.00   0.00    -0.00  -0.00   0.00
    12   1    -0.29  -0.29   0.62    -0.00   0.00   0.00    -0.00  -0.00   0.00
    13   1    -0.08   0.11   0.06     0.00  -0.00  -0.00    -0.00  -0.00   0.00
    14   8     0.00   0.00  -0.00     0.00  -0.00   0.00    -0.05  -0.01   0.04
    15   1    -0.00   0.00   0.00    -0.00   0.00  -0.00     0.81   0.12  -0.57

 -------------------
 - Thermochemistry -
 -------------------
 Temperature   298.150 Kelvin.  Pressure   1.00000 Atm.
 Atom     1 has atomic number  6 and mass  12.00000
 Atom     2 has atomic number  1 and mass   1.00783
 Atom     3 has atomic number  6 and mass  12.00000
 Atom     4 has atomic number  6 and mass  12.00000
 Atom     5 has atomic number  8 and mass  15.99491
 Atom     6 has atomic number  8 and mass  15.99491
 Atom     7 has atomic number  6 and mass  12.00000
 Atom     8 has atomic number  6 and mass  12.00000
 Atom     9 has atomic number  1 and mass   1.00783
 Atom    10 has atomic number  1 and mass   1.00783
 Atom    11 has atomic number  1 and mass   1.00783
 Atom    12 has atomic number  1 and mass   1.00783
 Atom    13 has atomic number  1 and mass   1.00783
 Atom    14 has atomic number  8 and mass  15.99491
 Atom    15 has atomic number  1 and mass   1.00783
 Molecular mass:   115.03952 amu.
 Principal axes and moments of inertia in atomic units:
                           1         2         3
     Eigenvalues --   705.795311091.777511415.99452
           X            0.99974   0.02269   0.00137
           Y           -0.02269   0.99973  -0.00566
           Z           -0.00150   0.00563   0.99998
 This molecule is an asymmetric top.
 Rotational symmetry number  1.
 Warning -- assumption of classical behavior for rotation
           may cause significant error
 Rotational temperatures (Kelvin)      0.12272     0.07933     0.06117
 Rotational constants (GHZ):           2.55703     1.65303     1.27454
 Zero-point vibrational energy     293689.7 (Joules/Mol)
                                   70.19353 (Kcal/Mol)
 Warning -- explicit consideration of  13 degrees of freedom as
           vibrations may cause significant error
 Vibrational temperatures:     70.35   123.58   161.26   179.57   215.98
          (Kelvin)            266.23   302.25   323.21   380.29   503.00
                              574.52   785.81   840.69   909.47  1034.29
                             1074.78  1085.33  1100.24  1178.29  1386.79
                             1577.84  1641.35  1696.85  1848.79  1958.05
                             2019.27  2064.67  2141.56  2163.20  2201.91
                             2674.82  3176.03  4425.91  4454.89  4525.01
                             4538.79  4563.57  5008.09  5468.96
 
 Zero-point correction=                           0.111861 (Hartree/Particle)
 Thermal correction to Energy=                    0.122243
 Thermal correction to Enthalpy=                  0.123187
 Thermal correction to Gibbs Free Energy=         0.075400
 Sum of electronic and zero-point Energies=           -420.087956
 Sum of electronic and thermal Energies=              -420.077573
 Sum of electronic and thermal Enthalpies=            -420.076629
 Sum of electronic and thermal Free Energies=         -420.124416
 
                     E (Thermal)             CV                S
                      KCal/Mol        Cal/Mol-Kelvin    Cal/Mol-Kelvin
 Total                   76.709             34.604            100.577
 Electronic               0.000              0.000              1.377
 Translational            0.889              2.981             40.136
 Rotational               0.889              2.981             28.480
 Vibrational             74.931             28.643             30.584
 Vibration     1          0.595              1.978              4.862
 Vibration     2          0.601              1.959              3.752
 Vibration     3          0.607              1.939              3.233
 Vibration     4          0.610              1.928              3.025
 Vibration     5          0.618              1.903              2.671
 Vibration     6          0.631              1.860              2.277
 Vibration     7          0.642              1.825              2.043
 Vibration     8          0.649              1.804              1.921
 Vibration     9          0.671              1.738              1.633
 Vibration    10          0.727              1.576              1.168
 Vibration    11          0.765              1.472              0.965
 Vibration    12          0.901              1.148              0.552
 Vibration    13          0.941              1.065              0.477
                       Q            Log10(Q)             Ln(Q)
 Total Bot       0.208195D-34        -34.681529        -79.857171
 Total V=0       0.589776D+17         16.770687         38.615935
 Vib (Bot)       0.574029D-48        -48.241066       -111.079159
 Vib (Bot)    1  0.422856D+01          0.626193          1.441862
 Vib (Bot)    2  0.239546D+01          0.379389          0.873575
 Vib (Bot)    3  0.182652D+01          0.261625          0.602415
 Vib (Bot)    4  0.163550D+01          0.213651          0.491950
 Vib (Bot)    5  0.135069D+01          0.130557          0.300618
 Vib (Bot)    6  0.108355D+01          0.034850          0.080245
 Vib (Bot)    7  0.945414D+00         -0.024378         -0.056133
 Vib (Bot)    8  0.878796D+00         -0.056112         -0.129202
 Vib (Bot)    9  0.733272D+00         -0.134735         -0.310239
 Vib (Bot)   10  0.527873D+00         -0.277471         -0.638899
 Vib (Bot)   11  0.446582D+00         -0.350099         -0.806133
 Vib (Bot)   12  0.288393D+00         -0.540015         -1.243431
 Vib (Bot)   13  0.259665D+00         -0.585587         -1.348364
 Vib (V=0)       0.162611D+04          3.211150          7.393946
 Vib (V=0)    1  0.475802D+01          0.677426          1.559832
 Vib (V=0)    2  0.294709D+01          0.469393          1.080817
 Vib (V=0)    3  0.239372D+01          0.379074          0.872850
 Vib (V=0)    4  0.221022D+01          0.344436          0.793094
 Vib (V=0)    5  0.194027D+01          0.287862          0.662826
 Vib (V=0)    6  0.169335D+01          0.228747          0.526709
 Vib (V=0)    7  0.156949D+01          0.195758          0.450750
 Vib (V=0)    8  0.151108D+01          0.179287          0.412825
 Vib (V=0)    9  0.138752D+01          0.142239          0.327516
 Vib (V=0)   10  0.122708D+01          0.088874          0.204640
 Vib (V=0)   11  0.117040D+01          0.068334          0.157345
 Vib (V=0)   12  0.107721D+01          0.032300          0.074374
 Vib (V=0)   13  0.106341D+01          0.026699          0.061477
 Electronic      0.200000D+01          0.301030          0.693147
 Translational   0.484981D+08          7.685724         17.697035
 Rotational      0.373924D+06          5.572783         12.831807
 ***** Axes restored to original set *****
 -------------------------------------------------------------------
 Center     Atomic                   Forces (Hartrees/Bohr)
 Number     Number              X              Y              Z
 -------------------------------------------------------------------
      1        6          -0.000156965   -0.000496938   -0.000695925
      2        1           0.000159160   -0.000289130    0.000234894
      3        6          -0.003177136    0.005071875   -0.007018546
      4        6          -0.000996861    0.001334307   -0.001525587
      5        8           0.000783144    0.000647469    0.001429369
      6        8          -0.000156001   -0.000350240    0.000794889
      7        6          -0.000542783   -0.000243924   -0.000162138
      8        6           0.000103641    0.000080191   -0.000031185
      9        1          -0.000099446    0.000031971    0.000188057
     10        1          -0.000078561   -0.000088847    0.000088659
     11        1          -0.000024792   -0.000043849   -0.000146906
     12        1          -0.000012293    0.000039266   -0.000057215
     13        1          -0.000049466    0.000005039   -0.000026926
     14        8           0.004072880   -0.005757698    0.006850708
     15        1           0.000175479    0.000060508    0.000077852
 -------------------------------------------------------------------
 Cartesian Forces:  Max     0.007018546 RMS     0.002066480

 GradGradGradGradGradGradGradGradGradGradGradGradGradGradGradGradGradGrad
 Berny optimization.
 Search for a local minimum.
 Step number   1 out of a maximum of    2
 All quantities printed in internal units (Hartrees-Bohrs-Radians)
 Second derivative matrix not updated -- analytic derivatives used.
 ITU=  0
     Eigenvalues ---    0.00058   0.00124   0.00173   0.00230   0.00328
     Eigenvalues ---    0.00453   0.00525   0.00998   0.01242   0.01983
     Eigenvalues ---    0.02303   0.02681   0.03410   0.05590   0.06710
     Eigenvalues ---    0.07856   0.07941   0.08402   0.09041   0.10269
     Eigenvalues ---    0.11571   0.13891   0.16398   0.18137   0.23077
     Eigenvalues ---    0.24638   0.26792   0.36125   0.50491   0.62196
     Eigenvalues ---    0.71284   0.76762   0.78434   0.86370   0.90073
     Eigenvalues ---    0.94595   1.00054   1.76544   2.60930
 Quadratic step=3.072D+00 exceeds max=3.000D-01 adjusted using Lamda=-3.269D-02.
 Angle between NR and scaled steps=  57.59 degrees.
 Angle between quadratic step and forces=  10.08 degrees.
 Linear search not attempted -- first point.
 B after Tr=     0.002447   -0.000096    0.001300
         Rot=    1.000000   -0.000677    0.000126    0.000108 Ang=  -0.08 deg.
 Variable       Old X    -DE/DX   Delta X   Delta X   Delta X     New X
                                 (Linear)    (Quad)   (Total)
    X1       -3.85692  -0.00016   0.00000  -0.00314  -0.00073  -3.85765
    Y1       -2.11813  -0.00050   0.00000   0.00542   0.00841  -2.10972
    Z1       -1.62529  -0.00070   0.00000  -0.03485  -0.03738  -1.66267
    X2       -5.09379   0.00016   0.00000   0.00689   0.00917  -5.08462
    Y2       -3.52315  -0.00029   0.00000  -0.02700  -0.02281  -3.54595
    Z2       -2.36661   0.00023   0.00000   0.01255   0.00777  -2.35884
    X3       -2.41800  -0.00318   0.00000  -0.06161  -0.05903  -2.47703
    Y3       -0.57200   0.00507   0.00000   0.10936   0.11105  -0.46095
    Z3       -0.77538  -0.00702   0.00000  -0.15253  -0.15248  -0.92786
    X4       -1.05036  -0.00100   0.00000  -0.01806  -0.01525  -1.06562
    Y4        1.69932   0.00133   0.00000   0.02987   0.02995   1.72927
    Z4        0.07253  -0.00153   0.00000  -0.03506  -0.03169   0.04084
    X5       -2.18134   0.00078   0.00000   0.01305   0.01594  -2.16539
    Y5        3.36825   0.00065   0.00000   0.01522   0.01407   3.38232
    Z5        1.09089   0.00143   0.00000   0.02712   0.03246   1.12335
    X6        1.40599  -0.00016   0.00000  -0.00434  -0.00139   1.40459
    Y6        1.85735  -0.00035   0.00000  -0.00530  -0.00517   1.85218
    Z6       -0.40970   0.00079   0.00000   0.01341   0.01757  -0.39213
    X7        2.85941  -0.00054   0.00000  -0.01214  -0.00936   2.85005
    Y7       -0.17297  -0.00024   0.00000  -0.00327  -0.00197  -0.17493
    Z7       -1.48954  -0.00016   0.00000   0.00118   0.00296  -1.48658
    X8        4.92342   0.00010   0.00000  -0.00345  -0.00128   4.92214
    Y8       -0.90473   0.00008   0.00000   0.00144  -0.00019  -0.90492
    Z8        0.35026  -0.00003   0.00000  -0.00470  -0.00339   0.34687
    X9        1.63891  -0.00010   0.00000  -0.01407  -0.01153   1.62738
    Y9       -1.77486   0.00003   0.00000  -0.00393  -0.00178  -1.77665
    Z9       -1.92313   0.00019   0.00000   0.00912   0.00842  -1.91471
   X10        3.63889  -0.00008   0.00000  -0.01434  -0.01096   3.62793
   Y10        0.57134  -0.00009   0.00000  -0.00688  -0.00336   0.56798
   Z10       -3.24755   0.00009   0.00000  -0.00180   0.00118  -3.24637
   X11        6.08360  -0.00002   0.00000  -0.00336  -0.00096   6.08264
   Y11        0.73374  -0.00004   0.00000   0.00275   0.00024   0.73399
   Z11        0.81739  -0.00015   0.00000  -0.01015  -0.00632   0.81107
   X12        4.09596  -0.00001   0.00000   0.00343   0.00500   4.10095
   Y12       -1.66000   0.00004   0.00000   0.00499   0.00120  -1.65880
   Z12        2.07836  -0.00006   0.00000  -0.00026  -0.00018   2.07819
   X13        6.12992  -0.00005   0.00000  -0.00406  -0.00200   6.12792
   Y13       -2.34886   0.00001   0.00000   0.00071  -0.00004  -2.34890
   Z13       -0.49631  -0.00003   0.00000  -0.00424  -0.00458  -0.50089
   X14       -0.48291   0.00407   0.00000   0.08845   0.08968  -0.39323
   Y14       -2.97059  -0.00576   0.00000  -0.12348  -0.12645  -3.09704
   Z14        2.04830   0.00685   0.00000   0.14303   0.14004   2.18834
   X15       -1.97208   0.00018   0.00000  -0.00828  -0.00730  -1.97938
   Y15       -3.15791   0.00006   0.00000   0.00075  -0.00316  -3.16107
   Z15        3.10503   0.00008   0.00000   0.02909   0.02562   3.13065
         Item               Value     Threshold  Converged?
 Maximum Force            0.007019     0.000450     NO 
 RMS     Force            0.002066     0.000300     NO 
 Maximum Displacement     0.152477     0.001800     NO 
 RMS     Displacement     0.044742     0.001200     NO 
 Predicted change in Energy=-3.529645D-03
 GradGradGradGradGradGradGradGradGradGradGradGradGradGradGradGradGradGrad


 ----------------------------------------------------------------------

 Electric dipole moment (input orientation):
 (Debye = 10**-18 statcoulomb cm , SI units = C m)
                  (au)            (Debye)         (10**-30 SI)
   Tot        0.166677D+01      0.423652D+01      0.141315D+02
   x         -0.907433D-02     -0.230646D-01     -0.769353D-01
   y         -0.156151D+01     -0.396895D+01     -0.132390D+02
   z         -0.582882D+00     -0.148154D+01     -0.494188D+01

 Dipole polarizability, Alpha (input orientation).
 (esu units = cm**3 , SI units = C**2 m**2 J**-1)
 Alpha(0;0):
               (au)            (10**-24 esu)      (10**-40 SI)
   iso        0.730441D+02      0.108240D+02      0.120433D+02
   aniso      0.223667D+02      0.331440D+01      0.368777D+01
   xx         0.842640D+02      0.124866D+02      0.138933D+02
   yx         0.148472D+01      0.220013D+00      0.244797D+00
   yy         0.709995D+02      0.105210D+02      0.117062D+02
   zx         0.650685D+01      0.964215D+00      0.107283D+01
   zy         0.388401D+01      0.575551D+00      0.640387D+00
   zz         0.638688D+02      0.946437D+01      0.105305D+02

 ----------------------------------------------------------------------

 Dipole orientation:
     6         -3.83998422         -0.79644354          2.57372516
     1         -5.06747524         -1.00424572          4.15598709
     6         -2.41156494         -0.53550726          0.82019512
     6         -1.05715794         -0.53032541         -1.61164401
     8         -2.19995679         -0.16421846         -3.52513790
     8          1.40116735         -1.02807862         -1.60442795
     6          2.86811101         -1.32417155          0.66737797
     6          4.92482826          0.66315342          0.69829501
     1          1.65605135         -1.17475827          2.32637496
     1          3.65433026         -3.22851053          0.58062076
     1          6.07623889          0.53214902         -1.00636882
     1          4.09082471          2.54312688          0.80604205
     1          6.14135979          0.37966591          2.34070267
     8         -0.48282156          2.95600984          2.06930283
     1         -1.97700443          4.00588421          1.88335150

 Electric dipole moment (dipole orientation):
 (Debye = 10**-18 statcoulomb cm , SI units = C m)
                  (au)            (Debye)         (10**-30 SI)
   Tot        0.166677D+01      0.423652D+01      0.141315D+02
   x          0.000000D+00      0.000000D+00      0.000000D+00
   y          0.000000D+00      0.000000D+00      0.000000D+00
   z          0.166677D+01      0.423652D+01      0.141315D+02

 Dipole polarizability, Alpha (dipole orientation).
 (esu units = cm**3 , SI units = C**2 m**2 J**-1)
 Alpha(0;0):
               (au)            (10**-24 esu)      (10**-40 SI)
   iso        0.730441D+02      0.108240D+02      0.120433D+02
   aniso      0.223667D+02      0.331440D+01      0.368777D+01
   xx         0.841813D+02      0.124744D+02      0.138796D+02
   yx         0.565651D+01      0.838208D+00      0.932633D+00
   yy         0.622382D+02      0.922275D+01      0.102617D+02
   zx        -0.372698D+01     -0.552282D+00     -0.614496D+00
   zy        -0.642201D+00     -0.951644D-01     -0.105885D+00
   zz         0.727127D+02      0.107749D+02      0.119887D+02

 ----------------------------------------------------------------------
 1\1\GINC-BOSON\Freq\UM062X\6-311++G(d,p)\C5H7O3(2)\LOKI\28-Mar-2025\0\
 \# freq 6-311++g(d,p) m062x\\Title Card Required\\0,2\C,-2.040995,-1.1
 20865,-0.860064\H,-2.695515,-1.864369,-1.252355\C,-1.279551,-0.302689,
 -0.410316\C,-0.555829,0.899243,0.038379\O,-1.154314,1.7824,0.577276\O,
 0.744016,0.982868,-0.216803\C,1.513135,-0.09153,-0.788232\C,2.605364,-
 0.478761,0.18535\H,0.867274,-0.939216,-1.017676\H,1.925617,0.302341,-1
 .71853\H,3.2193,0.388279,0.432546\H,2.167487,-0.878433,1.099822\H,3.24
 3812,-1.242963,-0.262634\O,-0.255543,-1.571968,1.083913\H,-1.043578,-1
 .671092,1.643111\\Version=ES64L-G16RevA.03\State=2-A\HF=-420.1998162\S
 2=0.759589\S2-1=0.\S2A=0.750052\RMSD=2.276e-09\RMSF=2.066e-03\ZeroPoin
 t=0.1118605\Thermal=0.1222431\Dipole=-0.0090743,-1.5615062,-0.5828815\
 DipoleDeriv=-0.1328742,-0.1557724,0.0904483,0.0272179,-0.3431697,0.113
 6954,0.0351195,-0.0462898,-0.0811029,0.2552306,0.0166067,0.0201359,0.0
 363619,0.2326115,0.0347767,0.0148462,0.0222427,0.2157497,-0.4387445,0.
 0194316,-0.3157285,-0.1745532,-0.2491354,-0.0427441,-0.2303252,0.06299
 33,-0.3873829,2.3788204,-0.1239889,-0.4566582,0.0824756,1.5444753,0.33
 95229,-0.3693121,0.5694146,0.6915047,-0.9100803,0.2161888,0.1830869,0.
 3251119,-1.1069108,-0.32139,0.2676045,-0.3969377,-0.5487593,-1.7860364
 ,0.3428505,0.394294,0.1427734,-0.5984949,-0.0764113,0.3297022,-0.17310
 16,-0.4346632,0.6853145,-0.2149817,-0.1078586,-0.4057493,0.457712,0.07
 10291,-0.1908933,0.0407759,0.3946094,-0.0507458,0.0355328,-0.0247972,0
 .0507843,0.0437858,0.0160913,-0.0609863,0.0561462,-0.0460029,-0.043410
 6,-0.0403521,-0.0398481,0.0071196,-0.0260586,-0.0412152,-0.0236552,-0.
 0216743,0.0390133,-0.0242747,0.0211324,0.0468953,0.0153883,0.0138563,0
 .0784394,0.0714513,0.0307689,-0.0872679,0.004275,-0.0482553,-0.0382182
 ,-0.0997593,-0.0380983,-0.0324882,-0.0371991,-0.0044478,0.0619457,0.06
 33252,-0.0245024,0.0642555,-0.0115657,0.0531329,0.043434,0.02408,0.050
 1759,-0.0348778,-0.0161211,0.0701556,0.0233925,0.0990691,-0.0085452,-0
 .0549777,0.0392852,-0.0667188,0.0350219,-0.1410056,-0.124429,0.1545215
 ,-0.0855278,-0.2915685,-0.1010514,0.0446383,-0.094599,-0.1320219,0.156
 3276,0.0103833,0.0060789,-0.0091468,0.3164076,-0.0267108,0.0856441,-0.
 0287485,0.314234\Polar=84.2640093,1.4847204,70.9994692,6.5068476,3.884
 0122,63.8687517\Quadrupole=3.4529974,-4.9355529,1.4825555,5.8225142,0.
 1604311,-1.4011848\PG=C01 [X(C5H7O3)]\NImag=0\\0.62241325,0.62805406,0
 .75382041,0.33724502,0.36963259,0.25868586,-0.17439958,-0.16891054,-0.
 08912899,0.16559326,-0.17213120,-0.22049613,-0.10221797,0.17052149,0.2
 0921155,-0.08884021,-0.10016025,-0.08107891,0.08961381,0.10181161,0.07
 092604,-0.44012932,-0.45066340,-0.23891793,0.00523770,0.00427054,0.001
 35574,0.57609903,-0.47013094,-0.54299033,-0.27650176,-0.00032387,0.009
 35009,-0.00086136,0.56247214,0.76055659,-0.23402567,-0.26029683,-0.169
 38153,0.00074946,0.00126645,0.00681791,0.25294305,0.34408500,0.2200922
 3,0.00710134,0.00197296,0.00083622,0.00339480,-0.00361873,-0.00227311,
 -0.12363234,-0.08283243,-0.03264115,0.68180838,0.01204261,0.00994954,0
 .00548321,-0.00127411,0.00142200,-0.00145750,-0.08171071,-0.15673632,-
 0.04180371,-0.15023783,0.75085959,-0.00112133,-0.00347720,0.00147347,-
 0.00121775,-0.00168818,0.00464156,-0.02279787,-0.02684605,-0.07936048,
 -0.16791404,0.29014543,0.37423993,-0.00113009,-0.00315006,-0.00103402,
 -0.00024704,0.00065248,0.00034026,0.01934508,0.00381474,0.00230672,-0.
 24396767,0.23937912,0.14656529,0.30563777,-0.00359253,-0.00209773,-0.0
 0098081,-0.00085135,0.00084553,0.00119715,0.00905616,-0.06029236,-0.03
 995244,0.24868475,-0.48932427,-0.24459305,-0.29555531,0.53559550,-0.00
 078160,0.00010661,0.00033798,-0.00033941,0.00083125,-0.00043660,0.0040
 8924,-0.04056569,0.00255522,0.15150211,-0.24373394,-0.22274798,-0.1964
 9623,0.29955092,0.21442371,-0.00381161,-0.00638095,-0.00254016,0.00057
 995,0.00028128,-0.00015379,-0.03491075,-0.01837231,0.00579570,-0.29978
 428,-0.05329669,0.03246189,-0.07779831,0.04513942,0.04168318,0.5532561
 1,-0.00180661,-0.00240542,-0.00148046,0.00065339,-0.00053079,-0.000307
 45,-0.03114364,-0.00665811,-0.00213828,-0.02343079,-0.10735003,-0.0197
 6894,0.06022494,0.00974306,-0.01697225,-0.06774548,0.30403653,0.000748
 66,0.00037605,0.00070371,0.00018152,0.00011401,-0.00076574,-0.00543581
 ,-0.00678383,0.01301997,0.04323287,-0.01372387,-0.05803666,0.04816398,
 -0.01365155,-0.00177166,-0.12975418,0.11433977,0.13133240,0.00115890,0
 .00257431,0.00114034,-0.00025760,-0.00007609,0.00000998,-0.00276138,0.
 00137267,0.00001502,-0.03431478,0.02361052,0.01427547,0.00277132,-0.00
 290306,-0.00080742,-0.10123097,0.02362711,0.02416926,0.53507395,-0.000
 34206,-0.00294868,-0.00175250,0.00015735,-0.00003102,-0.00006691,-0.00
 556606,0.00102250,0.00294938,0.02845658,0.00634944,0.00089041,-0.01282
 822,0.00722429,0.00348931,0.04023428,-0.15870935,-0.05305426,0.1046656
 9,0.53384670,-0.00027808,-0.00122703,-0.00072473,0.00011321,0.00001823
 ,0.00001348,-0.00252572,-0.00009186,0.00177748,0.01512200,0.00207325,-
 0.01896077,-0.00255979,0.00004308,0.00917881,0.02964674,-0.04809235,-0
 .08315807,-0.00699641,-0.02926637,0.56465839,-0.00028840,-0.00019758,0
 .00004862,0.00002046,0.00003366,0.00000862,-0.00048492,-0.00014659,0.0
 0010279,0.00085430,0.00278650,-0.00268800,-0.00097755,0.00001007,0.001
 28131,-0.02606840,0.01685748,-0.00789372,-0.14364457,0.01481638,-0.064
 30106,0.53955018,-0.00030404,0.00046943,0.00037947,0.00004962,-0.00000
 291,0.00001371,0.00032168,0.00016937,-0.00012642,-0.00511723,-0.004268
 22,0.00288758,0.00255167,-0.00065561,-0.00203971,0.03679548,-0.0151029
 6,0.01043317,0.00888336,-0.08223897,0.01956997,0.01891528,0.58110161,0
 .00037292,0.00052139,0.00021281,0.00001361,0.00001060,0.00000114,-0.00
 061388,0.00041354,-0.00064351,-0.00317326,-0.00366164,0.00230416,0.002
 17164,-0.00061478,-0.00211485,0.01955469,-0.00618486,0.01202609,-0.074
 53221,0.02618922,-0.14955998,-0.04462785,0.01658050,0.55459221,-0.0013
 9843,0.00034431,0.00048909,-0.00013151,0.00000522,0.00002621,-0.004610
 16,0.00006988,0.00026881,0.00507669,0.00336391,0.00062512,-0.00135747,
 -0.00048692,-0.00000360,0.00812454,0.02210162,0.00732276,-0.15272690,-
 0.13268283,-0.03252174,-0.01400021,-0.01807097,-0.00462318,0.16876092,
 -0.00077384,0.00035328,0.00050675,-0.00002958,0.00009668,0.00002198,0.
 00110045,0.00042513,0.00011315,-0.00784390,-0.00071643,0.00079169,0.00
 172667,-0.00009681,-0.00036926,-0.00280734,-0.02830808,-0.01075468,-0.
 12149532,-0.20979951,-0.04228606,0.00594263,0.01070717,0.00242017,0.13
 145762,0.23384569,-0.00005622,0.00030105,0.00001741,-0.00001668,0.0000
 1397,0.00010920,0.00093593,0.00009569,-0.00038215,-0.00419468,-0.00177
 506,0.00170252,0.00097880,0.00018817,-0.00033767,-0.00305936,-0.016875
 71,-0.00607468,-0.02682018,-0.03627804,-0.06195702,-0.01399531,-0.0163
 0919,-0.00378845,0.03145807,0.04809824,0.06485904,-0.00034364,-0.00017
 534,-0.00012082,0.00001354,0.00003230,0.00004349,0.00019080,-0.0003123
 6,-0.00005425,0.00351791,0.00122151,0.00337416,-0.00200052,0.00105047,
 -0.00022044,-0.01662038,0.00169434,0.01945498,-0.08658931,-0.04147524,
 0.08058349,0.01075984,0.01000962,-0.02316133,-0.00567084,-0.00734968,0
 .01612467,0.09897651,0.00008417,0.00046005,0.00019584,0.00000999,0.000
 01698,0.00002859,0.00005210,-0.00003863,-0.00011316,-0.00498358,-0.001
 53177,-0.00336356,0.00290661,-0.00166455,0.00005460,0.02442653,0.00306
 498,-0.02877517,-0.04772959,-0.09150147,0.09379276,-0.00380205,-0.0022
 3961,0.00624033,-0.00799821,-0.00648322,0.02129906,0.03501212,0.098649
 85,-0.00000145,0.00014338,0.00007668,-0.00000619,-0.00000960,-0.000020
 04,0.00037772,0.00005518,-0.00009792,-0.00456671,-0.00094921,-0.001486
 94,0.00153725,-0.00061446,-0.00022457,0.01462674,-0.00385942,-0.009663
 00,0.08212863,0.08662335,-0.24054013,0.00666392,0.00967034,-0.01726450
 ,-0.00302511,-0.00133144,0.00782084,-0.09442598,-0.09034624,0.26143289
 ,-0.00000006,0.00020672,0.00015799,0.00002499,0.00001572,0.00000841,0.
 00005362,0.00010454,-0.00018644,-0.00107279,-0.00049282,0.00021386,0.0
 0029164,0.00009118,-0.00000578,0.00269261,-0.00072270,0.00085173,-0.01
 614592,-0.02015987,-0.00633681,-0.13170652,-0.12172004,-0.03240051,-0.
 00234062,0.00210106,-0.00325726,0.00092016,0.00050374,0.00050594,0.142
 24803,0.00011750,0.00005240,-0.00002403,0.00000329,0.00000404,0.000008
 22,-0.00012458,-0.00006377,-0.00017143,0.00063160,0.00007011,-0.000163
 84,-0.00022508,0.00011556,0.00016276,-0.00134665,0.00141779,0.00026950
 ,0.00736378,0.00787957,0.00257572,-0.12414118,-0.22349312,-0.04823666,
 0.00216386,0.00006850,0.00127598,-0.00052111,0.00059978,-0.00065357,0.
 13350905,0.23843843,-0.00016227,-0.00006848,0.00005085,0.00001292,0.00
 000665,0.00000234,0.00023754,-0.00008393,0.00022346,0.00019951,0.00015
 021,0.00010886,-0.00010321,-0.00002109,-0.00003880,0.00187392,0.000251
 67,0.00063861,-0.01368072,-0.02049266,-0.00661349,-0.03274646,-0.04585
 077,-0.06134017,-0.00302430,0.00234401,-0.00213538,0.00065463,-0.00046
 709,0.00055043,0.03984313,0.05146094,0.06439684,-0.00017322,-0.0002527
 8,-0.00004338,-0.00002510,-0.00002649,-0.00002374,0.00036934,-0.000049
 90,0.00038167,0.00001720,0.00053339,0.00002347,-0.00007097,-0.00016214
 ,-0.00012897,0.00194216,-0.00159352,0.00124725,0.01023421,0.01051536,-
 0.02410271,-0.09390729,-0.04267079,0.09773792,0.00112010,-0.00035294,0
 .00073018,-0.00377953,0.00169399,-0.00357475,-0.00729464,-0.00447871,0
 .01442065,0.10088616,-0.00004247,-0.00019804,-0.00003407,-0.00001747,0
 .00002543,-0.00000738,0.00006062,-0.00011892,0.00011934,0.00082323,0.0
 0025222,0.00043608,-0.00017555,-0.00005579,-0.00014016,-0.00138219,0.0
 0052531,-0.00066464,-0.00216854,-0.00432456,0.00783706,-0.04219001,-0.
 08551914,0.08422542,0.00025578,0.00015592,-0.00077856,0.00120267,0.000
 76182,0.00095375,-0.00936317,-0.00858590,0.02217102,0.04531714,0.08762
 072,-0.00015031,-0.00020693,-0.00006293,-0.00000982,-0.00001664,-0.000
 01731,0.00028505,-0.00005254,0.00035113,0.00078212,0.00070245,-0.00012
 942,-0.00040043,0.00002653,0.00004219,-0.00047654,-0.00099647,0.002351
 80,0.00967151,0.00761327,-0.02178216,0.09321669,0.08430413,-0.23947920
 ,0.00049351,-0.00013736,0.00054160,-0.00383404,0.00078925,-0.00122040,
 -0.00371722,-0.00306524,0.00811057,-0.10061449,-0.09356483,0.26088397,
 -0.00009895,-0.00020311,-0.00006312,-0.00000671,0.00003868,0.00000761,
 -0.00002873,-0.00014273,0.00003108,0.00267072,0.00122387,-0.00105427,-
 0.00100335,0.00032247,0.00076216,-0.00660212,0.00209714,-0.00301624,-0
 .01100303,0.01431925,0.01376926,-0.13901679,0.11067179,0.06345177,0.00
 019252,-0.00079042,0.00028827,0.00082309,0.00005014,-0.00019464,0.0125
 7731,-0.01282677,-0.00782532,-0.00751440,0.00864808,0.00368643,0.14918
 742,0.00008418,0.00009309,0.00006310,-0.00001187,-0.00000893,-0.000010
 55,0.00010591,0.00010748,-0.00013315,-0.00130995,-0.00034746,0.0007950
 1,0.00044455,-0.00023757,-0.00028316,0.00293122,0.00059948,0.00078080,
 0.00199334,-0.00652902,-0.00472151,0.11126973,-0.17908741,-0.07781111,
 0.00021481,0.00020675,0.00018882,-0.00025725,0.00004620,0.00031488,0.0
 1594657,-0.01647408,-0.00947768,-0.00808357,0.00975801,0.00434768,-0.1
 2325993,0.19193276,-0.00009232,-0.00010808,-0.00007792,-0.00000287,-0.
 00001216,0.00000428,0.00008084,-0.00004205,0.00017884,0.00107109,0.001
 33433,-0.00085717,-0.00085549,0.00025638,0.00072764,-0.00684483,0.0023
 0456,-0.00120036,-0.00914947,0.01448613,0.01006907,0.06528898,-0.07965
 701,-0.09472052,0.00041705,-0.00066539,0.00068803,0.00122143,-0.000026
 22,0.00039744,0.00422544,-0.00350397,-0.00392312,0.01418275,-0.0204241
 9,-0.00943758,-0.06977866,0.08593252,0.09815446,-0.00993091,-0.0049090
 6,-0.00717849,0.00020102,-0.00004427,0.00006776,0.00598284,0.00336294,
 0.00932413,-0.00145405,0.00353051,-0.00110080,0.00065469,-0.00090172,-
 0.00066957,-0.00009108,-0.00100341,0.00110061,-0.00072255,-0.00082341,
 0.00015790,-0.00105224,-0.00021858,-0.00020722,-0.00082881,-0.00063356
 ,0.00112854,-0.00009688,-0.00008713,0.00002093,-0.00018405,-0.00011516
 ,0.00028821,-0.00182406,-0.00093750,0.00081604,-0.00014787,-0.00005101
 ,0.00022370,0.35640467,0.00910000,0.00629192,0.00694793,0.00007180,-0.
 00025459,0.00009196,-0.00691071,-0.00324427,-0.00601572,0.00073815,-0.
 00889342,0.00137263,-0.00049623,0.00146074,0.00128994,0.00063285,0.000
 00824,0.00116904,0.00049187,-0.00063533,-0.00002170,-0.00002439,0.0002
 4934,0.00015742,-0.00067557,-0.00030776,0.00044574,-0.00022890,-0.0001
 1656,-0.00000393,0.00005135,0.00000102,-0.00005379,-0.00032991,-0.0002
 3923,-0.00009806,-0.00011474,0.00000565,0.00008970,0.04040927,0.012989
 48,-0.01265370,-0.00531757,-0.00934560,0.00027662,-0.00000057,0.000083
 60,0.00835776,0.00700716,0.00651038,-0.00001778,0.00375600,-0.00399642
 ,-0.00032766,0.00048989,0.00123086,-0.00123530,0.00019709,0.00065131,-
 0.00019818,-0.00104690,-0.00219619,-0.00012533,0.00026463,-0.00075108,
 0.00186212,0.00123096,-0.00110634,0.00045607,0.00062313,0.00025220,0.0
 0008196,0.00002721,0.00013767,-0.00035430,-0.00021826,0.00016109,-0.00
 004009,-0.00002855,0.00006870,-0.23829048,-0.03728795,0.18183910,0.001
 03071,0.00169046,-0.00089036,0.00000182,0.00004542,-0.00019103,-0.0007
 2081,0.00111420,-0.00501091,-0.00021544,-0.00067977,0.00035482,-0.0001
 4752,0.00009850,0.00013503,0.00032252,0.00019015,-0.00037367,0.0001586
 4,0.00071281,0.00022972,-0.00003789,-0.00009684,0.00003688,-0.00020981
 ,-0.00025184,-0.00024478,-0.00010075,-0.00013882,-0.00006629,-0.000063
 75,-0.00000984,0.00001176,0.00002004,-0.00003063,0.00025151,-0.0000291
 1,-0.00001674,0.00001234,-0.34691073,-0.04271482,0.24220828,0.34690209
 ,-0.00035883,-0.00035378,-0.00021729,-0.00004814,0.00035206,-0.0003018
 2,-0.00132050,-0.00148845,0.00221782,-0.00193284,0.00026503,0.00258197
 ,0.00072968,-0.00055997,-0.00138124,0.00089055,-0.00033067,-0.00007433
 ,-0.00021003,0.00039543,-0.00020320,-0.00012993,-0.00008898,-0.0002495
 6,-0.00006250,-0.00014729,0.00010984,0.00009686,-0.00002385,0.00000700
 ,-0.00007134,-0.00003033,0.00013101,-0.00005913,-0.00005785,0.00035476
 ,-0.00003372,-0.00006494,0.00003545,-0.03757791,-0.00731521,0.03030372
 ,0.04008776,0.00944880,-0.00020345,-0.00021871,-0.00088716,-0.00023944
 ,-0.00012765,-0.00028094,0.00162836,0.00017250,-0.00166104,0.00203481,
 0.00346005,0.00110533,-0.00028710,-0.00132393,-0.00082427,-0.00157870,
 -0.00041691,-0.00005371,0.00077438,-0.00028341,-0.00020471,-0.00023320
 ,-0.00012040,0.00052584,0.00023518,0.00001724,0.00004306,-0.00009607,0
 .00006787,-0.00001300,0.00001556,0.00003842,-0.00016866,0.00011846,0.0
 0008940,-0.00031335,-0.00002423,0.00004288,-0.00007179,0.23431873,0.03
 191678,-0.17353929,-0.23646330,-0.03331414,0.17634368\\0.00015696,0.00
 049694,0.00069592,-0.00015916,0.00028913,-0.00023489,0.00317714,-0.005
 07187,0.00701855,0.00099686,-0.00133431,0.00152559,-0.00078314,-0.0006
 4747,-0.00142937,0.00015600,0.00035024,-0.00079489,0.00054278,0.000243
 92,0.00016214,-0.00010364,-0.00008019,0.00003118,0.00009945,-0.0000319
 7,-0.00018806,0.00007856,0.00008885,-0.00008866,0.00002479,0.00004385,
 0.00014691,0.00001229,-0.00003927,0.00005721,0.00004947,-0.00000504,0.
 00002693,-0.00407288,0.00575770,-0.00685071,-0.00017548,-0.00006051,-0
 .00007785\\\@


 A MAN IS EXACTLY AS GREAT AS THE TIDE SURGING
 BENEATH HIM.      - BISMARCK
 Job cpu time:       0 days  1 hours 15 minutes 37.5 seconds.
 Elapsed time:       0 days  0 hours 12 minutes 47.6 seconds.
 File lengths (MBytes):  RWF=    146 Int=      0 D2E=      0 Chk=      5 Scr=      1
 Normal termination of Gaussian 16 at Fri Mar 28 08:38:04 2025.
