 Entering Link 1 = C:\G09W\l1.exe PID=      9792.
  
 Copyright (c) 1988,1990,1992,1993,1995,1998,2003,2009,2013,
            Gaussian, Inc.  All Rights Reserved.
  
 This is part of the Gaussian(R) 09 program.  It is based on
 the Gaussian(R) 03 system (copyright 2003, Gaussian, Inc.),
 the Gaussian(R) 98 system (copyright 1998, Gaussian, Inc.),
 the Gaussian(R) 94 system (copyright 1995, Gaussian, Inc.),
 the Gaussian 92(TM) system (copyright 1992, Gaussian, Inc.),
 the Gaussian 90(TM) system (copyright 1990, Gaussian, Inc.),
 the Gaussian 88(TM) system (copyright 1988, Gaussian, Inc.),
 the Gaussian 86(TM) system (copyright 1986, Carnegie Mellon
 University), and the Gaussian 82(TM) system (copyright 1983,
 Carnegie Mellon University). Gaussian is a federally registered
 trademark of Gaussian, Inc.
  
 This software contains proprietary and confidential information,
 including trade secrets, belonging to Gaussian, Inc.
  
 This software is provided under written license and may be
 used, copied, transmitted, or stored only in accord with that
 written license.
  
 The following legend is applicable only to US Government
 contracts under FAR:
  
                    RESTRICTED RIGHTS LEGEND
  
 Use, reproduction and disclosure by the US Government is
 subject to restrictions as set forth in subparagraphs (a)
 and (c) of the Commercial Computer Software - Restricted
 Rights clause in FAR 52.227-19.
  
 Gaussian, Inc.
 340 Quinnipiac St., Bldg. 40, Wallingford CT 06492
  
  
 ---------------------------------------------------------------
 Warning -- This program may not be used in any manner that
 competes with the business of Gaussian, Inc. or will provide
 assistance to any competitor of Gaussian, Inc.  The licensee
 of this program is prohibited from giving any competitor of
 Gaussian, Inc. access to this program.  By using this program,
 the user acknowledges that Gaussian, Inc. is engaged in the
 business of creating and licensing software in the field of
 computational chemistry and represents and warrants to the
 licensee that it is not a competitor of Gaussian, Inc. and that
 it will not use this program in any manner prohibited above.
 ---------------------------------------------------------------
  

 Cite this work as:
 Gaussian 09, Revision D.01,
 M. J. Frisch, G. W. Trucks, H. B. Schlegel, G. E. Scuseria, 
 M. A. Robb, J. R. Cheeseman, G. Scalmani, V. Barone, B. Mennucci, 
 G. A. Petersson, H. Nakatsuji, M. Caricato, X. Li, H. P. Hratchian, 
 A. F. Izmaylov, J. Bloino, G. Zheng, J. L. Sonnenberg, M. Hada, 
 M. Ehara, K. Toyota, R. Fukuda, J. Hasegawa, M. Ishida, T. Nakajima, 
 Y. Honda, O. Kitao, H. Nakai, T. Vreven, J. A. Montgomery, Jr., 
 J. E. Peralta, F. Ogliaro, M. Bearpark, J. J. Heyd, E. Brothers, 
 K. N. Kudin, V. N. Staroverov, T. Keith, R. Kobayashi, J. Normand, 
 K. Raghavachari, A. Rendell, J. C. Burant, S. S. Iyengar, J. Tomasi, 
 M. Cossi, N. Rega, J. M. Millam, M. Klene, J. E. Knox, J. B. Cross, 
 V. Bakken, C. Adamo, J. Jaramillo, R. Gomperts, R. E. Stratmann, 
 O. Yazyev, A. J. Austin, R. Cammi, C. Pomelli, J. W. Ochterski, 
 R. L. Martin, K. Morokuma, V. G. Zakrzewski, G. A. Voth, 
 P. Salvador, J. J. Dannenberg, S. Dapprich, A. D. Daniels, 
 O. Farkas, J. B. Foresman, J. V. Ortiz, J. Cioslowski, 
 and D. J. Fox, Gaussian, Inc., Wallingford CT, 2013.
 
 ******************************************
 Gaussian 09:  IA32W-G09RevD.01 24-Apr-2013
                28-Mar-2025 
 ******************************************
 %chk=ethyl_propiolate.chk
 %nprocshared=4
 Will use up to    4 processors via shared memory.
 %mem=1700MB
 --------------------------
 # freq 6-311++g(d,p) m062x
 --------------------------
 1/10=4,30=1,38=1/1,3;
 2/12=2,17=6,18=5,40=1/2;
 3/5=4,6=6,7=1111,11=2,16=1,25=1,30=1,71=2,74=-55,140=1/1,2,3;
 4//1;
 5/5=2,38=5,98=1/2;
 8/6=4,10=90,11=11/1;
 11/6=1,8=1,9=11,15=111,16=1/1,2,10;
 10/6=1/2;
 6/7=2,8=2,9=2,10=2,18=1,28=1/1;
 7/8=1,10=1,25=1/1,2,3,16;
 1/10=4,30=1/3;
 99//99;
 -------------------
 Title Card Required
 -------------------
 Symbolic Z-matrix:
 Charge =  0 Multiplicity = 2
 C                     2.56068   0.18194   0. 
 H                     3.62416   0.09621   0. 
 C                     1.43454   0.64019  0. 
 C                     0.01413   0.95312  0. 
 O                    -0.44081   2.06061  -0.00001 
 O                    -0.70379  -0.17508   0. 
 C                    -2.13683  -0.00045  0. 
 C                    -2.75491  -1.37844   0.00001 
 H                    -2.41204   0.57824   0.88381 
 H                    -2.41204   0.57823  -0.88381 
 H                    -2.45313  -1.93728  -0.88679 
 H                    -2.45313  -1.93727   0.88681 
 H                    -3.84256  -1.2908    0. 
 O                     2.34664  -1.81741   0.00001 
 H                     1.37794  -1.88788   0.00001 
 

 GradGradGradGradGradGradGradGradGradGradGradGradGradGradGradGradGradGrad
 Berny optimization.
 Initialization pass.
 Trust Radius=3.00D-01 FncErr=1.00D-07 GrdErr=1.00D-07
 Number of steps in this run=      2 maximum allowed number of steps=      2.
 GradGradGradGradGradGradGradGradGradGradGradGradGradGradGradGradGradGrad

                          Input orientation:                          
 ---------------------------------------------------------------------
 Center     Atomic      Atomic             Coordinates (Angstroms)
 Number     Number       Type             X           Y           Z
 ---------------------------------------------------------------------
      1          6           0        2.560683    0.181943    0.000000
      2          1           0        3.624162    0.096210    0.000001
      3          6           0        1.434541    0.640194   -0.000003
      4          6           0        0.014134    0.953118   -0.000005
      5          8           0       -0.440815    2.060613   -0.000010
      6          8           0       -0.703787   -0.175084    0.000000
      7          6           0       -2.136833   -0.000450   -0.000001
      8          6           0       -2.754911   -1.378444    0.000005
      9          1           0       -2.412041    0.578237    0.883806
     10          1           0       -2.412040    0.578230   -0.883814
     11          1           0       -2.453130   -1.937280   -0.886794
     12          1           0       -2.453130   -1.937272    0.886808
     13          1           0       -3.842561   -1.290800    0.000004
     14          8           0        2.346638   -1.817408    0.000010
     15          1           0        1.377941   -1.887881    0.000010
 ---------------------------------------------------------------------
                    Distance matrix (angstroms):
                    1          2          3          4          5
     1  C    0.000000
     2  H    1.066929   0.000000
     3  C    1.215808   2.256182   0.000000
     4  C    2.660756   3.710336   1.454468   0.000000
     5  O    3.540959   4.514744   2.352562   1.197299   0.000000
     6  O    3.283936   4.336444   2.288477   1.337255   2.251110
     7  C    4.701056   5.761806   3.628379   2.352860   2.669168
     8  C    5.539887   6.547303   4.650420   3.619916   4.145136
     9  H    5.066177   6.119576   3.947297   2.609211   2.619981
    10  H    5.066177   6.119576   3.947296   2.609211   2.619980
    11  H    5.515055   6.469541   4.748027   3.902331   4.562778
    12  H    5.515054   6.469540   4.748026   3.902330   4.562778
    13  H    6.570427   7.594455   5.619301   4.461980   4.775337
    14  O    2.010776   2.300870   2.621398   3.621656   4.775871
    15  H    2.383915   2.997019   2.528709   3.151388   4.347238
                    6          7          8          9         10
     6  O    0.000000
     7  C    1.443647   0.000000
     8  C    2.378063   1.510261   0.000000
     9  H    2.065608   1.091665   2.174227   0.000000
    10  H    2.065608   1.091666   2.174229   1.767620   0.000000
    11  H    2.636653   2.153545   1.090771   3.076449   2.515847
    12  H    2.636652   2.153544   1.090770   2.515846   3.076449
    13  H    3.331175   2.138811   1.091176   2.514119   2.514120
    14  O    3.464437   4.837649   5.120400   5.400485   5.400485
    15  H    2.695787   3.989490   4.164132   4.607255   4.607256
                   11         12         13         14         15
    11  H    0.000000
    12  H    1.773602   0.000000
    13  H    1.770555   1.770555   0.000000
    14  O    4.882475   4.882474   6.211562   0.000000
    15  H    3.932679   3.932678   5.254536   0.971257   0.000000
 Stoichiometry    C5H7O3(2)
 Framework group  C1[X(C5H7O3)]
 Deg. of freedom    39
 Full point group                 C1      NOp   1
 Largest Abelian subgroup         C1      NOp   1
 Largest concise Abelian subgroup C1      NOp   1
                         Standard orientation:                         
 ---------------------------------------------------------------------
 Center     Atomic      Atomic             Coordinates (Angstroms)
 Number     Number       Type             X           Y           Z
 ---------------------------------------------------------------------
      1          6           0        2.630336    0.229114    0.000000
      2          1           0        3.693815    0.143380    0.000001
      3          6           0        1.504194    0.687365   -0.000003
      4          6           0        0.083787    1.000289   -0.000005
      5          8           0       -0.371162    2.107784   -0.000010
      6          8           0       -0.634134   -0.127913    0.000000
      7          6           0       -2.067180    0.046721   -0.000001
      8          6           0       -2.685258   -1.331273    0.000005
      9          1           0       -2.342388    0.625408    0.883806
     10          1           0       -2.342387    0.625401   -0.883814
     11          1           0       -2.383477   -1.890109   -0.886794
     12          1           0       -2.383477   -1.890101    0.886808
     13          1           0       -3.772908   -1.243629    0.000004
     14          8           0        2.416291   -1.770237    0.000010
     15          1           0        1.447594   -1.840710    0.000010
 ---------------------------------------------------------------------
 Rotational constants (GHZ):      2.8619365      1.2455258      0.8773595
 Standard basis: 6-311++G(d,p) (5D, 7F)
 There are   233 symmetry adapted cartesian basis functions of A   symmetry.
 There are   225 symmetry adapted basis functions of A   symmetry.
   225 basis functions,   351 primitive gaussians,   233 cartesian basis functions
    31 alpha electrons       30 beta electrons
       nuclear repulsion energy       348.3905784057 Hartrees.
 NAtoms=   15 NActive=   15 NUniq=   15 SFac= 1.00D+00 NAtFMM=   60 NAOKFM=F Big=F
 Integral buffers will be    262144 words long.
 Raffenetti 2 integral format.
 Two-electron integral symmetry is turned on.
 One-electron integrals computed using PRISM.
 NBasis=   225 RedAO= T EigKep=  1.10D-06  NBF=   225
 NBsUse=   225 1.00D-06 EigRej= -1.00D+00 NBFU=   225
 ExpMin= 3.60D-02 ExpMax= 8.59D+03 ExpMxC= 1.30D+03 IAcc=3 IRadAn=         5 AccDes= 0.00D+00
 Harris functional with IExCor= 1009 and IRadAn=       5 diagonalized for initial guess.
 HarFok:  IExCor= 1009 AccDes= 0.00D+00 IRadAn=         5 IDoV= 1 UseB2=F ITyADJ=14
 ICtDFT=  3500011 ScaDFX=  1.000000  1.000000  1.000000  1.000000
 FoFCou: FMM=F IPFlag=           0 FMFlag=      100000 FMFlg1=           0
         NFxFlg=           0 DoJE=T BraDBF=F KetDBF=T FulRan=T
         wScrn=  0.000000 ICntrl=     500 IOpCl=  0 I1Cent=   200000004 NGrid=           0
         NMat0=    1 NMatS0=      1 NMatT0=    0 NMatD0=    1 NMtDS0=    0 NMtDT0=    0
 Petite list used in FoFCou.
 Initial guess <Sx>= 0.0000 <Sy>= 0.0000 <Sz>= 0.5000 <S**2>= 0.7500 S= 0.5000
 Requested convergence on RMS density matrix=1.00D-08 within 128 cycles.
 Requested convergence on MAX density matrix=1.00D-06.
 Requested convergence on             energy=1.00D-06.
 No special actions if energy rises.
 Restarting incremental Fock formation.
 SCF Done:  E(UM062X) =  -420.204699671     A.U. after   22 cycles
            NFock= 22  Conv=0.98D-09     -V/T= 2.0033
 <Sx>= 0.0000 <Sy>= 0.0000 <Sz>= 0.5000 <S**2>= 0.7737 S= 0.5118
 <L.S>= 0.000000000000E+00
 Annihilation of the first spin contaminant:
 S**2 before annihilation     0.7737,   after     0.7502
 DoSCS=F DFT=T ScalE2(SS,OS)=  1.000000  1.000000
 Range of M.O.s used for correlation:     1   225
 NBasis=   225 NAE=    31 NBE=    30 NFC=     0 NFV=     0
 NROrb=    225 NOA=    31 NOB=    30 NVA=   194 NVB=   195

 **** Warning!!: The largest alpha MO coefficient is  0.24093273D+03


 **** Warning!!: The largest beta MO coefficient is  0.24065802D+03

 Symmetrizing basis deriv contribution to polar:
 IMax=3 JMax=2 DiffMx= 0.00D+00
 G2DrvN: will do    16 centers at a time, making    1 passes.
 Calling FoFCou, ICntrl=  3107 FMM=F I1Cent=   0 AccDes= 0.00D+00.
 End of G2Drv F.D. properties file   721 does not exist.
 End of G2Drv F.D. properties file   722 does not exist.
 End of G2Drv F.D. properties file   788 does not exist.
          IDoAtm=111111111111111
          Differentiating once with respect to electric field.
                with respect to dipole field.
          Differentiating once with respect to nuclear coordinates.
          There are    48 degrees of freedom in the 1st order CPHF.  IDoFFX=6 NUNeed=     3.
     46 vectors produced by pass  0 Test12= 2.47D-14 2.08D-09 XBig12= 9.60D+01 4.46D+00.
 AX will form    46 AO Fock derivatives at one time.
     45 vectors produced by pass  1 Test12= 2.47D-14 2.08D-09 XBig12= 1.78D+01 6.32D-01.
     45 vectors produced by pass  2 Test12= 2.47D-14 2.08D-09 XBig12= 9.18D-01 1.29D-01.
     45 vectors produced by pass  3 Test12= 2.47D-14 2.08D-09 XBig12= 1.21D-02 1.56D-02.
     45 vectors produced by pass  4 Test12= 2.47D-14 2.08D-09 XBig12= 1.40D-04 1.62D-03.
     45 vectors produced by pass  5 Test12= 2.47D-14 2.08D-09 XBig12= 1.59D-06 1.55D-04.
     39 vectors produced by pass  6 Test12= 2.47D-14 2.08D-09 XBig12= 1.12D-08 1.19D-05.
     25 vectors produced by pass  7 Test12= 2.47D-14 2.08D-09 XBig12= 7.20D-11 7.89D-07.
      9 vectors produced by pass  8 Test12= 2.47D-14 2.08D-09 XBig12= 2.78D-12 2.54D-07.
      9 vectors produced by pass  9 Test12= 2.47D-14 2.08D-09 XBig12= 1.77D-13 6.09D-08.
      9 vectors produced by pass 10 Test12= 2.47D-14 2.08D-09 XBig12= 1.56D-14 1.96D-08.
      9 vectors produced by pass 11 Test12= 2.47D-14 2.08D-09 XBig12= 4.11D-15 7.97D-09.
      8 vectors produced by pass 12 Test12= 2.47D-14 2.08D-09 XBig12= 1.45D-15 4.54D-09.
      8 vectors produced by pass 13 Test12= 2.47D-14 2.08D-09 XBig12= 1.38D-15 4.85D-09.
      7 vectors produced by pass 14 Test12= 2.47D-14 2.08D-09 XBig12= 1.28D-15 4.38D-09.
      7 vectors produced by pass 15 Test12= 2.47D-14 2.08D-09 XBig12= 8.24D-16 3.24D-09.
      7 vectors produced by pass 16 Test12= 2.47D-14 2.08D-09 XBig12= 1.35D-15 4.29D-09.
      5 vectors produced by pass 17 Test12= 2.47D-14 2.08D-09 XBig12= 1.12D-15 4.71D-09.
      5 vectors produced by pass 18 Test12= 2.47D-14 2.08D-09 XBig12= 6.94D-16 3.09D-09.
      5 vectors produced by pass 19 Test12= 2.47D-14 2.08D-09 XBig12= 9.64D-16 3.06D-09.
      5 vectors produced by pass 20 Test12= 2.47D-14 2.08D-09 XBig12= 8.97D-16 3.59D-09.
      4 vectors produced by pass 21 Test12= 2.47D-14 2.08D-09 XBig12= 7.92D-16 2.70D-09.
      4 vectors produced by pass 22 Test12= 2.47D-14 2.08D-09 XBig12= 4.97D-16 3.24D-09.
      1 vectors produced by pass 23 Test12= 2.47D-14 2.08D-09 XBig12= 4.56D-16 2.12D-09.
 InvSVY:  IOpt=1 It=  1 EMax= 5.33D-15
 Solved reduced A of dimension   437 with    48 vectors.
 Isotropic polarizability for W=    0.000000       76.03 Bohr**3.
 End of Minotr F.D. properties file   721 does not exist.
 End of Minotr F.D. properties file   722 does not exist.
 End of Minotr F.D. properties file   788 does not exist.

 **********************************************************************

            Population analysis using the SCF density.

 **********************************************************************

 Orbital symmetries:
 Alpha Orbitals:
       Occupied  (A) (A) (A) (A) (A) (A) (A) (A) (A) (A) (A) (A)
                 (A) (A) (A) (A) (A) (A) (A) (A) (A) (A) (A) (A)
                 (A) (A) (A) (A) (A) (A) (A)
       Virtual   (A) (A) (A) (A) (A) (A) (A) (A) (A) (A) (A) (A)
                 (A) (A) (A) (A) (A) (A) (A) (A) (A) (A) (A) (A)
                 (A) (A) (A) (A) (A) (A) (A) (A) (A) (A) (A) (A)
                 (A) (A) (A) (A) (A) (A) (A) (A) (A) (A) (A) (A)
                 (A) (A) (A) (A) (A) (A) (A) (A) (A) (A) (A) (A)
                 (A) (A) (A) (A) (A) (A) (A) (A) (A) (A) (A) (A)
                 (A) (A) (A) (A) (A) (A) (A) (A) (A) (A) (A) (A)
                 (A) (A) (A) (A) (A) (A) (A) (A) (A) (A) (A) (A)
                 (A) (A) (A) (A) (A) (A) (A) (A) (A) (A) (A) (A)
                 (A) (A) (A) (A) (A) (A) (A) (A) (A) (A) (A) (A)
                 (A) (A) (A) (A) (A) (A) (A) (A) (A) (A) (A) (A)
                 (A) (A) (A) (A) (A) (A) (A) (A) (A) (A) (A) (A)
                 (A) (A) (A) (A) (A) (A) (A) (A) (A) (A) (A) (A)
                 (A) (A) (A) (A) (A) (A) (A) (A) (A) (A) (A) (A)
                 (A) (A) (A) (A) (A) (A) (A) (A) (A) (A) (A) (A)
                 (A) (A) (A) (A) (A) (A) (A) (A) (A) (A) (A) (A)
                 (A) (A)
 Beta  Orbitals:
       Occupied  (A) (A) (A) (A) (A) (A) (A) (A) (A) (A) (A) (A)
                 (A) (A) (A) (A) (A) (A) (A) (A) (A) (A) (A) (A)
                 (A) (A) (A) (A) (A) (A)
       Virtual   (A) (A) (A) (A) (A) (A) (A) (A) (A) (A) (A) (A)
                 (A) (A) (A) (A) (A) (A) (A) (A) (A) (A) (A) (A)
                 (A) (A) (A) (A) (A) (A) (A) (A) (A) (A) (A) (A)
                 (A) (A) (A) (A) (A) (A) (A) (A) (A) (A) (A) (A)
                 (A) (A) (A) (A) (A) (A) (A) (A) (A) (A) (A) (A)
                 (A) (A) (A) (A) (A) (A) (A) (A) (A) (A) (A) (A)
                 (A) (A) (A) (A) (A) (A) (A) (A) (A) (A) (A) (A)
                 (A) (A) (A) (A) (A) (A) (A) (A) (A) (A) (A) (A)
                 (A) (A) (A) (A) (A) (A) (A) (A) (A) (A) (A) (A)
                 (A) (A) (A) (A) (A) (A) (A) (A) (A) (A) (A) (A)
                 (A) (A) (A) (A) (A) (A) (A) (A) (A) (A) (A) (A)
                 (A) (A) (A) (A) (A) (A) (A) (A) (A) (A) (A) (A)
                 (A) (A) (A) (A) (A) (A) (A) (A) (A) (A) (A) (A)
                 (A) (A) (A) (A) (A) (A) (A) (A) (A) (A) (A) (A)
                 (A) (A) (A) (A) (A) (A) (A) (A) (A) (A) (A) (A)
                 (A) (A) (A) (A) (A) (A) (A) (A) (A) (A) (A) (A)
                 (A) (A) (A)
 The electronic state is 2-A.
 Alpha  occ. eigenvalues --  -19.69658 -19.65248 -19.64427 -10.71773 -10.61647
 Alpha  occ. eigenvalues --  -10.60243 -10.58674 -10.54992  -1.26897  -1.17685
 Alpha  occ. eigenvalues --   -1.11266  -0.92283  -0.88602  -0.78775  -0.71199
 Alpha  occ. eigenvalues --   -0.66785  -0.62531  -0.60363  -0.58746  -0.53108
 Alpha  occ. eigenvalues --   -0.52791  -0.50775  -0.49382  -0.47877  -0.45279
 Alpha  occ. eigenvalues --   -0.44637  -0.41880  -0.39923  -0.39865  -0.37389
 Alpha  occ. eigenvalues --   -0.33893
 Alpha virt. eigenvalues --   -0.02569  -0.00853   0.00745   0.01372   0.01712
 Alpha virt. eigenvalues --    0.02287   0.04354   0.05076   0.05600   0.06126
 Alpha virt. eigenvalues --    0.06531   0.06746   0.08083   0.08776   0.10078
 Alpha virt. eigenvalues --    0.10737   0.12143   0.12148   0.12718   0.13142
 Alpha virt. eigenvalues --    0.13326   0.13563   0.14112   0.15238   0.15861
 Alpha virt. eigenvalues --    0.17315   0.17322   0.17573   0.19347   0.19560
 Alpha virt. eigenvalues --    0.21048   0.21752   0.22551   0.22659   0.22815
 Alpha virt. eigenvalues --    0.23360   0.25647   0.26887   0.28954   0.29690
 Alpha virt. eigenvalues --    0.30640   0.30672   0.31559   0.31700   0.31865
 Alpha virt. eigenvalues --    0.33439   0.34773   0.35888   0.36376   0.37759
 Alpha virt. eigenvalues --    0.40390   0.41855   0.44010   0.44963   0.50342
 Alpha virt. eigenvalues --    0.52432   0.52456   0.54577   0.55786   0.56080
 Alpha virt. eigenvalues --    0.61847   0.62540   0.64323   0.65687   0.66879
 Alpha virt. eigenvalues --    0.67584   0.68474   0.68826   0.69026   0.70074
 Alpha virt. eigenvalues --    0.72536   0.74404   0.79363   0.79759   0.80735
 Alpha virt. eigenvalues --    0.85044   0.90110   0.91132   0.93033   0.97043
 Alpha virt. eigenvalues --    1.02369   1.04594   1.07310   1.07969   1.09697
 Alpha virt. eigenvalues --    1.13371   1.14729   1.16382   1.18705   1.20646
 Alpha virt. eigenvalues --    1.21159   1.22613   1.23276   1.28178   1.28969
 Alpha virt. eigenvalues --    1.31245   1.33573   1.35893   1.43618   1.44068
 Alpha virt. eigenvalues --    1.47133   1.49093   1.49277   1.52367   1.56822
 Alpha virt. eigenvalues --    1.57065   1.57165   1.58479   1.60896   1.61498
 Alpha virt. eigenvalues --    1.65685   1.68222   1.69939   1.71423   1.75595
 Alpha virt. eigenvalues --    1.76889   1.81965   1.84564   1.85379   1.88002
 Alpha virt. eigenvalues --    1.90232   1.91479   2.00065   2.00991   2.10075
 Alpha virt. eigenvalues --    2.10844   2.14195   2.14442   2.20350   2.26360
 Alpha virt. eigenvalues --    2.35246   2.37366   2.41193   2.48419   2.50141
 Alpha virt. eigenvalues --    2.53658   2.57628   2.60642   2.63457   2.63800
 Alpha virt. eigenvalues --    2.64818   2.66810   2.67656   2.71014   2.72043
 Alpha virt. eigenvalues --    2.80064   2.82139   2.86218   2.88227   2.89000
 Alpha virt. eigenvalues --    2.95420   2.96436   2.97944   2.99577   3.03884
 Alpha virt. eigenvalues --    3.08092   3.10969   3.14904   3.18772   3.23769
 Alpha virt. eigenvalues --    3.24767   3.26210   3.27111   3.33033   3.41723
 Alpha virt. eigenvalues --    3.42503   3.53191   3.65656   3.73293   3.82974
 Alpha virt. eigenvalues --    3.84661   3.84697   3.90990   4.04785   4.11225
 Alpha virt. eigenvalues --    4.13950   4.29314   5.07248   5.10499   5.13753
 Alpha virt. eigenvalues --    5.14877   5.31359   5.44654   5.59277   5.71955
 Alpha virt. eigenvalues --    5.93199  23.61756  23.92344  23.93093  24.04598
 Alpha virt. eigenvalues --   25.00263  49.96069  49.99700  50.10455
  Beta  occ. eigenvalues --  -19.69641 -19.64384 -19.63882 -10.71799 -10.61644
  Beta  occ. eigenvalues --  -10.60320 -10.58401 -10.54991  -1.26825  -1.17568
  Beta  occ. eigenvalues --   -1.05596  -0.91601  -0.88059  -0.78636  -0.70989
  Beta  occ. eigenvalues --   -0.66603  -0.62092  -0.60303  -0.58580  -0.52669
  Beta  occ. eigenvalues --   -0.51036  -0.50044  -0.48080  -0.45194  -0.44606
  Beta  occ. eigenvalues --   -0.40491  -0.40204  -0.39798  -0.38389  -0.35547
  Beta virt. eigenvalues --   -0.09635  -0.02510  -0.00786   0.00947   0.01530
  Beta virt. eigenvalues --    0.01744   0.02447   0.04642   0.05126   0.05730
  Beta virt. eigenvalues --    0.06526   0.06641   0.07545   0.08570   0.08922
  Beta virt. eigenvalues --    0.10169   0.11246   0.12057   0.12315   0.12902
  Beta virt. eigenvalues --    0.13358   0.13391   0.13767   0.14284   0.15318
  Beta virt. eigenvalues --    0.15945   0.17456   0.17596   0.17837   0.19512
  Beta virt. eigenvalues --    0.19575   0.21049   0.22356   0.22653   0.22834
  Beta virt. eigenvalues --    0.22880   0.23498   0.25695   0.26935   0.28811
  Beta virt. eigenvalues --    0.29571   0.30768   0.30879   0.31246   0.31540
  Beta virt. eigenvalues --    0.31913   0.33264   0.35041   0.35893   0.36506
  Beta virt. eigenvalues --    0.37872   0.40508   0.41932   0.44249   0.44963
  Beta virt. eigenvalues --    0.50490   0.52481   0.52565   0.54861   0.55793
  Beta virt. eigenvalues --    0.56266   0.61779   0.62494   0.64720   0.65755
  Beta virt. eigenvalues --    0.67252   0.67657   0.68529   0.69098   0.69102
  Beta virt. eigenvalues --    0.70154   0.72599   0.74540   0.79285   0.79815
  Beta virt. eigenvalues --    0.80981   0.85297   0.90091   0.91538   0.92967
  Beta virt. eigenvalues --    0.97301   1.02417   1.04732   1.08015   1.08793
  Beta virt. eigenvalues --    1.10145   1.14534   1.15033   1.17055   1.19167
  Beta virt. eigenvalues --    1.21360   1.22504   1.22785   1.23354   1.28179
  Beta virt. eigenvalues --    1.29033   1.31267   1.35055   1.35927   1.44324
  Beta virt. eigenvalues --    1.44818   1.47034   1.49095   1.49683   1.53110
  Beta virt. eigenvalues --    1.56945   1.57071   1.57770   1.58852   1.60948
  Beta virt. eigenvalues --    1.61695   1.65734   1.68241   1.69972   1.71847
  Beta virt. eigenvalues --    1.75604   1.76862   1.82456   1.84887   1.85652
  Beta virt. eigenvalues --    1.88147   1.90554   1.91693   2.00307   2.01000
  Beta virt. eigenvalues --    2.10218   2.11031   2.14395   2.15407   2.20390
  Beta virt. eigenvalues --    2.26365   2.35266   2.37489   2.41560   2.48425
  Beta virt. eigenvalues --    2.50149   2.53685   2.57630   2.60664   2.63353
  Beta virt. eigenvalues --    2.63782   2.64746   2.66787   2.67775   2.70772
  Beta virt. eigenvalues --    2.72477   2.80232   2.83227   2.86698   2.89134
  Beta virt. eigenvalues --    2.93692   2.95739   2.97068   2.99728   3.00176
  Beta virt. eigenvalues --    3.04002   3.09342   3.11029   3.15254   3.20475
  Beta virt. eigenvalues --    3.24936   3.26219   3.27326   3.28405   3.33342
  Beta virt. eigenvalues --    3.41908   3.42555   3.53201   3.65813   3.73450
  Beta virt. eigenvalues --    3.82985   3.84664   3.84707   3.93980   4.04993
  Beta virt. eigenvalues --    4.11405   4.14108   4.29373   5.09213   5.10569
  Beta virt. eigenvalues --    5.14952   5.21662   5.31501   5.44744   5.61704
  Beta virt. eigenvalues --    5.72073   5.93241  23.61830  23.92355  23.93115
  Beta virt. eigenvalues --   24.04599  25.00502  49.95526  49.99670  50.10420
          Condensed to atoms (all electrons):
               1          2          3          4          5          6
     1  C   21.155047   0.769283  -4.071910  -9.829949   0.089918   0.163431
     2  H    0.769283   0.416678  -0.267324  -0.100242   0.000249   0.000029
     3  C   -4.071910  -0.267324  14.494874  -5.269978   0.168611  -0.255530
     4  C   -9.829949  -0.100242  -5.269978  20.733402   0.097696  -0.199294
     5  O    0.089918   0.000249   0.168611   0.097696   8.024552  -0.122982
     6  O    0.163431   0.000029  -0.255530  -0.199294  -0.122982   8.497090
     7  C   -0.215684  -0.000701  -0.517992   0.332446  -0.031743   0.202513
     8  C   -0.102819   0.000718  -0.363108   0.444962   0.013720  -0.165593
     9  H    0.007588  -0.000031   0.011773  -0.017716  -0.013462  -0.036950
    10  H    0.007588  -0.000031   0.011773  -0.017716  -0.013462  -0.036950
    11  H    0.006459  -0.000021   0.019501  -0.017128  -0.000696  -0.007338
    12  H    0.006459  -0.000021   0.019501  -0.017128  -0.000696  -0.007338
    13  H   -0.002947   0.000022  -0.004477   0.007852   0.001318   0.019077
    14  O   -0.244003  -0.028528  -0.012209   0.186924  -0.001980   0.009071
    15  H    0.188434   0.005389  -0.042863  -0.146406   0.001517   0.012152
               7          8          9         10         11         12
     1  C   -0.215684  -0.102819   0.007588   0.007588   0.006459   0.006459
     2  H   -0.000701   0.000718  -0.000031  -0.000031  -0.000021  -0.000021
     3  C   -0.517992  -0.363108   0.011773   0.011773   0.019501   0.019501
     4  C    0.332446   0.444962  -0.017716  -0.017716  -0.017128  -0.017128
     5  O   -0.031743   0.013720  -0.013462  -0.013462  -0.000696  -0.000696
     6  O    0.202513  -0.165593  -0.036950  -0.036950  -0.007338  -0.007338
     7  C    5.582030   0.033439   0.423422   0.423422  -0.023326  -0.023325
     8  C    0.033439   5.683309  -0.055158  -0.055158   0.382412   0.382412
     9  H    0.423422  -0.055158   0.529673  -0.046439   0.006474  -0.009458
    10  H    0.423422  -0.055158  -0.046439   0.529673  -0.009458   0.006474
    11  H   -0.023326   0.382412   0.006474  -0.009458   0.539154  -0.041901
    12  H   -0.023325   0.382412  -0.009458   0.006474  -0.041901   0.539154
    13  H   -0.052309   0.417107  -0.004807  -0.004807  -0.030960  -0.030960
    14  O   -0.001713   0.004382   0.000183   0.000183  -0.000090  -0.000090
    15  H    0.005342  -0.002277  -0.000036  -0.000036  -0.000775  -0.000775
              13         14         15
     1  C   -0.002947  -0.244003   0.188434
     2  H    0.000022  -0.028528   0.005389
     3  C   -0.004477  -0.012209  -0.042863
     4  C    0.007852   0.186924  -0.146406
     5  O    0.001318  -0.001980   0.001517
     6  O    0.019077   0.009071   0.012152
     7  C   -0.052309  -0.001713   0.005342
     8  C    0.417107   0.004382  -0.002277
     9  H   -0.004807   0.000183  -0.000036
    10  H   -0.004807   0.000183  -0.000036
    11  H   -0.030960  -0.000090  -0.000775
    12  H   -0.030960  -0.000090  -0.000775
    13  H    0.519192   0.000028  -0.000171
    14  O    0.000028   8.123978   0.263915
    15  H   -0.000171   0.263915   0.479810
          Atomic-Atomic Spin Densities.
               1          2          3          4          5          6
     1  C    0.249065   0.047091   0.369248  -0.687534   0.013284  -0.065204
     2  H    0.047091   0.015034  -0.045537   0.002749  -0.000549   0.000194
     3  C    0.369248  -0.045537   1.700608  -1.379172   0.055541  -0.159046
     4  C   -0.687534   0.002749  -1.379172   1.843835  -0.069652   0.198524
     5  O    0.013284  -0.000549   0.055541  -0.069652   0.027161  -0.008401
     6  O   -0.065204   0.000194  -0.159046   0.198524  -0.008401   0.010356
     7  C   -0.021418  -0.000205  -0.039981   0.056925  -0.002809   0.010518
     8  C   -0.009563   0.000586  -0.084256   0.064407  -0.004479   0.003946
     9  H   -0.001985  -0.000005  -0.005612   0.005900  -0.000125   0.000053
    10  H   -0.001985  -0.000005  -0.005612   0.005900  -0.000125   0.000053
    11  H    0.000190  -0.000003  -0.000759   0.000433   0.000010   0.000326
    12  H    0.000190  -0.000003  -0.000759   0.000433   0.000010   0.000326
    13  H    0.000269   0.000012  -0.001658   0.000857  -0.000046   0.000188
    14  O   -0.099494   0.004168  -0.132301   0.102494  -0.001506   0.008014
    15  H    0.002333  -0.001083   0.033595  -0.020503   0.000667  -0.003118
               7          8          9         10         11         12
     1  C   -0.021418  -0.009563  -0.001985  -0.001985   0.000190   0.000190
     2  H   -0.000205   0.000586  -0.000005  -0.000005  -0.000003  -0.000003
     3  C   -0.039981  -0.084256  -0.005612  -0.005612  -0.000759  -0.000759
     4  C    0.056925   0.064407   0.005900   0.005900   0.000433   0.000433
     5  O   -0.002809  -0.004479  -0.000125  -0.000125   0.000010   0.000010
     6  O    0.010518   0.003946   0.000053   0.000053   0.000326   0.000326
     7  C    0.014028  -0.009373   0.000018   0.000018  -0.001734  -0.001734
     8  C   -0.009373   0.028190   0.001570   0.001570   0.001827   0.001827
     9  H    0.000018   0.001570  -0.000103   0.000286   0.000047  -0.000030
    10  H    0.000018   0.001570   0.000286  -0.000103  -0.000030   0.000047
    11  H   -0.001734   0.001827   0.000047  -0.000030  -0.000199  -0.000092
    12  H   -0.001734   0.001827  -0.000030   0.000047  -0.000092  -0.000199
    13  H   -0.002228   0.002700  -0.000002  -0.000002  -0.000117  -0.000117
    14  O    0.000290   0.002567  -0.000083  -0.000083   0.000059   0.000059
    15  H    0.001582  -0.003348   0.000042   0.000042  -0.000053  -0.000053
              13         14         15
     1  C    0.000269  -0.099494   0.002333
     2  H    0.000012   0.004168  -0.001083
     3  C   -0.001658  -0.132301   0.033595
     4  C    0.000857   0.102494  -0.020503
     5  O   -0.000046  -0.001506   0.000667
     6  O    0.000188   0.008014  -0.003118
     7  C   -0.002228   0.000290   0.001582
     8  C    0.002700   0.002567  -0.003348
     9  H   -0.000002  -0.000083   0.000042
    10  H   -0.000002  -0.000083   0.000042
    11  H   -0.000117   0.000059  -0.000053
    12  H   -0.000117   0.000059  -0.000053
    13  H    0.000362   0.000068  -0.000175
    14  O    0.000068   0.870699   0.003099
    15  H   -0.000175   0.003099  -0.025544
 Mulliken charges and spin densities:
               1          2
     1  C   -1.926896  -0.205513
     2  H    0.204532   0.022445
     3  C    2.079359   0.304298
     4  C   -0.187723   0.125597
     5  O   -0.212561   0.008981
     6  O   -0.071389  -0.003270
     7  C   -0.135821   0.003897
     8  C   -0.618348  -0.001827
     9  H    0.204946  -0.000029
    10  H    0.204946  -0.000029
    11  H    0.177691  -0.000095
    12  H    0.177691  -0.000095
    13  H    0.166843   0.000111
    14  O   -0.300050   0.758048
    15  H    0.236780  -0.012516
 Sum of Mulliken charges =   0.00000   1.00000
 Mulliken charges and spin densities with hydrogens summed into heavy atoms:
               1          2
     1  C   -1.722363  -0.183068
     3  C    2.079359   0.304298
     4  C   -0.187723   0.125597
     5  O   -0.212561   0.008981
     6  O   -0.071389  -0.003270
     7  C    0.274070   0.003838
     8  C   -0.096123  -0.001908
    14  O   -0.063270   0.745532
 APT charges:
               1
     1  C   -0.415523
     2  H    0.253053
     3  C   -0.220689
     4  C    1.480697
     5  O   -0.789040
     6  O   -0.962652
     7  C    0.551055
     8  C   -0.005457
     9  H   -0.024902
    10  H   -0.024901
    11  H    0.014255
    12  H    0.014255
    13  H    0.013782
    14  O   -0.142551
    15  H    0.258618
 Sum of APT charges =   0.00000
 APT charges with hydrogens summed into heavy atoms:
               1
     1  C   -0.162470
     3  C   -0.220689
     4  C    1.480697
     5  O   -0.789040
     6  O   -0.962652
     7  C    0.501251
     8  C    0.036835
    14  O    0.116067
 Electronic spatial extent (au):  <R**2>=           1263.5960
 Charge=              0.0000 electrons
 Dipole moment (field-independent basis, Debye):
    X=             -2.0728    Y=             -0.9143    Z=              0.0000  Tot=              2.2655
 Quadrupole moment (field-independent basis, Debye-Ang):
   XX=            -39.5911   YY=            -56.3503   ZZ=            -47.7349
   XY=              7.1148   XZ=              0.0000   YZ=              0.0000
 Traceless Quadrupole moment (field-independent basis, Debye-Ang):
   XX=              8.3010   YY=             -8.4582   ZZ=              0.1572
   XY=              7.1148   XZ=              0.0000   YZ=              0.0000
 Octapole moment (field-independent basis, Debye-Ang**2):
  XXX=              3.7043  YYY=            -19.0143  ZZZ=              0.0000  XYY=            -10.1605
  XXY=             15.2521  XXZ=             -0.0001  XZZ=             -5.2352  YZZ=              1.1956
  YYZ=              0.0001  XYZ=              0.0000
 Hexadecapole moment (field-independent basis, Debye-Ang**3):
 XXXX=           -952.8759 YYYY=           -506.9877 ZZZZ=            -60.8910 XXXY=             39.0315
 XXXZ=             -0.0004 YYYX=              5.2163 YYYZ=              0.0012 ZZZX=             -0.0002
 ZZZY=              0.0010 XXYY=           -303.7026 XXZZ=           -205.4982 YYZZ=            -87.2748
 XXYZ=              0.0005 YYXZ=             -0.0002 ZZXY=             -3.4300
 N-N= 3.483905784057D+02 E-N=-1.681075140854D+03  KE= 4.188244371116D+02
  Exact polarizability:  90.529  -9.586  90.092   0.000   0.000  47.460
 Approx polarizability:  97.693 -17.207  99.926   0.000   0.000  56.775
                          Isotropic Fermi Contact Couplings
        Atom                 a.u.       MegaHertz       Gauss      10(-4) cm-1
     1  C(13)              0.00966      10.85535       3.87346       3.62095
     2  H(1)               0.00855      38.20814      13.63362      12.74487
     3  C(13)              0.05499      61.81847      22.05837      20.62042
     4  C(13)             -0.01533     -17.23702      -6.15060      -5.74965
     5  O(17)              0.00888      -5.38092      -1.92005      -1.79488
     6  O(17)              0.01862     -11.28453      -4.02660      -3.76411
     7  C(13)              0.00255       2.86996       1.02407       0.95732
     8  C(13)              0.00015       0.16645       0.05939       0.05552
     9  H(1)              -0.00002      -0.10849      -0.03871      -0.03619
    10  H(1)              -0.00002      -0.10849      -0.03871      -0.03619
    11  H(1)              -0.00001      -0.03078      -0.01098      -0.01027
    12  H(1)              -0.00001      -0.03078      -0.01098      -0.01027
    13  H(1)               0.00008       0.35504       0.12669       0.11843
    14  O(17)              0.12246     -74.23449     -26.48871     -24.76196
    15  H(1)              -0.01302     -58.20582     -20.76928     -19.41537
 --------------------------------------------------------
       Center         ----  Spin Dipole Couplings  ----
                      3XX-RR        3YY-RR        3ZZ-RR
 --------------------------------------------------------
     1   Atom        0.093774     -0.052311     -0.041463
     2   Atom       -0.002687      0.007881     -0.005194
     3   Atom       -0.228107      0.402301     -0.174194
     4   Atom        0.008555      0.003627     -0.012182
     5   Atom        0.048416     -0.038549     -0.009867
     6   Atom        0.023634     -0.015947     -0.007687
     7   Atom        0.007059     -0.003324     -0.003735
     8   Atom        0.002240     -0.000703     -0.001537
     9   Atom        0.002181     -0.000975     -0.001207
    10   Atom        0.002181     -0.000975     -0.001207
    11   Atom        0.002012     -0.000806     -0.001206
    12   Atom        0.002012     -0.000806     -0.001206
    13   Atom        0.001312     -0.000550     -0.000762
    14   Atom       -1.478816      2.994811     -1.515995
    15   Atom        0.141145     -0.033993     -0.107152
 --------------------------------------------------------
                        XY            XZ            YZ
 --------------------------------------------------------
     1   Atom       -0.024894      0.000000      0.000000
     2   Atom        0.011844      0.000000      0.000000
     3   Atom        0.140380     -0.000001     -0.000003
     4   Atom       -0.005297      0.000000      0.000000
     5   Atom       -0.009616      0.000000      0.000000
     6   Atom        0.002385      0.000000      0.000000
     7   Atom        0.000188      0.000000      0.000000
     8   Atom        0.000806      0.000000      0.000000
     9   Atom       -0.000715     -0.001036      0.000297
    10   Atom       -0.000715      0.001036     -0.000297
    11   Atom        0.000631      0.000676      0.000218
    12   Atom        0.000631     -0.000676     -0.000218
    13   Atom        0.000166      0.000000      0.000000
    14   Atom       -0.431612      0.000002     -0.000023
    15   Atom        0.022121      0.000000      0.000000
 --------------------------------------------------------


 ---------------------------------------------------------------------------------
              Anisotropic Spin Dipole Couplings in Principal Axis System
 ---------------------------------------------------------------------------------

       Atom             a.u.   MegaHertz   Gauss  10(-4) cm-1        Axes

              Baa    -0.0564    -7.573    -2.702    -2.526  0.1635  0.9865  0.0000
     1 C(13)  Bbb    -0.0415    -5.564    -1.985    -1.856  0.0000  0.0000  1.0000
              Bcc     0.0979    13.137     4.688     4.382  0.9865 -0.1635  0.0000
 
              Baa    -0.0104    -5.534    -1.975    -1.846  0.8389 -0.5443  0.0000
     2 H(1)   Bbb    -0.0052    -2.771    -0.989    -0.924  0.0000  0.0000  1.0000
              Bcc     0.0156     8.305     2.964     2.770  0.5443  0.8389  0.0000
 
              Baa    -0.2580   -34.615   -12.351   -11.546  0.9781 -0.2080  0.0000
     3 C(13)  Bbb    -0.1742   -23.375    -8.341    -7.797  0.0000  0.0000  1.0000
              Bcc     0.4321    57.990    20.692    19.343  0.2080  0.9781  0.0000
 
              Baa    -0.0122    -1.635    -0.583    -0.545  0.0000  0.0000  1.0000
     4 C(13)  Bbb     0.0002     0.033     0.012     0.011  0.5377  0.8431  0.0000
              Bcc     0.0119     1.601     0.571     0.534  0.8431 -0.5377  0.0000
 
              Baa    -0.0396     2.865     1.022     0.956  0.1086  0.9941  0.0000
     5 O(17)  Bbb    -0.0099     0.714     0.255     0.238  0.0000  0.0000  1.0000
              Bcc     0.0495    -3.579    -1.277    -1.194  0.9941 -0.1086  0.0000
 
              Baa    -0.0161     1.164     0.415     0.388 -0.0599  0.9982  0.0000
     6 O(17)  Bbb    -0.0077     0.556     0.198     0.186  0.0000  0.0000  1.0000
              Bcc     0.0238    -1.721    -0.614    -0.574  0.9982  0.0599  0.0000
 
              Baa    -0.0037    -0.501    -0.179    -0.167  0.0000  0.0000  1.0000
     7 C(13)  Bbb    -0.0033    -0.447    -0.159    -0.149 -0.0181  0.9998  0.0000
              Bcc     0.0071     0.948     0.338     0.316  0.9998  0.0181  0.0000
 
              Baa    -0.0015    -0.206    -0.074    -0.069  0.0000  0.0000  1.0000
     8 C(13)  Bbb    -0.0009    -0.122    -0.044    -0.041 -0.2478  0.9688  0.0000
              Bcc     0.0024     0.328     0.117     0.110  0.9688  0.2478  0.0000
 
              Baa    -0.0015    -0.811    -0.289    -0.270  0.2220 -0.2257  0.9486
     9 H(1)   Bbb    -0.0011    -0.596    -0.213    -0.199  0.2584  0.9517  0.1660
              Bcc     0.0026     1.407     0.502     0.469  0.9402 -0.2082 -0.2696
 
              Baa    -0.0015    -0.811    -0.289    -0.270 -0.2220  0.2257  0.9486
    10 H(1)   Bbb    -0.0011    -0.596    -0.213    -0.199  0.2584  0.9517 -0.1660
              Bcc     0.0026     1.407     0.502     0.469  0.9402 -0.2082  0.2696
 
              Baa    -0.0014    -0.726    -0.259    -0.242 -0.1560 -0.2018  0.9669
    11 H(1)   Bbb    -0.0009    -0.496    -0.177    -0.165 -0.2423  0.9568  0.1606
              Bcc     0.0023     1.221     0.436     0.407  0.9576  0.2093  0.1981
 
              Baa    -0.0014    -0.726    -0.259    -0.242  0.1560  0.2018  0.9669
    12 H(1)   Bbb    -0.0009    -0.496    -0.177    -0.165 -0.2423  0.9568 -0.1606
              Bcc     0.0023     1.221     0.436     0.407  0.9576  0.2093 -0.1981
 
              Baa    -0.0008    -0.407    -0.145    -0.136  0.0000  0.0000  1.0000
    13 H(1)   Bbb    -0.0006    -0.301    -0.108    -0.101 -0.0881  0.9961  0.0000
              Bcc     0.0013     0.708     0.253     0.236  0.9961  0.0881  0.0000
 
              Baa    -1.5201   109.992    39.248    36.689  0.9955  0.0952  0.0000
    14 O(17)  Bbb    -1.5160   109.696    39.142    36.591  0.0000  0.0000  1.0000
              Bcc     3.0361  -219.688   -78.390   -73.280 -0.0952  0.9955  0.0000
 
              Baa    -0.1072   -57.171   -20.400   -19.070  0.0000  0.0000  1.0000
    15 H(1)   Bbb    -0.0367   -19.605    -6.995    -6.539 -0.1234  0.9924  0.0000
              Bcc     0.1439    76.776    27.396    25.610  0.9924  0.1234  0.0000
 

 ---------------------------------------------------------------------------------

 Calling FoFJK, ICntrl=    100127 FMM=F ISym2X=0 I1Cent= 0 IOpClX= 1 NMat=1 NMatS=1 NMatT=0.
 Full mass-weighted force constant matrix:
 Low frequencies --- -606.8344   -0.0010   -0.0008    0.0003   16.1927   16.9186
 Low frequencies ---   26.8262   46.4375   50.6179
 ******    1 imaginary frequencies (negative Signs) ****** 
 Diagonal vibrational polarizability:
       26.2122567      22.3092864     121.2616768
 Harmonic frequencies (cm**-1), IR intensities (KM/Mole), Raman scattering
 activities (A**4/AMU), depolarization ratios for plane and unpolarized
 incident light, reduced masses (AMU), force constants (mDyne/A),
 and normal coordinates:
                      1                      2                      3
                      A                      A                      A
 Frequencies --   -606.8344                46.2008                50.4853
 Red. masses --     11.5395                 6.1808                 5.7492
 Frc consts  --      2.5037                 0.0078                 0.0086
 IR Inten    --     94.5175                 5.3479                 0.8785
  Atom  AN      X      Y      Z        X      Y      Z        X      Y      Z
     1   6     0.14   0.76   0.00     0.00   0.00   0.32    -0.02  -0.05   0.00
     2   1     0.03  -0.27   0.00     0.00   0.00   0.50    -0.03  -0.23   0.00
     3   6    -0.02  -0.05   0.00     0.00   0.00   0.23     0.06   0.14   0.00
     4   6     0.00   0.00   0.00     0.00   0.00   0.00     0.05   0.09   0.00
     5   8    -0.01   0.00   0.00     0.00   0.00  -0.28    -0.03   0.05   0.00
     6   8    -0.01   0.00   0.00     0.00   0.00   0.14     0.12   0.03   0.00
     7   6     0.00   0.00   0.00     0.00   0.00  -0.05     0.11  -0.09   0.00
     8   6     0.00   0.00   0.00     0.00   0.00   0.12     0.23  -0.14   0.00
     9   1     0.00   0.00   0.00    -0.09   0.15  -0.17     0.06  -0.11   0.00
    10   1     0.00   0.00   0.00     0.09  -0.15  -0.17     0.06  -0.11   0.00
    11   1     0.00   0.00   0.00     0.08  -0.14   0.24     0.29  -0.11   0.00
    12   1     0.00   0.00   0.00    -0.08   0.14   0.24     0.29  -0.11   0.00
    13   1     0.00   0.00   0.00     0.00   0.00   0.00     0.23  -0.24   0.00
    14   8    -0.07  -0.50   0.00     0.00   0.00  -0.35    -0.45   0.00   0.00
    15   1    -0.10  -0.23   0.00     0.00   0.00  -0.26    -0.47   0.22   0.00
                      4                      5                      6
                      A                      A                      A
 Frequencies --     85.0427               132.6852               180.1619
 Red. masses --      3.0623                 2.2142                 4.6936
 Frc consts  --      0.0130                 0.0230                 0.0898
 IR Inten    --      1.1623                 2.0621                 4.4404
  Atom  AN      X      Y      Z        X      Y      Z        X      Y      Z
     1   6     0.00   0.00   0.05     0.00   0.00  -0.16    -0.13  -0.15   0.00
     2   1     0.00   0.00   0.09     0.00   0.00  -0.35    -0.13  -0.15   0.00
     3   6     0.00   0.00   0.01     0.00   0.00   0.03    -0.09  -0.03   0.00
     4   6     0.00   0.00  -0.01     0.00   0.00   0.10    -0.06   0.15   0.00
     5   8     0.00   0.00   0.16     0.00   0.00   0.02     0.02   0.19   0.00
     6   8     0.00   0.00  -0.22     0.00   0.00   0.19    -0.09   0.18   0.00
     7   6     0.00   0.00  -0.20     0.00   0.00  -0.15    -0.10   0.01   0.00
     8   6     0.00   0.00   0.21     0.00   0.00  -0.03     0.21  -0.13   0.00
     9   1     0.03   0.24  -0.35    -0.20   0.17  -0.33    -0.19  -0.04   0.01
    10   1    -0.03  -0.24  -0.35     0.20  -0.17  -0.33    -0.19  -0.04  -0.01
    11   1    -0.03  -0.26   0.37     0.25  -0.19   0.18     0.36  -0.05   0.00
    12   1     0.03   0.26   0.37    -0.25   0.19   0.18     0.36  -0.05   0.00
    13   1     0.00   0.00   0.22     0.00   0.00  -0.36     0.18  -0.42   0.00
    14   8     0.00   0.00  -0.01     0.00   0.00   0.00     0.16  -0.20   0.00
    15   1     0.00   0.00  -0.12     0.00   0.00   0.18     0.16  -0.30   0.00
                      7                      8                      9
                      A                      A                      A
 Frequencies --    251.1512               261.2561               280.2249
 Red. masses --      1.1084                 1.3611                 6.7633
 Frc consts  --      0.0412                 0.0547                 0.3129
 IR Inten    --     81.6671                21.2547                 2.6479
  Atom  AN      X      Y      Z        X      Y      Z        X      Y      Z
     1   6     0.00   0.00   0.01     0.00   0.00  -0.07     0.13   0.14   0.00
     2   1     0.00   0.00   0.08     0.00   0.00  -0.23     0.14   0.25   0.00
     3   6     0.00   0.00  -0.06     0.00   0.00   0.13    -0.02  -0.27   0.00
     4   6     0.00   0.00  -0.01     0.00   0.00   0.05     0.03  -0.10   0.00
     5   8     0.00   0.00   0.01     0.00   0.00  -0.04     0.37   0.04   0.00
     6   8     0.00   0.00   0.03     0.00   0.00   0.02    -0.20   0.06   0.00
     7   6     0.00   0.00   0.01     0.00   0.00  -0.06    -0.22  -0.02   0.00
     8   6     0.00   0.00   0.00     0.00   0.00   0.00     0.02  -0.15   0.00
     9   1    -0.02   0.00   0.01    -0.03   0.04  -0.10    -0.28  -0.06   0.01
    10   1     0.02   0.00   0.01     0.03  -0.04  -0.10    -0.28  -0.06  -0.01
    11   1     0.15  -0.05   0.07    -0.41   0.11  -0.21     0.16  -0.08   0.00
    12   1    -0.15   0.05   0.07     0.41  -0.11  -0.21     0.16  -0.08   0.00
    13   1     0.00   0.00  -0.19     0.00   0.00   0.53     0.00  -0.41   0.00
    14   8     0.00   0.00   0.05     0.00   0.00   0.03    -0.12   0.21   0.00
    15   1     0.00   0.00  -0.94     0.00   0.00  -0.40    -0.12   0.27   0.00
                     10                     11                     12
                      A                      A                      A
 Frequencies --    302.0345               387.1418               545.9687
 Red. masses --      2.7155                 3.4664                 6.3554
 Frc consts  --      0.1460                 0.3061                 1.1162
 IR Inten    --      1.2769                10.2333                 0.0046
  Atom  AN      X      Y      Z        X      Y      Z        X      Y      Z
     1   6     0.00   0.00  -0.12     0.00  -0.02   0.00     0.25  -0.08   0.00
     2   1     0.00   0.00  -0.43     0.00  -0.07   0.00     0.24  -0.25   0.00
     3   6     0.00   0.00   0.29     0.05   0.11   0.00     0.35   0.33   0.00
     4   6     0.00   0.00   0.03     0.04   0.12   0.00     0.07  -0.05   0.00
     5   8     0.00   0.00  -0.08     0.11   0.15   0.00    -0.09  -0.12   0.00
     6   8     0.00   0.00  -0.17     0.06   0.05   0.00    -0.15   0.06   0.00
     7   6     0.00   0.00   0.09     0.01  -0.22   0.00    -0.29   0.08   0.00
     8   6     0.00   0.00   0.01    -0.25  -0.15   0.00    -0.06  -0.07   0.00
     9   1     0.15  -0.11   0.22    -0.04  -0.23  -0.01    -0.30   0.06   0.01
    10   1    -0.15   0.11   0.22    -0.04  -0.23   0.01    -0.30   0.06  -0.01
    11   1     0.34  -0.07   0.17    -0.47  -0.25  -0.01     0.12   0.02   0.01
    12   1    -0.34   0.07   0.17    -0.47  -0.25   0.01     0.12   0.02  -0.01
    13   1     0.00   0.00  -0.43    -0.23   0.23   0.00    -0.09  -0.41   0.00
    14   8     0.00   0.00   0.02     0.02  -0.04   0.00     0.01  -0.07   0.00
    15   1     0.00   0.00  -0.14     0.02   0.00   0.00     0.00   0.13   0.00
                     13                     14                     15
                      A                      A                      A
 Frequencies --    606.0599               776.3892               788.6532
 Red. masses --      8.9331                 3.6318                 1.6259
 Frc consts  --      1.9332                 1.2898                 0.5958
 IR Inten    --      6.8889                 1.7102                55.5945
  Atom  AN      X      Y      Z        X      Y      Z        X      Y      Z
     1   6    -0.35   0.05   0.00     0.00   0.00   0.16     0.00   0.00  -0.14
     2   1    -0.35   0.11   0.00     0.00   0.00  -0.81     0.00   0.00   0.95
     3   6    -0.13   0.51   0.00     0.00   0.00  -0.20     0.00   0.00  -0.01
     4   6    -0.03  -0.21   0.00     0.00   0.00   0.38     0.00   0.00   0.18
     5   8     0.38  -0.06   0.00     0.00   0.00  -0.11     0.00   0.00  -0.05
     6   8    -0.04  -0.22   0.00     0.00   0.00  -0.09     0.00   0.00  -0.04
     7   6    -0.02   0.04   0.00     0.00   0.00  -0.03     0.00   0.00  -0.02
     8   6     0.04   0.05   0.00     0.00   0.00  -0.01     0.00   0.00   0.00
     9   1     0.07   0.07   0.01     0.06  -0.16   0.09     0.03  -0.09   0.05
    10   1     0.07   0.07  -0.01    -0.06   0.16   0.09    -0.03   0.09   0.05
    11   1     0.17   0.10   0.01    -0.03  -0.11   0.05    -0.02  -0.07   0.03
    12   1     0.17   0.10  -0.01     0.03   0.11   0.05     0.02   0.07   0.03
    13   1     0.03  -0.16   0.00     0.00   0.00   0.04     0.00   0.00   0.03
    14   8     0.02  -0.05   0.00     0.00   0.00  -0.01     0.00   0.00   0.01
    15   1     0.03  -0.29   0.00     0.00   0.00   0.01     0.00   0.00   0.03
                     16                     17                     18
                      A                      A                      A
 Frequencies --    790.2070               826.1658               841.5570
 Red. masses --      1.1166                 1.1436                 1.0646
 Frc consts  --      0.4108                 0.4599                 0.4442
 IR Inten    --    191.2647                 0.0718                 1.1292
  Atom  AN      X      Y      Z        X      Y      Z        X      Y      Z
     1   6     0.00   0.03   0.00     0.00   0.00   0.00     0.02  -0.02   0.00
     2   1    -0.05  -0.58   0.00     0.00   0.00   0.04     0.10   0.80   0.00
     3   6     0.01  -0.01   0.00     0.00   0.00  -0.02     0.02   0.01   0.00
     4   6     0.02   0.00   0.00     0.00   0.00   0.06     0.01   0.00   0.00
     5   8     0.00  -0.01   0.00     0.00   0.00  -0.02    -0.01  -0.01   0.00
     6   8     0.00   0.01   0.00     0.00   0.00  -0.04     0.00   0.03   0.00
     7   6     0.00   0.00   0.00     0.00   0.00   0.07     0.01   0.00   0.00
     8   6     0.00  -0.01   0.00     0.00   0.00   0.04     0.00  -0.01   0.00
     9   1    -0.01   0.00   0.00     0.02   0.45  -0.23    -0.01  -0.01   0.00
    10   1    -0.01   0.00   0.00    -0.02  -0.45  -0.23    -0.01  -0.01   0.00
    11   1    -0.01  -0.01   0.00     0.12   0.42  -0.18    -0.03  -0.02   0.00
    12   1    -0.01  -0.01   0.00    -0.12  -0.42  -0.18    -0.03  -0.02   0.00
    13   1     0.00  -0.01   0.00     0.00   0.00  -0.19     0.01   0.04   0.00
    14   8    -0.01   0.08   0.00     0.00   0.00   0.00    -0.04  -0.02   0.00
    15   1     0.05  -0.81   0.00     0.00   0.00   0.00     0.00  -0.59   0.00
                     19                     20                     21
                      A                      A                      A
 Frequencies --    902.3105               957.3721              1083.8110
 Red. masses --      2.3833                 5.8505                 3.3820
 Frc consts  --      1.1432                 3.1594                 2.3406
 IR Inten    --     10.9089                 9.6911                38.3107
  Atom  AN      X      Y      Z        X      Y      Z        X      Y      Z
     1   6    -0.04   0.01   0.00     0.20  -0.05   0.00     0.05  -0.01   0.00
     2   1    -0.05  -0.11   0.00     0.22  -0.05   0.00     0.06  -0.04   0.00
     3   6    -0.01   0.04   0.00     0.12   0.03   0.00     0.03   0.03   0.00
     4   6     0.02  -0.08   0.00    -0.27   0.04   0.00    -0.11  -0.04   0.00
     5   8     0.02  -0.12   0.00     0.01   0.23   0.00     0.01   0.02   0.00
     6   8    -0.12   0.18   0.00    -0.20  -0.26   0.00    -0.20   0.04   0.00
     7   6     0.09  -0.07   0.00     0.04  -0.17   0.00     0.31   0.11   0.00
     8   6     0.13   0.01   0.00     0.17   0.18   0.00    -0.11  -0.14   0.00
     9   1    -0.14  -0.16  -0.01    -0.04  -0.22   0.01     0.43   0.27  -0.05
    10   1    -0.14  -0.16   0.01    -0.04  -0.22  -0.01     0.43   0.27   0.05
    11   1    -0.29  -0.13  -0.05    -0.01   0.15  -0.04     0.03  -0.18   0.06
    12   1    -0.29  -0.13   0.05    -0.01   0.15   0.04     0.03  -0.18  -0.06
    13   1     0.18   0.73   0.00     0.20   0.59   0.00    -0.12  -0.43   0.00
    14   8     0.01   0.00   0.00    -0.01  -0.01   0.00     0.00   0.00   0.00
    15   1     0.00   0.13   0.00     0.00  -0.17   0.00     0.00   0.01   0.00
                     22                     23                     24
                      A                      A                      A
 Frequencies --   1151.2989              1186.8088              1274.9954
 Red. masses --      2.2530                 1.5737                 8.9774
 Frc consts  --      1.7595                 1.3060                 8.5984
 IR Inten    --     15.3077                 4.2767               645.0491
  Atom  AN      X      Y      Z        X      Y      Z        X      Y      Z
     1   6     0.01   0.00   0.00     0.00   0.00   0.00    -0.13   0.02   0.00
     2   1     0.01   0.00   0.00     0.00   0.00   0.00    -0.14   0.14   0.00
     3   6     0.00  -0.01   0.00     0.00   0.00   0.00    -0.02  -0.03   0.00
     4   6    -0.03   0.00   0.00     0.00   0.00   0.01     0.60   0.30   0.00
     5   8     0.00   0.05   0.00     0.00   0.00   0.00    -0.08   0.02   0.00
     6   8     0.04  -0.10   0.00     0.00   0.00  -0.05    -0.31  -0.26   0.00
     7   6    -0.08   0.22   0.00     0.00   0.00   0.18     0.14   0.04   0.00
     8   6     0.10  -0.17   0.00     0.00   0.00  -0.13     0.00   0.00   0.00
     9   1    -0.02   0.25   0.01    -0.36   0.32  -0.14    -0.35  -0.13  -0.01
    10   1    -0.02   0.25  -0.01     0.36  -0.32  -0.14    -0.35  -0.13   0.01
    11   1    -0.42  -0.33  -0.07    -0.07  -0.41   0.11     0.00  -0.07   0.03
    12   1    -0.42  -0.33   0.07     0.07   0.41   0.11     0.00  -0.07  -0.03
    13   1     0.13   0.41   0.00     0.00   0.00   0.26     0.00   0.01   0.00
    14   8     0.00   0.00   0.00     0.00   0.00   0.00     0.01   0.01   0.00
    15   1     0.00  -0.01   0.00     0.00   0.00   0.00    -0.01   0.06   0.00
                     25                     26                     27
                      A                      A                      A
 Frequencies --   1315.8443              1402.8081              1442.2121
 Red. masses --      1.0819                 1.2471                 1.4675
 Frc consts  --      1.1037                 1.4460                 1.7984
 IR Inten    --      1.7726                 4.9928                15.6972
  Atom  AN      X      Y      Z        X      Y      Z        X      Y      Z
     1   6     0.00   0.00   0.00     0.01   0.00   0.00    -0.01   0.00   0.00
     2   1     0.00   0.00   0.00     0.01  -0.01   0.00    -0.01   0.01   0.00
     3   6     0.00   0.00   0.00     0.00   0.00   0.00     0.00   0.00   0.00
     4   6     0.00   0.00   0.00    -0.04  -0.01   0.00     0.05   0.01   0.00
     5   8     0.00   0.00   0.00     0.01   0.00   0.00    -0.01   0.00   0.00
     6   8     0.00   0.00   0.04     0.03  -0.01   0.00    -0.03   0.01   0.00
     7   6     0.00   0.00   0.00     0.06   0.06   0.00    -0.09  -0.11   0.00
     8   6     0.00   0.00  -0.07     0.02   0.10   0.00     0.09   0.10   0.00
     9   1     0.62   0.27   0.02    -0.34  -0.25   0.07     0.42   0.26  -0.08
    10   1    -0.62  -0.27   0.02    -0.34  -0.25  -0.07     0.42   0.26   0.08
    11   1    -0.03  -0.19   0.04    -0.22  -0.31   0.17    -0.34  -0.18   0.03
    12   1     0.03   0.19   0.04    -0.22  -0.31  -0.17    -0.34  -0.18  -0.03
    13   1     0.00   0.00   0.09    -0.03  -0.51   0.00     0.04  -0.40   0.00
    14   8     0.00   0.00   0.00     0.00   0.00   0.00     0.00   0.00   0.00
    15   1     0.00   0.00   0.00     0.00   0.00   0.00     0.00   0.00   0.00
                     28                     29                     30
                      A                      A                      A
 Frequencies --   1493.8565              1507.4792              1530.1002
 Red. masses --      1.0374                 1.0525                 1.0854
 Frc consts  --      1.3639                 1.4092                 1.4972
 IR Inten    --      9.0992                 3.3901                 8.5430
  Atom  AN      X      Y      Z        X      Y      Z        X      Y      Z
     1   6     0.00   0.00   0.00     0.00   0.00   0.00     0.00   0.00   0.00
     2   1     0.00   0.00   0.00     0.00   0.00   0.00    -0.01   0.00   0.00
     3   6     0.00   0.00   0.00     0.00   0.00   0.00     0.00   0.00   0.00
     4   6     0.00   0.00   0.00     0.00   0.00   0.00     0.02   0.00   0.00
     5   8     0.00   0.00   0.00     0.00   0.00   0.00     0.00   0.00   0.00
     6   8     0.00   0.00   0.00     0.01   0.00   0.00    -0.02   0.01   0.00
     7   6     0.00   0.00  -0.02    -0.02  -0.04   0.00    -0.06   0.05   0.00
     8   6     0.00   0.00  -0.05    -0.03   0.04   0.00    -0.01   0.01   0.00
     9   1     0.00  -0.04   0.00    -0.07   0.23  -0.18     0.37  -0.36   0.38
    10   1     0.00   0.04   0.00    -0.07   0.23   0.18     0.37  -0.36  -0.38
    11   1     0.48   0.14   0.05     0.29  -0.38   0.36     0.13  -0.17   0.16
    12   1    -0.48  -0.14   0.05     0.29  -0.38  -0.36     0.13  -0.17  -0.16
    13   1     0.00   0.00   0.70     0.00   0.29   0.00     0.00   0.15   0.00
    14   8     0.00   0.00   0.00     0.00   0.00   0.00     0.00   0.00   0.00
    15   1     0.00   0.00   0.00     0.00   0.00   0.00     0.00   0.00   0.00
                     31                     32                     33
                      A                      A                      A
 Frequencies --   1851.7996              2119.6123              3069.1686
 Red. masses --     12.4958                 6.3428                 1.0355
 Frc consts  --     25.2466                16.7897                 5.7470
 IR Inten    --    427.9742                87.9180                 7.7129
  Atom  AN      X      Y      Z        X      Y      Z        X      Y      Z
     1   6     0.09  -0.02   0.00    -0.37   0.10   0.00     0.00   0.00   0.00
     2   1     0.13  -0.01   0.00    -0.69   0.19   0.00     0.00   0.00   0.00
     3   6    -0.06   0.01   0.00     0.54  -0.17   0.00     0.00   0.00   0.00
     4   6    -0.31   0.74   0.00    -0.12   0.04   0.00     0.00   0.00   0.00
     5   8     0.21  -0.49   0.00     0.01  -0.02   0.00     0.00   0.00   0.00
     6   8     0.00  -0.06   0.00     0.00   0.00   0.00     0.00   0.00   0.00
     7   6    -0.03   0.01   0.00     0.00   0.00   0.00     0.00   0.00   0.00
     8   6     0.01  -0.01   0.00     0.00   0.00   0.00    -0.02  -0.04   0.00
     9   1     0.11   0.07   0.03     0.00   0.00   0.00     0.00  -0.01  -0.01
    10   1     0.11   0.07  -0.03     0.00   0.00   0.00     0.00  -0.01   0.01
    11   1    -0.02  -0.03   0.00     0.00   0.00   0.00    -0.16   0.28   0.46
    12   1    -0.02  -0.03   0.00     0.00   0.00   0.00    -0.16   0.28  -0.46
    13   1     0.01   0.05   0.00     0.00   0.00   0.00     0.60  -0.05   0.00
    14   8     0.00   0.00   0.00     0.00   0.03   0.00     0.00   0.00   0.00
    15   1     0.00  -0.04   0.00     0.00   0.03   0.00     0.00   0.00   0.00
                     34                     35                     36
                      A                      A                      A
 Frequencies --   3104.0776              3142.1339              3148.4132
 Red. masses --      1.0589                 1.1068                 1.1013
 Frc consts  --      6.0111                 6.4381                 6.4321
 IR Inten    --      9.7715                 0.0722                11.9925
  Atom  AN      X      Y      Z        X      Y      Z        X      Y      Z
     1   6     0.00   0.00   0.00     0.00   0.00   0.00     0.00   0.00   0.00
     2   1     0.00   0.00   0.00     0.00   0.00   0.00     0.00   0.00   0.00
     3   6     0.00   0.00   0.00     0.00   0.00   0.00     0.00   0.00   0.00
     4   6     0.00   0.00   0.00     0.00   0.00   0.00     0.00   0.00   0.00
     5   8     0.00   0.00   0.00     0.00   0.00   0.00     0.00   0.00   0.00
     6   8     0.00   0.00   0.00     0.00   0.00   0.00     0.00   0.00   0.00
     7   6     0.03  -0.06   0.00     0.00   0.00  -0.07    -0.01   0.01   0.00
     8   6    -0.01   0.01   0.00     0.00   0.00   0.07    -0.08   0.04   0.00
     9   1    -0.17   0.36   0.58    -0.13   0.27   0.41     0.02  -0.05  -0.08
    10   1    -0.17   0.36  -0.58     0.13  -0.27   0.41     0.02  -0.05   0.08
    11   1     0.01  -0.02  -0.04     0.14  -0.25  -0.39     0.10  -0.21  -0.35
    12   1     0.01  -0.02   0.04    -0.14   0.25  -0.39     0.10  -0.21   0.35
    13   1     0.12  -0.01   0.00     0.00   0.00   0.01     0.78  -0.06   0.00
    14   8     0.00   0.00   0.00     0.00   0.00   0.00     0.00   0.00   0.00
    15   1     0.00   0.00   0.00     0.00   0.00   0.00     0.00   0.00   0.00
                     37                     38                     39
                      A                      A                      A
 Frequencies --   3164.6826              3432.8026              3779.5882
 Red. masses --      1.1073                 1.1492                 1.0677
 Frc consts  --      6.5340                 7.9788                 8.9868
 IR Inten    --     21.1985                73.0346                34.5905
  Atom  AN      X      Y      Z        X      Y      Z        X      Y      Z
     1   6     0.00   0.00   0.00    -0.11   0.02   0.00     0.00   0.00   0.00
     2   1     0.00   0.00   0.00     0.99  -0.08   0.00     0.00   0.00   0.00
     3   6     0.00   0.00   0.00     0.03  -0.01   0.00     0.00   0.00   0.00
     4   6     0.00   0.00   0.00     0.00   0.00   0.00     0.00   0.00   0.00
     5   8     0.00   0.00   0.00     0.00   0.00   0.00     0.00   0.00   0.00
     6   8     0.00   0.00   0.00     0.00   0.00   0.00     0.00   0.00   0.00
     7   6     0.00   0.00   0.07     0.00   0.00   0.00     0.00   0.00   0.00
     8   6     0.00   0.00   0.07     0.00   0.00   0.00     0.00   0.00   0.00
     9   1     0.12  -0.26  -0.39     0.00   0.00   0.00     0.00   0.00   0.00
    10   1    -0.12   0.26  -0.39     0.00   0.00   0.00     0.00   0.00   0.00
    11   1     0.14  -0.27  -0.41     0.00   0.00   0.00     0.00   0.00   0.00
    12   1    -0.14   0.27  -0.41     0.00   0.00   0.00     0.00   0.00   0.00
    13   1     0.00   0.00   0.01     0.00   0.00   0.00     0.00   0.00   0.00
    14   8     0.00   0.00   0.00     0.00   0.00   0.00     0.06   0.00   0.00
    15   1     0.00   0.00   0.00     0.00   0.00   0.00    -1.00  -0.07   0.00

 -------------------
 - Thermochemistry -
 -------------------
 Temperature   298.150 Kelvin.  Pressure   1.00000 Atm.
 Atom     1 has atomic number  6 and mass  12.00000
 Atom     2 has atomic number  1 and mass   1.00783
 Atom     3 has atomic number  6 and mass  12.00000
 Atom     4 has atomic number  6 and mass  12.00000
 Atom     5 has atomic number  8 and mass  15.99491
 Atom     6 has atomic number  8 and mass  15.99491
 Atom     7 has atomic number  6 and mass  12.00000
 Atom     8 has atomic number  6 and mass  12.00000
 Atom     9 has atomic number  1 and mass   1.00783
 Atom    10 has atomic number  1 and mass   1.00783
 Atom    11 has atomic number  1 and mass   1.00783
 Atom    12 has atomic number  1 and mass   1.00783
 Atom    13 has atomic number  1 and mass   1.00783
 Atom    14 has atomic number  8 and mass  15.99491
 Atom    15 has atomic number  1 and mass   1.00783
 Molecular mass:   115.03952 amu.
 Principal axes and moments of inertia in atomic units:
                           1         2         3
     Eigenvalues --   630.601421448.979442057.01455
           X            0.99924   0.03896   0.00000
           Y           -0.03896   0.99924   0.00000
           Z            0.00000   0.00000   1.00000
 This molecule is an asymmetric top.
 Rotational symmetry number  1.
 Warning -- assumption of classical behavior for rotation
           may cause significant error
 Rotational temperatures (Kelvin)      0.13735     0.05978     0.04211
 Rotational constants (GHZ):           2.86194     1.24553     0.87736
    1 imaginary frequencies ignored.
 Zero-point vibrational energy     294356.5 (Joules/Mol)
                                   70.35289 (Kcal/Mol)
 Warning -- explicit consideration of  12 degrees of freedom as
           vibrations may cause significant error
 Vibrational temperatures:     66.47    72.64   122.36   190.90   259.21
          (Kelvin)            361.35   375.89   403.18   434.56   557.01
                              785.53   871.98  1117.05  1134.69  1136.93
                             1188.67  1210.81  1298.22  1377.44  1559.36
                             1656.46  1707.55  1834.43  1893.20  2018.33
                             2075.02  2149.32  2168.92  2201.47  2664.32
                             3049.65  4415.84  4466.07  4520.82  4529.86
                             4553.27  4939.03  5437.98
 
 Zero-point correction=                           0.112114 (Hartree/Particle)
 Thermal correction to Energy=                    0.121744
 Thermal correction to Enthalpy=                  0.122688
 Thermal correction to Gibbs Free Energy=         0.075562
 Sum of electronic and zero-point Energies=           -419.3545605
 Sum of electronic and thermal Energies=              -420.082956
 Sum of electronic and thermal Enthalpies=            -420.082011
 Sum of electronic and thermal Free Energies=         -420.129138
 
                     E (Thermal)             CV                S
                      KCal/Mol        Cal/Mol-Kelvin    Cal/Mol-Kelvin
 Total                   76.396             31.848             99.186
 Electronic               0.000              0.000              1.377
 Translational            0.889              2.981             40.136
 Rotational               0.889              2.981             29.021
 Vibrational             74.618             25.887             28.652
 Vibration     1          0.595              1.979              4.974
 Vibration     2          0.595              1.977              4.798
 Vibration     3          0.601              1.960              3.771
 Vibration     4          0.613              1.921              2.907
 Vibration     5          0.629              1.867              2.327
 Vibration     6          0.663              1.761              1.722
 Vibration     7          0.669              1.744              1.653
 Vibration     8          0.680              1.710              1.532
 Vibration     9          0.694              1.670              1.406
 Vibration    10          0.756              1.498              1.011
 Vibration    11          0.901              1.149              0.553
 Vibration    12          0.965              1.019              0.439
                       Q            Log10(Q)             Ln(Q)
 Total Bot       0.175387D-34        -34.756002        -80.028651
 Total V=0       0.650072D+17         16.812961         38.713274
 Vib (Bot)       0.368442D-48        -48.433631       -111.522557
 Vib (Bot)    1  0.447603D+01          0.650893          1.498736
 Vib (Bot)    2  0.409452D+01          0.612203          1.409650
 Vib (Bot)    3  0.241970D+01          0.383761          0.883643
 Vib (Bot)    4  0.153542D+01          0.186226          0.428801
 Vib (Bot)    5  0.111477D+01          0.047186          0.108650
 Vib (Bot)    6  0.776684D+00         -0.109756         -0.252722
 Vib (Bot)    7  0.742993D+00         -0.129015         -0.297068
 Vib (Bot)    8  0.686017D+00         -0.163665         -0.376853
 Vib (Bot)    9  0.628930D+00         -0.201398         -0.463736
 Vib (Bot)   10  0.464681D+00         -0.332845         -0.766404
 Vib (Bot)   11  0.288550D+00         -0.539779         -1.242888
 Vib (Bot)   12  0.244841D+00         -0.611116         -1.407146
 Vib (V=0)       0.136563D+04          3.135332          7.219368
 Vib (V=0)    1  0.500387D+01          0.699306          1.610211
 Vib (V=0)    2  0.462494D+01          0.665106          1.531463
 Vib (V=0)    3  0.297082D+01          0.472876          1.088838
 Vib (V=0)    4  0.211478D+01          0.325264          0.748949
 Vib (V=0)    5  0.172177D+01          0.235975          0.543352
 Vib (V=0)    6  0.142371D+01          0.153421          0.353265
 Vib (V=0)    7  0.139557D+01          0.144750          0.333300
 Vib (V=0)    8  0.134889D+01          0.129977          0.299284
 Vib (V=0)    9  0.130346D+01          0.115099          0.265024
 Vib (V=0)   10  0.118259D+01          0.072834          0.167707
 Vib (V=0)   11  0.107729D+01          0.032332          0.074446
 Vib (V=0)   12  0.105673D+01          0.023964          0.055178
 Electronic      0.200000D+01          0.301030          0.693147
 Translational   0.484982D+08          7.685726         17.697038
 Rotational      0.490765D+06          5.690874         13.103721
 ***** Axes restored to original set *****
 -------------------------------------------------------------------
 Center     Atomic                   Forces (Hartrees/Bohr)
 Number     Number              X              Y              Z
 -------------------------------------------------------------------
      1        6          -0.000000325   -0.000005821   -0.000000006
      2        1           0.000001245   -0.000008036    0.000000001
      3        6           0.000002979   -0.000004144   -0.000000007
      4        6           0.000001984   -0.000000230    0.000000046
      5        8           0.000004963   -0.000000907   -0.000000014
      6        8           0.000000392   -0.000000046    0.000000036
      7        6           0.000000397    0.000003657   -0.000000495
      8        6          -0.000001936    0.000003907   -0.000000539
      9        1           0.000001862    0.000003601    0.000000000
     10        1           0.000001899    0.000003252    0.000000482
     11        1          -0.000003145    0.000003862    0.000000357
     12        1          -0.000003057    0.000003593    0.000000087
     13        1          -0.000001590    0.000006326    0.000000054
     14        8          -0.000002318   -0.000005301    0.000000000
     15        1          -0.000003352   -0.000003715   -0.000000002
 -------------------------------------------------------------------
 Cartesian Forces:  Max     0.000008036 RMS     0.000002860

 GradGradGradGradGradGradGradGradGradGradGradGradGradGradGradGradGradGrad
 Berny optimization.
 Search for a local minimum.
 Step number   1 out of a maximum of    2
 All quantities printed in internal units (Hartrees-Bohrs-Radians)
 Second derivative matrix not updated -- analytic derivatives used.
 ITU=  0
     Eigenvalues ---   -0.17923   0.00042   0.00058   0.00127   0.00183
     Eigenvalues ---    0.00359   0.00565   0.00591   0.01867   0.02068
     Eigenvalues ---    0.02574   0.03196   0.03252   0.05137   0.05850
     Eigenvalues ---    0.07808   0.08503   0.09256   0.09820   0.11455
     Eigenvalues ---    0.11626   0.14783   0.15021   0.16920   0.20259
     Eigenvalues ---    0.29551   0.30392   0.45041   0.47685   0.63923
     Eigenvalues ---    0.70555   0.73549   0.79318   0.86485   0.89299
     Eigenvalues ---    0.92241   0.99500   1.75318   2.38294
 Eigenvalue     1 is  -1.79D-01 should be greater than     0.000000 Eigenvector:
                          Y1        Y14       X1        X15       Y2
   1                    0.77646  -0.60132   0.13231  -0.07203  -0.05827
                          Y15       Y3        X14       X3        X2
   1                   -0.05494  -0.05244  -0.04348  -0.02760   0.02559
 Angle between quadratic step and forces=  83.99 degrees.
 Linear search not attempted -- first point.
 TrRot=  0.000021 -0.000029  0.000000  0.000005  0.000000  0.000005
 Variable       Old X    -DE/DX   Delta X   Delta X   Delta X     New X
                                 (Linear)    (Quad)   (Total)
    X1        4.83899   0.00000   0.00000   0.00007   0.00009   4.83908
    Y1        0.34382  -0.00001   0.00000   0.00015   0.00017   0.34400
    Z1        0.00000   0.00000   0.00000   0.00000   0.00000   0.00000
    X2        6.84867   0.00000   0.00000   0.00009   0.00010   6.84878
    Y2        0.18181  -0.00001   0.00000   0.00035   0.00039   0.18221
    Z2        0.00000   0.00000   0.00000   0.00000   0.00000   0.00000
    X3        2.71089   0.00000   0.00000  -0.00006  -0.00005   2.71084
    Y3        1.20979   0.00000   0.00000  -0.00018  -0.00018   1.20961
    Z3       -0.00001   0.00000   0.00000   0.00000   0.00000  -0.00001
    X4        0.02671   0.00000   0.00000  -0.00007  -0.00007   0.02664
    Y4        1.80113   0.00000   0.00000  -0.00022  -0.00025   1.80089
    Z4       -0.00001   0.00000   0.00000   0.00000   0.00000  -0.00001
    X5       -0.83302   0.00000   0.00000  -0.00005  -0.00007  -0.83309
    Y5        3.89399   0.00000   0.00000  -0.00021  -0.00024   3.89375
    Z5       -0.00002   0.00000   0.00000   0.00000   0.00000  -0.00002
    X6       -1.32996   0.00000   0.00000  -0.00012  -0.00010  -1.33006
    Y6       -0.33086   0.00000   0.00000  -0.00018  -0.00022  -0.33109
    Z6        0.00000   0.00000   0.00000   0.00000   0.00000   0.00000
    X7       -4.03803   0.00000   0.00000  -0.00010  -0.00008  -4.03810
    Y7       -0.00085   0.00000   0.00000   0.00004  -0.00003  -0.00088
    Z7        0.00000   0.00000   0.00000   0.00000   0.00000   0.00000
    X8       -5.20603   0.00000   0.00000  -0.00041  -0.00037  -5.20639
    Y8       -2.60488   0.00000   0.00000   0.00019   0.00011  -2.60478
    Z8        0.00001   0.00000   0.00000   0.00000   0.00000   0.00001
    X9       -4.55810   0.00000   0.00000   0.00002   0.00003  -4.55806
    Y9        1.09271   0.00000   0.00000   0.00011   0.00003   1.09274
    Z9        1.67015   0.00000   0.00000  -0.00001  -0.00001   1.67015
   X10       -4.55809   0.00000   0.00000   0.00002   0.00003  -4.55806
   Y10        1.09270   0.00000   0.00000   0.00011   0.00003   1.09273
   Z10       -1.67017   0.00000   0.00000   0.00001   0.00001  -1.67015
   X11       -4.63574   0.00000   0.00000  -0.00059  -0.00053  -4.63627
   Y11       -3.66093   0.00000   0.00000   0.00012   0.00004  -3.66089
   Z11       -1.67580   0.00000   0.00000  -0.00001  -0.00001  -1.67581
   X12       -4.63574   0.00000   0.00000  -0.00059  -0.00053  -4.63627
   Y12       -3.66091   0.00000   0.00000   0.00012   0.00004  -3.66087
   Z12        1.67582   0.00000   0.00000   0.00001   0.00001   1.67583
   X13       -7.26139   0.00000   0.00000  -0.00039  -0.00034  -7.26173
   Y13       -2.43926   0.00001   0.00000   0.00053   0.00042  -2.43883
   Z13        0.00001   0.00000   0.00000   0.00000   0.00000   0.00001
   X14        4.43450   0.00000   0.00000   0.00087   0.00093   4.43543
   Y14       -3.43440  -0.00001   0.00000   0.00008   0.00010  -3.43431
   Z14        0.00002   0.00000   0.00000   0.00000   0.00000   0.00002
   X15        2.60393   0.00000   0.00000   0.00090   0.00096   2.60489
   Y15       -3.56758   0.00000   0.00000  -0.00041  -0.00041  -3.56799
   Z15        0.00002   0.00000   0.00000   0.00000   0.00000   0.00002
         Item               Value     Threshold  Converged?
 Maximum Force            0.000008     0.000450     YES
 RMS     Force            0.000003     0.000300     YES
 Maximum Displacement     0.000961     0.001800     YES
 RMS     Displacement     0.000275     0.001200     YES
 Predicted change in Energy=-1.825598D-09
 Optimization completed.
    -- Stationary point found.
 GradGradGradGradGradGradGradGradGradGradGradGradGradGradGradGradGradGrad

 1|1|UNPC-DIT|Freq|UM062X|6-311++G(d,p)|C5H7O3(2)|NDITM|28-Mar-2025|0||
 # freq 6-311++g(d,p) m062x||Title Card Required||0,2|C,2.5606833,0.181
 94321,0.00000023|H,3.6241623,0.09621021,0.00000123|C,1.4345413,0.64019
 421,-0.00000277|C,0.0141343,0.95311821,-0.00000477|O,-0.4408147,2.0606
 1321,-0.00000977|O,-0.7037867,-0.17508379,0.00000023|C,-2.1368327,-0.0
 0044979,-0.00000077|C,-2.7549107,-1.37844379,0.00000523|H,-2.4120407,0
 .57823721,0.88380623|H,-2.4120397,0.57823021,-0.88381377|H,-2.4531297,
 -1.93727979,-0.88679377|H,-2.4531297,-1.93727179,0.88680823|H,-3.84256
 07,-1.29079979,0.00000423|O,2.3466383,-1.81740779,0.00001023|H,1.37794
 13,-1.88788079,0.00001023||Version=IA32W-G09RevD.01|State=2-A|HF=-420.
 2046997|S2=0.773664|S2-1=0.|S2A=0.750219|RMSD=9.850e-010|RMSF=2.860e-0
 06|ZeroPoint=0.1121145|Thermal=0.1217441|Dipole=-0.8154887,-0.3597217,
 0.0000014|DipoleDeriv=-0.1399836,0.4855794,0.0000123,0.2148657,-1.0658
 299,0.0000045,-0.0000059,-0.0000051,-0.0407554,0.2765333,0.0018868,-0.
 0000083,-0.0579059,0.2853886,0.0000003,0.0000011,0.0000002,0.1972381,-
 0.5955337,-0.4196677,0.0000063,0.0254612,0.03208,-0.000004,0.0000073,0
 .000016,-0.0986136,2.1619855,-0.3558416,-0.0000113,0.4499899,1.8846471
 ,-0.0000053,0.0000035,-0.0000196,0.3954597,-0.832842,0.4580491,-0.0000
 024,0.0157606,-1.1915874,0.0000052,-0.0000034,0.0000088,-0.3426899,-1.
 6588959,-0.3376393,0.0000046,-0.6428585,-0.9482725,0.0000015,0.0000046
 ,0.0000078,-0.2807864,1.016676,0.1902717,-0.0000002,0.0909738,0.337424
 3,0.,-0.0000241,0.0000036,0.2990638,-0.0300575,-0.0423826,0.0000061,-0
 .0577887,-0.0433342,-0.0000003,0.0000074,-0.000011,0.0570215,-0.041581
 ,-0.0435575,-0.0107966,0.0261649,0.0038693,-0.0621151,0.0335687,-0.061
 3935,-0.0369955,-0.0415797,-0.0435615,0.010796,0.0261594,0.0038744,0.0
 621164,-0.033554,0.061388,-0.036999,0.0714848,0.0376808,0.0578952,-0.0
 140525,0.0101338,-0.0424875,0.0377813,-0.0701522,-0.0388545,0.0714871,
 0.0376835,-0.0578939,-0.0140507,0.0101303,0.0424863,-0.0377908,0.07015
 94,-0.0388535,-0.1022558,-0.0055154,-0.0000083,0.0145622,0.0520608,0.0
 000014,0.0000032,0.0000014,0.091542,-0.2729143,-0.077181,0.0000016,-0.
 0163441,0.2819268,-0.0000003,-0.0000051,-0.0000054,-0.4366647,0.117476
 8,0.1141955,-0.000001,-0.0609373,0.3474887,-0.000003,0.0000063,0.00000
 15,0.3108874|Polar=90.5286757,-9.5859219,90.0921731,-0.0001827,-0.0002
 841,47.4602979|PG=C01 [X(C5H7O3)]|NImag=1||1.31482201,-0.28452894,-0.0
 3545858,0.00000126,0.00000107,0.06910683,-0.40943547,0.04457333,0.0000
 0008,0.40075547,0.01959243,-0.00303566,-0.00000031,-0.03326589,0.02760
 173,-0.00000020,-0.00000014,-0.03161199,0.00000031,-0.00000006,0.01798
 346,-0.88680963,0.22486300,-0.00000241,0.01043404,0.02300904,-0.000000
 08,1.20864275,0.30050101,-0.07825446,-0.00000060,-0.00690601,-0.006205
 33,0.00000009,-0.34983876,0.22154216,-0.00000072,-0.00000077,-0.034590
 71,-0.00000074,0.00000037,0.00732229,0.00000364,0.00000060,0.05725747,
 0.01097914,-0.00911556,0.00000124,-0.00117944,0.00218673,-0.00000009,-
 0.25973625,0.04708212,-0.00000219,0.68614622,0.01639023,-0.00870381,0.
 00000068,0.00057778,0.00501894,-0.00000002,0.01339581,-0.05290267,-0.0
 0000109,-0.18013706,0.94178002,-0.00000051,0.00000099,0.00168769,0.000
 00034,-0.00000023,0.00599739,-0.00000124,-0.00000167,-0.07083588,0.000
 00200,-0.00000210,0.21028003,-0.00699398,0.00468846,-0.00000015,0.0003
 2288,-0.00169755,0.00000001,-0.02629466,0.04639054,-0.00000002,-0.2169
 6232,0.25518048,-0.00000126,0.21780180,-0.00100569,0.00224750,-0.00000
 011,-0.00015469,-0.00016565,0.,0.04463128,-0.02582476,0.00000039,0.239
 61116,-0.66566575,0.00000239,-0.27851480,0.80130960,0.00000010,-0.0000
 0039,0.00065068,-0.00000010,0.00000009,-0.00118337,0.00000025,0.000000
 90,0.02121992,-0.00000142,0.00000206,-0.08088332,0.00000128,-0.0000032
 8,0.03391324,-0.00252634,0.00482771,-0.00000018,0.00076788,0.00030102,
 0.00000001,-0.05676166,-0.03615510,0.00000039,-0.17415242,-0.09406348,
 0.00000033,0.03011397,-0.01613952,0.00000007,0.48085040,-0.00119103,0.
 00215640,0.,0.00018298,-0.00069809,0.,-0.01526632,0.00338065,0.,-0.060
 18602,-0.22785044,0.00000063,-0.02042042,-0.11019784,0.00000065,0.0876
 3086,0.43065052,0.00000035,-0.00000028,0.00053583,-0.00000022,0.000000
 08,-0.00052465,0.00000045,0.00000045,0.01173337,-0.00000031,0.00000038
 ,-0.06952633,0.00000014,0.00000068,0.03104997,-0.00000019,-0.00000154,
 0.08101717,0.00165694,-0.00274848,0.00000019,-0.00035566,0.00032357,0.
 ,0.00310078,0.00014923,-0.00000028,-0.04612860,-0.03717679,0.00000043,
 -0.00218783,0.02021242,-0.00000021,-0.17806851,0.02383155,-0.00000023,
 0.44117736,-0.00008938,0.00007783,-0.00000009,-0.00003127,0.00019173,0
 .,-0.00389883,-0.00356291,0.00000019,-0.03829206,0.00491914,-0.0000001
 5,-0.00332580,-0.00219861,0.00000003,0.04885808,-0.09598668,0.00000016
 ,-0.01037915,0.58809900,-0.00000086,-0.00000068,-0.00026877,0.00000040
 ,0.00000012,-0.00021876,0.00000057,0.00000156,0.00609785,0.00000037,-0
 .00000091,0.00175864,0.00000016,-0.00000005,-0.00606197,-0.00000049,0.
 00000023,-0.06907664,-0.00000084,0.00000124,0.63141563,-0.00024087,0.0
 0033056,-0.00000058,0.00005205,0.00003970,0.00000004,-0.00153089,-0.00
 142290,0.00000094,-0.00559426,0.00704730,-0.00000063,0.00297120,-0.002
 25835,0.00000023,-0.03833944,-0.04423796,0.00000045,-0.08849410,-0.039
 37067,0.00000010,0.57521906,0.00022014,-0.00030620,0.00000010,-0.00001
 787,0.00001495,0.,0.00036816,0.00054438,-0.00000015,0.00210607,-0.0025
 4293,0.00000010,-0.00146078,0.00102912,-0.00000003,0.00039756,0.006709
 29,-0.00000006,-0.05582386,-0.21462117,0.00000049,-0.03255965,0.521304
 85,-0.00000028,0.00000092,0.00003716,0.00000027,-0.00000023,0.00000434
 ,-0.00000112,-0.00000163,-0.00012111,0.00000101,0.00000104,-0.00005345
 ,-0.00000018,-0.00000009,0.00103240,-0.00000002,-0.00000008,0.00142226
 ,0.00000051,0.00000042,-0.08662075,0.00000012,-0.00000021,0.58815832,-
 0.00010749,0.00014834,0.00006441,0.00004953,-0.00001268,0.00003802,-0.
 00055092,-0.00014438,-0.00109636,0.00167799,0.00889029,0.00146587,0.00
 155394,-0.00316198,-0.00002795,-0.03163148,0.01636266,0.03030046,-0.06
 164827,0.02956301,0.04393352,0.00519554,-0.00757155,-0.01317592,0.0811
 9242,-0.00002122,-0.00004288,0.00002139,0.00000167,0.00001350,0.000024
 52,0.00025534,-0.00001525,-0.00040753,-0.00208375,0.00137443,0.0006061
 3,0.00077915,-0.00024009,0.00018616,0.00515539,-0.00167974,-0.00141326
 ,0.03352106,-0.12431761,-0.11540745,0.00623932,-0.01477990,-0.02427135
 ,-0.03708231,0.13313335,-0.00014490,0.00009332,0.00003344,0.00000005,-
 0.00001915,0.00002091,0.00018734,0.00018861,-0.00051381,-0.00013452,-0
 .00324472,0.00056192,-0.00172410,0.00082624,0.00026421,0.00313069,0.00
 333259,0.00623910,0.05243584,-0.11502650,-0.23863000,-0.00164304,0.001
 76856,0.00296820,-0.05718952,0.12593793,0.24776786,-0.00010765,0.00014
 863,-0.00006434,0.00004966,-0.00001276,-0.00003803,-0.00055130,-0.0001
 4487,0.00109624,0.00167838,0.00889060,-0.00146588,0.00155390,-0.003162
 00,0.00002796,-0.03163150,0.01636240,-0.03030065,-0.06164799,0.0295621
 4,-0.04393305,0.00519532,-0.00757138,0.01317604,0.00446685,-0.00462592
 ,0.00559926,0.08119226,-0.00002127,-0.00004323,-0.00002146,0.00000165,
 0.00001358,-0.00002451,0.00025573,-0.00001458,0.00040765,-0.00208399,0
 .00137404,-0.00060619,0.00077925,-0.00024007,-0.00018615,0.00515535,-0
 .00167973,0.00141338,0.03352005,-0.12431514,0.11540547,0.00623947,-0.0
 1477970,0.02427145,-0.00462596,0.00919050,-0.01395844,-0.03708142,0.13
 313070,0.00014531,-0.00009272,0.00003350,-0.00000020,0.00001903,0.0000
 2090,-0.00018792,-0.00018985,-0.00051391,0.00013467,0.00324546,0.00056
 188,0.00172398,-0.00082624,0.00026424,-0.00313064,-0.00333255,0.006239
 04,-0.05243522,0.11502450,-0.23863033,0.00164287,-0.00176840,0.0029679
 6,-0.00559921,0.01395819,-0.02086094,0.05718915,-0.12593601,0.24776851
 ,-0.00002988,0.00006608,-0.00000779,-0.00001944,-0.00001241,0.00000001
 ,0.00013220,0.00002883,0.00007173,-0.00010382,-0.00111195,-0.00001022,
 -0.00044275,0.00047113,0.00005701,0.00219787,0.00115057,-0.00031115,0.
 00244917,-0.00862012,-0.01328973,-0.06891649,0.04009134,0.06299551,-0.
 00069738,-0.00270720,0.00007989,0.00018091,0.00084166,0.00027063,0.070
 31112,-0.00005446,0.00005125,0.00001019,0.00000343,-0.00000829,-0.0000
 0284,0.00000022,0.00000311,-0.00004703,0.00024240,-0.00077923,0.000065
 22,-0.00060921,0.00028703,0.00020212,0.00135967,0.00242417,0.00104022,
 0.01027983,-0.01803934,-0.02835052,0.03779323,-0.11618517,-0.10980990,
 -0.00335075,-0.00443430,0.00109122,0.00057111,0.00099066,0.00027681,-0
 .04053036,0.12818435,-0.00008963,0.00016506,-0.00000539,-0.00000517,-0
 .00002175,-0.00000102,0.00003153,-0.00004041,0.00002437,-0.00006487,-0
 .00014501,0.00002096,-0.00004954,0.00030365,-0.00005318,-0.00054089,0.
 00009263,0.00016560,-0.00053716,0.00073096,0.00139011,0.06230197,-0.11
 181790,-0.23193380,0.00059877,0.00054671,0.00144455,-0.00061116,-0.000
 19920,0.00075320,-0.06849463,0.12238793,0.24655973,-0.00002962,0.00006
 590,0.00000780,-0.00001961,-0.00001235,-0.00000001,0.00013248,0.000029
 10,-0.00007173,-0.00010421,-0.00111213,0.00001031,-0.00044272,0.000471
 17,-0.00005706,0.00219793,0.00115057,0.00031114,0.00244911,-0.00862000
 ,0.01328965,-0.06891617,0.04009099,-0.06299611,0.00018089,0.00084170,-
 0.00027056,-0.00069739,-0.00270721,-0.00007982,0.00200503,-0.00596699,
 0.00817770,0.07031097,-0.00005459,0.00005159,-0.00001019,0.00000355,-0
 .00000838,0.00000284,-0.00000021,0.00000250,0.00004702,0.00024282,-0.0
 0077885,-0.00006523,-0.00060928,0.00028699,-0.00020212,0.00135967,0.00
 242417,-0.00104023,0.01027993,-0.01803919,0.02835077,0.03779271,-0.116
 18326,0.10980946,0.00057113,0.00099065,-0.00027682,-0.00335074,-0.0044
 3431,-0.00109120,-0.00596704,0.00919196,-0.01367479,-0.04052996,0.1281
 8227,0.00008960,-0.00016577,-0.00000542,0.00000510,0.00002191,-0.00000
 102,-0.00003075,0.00004172,0.00002443,0.00006431,0.00014422,0.00002098
 ,0.00004969,-0.00030361,-0.00005319,0.00054081,-0.00009261,0.00016563,
 0.00053687,-0.00073071,0.00138974,-0.06230234,0.11181747,-0.23193639,0
 .00061114,0.00019922,0.00075320,-0.00059876,-0.00054667,0.00144464,-0.
 00817769,0.01367453,-0.01941020,0.06849526,-0.12238746,0.24656249,-0.0
 0004693,0.00002287,0.00000056,0.00002463,0.00000154,-0.00000004,-0.000
 25355,-0.00010745,-0.00000090,0.00043353,0.00162297,0.00000046,0.00018
 832,-0.00070960,-0.00000015,-0.00102782,-0.00408125,-0.00000024,-0.012
 30878,0.00463158,0.00000028,-0.31660177,0.02166879,0.00000015,0.000283
 93,-0.00025913,-0.00030781,0.00028409,-0.00025918,0.00030774,-0.007020
 31,0.00028335,-0.00061484,-0.00702048,0.00028349,0.00061471,0.34304052
 ,-0.00018282,0.00027361,-0.00000003,0.00001524,-0.00000858,0.,-0.00043
 259,-0.00051489,0.00000005,-0.00126520,0.00214963,0.,0.00056957,-0.000
 61499,0.,-0.00603475,-0.00779136,0.00000005,-0.02797089,0.00714551,-0.
 00000015,0.02441712,-0.05038899,0.00000009,0.00066420,0.00078746,-0.00
 067977,0.00066420,0.00078745,0.00067983,0.01635917,-0.00167949,0.00182
 608,0.01635896,-0.00167948,-0.00182611,-0.02307792,0.05170918,0.000000
 21,-0.00000002,-0.00002243,-0.00000012,0.00000001,0.00000526,0.0000000
 8,-0.00000001,0.00000828,-0.00000020,-0.00000001,0.00043271,0.,0.00000
 002,-0.00014917,0.00000008,0.00000002,0.00098791,0.00000012,-0.0000000
 4,-0.00251274,-0.00000012,0.00000005,-0.04606322,0.00005185,0.00003884
 ,-0.00004772,-0.00005187,-0.00003883,-0.00004776,0.02686203,-0.0005195
 9,0.00108400,-0.02686217,0.00051958,0.00108405,0.00000010,-0.00000003,
 0.04528495,-0.01971909,0.00990284,-0.00000002,-0.00146890,-0.01025080,
 0.00000005,0.00738590,0.00146681,-0.00000005,-0.00259343,-0.00163387,0
 .00000010,0.00034538,0.00060935,-0.00000005,0.00047329,0.00142892,-0.0
 0000002,0.00044658,0.00006123,-0.00000015,-0.00002112,-0.00005885,0.00
 000009,-0.00004343,0.00004100,0.00002217,-0.00004341,0.00004095,-0.000
 02207,0.00006866,0.00001720,0.00007069,0.00006866,0.00001724,-0.000070
 78,-0.00004544,0.00005498,0.00000001,0.52739289,-0.04014439,0.11939215
 ,-0.00000076,-0.00408272,-0.02068658,0.00000012,0.06241519,-0.05444773
 ,0.00000048,0.00011730,0.00528649,-0.00000001,-0.00075258,-0.00120622,
 -0.00000002,-0.00037598,-0.00171471,0.00000005,0.00025650,-0.00004426,
 -0.00000028,0.00002831,0.00007731,0.00000005,0.00003442,-0.00002099,-0
 .00002954,0.00003442,-0.00002105,0.00002971,-0.00004230,-0.00002689,-0
 .00004738,-0.00004227,-0.00002688,0.00004728,0.00001928,-0.00004183,0.
 00000004,0.02235736,-0.02558852,-0.00000015,-0.00000059,-0.00533142,0.
 00000021,0.00000009,0.00172810,-0.00000042,0.00000031,0.00333235,0.000
 00032,-0.00000002,-0.00089972,0.,-0.00000003,0.00003379,-0.00000009,0.
 00000004,0.00056155,0.00000001,0.,-0.00000757,-0.00000015,0.00000002,-
 0.00020417,-0.00003552,0.00004257,0.00001879,0.00003554,-0.00004261,0.
 00001884,0.00006159,0.00003704,0.00004143,-0.00006162,-0.00003703,0.00
 004140,0.00000019,-0.00000002,0.00005263,0.00000005,0.00000007,0.00255
 124,-0.00141114,0.00675525,-0.00000008,0.00002239,-0.00018960,0.,0.002
 66072,-0.00092817,0.00000006,0.00563950,0.00323983,-0.00000009,-0.0015
 2712,-0.00089990,0.00000003,-0.00246217,-0.00271749,0.00000002,-0.0004
 4021,-0.00004876,0.00000007,0.00002194,0.00012089,-0.00000006,0.000077
 88,-0.00005510,-0.00004079,0.00007786,-0.00005507,0.00004074,-0.000114
 89,-0.00003868,-0.00017276,-0.00011489,-0.00003870,0.00017282,0.000070
 07,-0.00013926,0.,-0.51224655,-0.03982254,0.00000003,0.50974660,-0.009
 41001,0.00159449,0.00000013,-0.00090118,-0.00203785,0.,0.00024295,-0.0
 0373022,-0.00000021,0.00157504,-0.00267900,0.00000010,-0.00099703,0.00
 119374,-0.00000003,-0.00227648,-0.00014661,-0.00000007,0.00172504,0.00
 069171,0.00000016,-0.00007820,0.00010744,0.00000006,-0.00028443,0.0000
 4088,-0.00000351,-0.00028440,0.00004089,0.00000344,-0.00001741,0.00002
 019,-0.00010658,-0.00001746,0.00002022,0.00010658,-0.00003935,-0.00013
 323,-0.00000004,-0.02405434,-0.02093029,0.00000015,0.03481728,0.025947
 64,0.00000042,0.,-0.00024900,-0.00000020,0.00000003,0.00045816,0.00000
 008,-0.00000008,-0.00044489,-0.00000033,0.00000005,0.00087649,0.,0.000
 00002,-0.00004425,0.00000010,-0.00000003,-0.00098981,-0.00000001,0.,-0
 .00002443,0.00000015,-0.00000002,0.00034225,0.00006044,-0.00006208,-0.
 00001972,-0.00006046,0.00006211,-0.00001978,-0.00010719,-0.00005541,-0
 .00008037,0.00010723,0.00005540,-0.00008034,-0.00000020,0.00000003,-0.
 00009675,-0.00000004,0.00000016,-0.00193724,0.,-0.00000018,0.00230969|
 |0.00000033,0.00000582,0.,-0.00000125,0.00000804,0.,-0.00000298,0.0000
 0414,0.,-0.00000198,0.00000023,-0.00000005,-0.00000496,0.00000091,0.00
 000001,-0.00000039,0.00000005,-0.00000004,-0.00000040,-0.00000366,0.00
 000050,0.00000194,-0.00000391,0.00000054,-0.00000186,-0.00000360,0.,-0
 .00000190,-0.00000325,-0.00000048,0.00000314,-0.00000386,-0.00000036,0
 .00000306,-0.00000359,-0.00000009,0.00000159,-0.00000633,-0.00000005,0
 .00000232,0.00000530,0.,0.00000335,0.00000371,0.|||@


 THE GREAT THING ABOUT BEING IMPERFECT IS THE JOY IT BRINGS OTHERS.
   -- SIGN OUTSIDE LAKE AGASSIZ JR. HIGH SCHOOL, FARGO, N.D.
 Job cpu time:       0 days  0 hours 21 minutes 30.0 seconds.
 File lengths (MBytes):  RWF=    152 Int=      0 D2E=      0 Chk=      9 Scr=      1
 Normal termination of Gaussian 09 at Fri Mar 28 13:10:55 2025.
