 Entering Gaussian System, Link 0=g16
 Initial command:
 /opt/g16/l1.exe "/home/aayush/scratches/g16/Gau-6277.inp" -scrdir="/home/aayush/scratches/g16/"
 Entering Link 1 = /opt/g16/l1.exe PID=      6280.
  
 Copyright (c) 1988,1990,1992,1993,1995,1998,2003,2009,2016,
            Gaussian, Inc.  All Rights Reserved.
  
 This is part of the Gaussian(R) 16 program.  It is based on
 the Gaussian(R) 09 system (copyright 2009, Gaussian, Inc.),
 the Gaussian(R) 03 system (copyright 2003, Gaussian, Inc.),
 the Gaussian(R) 98 system (copyright 1998, Gaussian, Inc.),
 the Gaussian(R) 94 system (copyright 1995, Gaussian, Inc.),
 the Gaussian 92(TM) system (copyright 1992, Gaussian, Inc.),
 the Gaussian 90(TM) system (copyright 1990, Gaussian, Inc.),
 the Gaussian 88(TM) system (copyright 1988, Gaussian, Inc.),
 the Gaussian 86(TM) system (copyright 1986, Carnegie Mellon
 University), and the Gaussian 82(TM) system (copyright 1983,
 Carnegie Mellon University). Gaussian is a federally registered
 trademark of Gaussian, Inc.
  
 This software contains proprietary and confidential information,
 including trade secrets, belonging to Gaussian, Inc.
  
 This software is provided under written license and may be
 used, copied, transmitted, or stored only in accord with that
 written license.
  
 The following legend is applicable only to US Government
 contracts under FAR:
  
                    RESTRICTED RIGHTS LEGEND
  
 Use, reproduction and disclosure by the US Government is
 subject to restrictions as set forth in subparagraphs (a)
 and (c) of the Commercial Computer Software - Restricted
 Rights clause in FAR 52.227-19.
  
 Gaussian, Inc.
 340 Quinnipiac St., Bldg. 40, Wallingford CT 06492
  
  
 ---------------------------------------------------------------
 Warning -- This program may not be used in any manner that
 competes with the business of Gaussian, Inc. or will provide
 assistance to any competitor of Gaussian, Inc.  The licensee
 of this program is prohibited from giving any competitor of
 Gaussian, Inc. access to this program.  By using this program,
 the user acknowledges that Gaussian, Inc. is engaged in the
 business of creating and licensing software in the field of
 computational chemistry and represents and warrants to the
 licensee that it is not a competitor of Gaussian, Inc. and that
 it will not use this program in any manner prohibited above.
 ---------------------------------------------------------------
  

 Cite this work as:
 Gaussian 16, Revision A.03,
 M. J. Frisch, G. W. Trucks, H. B. Schlegel, G. E. Scuseria, 
 M. A. Robb, J. R. Cheeseman, G. Scalmani, V. Barone, 
 G. A. Petersson, H. Nakatsuji, X. Li, M. Caricato, A. V. Marenich, 
 J. Bloino, B. G. Janesko, R. Gomperts, B. Mennucci, H. P. Hratchian, 
 J. V. Ortiz, A. F. Izmaylov, J. L. Sonnenberg, D. Williams-Young, 
 F. Ding, F. Lipparini, F. Egidi, J. Goings, B. Peng, A. Petrone, 
 T. Henderson, D. Ranasinghe, V. G. Zakrzewski, J. Gao, N. Rega, 
 G. Zheng, W. Liang, M. Hada, M. Ehara, K. Toyota, R. Fukuda, 
 J. Hasegawa, M. Ishida, T. Nakajima, Y. Honda, O. Kitao, H. Nakai, 
 T. Vreven, K. Throssell, J. A. Montgomery, Jr., J. E. Peralta, 
 F. Ogliaro, M. J. Bearpark, J. J. Heyd, E. N. Brothers, K. N. Kudin, 
 V. N. Staroverov, T. A. Keith, R. Kobayashi, J. Normand, 
 K. Raghavachari, A. P. Rendell, J. C. Burant, S. S. Iyengar, 
 J. Tomasi, M. Cossi, J. M. Millam, M. Klene, C. Adamo, R. Cammi, 
 J. W. Ochterski, R. L. Martin, K. Morokuma, O. Farkas, 
 J. B. Foresman, and D. J. Fox, Gaussian, Inc., Wallingford CT, 2016.
 
 ******************************************
 Gaussian 16:  ES64L-G16RevA.03 25-Dec-2016
                24-Apr-2025 
 ******************************************
 %chk=ethyl_propiolate.chk
 %nprocshared=24
 Will use up to   24 processors via shared memory.
 %mem=12GB
 --------------------------
 # ccsd(t)/6-311++g(d,p) sp
 --------------------------
 1/38=1,172=1/1;
 2/12=2,17=6,18=5,40=1/2;
 3/5=4,6=6,7=1111,11=9,25=1,30=1/1,2,3;
 4//1;
 5/5=2,38=5/2;
 8/6=4,9=120000,10=2/1,4;
 9/5=7,14=2/13;
 6/7=2,8=2,9=2,10=2/1;
 99/5=1,9=1/99;
 -------------------
 Title Card Required
 -------------------
 Symbolic Z-matrix:
 Charge =  0 Multiplicity = 2
 C                     2.22808  -1.23821   0. 
 H                     3.09303  -1.86088   0.00001 
 C                     1.13375  -0.72863   0.00001 
 C                     0.00961   0.19269   0.00001 
 O                     0.1659    1.38562   0.00001 
 O                    -1.16209  -0.42845  0. 
 C                    -2.32354   0.42834  0. 
 C                    -3.53815  -0.46963  -0.00001 
 H                    -2.27984   1.06766   0.88389 
 H                    -2.27983   1.06766  -0.88389 
 H                    -3.54655  -1.10526  -0.88617 
 H                    -3.54655  -1.10526   0.88616 
 H                    -4.44357   0.13947  -0.00001 
 O                     3.50538   0.44572  -0.00001 
 H                     2.83167   1.14794  -0.00001 
 
                          Input orientation:                          
 ---------------------------------------------------------------------
 Center     Atomic      Atomic             Coordinates (Angstroms)
 Number     Number       Type             X           Y           Z
 ---------------------------------------------------------------------
      1          6           0        2.228078   -1.238212    0.000004
      2          1           0        3.093027   -1.860880    0.000005
      3          6           0        1.133749   -0.728631    0.000005
      4          6           0        0.009610    0.192688    0.000005
      5          8           0        0.165897    1.385621    0.000009
      6          8           0       -1.162093   -0.428452   -0.000001
      7          6           0       -2.323541    0.428339   -0.000002
      8          6           0       -3.538147   -0.469632   -0.000005
      9          1           0       -2.279836    1.067655    0.883887
     10          1           0       -2.279833    1.067657   -0.883890
     11          1           0       -3.546545   -1.105262   -0.886168
     12          1           0       -3.546548   -1.105263    0.886158
     13          1           0       -4.443571    0.139470   -0.000006
     14          8           0        3.505382    0.445720   -0.000012
     15          1           0        2.831667    1.147942   -0.000010
 ---------------------------------------------------------------------
                    Distance matrix (angstroms):
                    1          2          3          4          5
     1  C    0.000000
     2  H    1.065764   0.000000
     3  C    1.207157   2.262909   0.000000
     4  C    2.639901   3.704673   1.453450   0.000000
     5  O    3.337228   4.371254   2.325252   1.203127   0.000000
     6  O    3.485537   4.489755   2.315383   1.326161   2.248203
     7  C    4.847126   5.880453   3.645742   2.345021   2.667150
     8  C    5.817221   6.775547   4.679070   3.609051   4.142693
     9  H    5.139996   6.182655   3.957329   2.605452   2.619915
    10  H    5.139996   6.182655   3.957330   2.605454   2.619919
    11  H    5.843736   6.740933   4.778316   3.887958   4.557635
    12  H    5.843736   6.740933   4.778315   3.887956   4.557632
    13  H    6.812408   7.797545   5.644475   4.453499   4.774944
    14  O    2.113559   2.343169   2.646459   3.504918   3.469232
    15  H    2.461311   3.020152   2.530702   2.979348   2.676345
                    6          7          8          9         10
     6  O    0.000000
     7  C    1.443278   0.000000
     8  C    2.376411   1.510503   0.000000
     9  H    2.066142   1.091739   2.174365   0.000000
    10  H    2.066142   1.091740   2.174365   1.767777   0.000000
    11  H    2.632295   2.152431   1.090587   3.075584   2.515182
    12  H    2.632295   2.152431   1.090588   2.515181   3.075584
    13  H    3.330260   2.139620   1.091237   2.514864   2.514865
    14  O    4.748631   5.828949   7.102758   5.885306   5.885300
    15  H    4.293616   5.205190   6.571992   5.187984   5.187979
                   11         12         13         14         15
    11  H    0.000000
    12  H    1.772326   0.000000
    13  H    1.771806   1.771806   0.000000
    14  O    7.274647   7.274652   7.954850   0.000000
    15  H    6.822301   6.822306   7.344801   0.973143   0.000000
 Stoichiometry    C5H7O3(2)
 Framework group  C1[X(C5H7O3)]
 Deg. of freedom    39
 Full point group                 C1      NOp   1
 Largest Abelian subgroup         C1      NOp   1
 Largest concise Abelian subgroup C1      NOp   1
                         Standard orientation:                         
 ---------------------------------------------------------------------
 Center     Atomic      Atomic             Coordinates (Angstroms)
 Number     Number       Type             X           Y           Z
 ---------------------------------------------------------------------
      1          6           0       -2.307902   -1.238216   -0.000004
      2          1           0       -3.171441   -1.862838   -0.000005
      3          6           0       -1.214728   -0.726162   -0.000005
      4          6           0       -0.092675    0.197696   -0.000005
      5          8           0       -0.251658    1.390273   -0.000009
      6          8           0        1.080430   -0.420793    0.000001
      7          6           0        2.239938    0.438622    0.000002
      8          6           0        3.456571   -0.456601    0.000005
      9          1           0        2.194787    1.077837   -0.883887
     10          1           0        2.194784    1.077839    0.883890
     11          1           0        3.466406   -1.092211    0.886168
     12          1           0        3.466409   -1.092212   -0.886158
     13          1           0        4.360615    0.154546    0.000006
     14          8           0       -3.589010    0.442824    0.000012
     15          1           0       -2.916884    1.146568    0.000010
 ---------------------------------------------------------------------
 Rotational constants (GHZ):           6.3460432           0.8635989           0.7674435
 Standard basis: 6-311++G(d,p) (5D, 7F)
 There are   233 symmetry adapted cartesian basis functions of A   symmetry.
 There are   225 symmetry adapted basis functions of A   symmetry.
   225 basis functions,   351 primitive gaussians,   233 cartesian basis functions
    31 alpha electrons       30 beta electrons
       nuclear repulsion energy       344.0147736885 Hartrees.
 NAtoms=   15 NActive=   15 NUniq=   15 SFac= 1.00D+00 NAtFMM=   60 NAOKFM=F Big=F
 Integral buffers will be    131072 words long.
 Raffenetti 2 integral format.
 Two-electron integral symmetry is turned on.
 One-electron integrals computed using PRISM.
 NBasis=   225 RedAO= T EigKep=  1.95D-06  NBF=   225
 NBsUse=   225 1.00D-06 EigRej= -1.00D+00 NBFU=   225
 ExpMin= 3.60D-02 ExpMax= 8.59D+03 ExpMxC= 1.30D+03 IAcc=3 IRadAn=         5 AccDes= 0.00D+00
 Harris functional with IExCor=  205 and IRadAn=       5 diagonalized for initial guess.
 HarFok:  IExCor=  205 AccDes= 0.00D+00 IRadAn=         5 IDoV= 1 UseB2=F ITyADJ=14
 ICtDFT=  3500011 ScaDFX=  1.000000  1.000000  1.000000  1.000000
 FoFCou: FMM=F IPFlag=           0 FMFlag=      100000 FMFlg1=           0
         NFxFlg=           0 DoJE=T BraDBF=F KetDBF=T FulRan=T
         wScrn=  0.000000 ICntrl=       500 IOpCl=  0 I1Cent=   200000004 NGrid=           0
         NMat0=    1 NMatS0=      1 NMatT0=    0 NMatD0=    1 NMtDS0=    0 NMtDT0=    0
 Petite list used in FoFCou.
 Initial guess <Sx>= 0.0000 <Sy>= 0.0000 <Sz>= 0.5000 <S**2>= 0.7500 S= 0.5000
 Requested convergence on RMS density matrix=1.00D-08 within 128 cycles.
 Requested convergence on MAX density matrix=1.00D-06.
 Requested convergence on             energy=1.00D-06.
 No special actions if energy rises.
 Initial convergence to 1.0D-05 achieved.  Increase integral accuracy.
 SCF Done:  E(UHF) =  -417.989316289     A.U. after   34 cycles
            NFock= 34  Conv=0.58D-08     -V/T= 2.0006
 <Sx>= 0.0000 <Sy>= 0.0000 <Sz>= 0.5000 <S**2>= 0.9396 S= 0.5907
 <L.S>=  0.00000000000    
 Annihilation of the first spin contaminant:
 S**2 before annihilation     0.9396,   after     0.7730
 ExpMin= 3.60D-02 ExpMax= 8.59D+03 ExpMxC= 1.30D+03 IAcc=3 IRadAn=         5 AccDes= 0.00D+00
 HarFok:  IExCor=  205 AccDes= 0.00D+00 IRadAn=         5 IDoV=-2 UseB2=F ITyADJ=14
 ICtDFT= 12500011 ScaDFX=  1.000000  1.000000  1.000000  1.000000
 Range of M.O.s used for correlation:     9   225
 NBasis=   225 NAE=    31 NBE=    30 NFC=     8 NFV=     0
 NROrb=    217 NOA=    23 NOB=    22 NVA=   194 NVB=   195

 **** Warning!!: The largest alpha MO coefficient is  0.15344568D+03


 **** Warning!!: The largest beta MO coefficient is  0.18965607D+03

 Semi-Direct transformation.
 ModeAB=           4 MOrb=            23 LenV=    1609182856
 LASXX=    109339976 LTotXX=   109339976 LenRXX=   221407890
 LTotAB=   112067914 MaxLAS=   122893393 LenRXY=           0
 NonZer=   330747866 LenScr=   498067456 LnRSAI=   122893393
 LnScr1=   185114624 LExtra=           0 Total=   1027483363
 MaxDsk=          -1 SrtSym=           T ITran=            4
 JobTyp=1 Pass  1:  I=   1 to  23.
 (rs|ai) integrals will be sorted in core.
 ModeAB=           4 MOrb=            22 LenV=    1609182856
 LASXX=    104936601 LTotXX=   104936601 LenRXX=   190867446
 LTotAB=    85930845 MaxLAS=   117550202 LenRXY=           0
 NonZer=   295804047 LenScr=   445446144 LnRSAI=   117550202
 LnScr1=   177088512 LExtra=           0 Total=    930952304
 MaxDsk=          -1 SrtSym=           T ITran=            4
 JobTyp=2 Pass  1:  I=   1 to  22.
 (rs|ai) integrals will be sorted in core.
 SymMOI:  orbitals are not symmetric.
 Spin components of T(2) and E(2):
     alpha-alpha T2 =       0.5102917296D-01 E2=     -0.1678119247D+00
     alpha-beta  T2 =       0.2823198741D+00 E2=     -0.9292854442D+00
     beta-beta   T2 =       0.5036350814D-01 E2=     -0.1567819364D+00
 ANorm=    0.1176313120D+01
 E2 =    -0.1253879305D+01 EUMP2 =    -0.41924319559386D+03
 (S**2,0)=  0.93960D+00           (S**2,1)=  0.88707D+00
 E(PUHF)=      -0.41800488970D+03        E(PMP2)=      -0.41925675561D+03
 Keep R2 and R3 ints in memory in canonical form, NReq=652884060.
 CIDS: In Core Option IDoMem=           1.
 Iterations=  50 Convergence= 0.100D-06
 Produce multiple copies of IABC intergrals
 Iteration Nr.   1
 **********************
 DD1Dir will call FoFMem   1 times, MxPair=      1496
 NAB=   506 NAA=   253 NBB=   231.
 E(PMP3)=      -0.41928273335D+03
 MP4(R+Q)=  0.24632798D-01
 E3=       -0.29500812D-01        EUMP3=      -0.41927269641D+03
 E4(DQ)=   -0.56829901D-02        UMP4(DQ)=   -0.41927837940D+03
 E4(SDQ)=  -0.25921203D-01        UMP4(SDQ)=  -0.41929861761D+03
 DE(Corr)=  -1.2583825     E(Corr)=     -419.24769880    
 NORM(A)=   0.11849810D+01
 Iteration Nr.   2
 **********************
 DD1Dir will call FoFMem   1 times, MxPair=      1496
 NAB=   506 NAA=   253 NBB=   231.
 DE(Corr)=  -1.3012369     E(CORR)=     -419.29055315     Delta=-4.29D-02
 NORM(A)=   0.12056252D+01
 Iteration Nr.   3
 **********************
 DD1Dir will call FoFMem   1 times, MxPair=      1496
 NAB=   506 NAA=   253 NBB=   231.
 DE(Corr)=  -1.3040731     E(CORR)=     -419.29338938     Delta=-2.84D-03
 NORM(A)=   0.12166124D+01
 Iteration Nr.   4
 **********************
 DD1Dir will call FoFMem   1 times, MxPair=      1496
 NAB=   506 NAA=   253 NBB=   231.
 DE(Corr)=  -1.3108968     E(CORR)=     -419.30021312     Delta=-6.82D-03
 NORM(A)=   0.12235914D+01
 Iteration Nr.   5
 **********************
 DD1Dir will call FoFMem   1 times, MxPair=      1496
 NAB=   506 NAA=   253 NBB=   231.
 DE(Corr)=  -1.3127623     E(CORR)=     -419.30207861     Delta=-1.87D-03
 NORM(A)=   0.12271698D+01
 Iteration Nr.   6
 **********************
 DD1Dir will call FoFMem   1 times, MxPair=      1496
 NAB=   506 NAA=   253 NBB=   231.
 DE(Corr)=  -1.3133374     E(CORR)=     -419.30265364     Delta=-5.75D-04
 NORM(A)=   0.12277443D+01
 Iteration Nr.   7
 **********************
 DD1Dir will call FoFMem   1 times, MxPair=      1496
 NAB=   506 NAA=   253 NBB=   231.
 DE(Corr)=  -1.3134184     E(CORR)=     -419.30273468     Delta=-8.10D-05
 NORM(A)=   0.12278642D+01
 Iteration Nr.   8
 **********************
 DD1Dir will call FoFMem   1 times, MxPair=      1496
 NAB=   506 NAA=   253 NBB=   231.
 DE(Corr)=  -1.3134001     E(CORR)=     -419.30271643     Delta= 1.83D-05
 NORM(A)=   0.12278838D+01
 Iteration Nr.   9
 **********************
 DD1Dir will call FoFMem   1 times, MxPair=      1496
 NAB=   506 NAA=   253 NBB=   231.
 DE(Corr)=  -1.3134118     E(CORR)=     -419.30272804     Delta=-1.16D-05
 NORM(A)=   0.12278829D+01
 Iteration Nr.  10
 **********************
 DD1Dir will call FoFMem   1 times, MxPair=      1496
 NAB=   506 NAA=   253 NBB=   231.
 DE(Corr)=  -1.3134093     E(CORR)=     -419.30272560     Delta= 2.44D-06
 NORM(A)=   0.12278860D+01
 Iteration Nr.  11
 **********************
 DD1Dir will call FoFMem   1 times, MxPair=      1496
 NAB=   506 NAA=   253 NBB=   231.
 DE(Corr)=  -1.3134191     E(CORR)=     -419.30273535     Delta=-9.75D-06
 NORM(A)=   0.12278988D+01
 Iteration Nr.  12
 **********************
 DD1Dir will call FoFMem   1 times, MxPair=      1496
 NAB=   506 NAA=   253 NBB=   231.
 DE(Corr)=  -1.3134213     E(CORR)=     -419.30273756     Delta=-2.21D-06
 NORM(A)=   0.12279141D+01
 Iteration Nr.  13
 **********************
 DD1Dir will call FoFMem   1 times, MxPair=      1496
 NAB=   506 NAA=   253 NBB=   231.
 DE(Corr)=  -1.3134259     E(CORR)=     -419.30274216     Delta=-4.61D-06
 NORM(A)=   0.12279275D+01
 Iteration Nr.  14
 **********************
 DD1Dir will call FoFMem   1 times, MxPair=      1496
 NAB=   506 NAA=   253 NBB=   231.
 DE(Corr)=  -1.3134287     E(CORR)=     -419.30274496     Delta=-2.80D-06
 NORM(A)=   0.12279366D+01
 Iteration Nr.  15
 **********************
 DD1Dir will call FoFMem   1 times, MxPair=      1496
 NAB=   506 NAA=   253 NBB=   231.
 DE(Corr)=  -1.3134301     E(CORR)=     -419.30274641     Delta=-1.45D-06
 NORM(A)=   0.12279413D+01
 Iteration Nr.  16
 **********************
 DD1Dir will call FoFMem   1 times, MxPair=      1496
 NAB=   506 NAA=   253 NBB=   231.
 DE(Corr)=  -1.3134313     E(CORR)=     -419.30274754     Delta=-1.13D-06
 NORM(A)=   0.12279435D+01
 Iteration Nr.  17
 **********************
 DD1Dir will call FoFMem   1 times, MxPair=      1496
 NAB=   506 NAA=   253 NBB=   231.
 DE(Corr)=  -1.3134315     E(CORR)=     -419.30274777     Delta=-2.31D-07
 NORM(A)=   0.12279441D+01
 Iteration Nr.  18
 **********************
 DD1Dir will call FoFMem   1 times, MxPair=      1496
 NAB=   506 NAA=   253 NBB=   231.
 DE(Corr)=  -1.3134316     E(CORR)=     -419.30274793     Delta=-1.56D-07
 NORM(A)=   0.12279442D+01
 Iteration Nr.  19
 **********************
 DD1Dir will call FoFMem   1 times, MxPair=      1496
 NAB=   506 NAA=   253 NBB=   231.
 DE(Corr)=  -1.3134316     E(CORR)=     -419.30274793     Delta= 1.74D-09
 NORM(A)=   0.12279442D+01
 Wavefunction amplitudes converged. E(Corr)=     -419.30274793    
 Largest amplitude= 7.57D-02
 Time for triples=    37183.44 seconds.
 T4(CCSD)= -0.56807311D-01
 T5(CCSD)=  0.38339942D-02
 CCSD(T)= -0.41935572124D+03

 S**2, projected HF & approx projected MPn energies after annihilation of
 unwanted spin states (see manual for definitions):

 spins       (S**2,0) (S**2,1)    PUHF        PMP2        PMP3        PMP4
 annihilated
 s+1         0.73644  0.74483 -418.004890 -419.256756 -419.282733
 s+1,s+2     0.75018  0.74996 -418.003931 -419.255848 -419.281894
 s+1 to s+3  0.75000  0.75000 -418.003947 -419.255861 -419.281899
 s+1 to s+4  0.75000  0.75000 -418.003947 -419.255861 -419.281899
 s+1 to s+5  0.75000  0.75000 -418.003947
 s+1 to s+6  0.75000  0.75000 -418.003947

 Discarding MO integrals.

 **********************************************************************

            Population analysis using the SCF density.

 **********************************************************************

 Orbital symmetries:
 Alpha Orbitals:
       Occupied  (A) (A) (A) (A) (A) (A) (A) (A) (A) (A) (A) (A)
                 (A) (A) (A) (A) (A) (A) (A) (A) (A) (A) (A) (A)
                 (A) (A) (A) (A) (A) (A) (A)
       Virtual   (A) (A) (A) (A) (A) (A) (A) (A) (A) (A) (A) (A)
                 (A) (A) (A) (A) (A) (A) (A) (A) (A) (A) (A) (A)
                 (A) (A) (A) (A) (A) (A) (A) (A) (A) (A) (A) (A)
                 (A) (A) (A) (A) (A) (A) (A) (A) (A) (A) (A) (A)
                 (A) (A) (A) (A) (A) (A) (A) (A) (A) (A) (A) (A)
                 (A) (A) (A) (A) (A) (A) (A) (A) (A) (A) (A) (A)
                 (A) (A) (A) (A) (A) (A) (A) (A) (A) (A) (A) (A)
                 (A) (A) (A) (A) (A) (A) (A) (A) (A) (A) (A) (A)
                 (A) (A) (A) (A) (A) (A) (A) (A) (A) (A) (A) (A)
                 (A) (A) (A) (A) (A) (A) (A) (A) (A) (A) (A) (A)
                 (A) (A) (A) (A) (A) (A) (A) (A) (A) (A) (A) (A)
                 (A) (A) (A) (A) (A) (A) (A) (A) (A) (A) (A) (A)
                 (A) (A) (A) (A) (A) (A) (A) (A) (A) (A) (A) (A)
                 (A) (A) (A) (A) (A) (A) (A) (A) (A) (A) (A) (A)
                 (A) (A) (A) (A) (A) (A) (A) (A) (A) (A) (A) (A)
                 (A) (A) (A) (A) (A) (A) (A) (A) (A) (A) (A) (A)
                 (A) (A)
 Beta  Orbitals:
       Occupied  (A) (A) (A) (A) (A) (A) (A) (A) (A) (A) (A) (A)
                 (A) (A) (A) (A) (A) (A) (A) (A) (A) (A) (A) (A)
                 (A) (A) (A) (A) (A) (A)
       Virtual   (A) (A) (A) (A) (A) (A) (A) (A) (A) (A) (A) (A)
                 (A) (A) (A) (A) (A) (A) (A) (A) (A) (A) (A) (A)
                 (A) (A) (A) (A) (A) (A) (A) (A) (A) (A) (A) (A)
                 (A) (A) (A) (A) (A) (A) (A) (A) (A) (A) (A) (A)
                 (A) (A) (A) (A) (A) (A) (A) (A) (A) (A) (A) (A)
                 (A) (A) (A) (A) (A) (A) (A) (A) (A) (A) (A) (A)
                 (A) (A) (A) (A) (A) (A) (A) (A) (A) (A) (A) (A)
                 (A) (A) (A) (A) (A) (A) (A) (A) (A) (A) (A) (A)
                 (A) (A) (A) (A) (A) (A) (A) (A) (A) (A) (A) (A)
                 (A) (A) (A) (A) (A) (A) (A) (A) (A) (A) (A) (A)
                 (A) (A) (A) (A) (A) (A) (A) (A) (A) (A) (A) (A)
                 (A) (A) (A) (A) (A) (A) (A) (A) (A) (A) (A) (A)
                 (A) (A) (A) (A) (A) (A) (A) (A) (A) (A) (A) (A)
                 (A) (A) (A) (A) (A) (A) (A) (A) (A) (A) (A) (A)
                 (A) (A) (A) (A) (A) (A) (A) (A) (A) (A) (A) (A)
                 (A) (A) (A) (A) (A) (A) (A) (A) (A) (A) (A) (A)
                 (A) (A) (A)
 The electronic state is 2-A.
 Alpha  occ. eigenvalues --  -20.62291 -20.61582 -20.57187 -11.42096 -11.30445
 Alpha  occ. eigenvalues --  -11.26795 -11.26297 -11.23474  -1.49323  -1.39349
 Alpha  occ. eigenvalues --   -1.37234  -1.09202  -1.05010  -0.92120  -0.84028
 Alpha  occ. eigenvalues --   -0.78298  -0.73229  -0.70369  -0.70362  -0.65930
 Alpha  occ. eigenvalues --   -0.64347  -0.61179  -0.59752  -0.56499  -0.54596
 Alpha  occ. eigenvalues --   -0.53265  -0.52859  -0.50042  -0.48210  -0.43038
 Alpha  occ. eigenvalues --   -0.41880
 Alpha virt. eigenvalues --    0.03793   0.04693   0.05933   0.06233   0.07143
 Alpha virt. eigenvalues --    0.08158   0.08873   0.09496   0.11563   0.12274
 Alpha virt. eigenvalues --    0.12602   0.12934   0.14278   0.15570   0.16264
 Alpha virt. eigenvalues --    0.17711   0.18067   0.18315   0.18758   0.18979
 Alpha virt. eigenvalues --    0.19068   0.20593   0.21188   0.22109   0.22345
 Alpha virt. eigenvalues --    0.23703   0.25248   0.27974   0.28471   0.29024
 Alpha virt. eigenvalues --    0.29155   0.30048   0.30203   0.31403   0.32176
 Alpha virt. eigenvalues --    0.33692   0.34674   0.36196   0.36715   0.37424
 Alpha virt. eigenvalues --    0.38781   0.39167   0.40428   0.41051   0.41969
 Alpha virt. eigenvalues --    0.44020   0.45377   0.46236   0.46882   0.48482
 Alpha virt. eigenvalues --    0.50725   0.54695   0.56557   0.58838   0.63484
 Alpha virt. eigenvalues --    0.63830   0.64818   0.68361   0.70771   0.71062
 Alpha virt. eigenvalues --    0.76990   0.79031   0.79224   0.81987   0.83178
 Alpha virt. eigenvalues --    0.83336   0.84243   0.84999   0.85736   0.86626
 Alpha virt. eigenvalues --    0.87776   0.89235   0.91483   0.96333   0.98138
 Alpha virt. eigenvalues --    1.02514   1.06262   1.07836   1.11803   1.18271
 Alpha virt. eigenvalues --    1.21240   1.22782   1.24876   1.27011   1.30193
 Alpha virt. eigenvalues --    1.31981   1.34300   1.34967   1.37924   1.38739
 Alpha virt. eigenvalues --    1.41509   1.42672   1.47300   1.48717   1.49434
 Alpha virt. eigenvalues --    1.51714   1.53895   1.58490   1.63434   1.63539
 Alpha virt. eigenvalues --    1.67292   1.69816   1.71104   1.71253   1.75780
 Alpha virt. eigenvalues --    1.79640   1.80357   1.81274   1.84988   1.85585
 Alpha virt. eigenvalues --    1.88454   1.92026   1.92943   1.94637   1.99994
 Alpha virt. eigenvalues --    2.01545   2.06161   2.09343   2.10948   2.13203
 Alpha virt. eigenvalues --    2.18893   2.21659   2.28262   2.28897   2.31416
 Alpha virt. eigenvalues --    2.37694   2.40999   2.43170   2.47343   2.55575
 Alpha virt. eigenvalues --    2.64529   2.68964   2.74498   2.77352   2.81865
 Alpha virt. eigenvalues --    2.84956   2.87814   2.89221   2.91910   2.94507
 Alpha virt. eigenvalues --    2.94861   2.96464   2.98169   3.03093   3.03423
 Alpha virt. eigenvalues --    3.10969   3.14705   3.15093   3.17260   3.20083
 Alpha virt. eigenvalues --    3.26022   3.27074   3.30152   3.34641   3.36336
 Alpha virt. eigenvalues --    3.43038   3.43892   3.47313   3.48510   3.51350
 Alpha virt. eigenvalues --    3.57434   3.60638   3.65380   3.69030   3.74683
 Alpha virt. eigenvalues --    3.76897   3.89253   4.02451   4.11989   4.19299
 Alpha virt. eigenvalues --    4.21272   4.21475   4.24871   4.44990   4.51351
 Alpha virt. eigenvalues --    4.55200   4.68862   5.48846   5.54589   5.55822
 Alpha virt. eigenvalues --    5.60251   5.77428   5.90735   6.02593   6.21436
 Alpha virt. eigenvalues --    6.42538  24.70922  24.99291  25.02173  25.13729
 Alpha virt. eigenvalues --   26.19802  51.51123  51.59601  51.71828
  Beta  occ. eigenvalues --  -20.62275 -20.57637 -20.56792 -11.42389 -11.30441
  Beta  occ. eigenvalues --  -11.28245 -11.24598 -11.23474  -1.49114  -1.38673
  Beta  occ. eigenvalues --   -1.22706  -1.07700  -1.04963  -0.92673  -0.83949
  Beta  occ. eigenvalues --   -0.78151  -0.72991  -0.70255  -0.69820  -0.61963
  Beta  occ. eigenvalues --   -0.60605  -0.59442  -0.56400  -0.52801  -0.52787
  Beta  occ. eigenvalues --   -0.50166  -0.48857  -0.47366  -0.43680  -0.42594
  Beta virt. eigenvalues --    0.03795   0.04639   0.05699   0.06225   0.06900
  Beta virt. eigenvalues --    0.07242   0.08656   0.09478   0.10003   0.12251
  Beta virt. eigenvalues --    0.12414   0.12762   0.13289   0.14849   0.15246
  Beta virt. eigenvalues --    0.16211   0.17556   0.17948   0.18257   0.18701
  Beta virt. eigenvalues --    0.19041   0.19127   0.20505   0.21178   0.22265
  Beta virt. eigenvalues --    0.23499   0.24159   0.25886   0.27767   0.28509
  Beta virt. eigenvalues --    0.29044   0.29362   0.30670   0.30859   0.31861
  Beta virt. eigenvalues --    0.32261   0.34489   0.34785   0.36650   0.36993
  Beta virt. eigenvalues --    0.37848   0.39306   0.39956   0.40915   0.41294
  Beta virt. eigenvalues --    0.42599   0.44173   0.45656   0.46971   0.47458
  Beta virt. eigenvalues --    0.48625   0.51490   0.55154   0.56551   0.58992
  Beta virt. eigenvalues --    0.63555   0.63670   0.64854   0.68798   0.69617
  Beta virt. eigenvalues --    0.71195   0.77650   0.78182   0.78871   0.81688
  Beta virt. eigenvalues --    0.83539   0.83819   0.84704   0.85484   0.86249
  Beta virt. eigenvalues --    0.86672   0.87784   0.89694   0.92045   0.96611
  Beta virt. eigenvalues --    0.98381   1.02595   1.06783   1.07957   1.12430
  Beta virt. eigenvalues --    1.19152   1.21232   1.24722   1.25938   1.28092
  Beta virt. eigenvalues --    1.30284   1.33403   1.35926   1.36548   1.39026
  Beta virt. eigenvalues --    1.39981   1.41572   1.42945   1.48696   1.49014
  Beta virt. eigenvalues --    1.49704   1.52213   1.56670   1.57964   1.62716
  Beta virt. eigenvalues --    1.65019   1.66990   1.70929   1.71104   1.73444
  Beta virt. eigenvalues --    1.77006   1.79642   1.80317   1.81548   1.85013
  Beta virt. eigenvalues --    1.86287   1.88499   1.92135   1.93588   1.94656
  Beta virt. eigenvalues --    2.00004   2.01733   2.06702   2.09405   2.11110
  Beta virt. eigenvalues --    2.13283   2.18920   2.21959   2.28265   2.29091
  Beta virt. eigenvalues --    2.31517   2.39199   2.40990   2.43123   2.47351
  Beta virt. eigenvalues --    2.55579   2.64556   2.68935   2.75092   2.77353
  Beta virt. eigenvalues --    2.81886   2.84970   2.87817   2.88926   2.91944
  Beta virt. eigenvalues --    2.94472   2.94897   2.96496   2.98118   3.02859
  Beta virt. eigenvalues --    3.03747   3.12758   3.15362   3.20241   3.20597
  Beta virt. eigenvalues --    3.24665   3.27996   3.30133   3.31704   3.34979
  Beta virt. eigenvalues --    3.37571   3.44150   3.45913   3.48829   3.50450
  Beta virt. eigenvalues --    3.55614   3.60519   3.60625   3.65516   3.69110
  Beta virt. eigenvalues --    3.75144   3.77480   3.89072   4.02700   4.12430
  Beta virt. eigenvalues --    4.19304   4.21272   4.21488   4.28127   4.45085
  Beta virt. eigenvalues --    4.51435   4.55444   4.68882   5.51243   5.55913
  Beta virt. eigenvalues --    5.61183   5.66912   5.77922   5.90789   6.05121
  Beta virt. eigenvalues --    6.21580   6.42634  24.71126  24.99162  25.02072
  Beta virt. eigenvalues --   25.13729  26.19810  51.53384  51.59639  51.72036
          Condensed to atoms (all electrons):
               1          2          3          4          5          6
     1  C   24.342880   0.621020  -9.261358  -8.389349   0.352042   0.396671
     2  H    0.621020   0.407790  -0.253103   0.040483  -0.001134   0.001527
     3  C   -9.261358  -0.253103  18.651550  -5.069154   0.357031  -0.018446
     4  C   -8.389349   0.040483  -5.069154  20.506543  -0.327530  -0.692624
     5  O    0.352042  -0.001134   0.357031  -0.327530   8.162202  -0.111729
     6  O    0.396671   0.001527  -0.018446  -0.692624  -0.111729   8.503653
     7  C    0.256355   0.004601  -0.584487  -0.182201  -0.073303   0.284490
     8  C   -0.083100  -0.000018  -0.224943   0.411721   0.008984  -0.219928
     9  H    0.007302   0.000030  -0.011640  -0.018028  -0.013411  -0.032003
    10  H    0.007303   0.000030  -0.011640  -0.018028  -0.013411  -0.032003
    11  H   -0.001617   0.000002   0.009263  -0.006619  -0.001134  -0.008830
    12  H   -0.001617   0.000002   0.009263  -0.006619  -0.001134  -0.008830
    13  H    0.001236  -0.000008   0.004517  -0.003950   0.001221   0.023629
    14  O    0.072751  -0.019582  -0.120078  -0.047537  -0.000373  -0.003570
    15  H   -0.020740   0.001138  -0.031945   0.052648   0.006323  -0.000989
               7          8          9         10         11         12
     1  C    0.256355  -0.083100   0.007302   0.007303  -0.001617  -0.001617
     2  H    0.004601  -0.000018   0.000030   0.000030   0.000002   0.000002
     3  C   -0.584487  -0.224943  -0.011640  -0.011640   0.009263   0.009263
     4  C   -0.182201   0.411721  -0.018028  -0.018028  -0.006619  -0.006619
     5  O   -0.073303   0.008984  -0.013411  -0.013411  -0.001134  -0.001134
     6  O    0.284490  -0.219928  -0.032003  -0.032003  -0.008830  -0.008830
     7  C    5.482233   0.017345   0.453510   0.453510  -0.028428  -0.028428
     8  C    0.017345   5.619737  -0.055825  -0.055825   0.397562   0.397562
     9  H    0.453510  -0.055825   0.543752  -0.048770   0.004274  -0.007051
    10  H    0.453510  -0.055825  -0.048770   0.543752  -0.007051   0.004274
    11  H   -0.028428   0.397562   0.004274  -0.007051   0.561999  -0.041136
    12  H   -0.028428   0.397562  -0.007051   0.004274  -0.041136   0.561999
    13  H   -0.060057   0.419228  -0.003623  -0.003623  -0.032681  -0.032681
    14  O   -0.000894   0.000054  -0.000034  -0.000034  -0.000005  -0.000005
    15  H    0.000035   0.000662  -0.000037  -0.000037  -0.000037  -0.000037
              13         14         15
     1  C    0.001236   0.072751  -0.020740
     2  H   -0.000008  -0.019582   0.001138
     3  C    0.004517  -0.120078  -0.031945
     4  C   -0.003950  -0.047537   0.052648
     5  O    0.001221  -0.000373   0.006323
     6  O    0.023629  -0.003570  -0.000989
     7  C   -0.060057  -0.000894   0.000035
     8  C    0.419228   0.000054   0.000662
     9  H   -0.003623  -0.000034  -0.000037
    10  H   -0.003623  -0.000034  -0.000037
    11  H   -0.032681  -0.000005  -0.000037
    12  H   -0.032681  -0.000005  -0.000037
    13  H    0.543586  -0.000011  -0.000003
    14  O   -0.000011   8.065246   0.293057
    15  H   -0.000003   0.293057   0.425869
          Atomic-Atomic Spin Densities.
               1          2          3          4          5          6
     1  C   -0.425272   0.066093  -0.200393  -0.321667   0.014489   0.030104
     2  H    0.066093   0.052748  -0.049884  -0.010730  -0.000187   0.000181
     3  C   -0.200393  -0.049884   1.031707   0.199129  -0.012886  -0.065673
     4  C   -0.321667  -0.010730   0.199129   0.048975  -0.042101   0.057864
     5  O    0.014489  -0.000187  -0.012886  -0.042101   0.111920   0.000254
     6  O    0.030104   0.000181  -0.065673   0.057864   0.000254  -0.020942
     7  C    0.062150   0.000466  -0.019640  -0.057579  -0.001130   0.000656
     8  C   -0.004412  -0.000047   0.001256   0.010477   0.000125  -0.000023
     9  H   -0.001872  -0.000007  -0.001294   0.002578  -0.000061  -0.000265
    10  H   -0.001872  -0.000007  -0.001294   0.002578  -0.000061  -0.000265
    11  H   -0.000216  -0.000001  -0.000252   0.000552  -0.000015  -0.000045
    12  H   -0.000216  -0.000001  -0.000252   0.000552  -0.000015  -0.000045
    13  H    0.001028   0.000007  -0.000103  -0.001311   0.000000  -0.000078
    14  O    0.106585   0.005679  -0.112140  -0.031767   0.003184  -0.000418
    15  H   -0.018112  -0.000821   0.011316   0.007796  -0.000509  -0.000092
               7          8          9         10         11         12
     1  C    0.062150  -0.004412  -0.001872  -0.001872  -0.000216  -0.000216
     2  H    0.000466  -0.000047  -0.000007  -0.000007  -0.000001  -0.000001
     3  C   -0.019640   0.001256  -0.001294  -0.001294  -0.000252  -0.000252
     4  C   -0.057579   0.010477   0.002578   0.002578   0.000552   0.000552
     5  O   -0.001130   0.000125  -0.000061  -0.000061  -0.000015  -0.000015
     6  O    0.000656  -0.000023  -0.000265  -0.000265  -0.000045  -0.000045
     7  C    0.023752  -0.010877   0.000826   0.000826  -0.000213  -0.000213
     8  C   -0.010877   0.005611   0.000097   0.000097   0.000022   0.000022
     9  H    0.000826   0.000097  -0.000251   0.000174   0.000017  -0.000006
    10  H    0.000826   0.000097   0.000174  -0.000251  -0.000006   0.000017
    11  H   -0.000213   0.000022   0.000017  -0.000006   0.000108   0.000021
    12  H   -0.000213   0.000022  -0.000006   0.000017   0.000021   0.000108
    13  H    0.001020  -0.001004   0.000148   0.000148   0.000050   0.000050
    14  O    0.000923  -0.000061  -0.000021  -0.000021  -0.000002  -0.000002
    15  H   -0.000855   0.000109   0.000001   0.000001   0.000002   0.000002
              13         14         15
     1  C    0.001028   0.106585  -0.018112
     2  H    0.000007   0.005679  -0.000821
     3  C   -0.000103  -0.112140   0.011316
     4  C   -0.001311  -0.031767   0.007796
     5  O    0.000000   0.003184  -0.000509
     6  O   -0.000078  -0.000418  -0.000092
     7  C    0.001020   0.000923  -0.000855
     8  C   -0.001004  -0.000061   0.000109
     9  H    0.000148  -0.000021   0.000001
    10  H    0.000148  -0.000021   0.000001
    11  H    0.000050  -0.000002   0.000002
    12  H    0.000050  -0.000002   0.000002
    13  H    0.000064   0.000001  -0.000004
    14  O    0.000001   0.967026   0.005020
    15  H   -0.000004   0.005020  -0.038616
 Mulliken charges and spin densities:
               1          2
     1  C   -2.299780  -0.693581
     2  H    0.197221   0.063487
     3  C    2.555167   0.779596
     4  C   -0.249756  -0.134654
     5  O   -0.344645   0.073008
     6  O   -0.081017   0.001215
     7  C    0.005717   0.000114
     8  C   -0.633216   0.001395
     9  H    0.181555   0.000067
    10  H    0.181555   0.000067
    11  H    0.154438   0.000024
    12  H    0.154438   0.000024
    13  H    0.143218   0.000015
    14  O   -0.238987   0.943985
    15  H    0.274094  -0.034762
 Sum of Mulliken charges =  -0.00000   1.00000
 Mulliken charges and spin densities with hydrogens summed into heavy atoms:
               1          2
     1  C   -2.102560  -0.630094
     3  C    2.555167   0.779596
     4  C   -0.249756  -0.134654
     5  O   -0.344645   0.073008
     6  O   -0.081017   0.001215
     7  C    0.368827   0.000248
     8  C   -0.181123   0.001459
    14  O    0.035106   0.909223
 Electronic spatial extent (au):  <R**2>=           1435.4838
 Charge=             -0.0000 electrons
 Dipole moment (field-independent basis, Debye):
    X=              2.4591    Y=             -0.8798    Z=              0.0000  Tot=              2.6117
 Quadrupole moment (field-independent basis, Debye-Ang):
   XX=            -43.8996   YY=            -48.1218   ZZ=            -47.6527
   XY=              4.5992   XZ=              0.0000   YZ=              0.0001
 Traceless Quadrupole moment (field-independent basis, Debye-Ang):
   XX=              2.6584   YY=             -1.5638   ZZ=             -1.0946
   XY=              4.5992   XZ=              0.0000   YZ=              0.0001
 Octapole moment (field-independent basis, Debye-Ang**2):
  XXX=             33.8434  YYY=              1.0291  ZZZ=              0.0000  XYY=            -16.1367
  XXY=             -5.3413  XXZ=             -0.0001  XZZ=              3.7792  YZZ=              3.4972
  YYZ=              0.0001  XYZ=             -0.0001
 Hexadecapole moment (field-independent basis, Debye-Ang**3):
 XXXX=          -1599.0551 YYYY=           -243.2669 ZZZZ=            -59.8490 XXXY=             47.4272
 XXXZ=              0.0006 YYYX=              0.3793 YYYZ=              0.0001 ZZZX=              0.0000
 ZZZY=             -0.0000 XXYY=           -237.1544 XXZZ=           -279.0451 YYZZ=            -50.2259
 XXYZ=              0.0002 YYXZ=             -0.0001 ZZXY=             -4.9035
 N-N= 3.440147736885D+02 E-N=-1.670912729406D+03  KE= 4.177424791908D+02
 1\1\GINC-AJ\SP\UCCSD(T)-FC\6-311++G(d,p)\C5H7O3(2)\AAYUSH\24-Apr-2025\
 0\\# ccsd(t)/6-311++g(d,p) sp\\Title Card Required\\0,2\C,0,2.228078,-
 1.238212,0.000004\H,0,3.093027,-1.86088,0.000005\C,0,1.133749,-0.72863
 1,0.000005\C,0,0.00961,0.192688,0.000005\O,0,0.165897,1.385621,0.00000
 9\O,0,-1.162093,-0.428452,-0.000001\C,0,-2.323541,0.428339,-0.000002\C
 ,0,-3.538147,-0.469632,-0.000005\H,0,-2.279836,1.067655,0.883887\H,0,-
 2.279833,1.067657,-0.88389\H,0,-3.546545,-1.105262,-0.886168\H,0,-3.54
 6548,-1.105263,0.886158\H,0,-4.443571,0.13947,-0.000006\O,0,3.505382,0
 .44572,-0.000012\H,0,2.831667,1.147942,-0.00001\\Version=ES64L-G16RevA
 .03\State=2-A\HF=-417.9893163\MP2=-419.2431956\MP3=-419.2726964\MP4D=-
 419.3030122\MP4DQ=-419.2783794\PUHF=-418.0048897\PMP2-0=-419.2567556\P
 MP3-0=-419.2827333\MP4SDQ=-419.2986176\CCSD=-419.3027479\CCSD(T)=-419.
 3557212\S2=0.939602\S2-1=0.88707\S2A=0.772994\RMSD=5.794e-09\PG=C01 [X
 (C5H7O3)]\\@


 NOTHING RESEMBLES A NEW PHENOMENON AS MUCH AS A MISTAKE.

                               -- ENRICO FERMI (?)
 Job cpu time:       0 days 17 hours 28 minutes 20.4 seconds.
 Elapsed time:       0 days  0 hours 43 minutes 57.7 seconds.
 File lengths (MBytes):  RWF=  44733 Int=      0 D2E=      0 Chk=      7 Scr=      1
 Normal termination of Gaussian 16 at Thu Apr 24 02:26:40 2025.
