 Entering Gaussian System, Link 0=g16
 Initial command:
 /opt/g16/l1.exe "/home/aayush/scratches/g16/Gau-9133.inp" -scrdir="/home/aayush/scratches/g16/"
 Entering Link 1 = /opt/g16/l1.exe PID=      9138.
  
 Copyright (c) 1988,1990,1992,1993,1995,1998,2003,2009,2016,
            Gaussian, Inc.  All Rights Reserved.
  
 This is part of the Gaussian(R) 16 program.  It is based on
 the Gaussian(R) 09 system (copyright 2009, Gaussian, Inc.),
 the Gaussian(R) 03 system (copyright 2003, Gaussian, Inc.),
 the Gaussian(R) 98 system (copyright 1998, Gaussian, Inc.),
 the Gaussian(R) 94 system (copyright 1995, Gaussian, Inc.),
 the Gaussian 92(TM) system (copyright 1992, Gaussian, Inc.),
 the Gaussian 90(TM) system (copyright 1990, Gaussian, Inc.),
 the Gaussian 88(TM) system (copyright 1988, Gaussian, Inc.),
 the Gaussian 86(TM) system (copyright 1986, Carnegie Mellon
 University), and the Gaussian 82(TM) system (copyright 1983,
 Carnegie Mellon University). Gaussian is a federally registered
 trademark of Gaussian, Inc.
  
 This software contains proprietary and confidential information,
 including trade secrets, belonging to Gaussian, Inc.
  
 This software is provided under written license and may be
 used, copied, transmitted, or stored only in accord with that
 written license.
  
 The following legend is applicable only to US Government
 contracts under FAR:
  
                    RESTRICTED RIGHTS LEGEND
  
 Use, reproduction and disclosure by the US Government is
 subject to restrictions as set forth in subparagraphs (a)
 and (c) of the Commercial Computer Software - Restricted
 Rights clause in FAR 52.227-19.
  
 Gaussian, Inc.
 340 Quinnipiac St., Bldg. 40, Wallingford CT 06492
  
  
 ---------------------------------------------------------------
 Warning -- This program may not be used in any manner that
 competes with the business of Gaussian, Inc. or will provide
 assistance to any competitor of Gaussian, Inc.  The licensee
 of this program is prohibited from giving any competitor of
 Gaussian, Inc. access to this program.  By using this program,
 the user acknowledges that Gaussian, Inc. is engaged in the
 business of creating and licensing software in the field of
 computational chemistry and represents and warrants to the
 licensee that it is not a competitor of Gaussian, Inc. and that
 it will not use this program in any manner prohibited above.
 ---------------------------------------------------------------
  

 Cite this work as:
 Gaussian 16, Revision A.03,
 M. J. Frisch, G. W. Trucks, H. B. Schlegel, G. E. Scuseria, 
 M. A. Robb, J. R. Cheeseman, G. Scalmani, V. Barone, 
 G. A. Petersson, H. Nakatsuji, X. Li, M. Caricato, A. V. Marenich, 
 J. Bloino, B. G. Janesko, R. Gomperts, B. Mennucci, H. P. Hratchian, 
 J. V. Ortiz, A. F. Izmaylov, J. L. Sonnenberg, D. Williams-Young, 
 F. Ding, F. Lipparini, F. Egidi, J. Goings, B. Peng, A. Petrone, 
 T. Henderson, D. Ranasinghe, V. G. Zakrzewski, J. Gao, N. Rega, 
 G. Zheng, W. Liang, M. Hada, M. Ehara, K. Toyota, R. Fukuda, 
 J. Hasegawa, M. Ishida, T. Nakajima, Y. Honda, O. Kitao, H. Nakai, 
 T. Vreven, K. Throssell, J. A. Montgomery, Jr., J. E. Peralta, 
 F. Ogliaro, M. J. Bearpark, J. J. Heyd, E. N. Brothers, K. N. Kudin, 
 V. N. Staroverov, T. A. Keith, R. Kobayashi, J. Normand, 
 K. Raghavachari, A. P. Rendell, J. C. Burant, S. S. Iyengar, 
 J. Tomasi, M. Cossi, J. M. Millam, M. Klene, C. Adamo, R. Cammi, 
 J. W. Ochterski, R. L. Martin, K. Morokuma, O. Farkas, 
 J. B. Foresman, and D. J. Fox, Gaussian, Inc., Wallingford CT, 2016.
 
 ******************************************
 Gaussian 16:  ES64L-G16RevA.03 25-Dec-2016
                22-Apr-2025 
 ******************************************
 %chk=ethyl_propiolate.chk
 %nprocshared=24
 Will use up to   24 processors via shared memory.
 %mem=12GB
 --------------------------
 # ccsd(t)/6-311++g(d,p) sp
 --------------------------
 1/38=1,172=1/1;
 2/12=2,17=6,18=5,40=1/2;
 3/5=4,6=6,7=1111,11=9,25=1,30=1/1,2,3;
 4//1;
 5/5=2,38=5/2;
 8/6=4,9=120000,10=2/1,4;
 9/5=7,14=2/13;
 6/7=2,8=2,9=2,10=2/1;
 99/5=1,9=1/99;
 -------------------
 Title Card Required
 -------------------
 Symbolic Z-matrix:
 Charge =  0 Multiplicity = 2
 C                     2.53983   0.05893   0. 
 H                     3.61074   0.14976   0. 
 C                     1.43793   0.65499  0. 
 C                     0.01425   0.95185  -0.00001 
 O                    -0.44039   2.06058  -0.00001 
 O                    -0.70317  -0.17523   0. 
 C                    -2.13706  -0.0006   0. 
 C                    -2.75488  -1.37846   0.00001 
 H                    -2.41161   0.5782    0.88389 
 H                    -2.41161   0.57819  -0.8839 
 H                    -2.45308  -1.93729  -0.88674 
 H                    -2.45308  -1.93728   0.88675 
 H                    -3.84252  -1.29048   0.00001 
 O                     2.35846  -1.74101   0.00001 
 H                     1.39531  -1.84549   0.00001 
 
                          Input orientation:                          
 ---------------------------------------------------------------------
 Center     Atomic      Atomic             Coordinates (Angstroms)
 Number     Number       Type             X           Y           Z
 ---------------------------------------------------------------------
      1          6           0        2.539826    0.058925    0.000001
      2          1           0        3.610736    0.149759    0.000001
      3          6           0        1.437925    0.654991   -0.000003
      4          6           0        0.014245    0.951848   -0.000005
      5          8           0       -0.440385    2.060584   -0.000010
      6          8           0       -0.703170   -0.175226    0.000000
      7          6           0       -2.137058   -0.000597   -0.000001
      8          6           0       -2.754881   -1.378464    0.000005
      9          1           0       -2.411605    0.578202    0.883888
     10          1           0       -2.411605    0.578194   -0.883895
     11          1           0       -2.453079   -1.937290   -0.886738
     12          1           0       -2.453079   -1.937283    0.886753
     13          1           0       -3.842515   -1.290477    0.000005
     14          8           0        2.358455   -1.741012    0.000010
     15          1           0        1.395307   -1.845488    0.000010
 ---------------------------------------------------------------------
                    Distance matrix (angstroms):
                    1          2          3          4          5
     1  C    0.000000
     2  H    1.074755   0.000000
     3  C    1.252789   2.230777   0.000000
     4  C    2.678782   3.684847   1.454300   0.000000
     5  O    3.590027   4.479155   2.346005   1.198325   0.000000
     6  O    3.251438   4.326130   2.296421   1.336031   2.251200
     7  C    4.677263   5.749760   3.634598   2.352712   2.669675
     8  C    5.486348   6.546491   4.659889   3.619173   4.145352
     9  H    5.056439   6.101919   3.950448   2.608760   2.620008
    10  H    5.056440   6.101919   3.950449   2.608760   2.620008
    11  H    5.449796   6.473943   4.758795   3.901423   4.562918
    12  H    5.449796   6.473942   4.758795   3.901424   4.562919
    13  H    6.523432   7.591128   5.627423   4.461235   4.775364
    14  O    1.809052   2.267867   2.566750   3.570268   4.720767
    15  H    2.221871   2.981465   2.500842   3.119683   4.315920
                    6          7          8          9         10
     6  O    0.000000
     7  C    1.444483   0.000000
     8  C    2.378508   1.510041   0.000000
     9  H    2.065832   1.091625   2.174311   0.000000
    10  H    2.065832   1.091624   2.174311   1.767783   0.000000
    11  H    2.636922   2.153358   1.090726   3.076449   2.515827
    12  H    2.636922   2.153359   1.090727   2.515829   3.076449
    13  H    3.331557   2.138311   1.091187   2.514103   2.514103
    14  O    3.438784   4.820652   5.126173   5.377124   5.377125
    15  H    2.682048   3.985126   4.176383   4.598706   4.598706
                   11         12         13         14         15
    11  H    0.000000
    12  H    1.773491   0.000000
    13  H    1.770653   1.770653   0.000000
    14  O    4.896499   4.896498   6.217315   0.000000
    15  H    3.950294   3.950293   5.267145   0.968798   0.000000
 Stoichiometry    C5H7O3(2)
 Framework group  C1[X(C5H7O3)]
 Deg. of freedom    39
 Full point group                 C1      NOp   1
 Largest Abelian subgroup         C1      NOp   1
 Largest concise Abelian subgroup C1      NOp   1
                         Standard orientation:                         
 ---------------------------------------------------------------------
 Center     Atomic      Atomic             Coordinates (Angstroms)
 Number     Number       Type             X           Y           Z
 ---------------------------------------------------------------------
      1          6           0        2.609234    0.110223    0.000001
      2          1           0        3.679971    0.203074    0.000001
      3          6           0        1.506213    0.704213   -0.000003
      4          6           0        0.081976    0.998388   -0.000005
      5          8           0       -0.374741    2.106265   -0.000010
      6          8           0       -0.633315   -0.130035   -0.000000
      7          6           0       -2.067529    0.041893   -0.000001
      8          6           0       -2.682756   -1.337136    0.000005
      9          1           0       -2.343166    0.620173    0.883888
     10          1           0       -2.343166    0.620165   -0.883895
     11          1           0       -2.379902   -1.895392   -0.886738
     12          1           0       -2.379902   -1.895385    0.886753
     13          1           0       -3.770554   -1.251197    0.000005
     14          8           0        2.431254   -1.690052    0.000010
     15          1           0        1.468304   -1.796342    0.000010
 ---------------------------------------------------------------------
 Rotational constants (GHZ):           2.9402340           1.2463955           0.8850198
 Standard basis: 6-311++G(d,p) (5D, 7F)
 There are   233 symmetry adapted cartesian basis functions of A   symmetry.
 There are   225 symmetry adapted basis functions of A   symmetry.
   225 basis functions,   351 primitive gaussians,   233 cartesian basis functions
    31 alpha electrons       30 beta electrons
       nuclear repulsion energy       349.9626018853 Hartrees.
 NAtoms=   15 NActive=   15 NUniq=   15 SFac= 1.00D+00 NAtFMM=   60 NAOKFM=F Big=F
 Integral buffers will be    131072 words long.
 Raffenetti 2 integral format.
 Two-electron integral symmetry is turned on.
 One-electron integrals computed using PRISM.
 NBasis=   225 RedAO= T EigKep=  1.92D-06  NBF=   225
 NBsUse=   225 1.00D-06 EigRej= -1.00D+00 NBFU=   225
 ExpMin= 3.60D-02 ExpMax= 8.59D+03 ExpMxC= 1.30D+03 IAcc=3 IRadAn=         5 AccDes= 0.00D+00
 Harris functional with IExCor=  205 and IRadAn=       5 diagonalized for initial guess.
 HarFok:  IExCor=  205 AccDes= 0.00D+00 IRadAn=         5 IDoV= 1 UseB2=F ITyADJ=14
 ICtDFT=  3500011 ScaDFX=  1.000000  1.000000  1.000000  1.000000
 FoFCou: FMM=F IPFlag=           0 FMFlag=      100000 FMFlg1=           0
         NFxFlg=           0 DoJE=T BraDBF=F KetDBF=T FulRan=T
         wScrn=  0.000000 ICntrl=       500 IOpCl=  0 I1Cent=   200000004 NGrid=           0
         NMat0=    1 NMatS0=      1 NMatT0=    0 NMatD0=    1 NMtDS0=    0 NMtDT0=    0
 Petite list used in FoFCou.
 Initial guess <Sx>= 0.0000 <Sy>= 0.0000 <Sz>= 0.5000 <S**2>= 0.7500 S= 0.5000
 Requested convergence on RMS density matrix=1.00D-08 within 128 cycles.
 Requested convergence on MAX density matrix=1.00D-06.
 Requested convergence on             energy=1.00D-06.
 No special actions if energy rises.
 Initial convergence to 1.0D-05 achieved.  Increase integral accuracy.
 SCF Done:  E(UHF) =  -417.985213629     A.U. after   30 cycles
            NFock= 30  Conv=0.71D-08     -V/T= 2.0009
 <Sx>= 0.0000 <Sy>= 0.0000 <Sz>= 0.5000 <S**2>= 1.1385 S= 0.6783
 <L.S>=  0.00000000000    
 Annihilation of the first spin contaminant:
 S**2 before annihilation     1.1385,   after     0.8601
 ExpMin= 3.60D-02 ExpMax= 8.59D+03 ExpMxC= 1.30D+03 IAcc=3 IRadAn=         5 AccDes= 0.00D+00
 HarFok:  IExCor=  205 AccDes= 0.00D+00 IRadAn=         5 IDoV=-2 UseB2=F ITyADJ=14
 ICtDFT= 12500011 ScaDFX=  1.000000  1.000000  1.000000  1.000000
 Range of M.O.s used for correlation:     9   225
 NBasis=   225 NAE=    31 NBE=    30 NFC=     8 NFV=     0
 NROrb=    217 NOA=    23 NOB=    22 NVA=   194 NVB=   195

 **** Warning!!: The largest alpha MO coefficient is  0.19942266D+03


 **** Warning!!: The largest beta MO coefficient is  0.18754243D+03

 Semi-Direct transformation.
 ModeAB=           4 MOrb=            23 LenV=    1609178827
 LASXX=    109339976 LTotXX=   109339976 LenRXX=   221407890
 LTotAB=   112067914 MaxLAS=   125503686 LenRXY=           0
 NonZer=   330747866 LenScr=   498067456 LnRSAI=   125503686
 LnScr1=   189036544 LExtra=           0 Total=   1034015576
 MaxDsk=          -1 SrtSym=           T ITran=            4
 JobTyp=1 Pass  1:  I=   1 to  23.
 (rs|ai) integrals will be sorted in core.
 ModeAB=           4 MOrb=            22 LenV=    1609178827
 LASXX=    104936601 LTotXX=   104936601 LenRXX=   190867446
 LTotAB=    85930845 MaxLAS=   120047004 LenRXY=           0
 NonZer=   295804047 LenScr=   445446144 LnRSAI=   120047004
 LnScr1=   180837888 LExtra=           0 Total=    937198482
 MaxDsk=          -1 SrtSym=           T ITran=            4
 JobTyp=2 Pass  1:  I=   1 to  22.
 (rs|ai) integrals will be sorted in core.
 SymMOI:  orbitals are not symmetric.
 Spin components of T(2) and E(2):
     alpha-alpha T2 =       0.5054465769D-01 E2=     -0.1678629589D+00
     alpha-beta  T2 =       0.2782491992D+00 E2=     -0.9257969731D+00
     beta-beta   T2 =       0.5107465649D-01 E2=     -0.1602311980D+00
 ANorm=    0.1174678047D+01
 E2 =    -0.1253891130D+01 EUMP2 =    -0.41923910475936D+03
 (S**2,0)=  0.11385D+01           (S**2,1)=  0.10343D+01
 E(PUHF)=      -0.41801750498D+03        E(PMP2)=      -0.41926768771D+03
 Keep R2 and R3 ints in memory in canonical form, NReq=652884060.
 CIDS: In Core Option IDoMem=           1.
 Iterations=  50 Convergence= 0.100D-06
 Produce multiple copies of IABC intergrals
 Iteration Nr.   1
 **********************
 DD1Dir will call FoFMem   1 times, MxPair=      1496
 NAB=   506 NAA=   253 NBB=   231.
 E(PMP3)=      -0.41929204035D+03
 MP4(R+Q)=  0.24145507D-01
 E3=       -0.30510218D-01        EUMP3=      -0.41926961498D+03
 E4(DQ)=   -0.64332843D-02        UMP4(DQ)=   -0.41927604826D+03
 E4(SDQ)=  -0.29284820D-01        UMP4(SDQ)=  -0.41929889980D+03
 DE(Corr)=  -1.2601499     E(Corr)=     -419.24536351    
 NORM(A)=   0.11862094D+01
 Iteration Nr.   2
 **********************
 DD1Dir will call FoFMem   1 times, MxPair=      1496
 NAB=   506 NAA=   253 NBB=   231.
 DE(Corr)=  -1.3051960     E(CORR)=     -419.29040966     Delta=-4.50D-02
 NORM(A)=   0.12106357D+01
 Iteration Nr.   3
 **********************
 DD1Dir will call FoFMem   1 times, MxPair=      1496
 NAB=   506 NAA=   253 NBB=   231.
 DE(Corr)=  -1.3098294     E(CORR)=     -419.29504303     Delta=-4.63D-03
 NORM(A)=   0.12279157D+01
 Iteration Nr.   4
 **********************
 DD1Dir will call FoFMem   1 times, MxPair=      1496
 NAB=   506 NAA=   253 NBB=   231.
 DE(Corr)=  -1.3193719     E(CORR)=     -419.30458554     Delta=-9.54D-03
 NORM(A)=   0.12398270D+01
 Iteration Nr.   5
 **********************
 DD1Dir will call FoFMem   1 times, MxPair=      1496
 NAB=   506 NAA=   253 NBB=   231.
 DE(Corr)=  -1.3224865     E(CORR)=     -419.30770010     Delta=-3.11D-03
 NORM(A)=   0.12451581D+01
 Iteration Nr.   6
 **********************
 DD1Dir will call FoFMem   1 times, MxPair=      1496
 NAB=   506 NAA=   253 NBB=   231.
 DE(Corr)=  -1.3233675     E(CORR)=     -419.30858114     Delta=-8.81D-04
 NORM(A)=   0.12459373D+01
 Iteration Nr.   7
 **********************
 DD1Dir will call FoFMem   1 times, MxPair=      1496
 NAB=   506 NAA=   253 NBB=   231.
 DE(Corr)=  -1.3234834     E(CORR)=     -419.30869707     Delta=-1.16D-04
 NORM(A)=   0.12461820D+01
 Iteration Nr.   8
 **********************
 DD1Dir will call FoFMem   1 times, MxPair=      1496
 NAB=   506 NAA=   253 NBB=   231.
 DE(Corr)=  -1.3234682     E(CORR)=     -419.30868185     Delta= 1.52D-05
 NORM(A)=   0.12462479D+01
 Iteration Nr.   9
 **********************
 DD1Dir will call FoFMem   1 times, MxPair=      1496
 NAB=   506 NAA=   253 NBB=   231.
 DE(Corr)=  -1.3234842     E(CORR)=     -419.30869781     Delta=-1.60D-05
 NORM(A)=   0.12462611D+01
 Iteration Nr.  10
 **********************
 DD1Dir will call FoFMem   1 times, MxPair=      1496
 NAB=   506 NAA=   253 NBB=   231.
 DE(Corr)=  -1.3234861     E(CORR)=     -419.30869975     Delta=-1.94D-06
 NORM(A)=   0.12462899D+01
 Iteration Nr.  11
 **********************
 DD1Dir will call FoFMem   1 times, MxPair=      1496
 NAB=   506 NAA=   253 NBB=   231.
 DE(Corr)=  -1.3235000     E(CORR)=     -419.30871365     Delta=-1.39D-05
 NORM(A)=   0.12463255D+01
 Iteration Nr.  12
 **********************
 DD1Dir will call FoFMem   1 times, MxPair=      1496
 NAB=   506 NAA=   253 NBB=   231.
 DE(Corr)=  -1.3235095     E(CORR)=     -419.30872312     Delta=-9.48D-06
 NORM(A)=   0.12463617D+01
 Iteration Nr.  13
 **********************
 DD1Dir will call FoFMem   1 times, MxPair=      1496
 NAB=   506 NAA=   253 NBB=   231.
 DE(Corr)=  -1.3235183     E(CORR)=     -419.30873195     Delta=-8.82D-06
 NORM(A)=   0.12463879D+01
 Iteration Nr.  14
 **********************
 DD1Dir will call FoFMem   1 times, MxPair=      1496
 NAB=   506 NAA=   253 NBB=   231.
 DE(Corr)=  -1.3235248     E(CORR)=     -419.30873843     Delta=-6.49D-06
 NORM(A)=   0.12464037D+01
 Iteration Nr.  15
 **********************
 DD1Dir will call FoFMem   1 times, MxPair=      1496
 NAB=   506 NAA=   253 NBB=   231.
 DE(Corr)=  -1.3235278     E(CORR)=     -419.30874143     Delta=-2.99D-06
 NORM(A)=   0.12464107D+01
 Iteration Nr.  16
 **********************
 DD1Dir will call FoFMem   1 times, MxPair=      1496
 NAB=   506 NAA=   253 NBB=   231.
 DE(Corr)=  -1.3235293     E(CORR)=     -419.30874295     Delta=-1.52D-06
 NORM(A)=   0.12464129D+01
 Iteration Nr.  17
 **********************
 DD1Dir will call FoFMem   1 times, MxPair=      1496
 NAB=   506 NAA=   253 NBB=   231.
 DE(Corr)=  -1.3235297     E(CORR)=     -419.30874329     Delta=-3.48D-07
 NORM(A)=   0.12464131D+01
 Iteration Nr.  18
 **********************
 DD1Dir will call FoFMem   1 times, MxPair=      1496
 NAB=   506 NAA=   253 NBB=   231.
 DE(Corr)=  -1.3235296     E(CORR)=     -419.30874324     Delta= 5.37D-08
 NORM(A)=   0.12464130D+01
 Wavefunction amplitudes converged. E(Corr)=     -419.30874324    
 Dominant configurations:
 ***********************
 Spin Case        I    J    A    B          Value
    BB           30        37            0.108060D+00
 Largest amplitude= 1.08D-01
 Time for triples=    35759.23 seconds.
 T4(CCSD)= -0.59374872D-01
 T5(CCSD)=  0.44430336D-02
 CCSD(T)= -0.41936367508D+03

 S**2, projected HF & approx projected MPn energies after annihilation of
 unwanted spin states (see manual for definitions):

 spins       (S**2,0) (S**2,1)    PUHF        PMP2        PMP3        PMP4
 annihilated
 s+1         0.68512  0.72397 -418.017505 -419.267688 -419.292040
 s+1,s+2     0.75160  0.74978 -418.013360 -419.263733 -419.288349
 s+1 to s+3  0.74998  0.75001 -418.013482 -419.263822 -419.288389
 s+1 to s+4  0.75000  0.75000 -418.013481 -419.263821 -419.288387
 s+1 to s+5  0.75000  0.75000 -418.013481
 s+1 to s+6  0.75000  0.75000 -418.013481

 Discarding MO integrals.

 **********************************************************************

            Population analysis using the SCF density.

 **********************************************************************

 Orbital symmetries:
 Alpha Orbitals:
       Occupied  (A) (A) (A) (A) (A) (A) (A) (A) (A) (A) (A) (A)
                 (A) (A) (A) (A) (A) (A) (A) (A) (A) (A) (A) (A)
                 (A) (A) (A) (A) (A) (A) (A)
       Virtual   (A) (A) (A) (A) (A) (A) (A) (A) (A) (A) (A) (A)
                 (A) (A) (A) (A) (A) (A) (A) (A) (A) (A) (A) (A)
                 (A) (A) (A) (A) (A) (A) (A) (A) (A) (A) (A) (A)
                 (A) (A) (A) (A) (A) (A) (A) (A) (A) (A) (A) (A)
                 (A) (A) (A) (A) (A) (A) (A) (A) (A) (A) (A) (A)
                 (A) (A) (A) (A) (A) (A) (A) (A) (A) (A) (A) (A)
                 (A) (A) (A) (A) (A) (A) (A) (A) (A) (A) (A) (A)
                 (A) (A) (A) (A) (A) (A) (A) (A) (A) (A) (A) (A)
                 (A) (A) (A) (A) (A) (A) (A) (A) (A) (A) (A) (A)
                 (A) (A) (A) (A) (A) (A) (A) (A) (A) (A) (A) (A)
                 (A) (A) (A) (A) (A) (A) (A) (A) (A) (A) (A) (A)
                 (A) (A) (A) (A) (A) (A) (A) (A) (A) (A) (A) (A)
                 (A) (A) (A) (A) (A) (A) (A) (A) (A) (A) (A) (A)
                 (A) (A) (A) (A) (A) (A) (A) (A) (A) (A) (A) (A)
                 (A) (A) (A) (A) (A) (A) (A) (A) (A) (A) (A) (A)
                 (A) (A) (A) (A) (A) (A) (A) (A) (A) (A) (A) (A)
                 (A) (A)
 Beta  Orbitals:
       Occupied  (A) (A) (A) (A) (A) (A) (A) (A) (A) (A) (A) (A)
                 (A) (A) (A) (A) (A) (A) (A) (A) (A) (A) (A) (A)
                 (A) (A) (A) (A) (A) (A)
       Virtual   (A) (A) (A) (A) (A) (A) (A) (A) (A) (A) (A) (A)
                 (A) (A) (A) (A) (A) (A) (A) (A) (A) (A) (A) (A)
                 (A) (A) (A) (A) (A) (A) (A) (A) (A) (A) (A) (A)
                 (A) (A) (A) (A) (A) (A) (A) (A) (A) (A) (A) (A)
                 (A) (A) (A) (A) (A) (A) (A) (A) (A) (A) (A) (A)
                 (A) (A) (A) (A) (A) (A) (A) (A) (A) (A) (A) (A)
                 (A) (A) (A) (A) (A) (A) (A) (A) (A) (A) (A) (A)
                 (A) (A) (A) (A) (A) (A) (A) (A) (A) (A) (A) (A)
                 (A) (A) (A) (A) (A) (A) (A) (A) (A) (A) (A) (A)
                 (A) (A) (A) (A) (A) (A) (A) (A) (A) (A) (A) (A)
                 (A) (A) (A) (A) (A) (A) (A) (A) (A) (A) (A) (A)
                 (A) (A) (A) (A) (A) (A) (A) (A) (A) (A) (A) (A)
                 (A) (A) (A) (A) (A) (A) (A) (A) (A) (A) (A) (A)
                 (A) (A) (A) (A) (A) (A) (A) (A) (A) (A) (A) (A)
                 (A) (A) (A) (A) (A) (A) (A) (A) (A) (A) (A) (A)
                 (A) (A) (A) (A) (A) (A) (A) (A) (A) (A) (A) (A)
                 (A) (A) (A)
 The electronic state is 2-A.
 Alpha  occ. eigenvalues --  -20.62559 -20.60393 -20.57543 -11.41984 -11.30722
 Alpha  occ. eigenvalues --  -11.29534 -11.28223 -11.23864  -1.49486  -1.39752
 Alpha  occ. eigenvalues --   -1.35776  -1.10683  -1.05258  -0.92326  -0.84691
 Alpha  occ. eigenvalues --   -0.78673  -0.73824  -0.70661  -0.70376  -0.64160
 Alpha  occ. eigenvalues --   -0.62758  -0.61696  -0.60056  -0.56855  -0.54125
 Alpha  occ. eigenvalues --   -0.53314  -0.53286  -0.49644  -0.48772  -0.43744
 Alpha  occ. eigenvalues --   -0.42815
 Alpha virt. eigenvalues --    0.03653   0.04833   0.05689   0.06065   0.06878
 Alpha virt. eigenvalues --    0.08860   0.09396   0.09584   0.11054   0.12252
 Alpha virt. eigenvalues --    0.12416   0.12811   0.15684   0.15691   0.16141
 Alpha virt. eigenvalues --    0.16908   0.18205   0.18421   0.18482   0.18894
 Alpha virt. eigenvalues --    0.19234   0.19949   0.21619   0.22270   0.23022
 Alpha virt. eigenvalues --    0.24311   0.26204   0.27555   0.27808   0.28238
 Alpha virt. eigenvalues --    0.28765   0.30090   0.30764   0.31318   0.31536
 Alpha virt. eigenvalues --    0.33122   0.35294   0.36760   0.37308   0.37986
 Alpha virt. eigenvalues --    0.39240   0.39879   0.39885   0.41271   0.41880
 Alpha virt. eigenvalues --    0.42923   0.45004   0.45507   0.46299   0.48193
 Alpha virt. eigenvalues --    0.50539   0.54848   0.56178   0.56226   0.63373
 Alpha virt. eigenvalues --    0.64504   0.64648   0.67411   0.69558   0.71080
 Alpha virt. eigenvalues --    0.76176   0.78782   0.79138   0.81532   0.82895
 Alpha virt. eigenvalues --    0.83329   0.84154   0.85279   0.85945   0.86291
 Alpha virt. eigenvalues --    0.88190   0.90105   0.95046   0.95987   0.96384
 Alpha virt. eigenvalues --    1.01377   1.04163   1.07822   1.08538   1.13027
 Alpha virt. eigenvalues --    1.20845   1.21879   1.25111   1.25791   1.28197
 Alpha virt. eigenvalues --    1.33080   1.34195   1.36359   1.37393   1.37405
 Alpha virt. eigenvalues --    1.39353   1.41692   1.42404   1.48127   1.49089
 Alpha virt. eigenvalues --    1.50796   1.55184   1.55559   1.64039   1.65981
 Alpha virt. eigenvalues --    1.70706   1.72531   1.72978   1.73858   1.77092
 Alpha virt. eigenvalues --    1.79304   1.80904   1.82089   1.82167   1.84159
 Alpha virt. eigenvalues --    1.88745   1.91213   1.94042   1.97766   1.99613
 Alpha virt. eigenvalues --    2.00976   2.06852   2.09639   2.13338   2.13991
 Alpha virt. eigenvalues --    2.14827   2.16354   2.26602   2.27962   2.34783
 Alpha virt. eigenvalues --    2.39495   2.40812   2.46133   2.49302   2.55191
 Alpha virt. eigenvalues --    2.58228   2.60373   2.64305   2.77010   2.81220
 Alpha virt. eigenvalues --    2.84535   2.87342   2.89985   2.92817   2.93890
 Alpha virt. eigenvalues --    2.95228   2.97533   2.97671   3.01925   3.02705
 Alpha virt. eigenvalues --    3.09862   3.11514   3.13813   3.18241   3.18761
 Alpha virt. eigenvalues --    3.20990   3.26295   3.29183   3.29921   3.34220
 Alpha virt. eigenvalues --    3.38247   3.43152   3.49670   3.50150   3.57270
 Alpha virt. eigenvalues --    3.59427   3.63206   3.67341   3.69643   3.76682
 Alpha virt. eigenvalues --    3.87088   3.95235   4.01719   4.11026   4.19051
 Alpha virt. eigenvalues --    4.20924   4.21103   4.28660   4.40266   4.48215
 Alpha virt. eigenvalues --    4.52261   4.68430   5.51459   5.55201   5.58059
 Alpha virt. eigenvalues --    5.59732   5.75840   5.90376   6.05819   6.20216
 Alpha virt. eigenvalues --    6.41464  24.69091  25.00147  25.00664  25.13169
 Alpha virt. eigenvalues --   25.84815  51.54852  51.59786  51.70869
  Beta  occ. eigenvalues --  -20.62495 -20.57508 -20.56909 -11.42486 -11.31904
  Beta  occ. eigenvalues --  -11.30699 -11.25218 -11.23863  -1.49061  -1.38657
  Beta  occ. eigenvalues --   -1.26301  -1.07559  -1.04704  -0.93083  -0.84201
  Beta  occ. eigenvalues --   -0.78065  -0.73239  -0.70480  -0.69613  -0.61958
  Beta  occ. eigenvalues --   -0.60739  -0.59643  -0.56688  -0.53203  -0.53107
  Beta  occ. eigenvalues --   -0.51673  -0.48477  -0.47320  -0.47158  -0.42113
  Beta virt. eigenvalues --    0.03629   0.04796   0.05024   0.06047   0.06648
  Beta virt. eigenvalues --    0.06962   0.08340   0.09320   0.10235   0.11824
  Beta virt. eigenvalues --    0.11900   0.12501   0.13543   0.15131   0.15786
  Beta virt. eigenvalues --    0.16370   0.17243   0.18287   0.18428   0.18463
  Beta virt. eigenvalues --    0.18904   0.19222   0.20054   0.21581   0.22449
  Beta virt. eigenvalues --    0.23462   0.25268   0.25743   0.28006   0.28046
  Beta virt. eigenvalues --    0.28433   0.29054   0.31089   0.31175   0.31566
  Beta virt. eigenvalues --    0.31569   0.33293   0.35578   0.37282   0.38278
  Beta virt. eigenvalues --    0.39316   0.39878   0.40620   0.40763   0.41388
  Beta virt. eigenvalues --    0.42450   0.43175   0.45267   0.45924   0.47509
  Beta virt. eigenvalues --    0.48493   0.50881   0.55637   0.56215   0.56856
  Beta virt. eigenvalues --    0.63109   0.64686   0.64853   0.68045   0.69202
  Beta virt. eigenvalues --    0.69905   0.75716   0.77044   0.80270   0.81448
  Beta virt. eigenvalues --    0.83777   0.85033   0.85169   0.85952   0.86162
  Beta virt. eigenvalues --    0.86837   0.88574   0.90329   0.95616   0.96241
  Beta virt. eigenvalues --    0.97230   1.00738   1.04620   1.07955   1.09391
  Beta virt. eigenvalues --    1.13150   1.20905   1.21864   1.24556   1.25934
  Beta virt. eigenvalues --    1.28449   1.34413   1.35658   1.37422   1.39226
  Beta virt. eigenvalues --    1.40993   1.42436   1.42777   1.44445   1.48129
  Beta virt. eigenvalues --    1.49347   1.51417   1.55487   1.55900   1.63892
  Beta virt. eigenvalues --    1.69235   1.70722   1.72336   1.72998   1.75062
  Beta virt. eigenvalues --    1.77854   1.79324   1.81553   1.82634   1.83083
  Beta virt. eigenvalues --    1.84851   1.89036   1.91248   1.94034   1.98432
  Beta virt. eigenvalues --    1.99623   2.01160   2.06894   2.09631   2.13314
  Beta virt. eigenvalues --    2.14139   2.15203   2.16532   2.27376   2.27987
  Beta virt. eigenvalues --    2.35069   2.40166   2.41008   2.46007   2.49109
  Beta virt. eigenvalues --    2.55201   2.58198   2.61599   2.64359   2.77012
  Beta virt. eigenvalues --    2.81228   2.84571   2.87348   2.90034   2.92933
  Beta virt. eigenvalues --    2.93764   2.95190   2.97532   2.97547   3.01332
  Beta virt. eigenvalues --    3.03455   3.11376   3.11838   3.16447   3.18780
  Beta virt. eigenvalues --    3.21578   3.25929   3.27273   3.30040   3.30809
  Beta virt. eigenvalues --    3.36319   3.40535   3.43520   3.49898   3.51450
  Beta virt. eigenvalues --    3.59444   3.63263   3.63904   3.68245   3.70275
  Beta virt. eigenvalues --    3.77698   3.88863   3.94798   4.02164   4.11337
  Beta virt. eigenvalues --    4.19066   4.20926   4.21123   4.31073   4.40791
  Beta virt. eigenvalues --    4.48354   4.52465   4.68496   5.53074   5.55388
  Beta virt. eigenvalues --    5.61299   5.67127   5.76291   5.90492   6.07638
  Beta virt. eigenvalues --    6.20477   6.41621  24.69237  24.99792  25.00638
  Beta virt. eigenvalues --   25.13172  25.85101  51.56448  51.59902  51.71214
          Condensed to atoms (all electrons):
               1          2          3          4          5          6
     1  C   14.303890   0.630866  -2.313808  -4.726037   0.056018  -0.027862
     2  H    0.630866   0.412700  -0.166690  -0.058260   0.001795  -0.000143
     3  C   -2.313808  -0.166690  12.302091  -4.566649   0.041960  -0.349503
     4  C   -4.726037  -0.058260  -4.566649  14.629741   0.247000   0.116440
     5  O    0.056018   0.001795   0.041960   0.247000   8.093752  -0.111185
     6  O   -0.027862  -0.000143  -0.349503   0.116440  -0.111185   8.566740
     7  C   -0.173874  -0.000332  -0.483842   0.158436  -0.029521   0.188065
     8  C   -0.044004   0.000684  -0.301391   0.329197   0.019362  -0.154025
     9  H    0.002746  -0.000056  -0.004328  -0.003072  -0.015128  -0.036412
    10  H    0.002747  -0.000056  -0.004328  -0.003072  -0.015128  -0.036411
    11  H    0.003936  -0.000044   0.016430  -0.009959  -0.000707  -0.008220
    12  H    0.003936  -0.000044   0.016430  -0.009959  -0.000707  -0.008220
    13  H   -0.002491   0.000032  -0.004495   0.006539   0.001370   0.020074
    14  O   -0.148774  -0.032920  -0.065814   0.139365  -0.002066   0.004097
    15  H    0.108343   0.005075  -0.004443  -0.114661   0.001241   0.011583
               7          8          9         10         11         12
     1  C   -0.173874  -0.044004   0.002746   0.002747   0.003936   0.003936
     2  H   -0.000332   0.000684  -0.000056  -0.000056  -0.000044  -0.000044
     3  C   -0.483842  -0.301391  -0.004328  -0.004328   0.016430   0.016430
     4  C    0.158436   0.329197  -0.003072  -0.003072  -0.009959  -0.009959
     5  O   -0.029521   0.019362  -0.015128  -0.015128  -0.000707  -0.000707
     6  O    0.188065  -0.154025  -0.036412  -0.036411  -0.008220  -0.008220
     7  C    5.616055  -0.056119   0.440756   0.440755  -0.032194  -0.032194
     8  C   -0.056119   5.735729  -0.055013  -0.055013   0.389223   0.389223
     9  H    0.440756  -0.055013   0.539534  -0.045398   0.004128  -0.006122
    10  H    0.440755  -0.055013  -0.045398   0.539534  -0.006122   0.004128
    11  H   -0.032194   0.389223   0.004128  -0.006122   0.566124  -0.043497
    12  H   -0.032194   0.389223  -0.006122   0.004128  -0.043497   0.566124
    13  H   -0.053325   0.423341  -0.004163  -0.004163  -0.032760  -0.032760
    14  O   -0.002670   0.004177   0.000185   0.000185  -0.000346  -0.000346
    15  H    0.003260  -0.001559   0.000059   0.000059  -0.001012  -0.001012
              13         14         15
     1  C   -0.002491  -0.148774   0.108343
     2  H    0.000032  -0.032920   0.005075
     3  C   -0.004495  -0.065814  -0.004443
     4  C    0.006539   0.139365  -0.114661
     5  O    0.001370  -0.002066   0.001241
     6  O    0.020074   0.004097   0.011583
     7  C   -0.053325  -0.002670   0.003260
     8  C    0.423341   0.004177  -0.001559
     9  H   -0.004163   0.000185   0.000059
    10  H   -0.004163   0.000185   0.000059
    11  H   -0.032760  -0.000346  -0.001012
    12  H   -0.032760  -0.000346  -0.001012
    13  H    0.541198  -0.000084  -0.000113
    14  O   -0.000084   8.105629   0.284733
    15  H   -0.000113   0.284733   0.454447
          Atomic-Atomic Spin Densities.
               1          2          3          4          5          6
     1  C    0.343918   0.096245   0.332236  -1.837604   0.033811  -0.059519
     2  H    0.096245   0.070379  -0.040852  -0.039329   0.000018  -0.000759
     3  C    0.332236  -0.040852   3.068224  -1.640730   0.051560  -0.189419
     4  C   -1.837604  -0.039329  -1.640730   3.091561  -0.112733   0.225961
     5  O    0.033811   0.000018   0.051560  -0.112733   0.172759  -0.008201
     6  O   -0.059519  -0.000759  -0.189419   0.225961  -0.008201   0.000261
     7  C   -0.051992  -0.000800  -0.092418   0.134015  -0.005432   0.018032
     8  C   -0.027668   0.000147  -0.113153   0.096442  -0.002665  -0.001415
     9  H   -0.001189   0.000019  -0.007591   0.006658  -0.000382   0.000231
    10  H   -0.001189   0.000019  -0.007591   0.006658  -0.000382   0.000231
    11  H    0.000465  -0.000014   0.000755  -0.000939  -0.000006   0.000627
    12  H    0.000465  -0.000014   0.000755  -0.000939  -0.000006   0.000627
    13  H   -0.000105  -0.000009  -0.001460   0.000421  -0.000074   0.000826
    14  O    0.049944   0.002334  -0.131523   0.082204  -0.000978   0.010659
    15  H   -0.000424   0.000190   0.022858  -0.015242   0.000499  -0.003174
               7          8          9         10         11         12
     1  C   -0.051992  -0.027668  -0.001189  -0.001189   0.000465   0.000465
     2  H   -0.000800   0.000147   0.000019   0.000019  -0.000014  -0.000014
     3  C   -0.092418  -0.113153  -0.007591  -0.007591   0.000755   0.000755
     4  C    0.134015   0.096442   0.006658   0.006658  -0.000939  -0.000939
     5  O   -0.005432  -0.002665  -0.000382  -0.000382  -0.000006  -0.000006
     6  O    0.018032  -0.001415   0.000231   0.000231   0.000627   0.000627
     7  C    0.000467   0.013055  -0.000736  -0.000736  -0.002734  -0.002734
     8  C    0.013055   0.021477   0.002778   0.002779   0.002287   0.002287
     9  H   -0.000736   0.002778  -0.000302   0.000429   0.000003  -0.000034
    10  H   -0.000736   0.002779   0.000429  -0.000302  -0.000034   0.000003
    11  H   -0.002734   0.002287   0.000003  -0.000034  -0.000180  -0.000151
    12  H   -0.002734   0.002287  -0.000034   0.000003  -0.000151  -0.000180
    13  H   -0.003120   0.004052   0.000050   0.000050  -0.000261  -0.000261
    14  O    0.003579   0.000173  -0.000063  -0.000063   0.000205   0.000205
    15  H    0.000796  -0.002000  -0.000008  -0.000008   0.000016   0.000016
              13         14         15
     1  C   -0.000105   0.049944  -0.000424
     2  H   -0.000009   0.002334   0.000190
     3  C   -0.001460  -0.131523   0.022858
     4  C    0.000421   0.082204  -0.015242
     5  O   -0.000074  -0.000978   0.000499
     6  O    0.000826   0.010659  -0.003174
     7  C   -0.003120   0.003579   0.000796
     8  C    0.004052   0.000173  -0.002000
     9  H    0.000050  -0.000063  -0.000008
    10  H    0.000050  -0.000063  -0.000008
    11  H   -0.000261   0.000205   0.000016
    12  H   -0.000261   0.000205   0.000016
    13  H    0.000137   0.000104  -0.000038
    14  O    0.000104   0.660250   0.000747
    15  H   -0.000038   0.000747  -0.025714
 Mulliken charges and spin densities:
               1          2
     1  C   -1.675630  -1.122608
     2  H    0.207392   0.087574
     3  C    1.888379   1.251651
     4  C   -0.135048  -0.003594
     5  O   -0.288058   0.127789
     6  O   -0.175019  -0.005033
     7  C    0.016742   0.009242
     8  C   -0.623813  -0.001424
     9  H    0.182284  -0.000137
    10  H    0.182284  -0.000137
    11  H    0.155019   0.000037
    12  H    0.155019   0.000037
    13  H    0.141799   0.000310
    14  O   -0.285350   0.677778
    15  H    0.254001  -0.021485
 Sum of Mulliken charges =  -0.00000   1.00000
 Mulliken charges and spin densities with hydrogens summed into heavy atoms:
               1          2
     1  C   -1.468238  -1.035034
     3  C    1.888379   1.251651
     4  C   -0.135048  -0.003594
     5  O   -0.288058   0.127789
     6  O   -0.175019  -0.005033
     7  C    0.381309   0.008969
     8  C   -0.171976  -0.001041
    14  O   -0.031349   0.656293
 Electronic spatial extent (au):  <R**2>=           1255.3292
 Charge=             -0.0000 electrons
 Dipole moment (field-independent basis, Debye):
    X=             -1.8943    Y=             -1.1596    Z=              0.0000  Tot=              2.2210
 Quadrupole moment (field-independent basis, Debye-Ang):
   XX=            -40.3746   YY=            -57.0922   ZZ=            -47.5196
   XY=              7.3152   XZ=             -0.0000   YZ=              0.0000
 Traceless Quadrupole moment (field-independent basis, Debye-Ang):
   XX=              7.9542   YY=             -8.7634   ZZ=              0.8092
   XY=              7.3152   XZ=             -0.0000   YZ=              0.0000
 Octapole moment (field-independent basis, Debye-Ang**2):
  XXX=              0.1839  YYY=            -21.5231  ZZZ=             -0.0000  XYY=             -8.7885
  XXY=             16.9704  XXZ=             -0.0001  XZZ=             -4.8538  YZZ=              0.7980
  YYZ=              0.0001  XYZ=              0.0000
 Hexadecapole moment (field-independent basis, Debye-Ang**3):
 XXXX=           -971.4304 YYYY=           -498.6067 ZZZZ=            -59.3613 XXXY=             41.5874
 XXXZ=             -0.0004 YYYX=              5.2832 YYYZ=              0.0012 ZZZX=             -0.0002
 ZZZY=              0.0010 XXYY=           -300.8553 XXZZ=           -204.0180 YYZZ=            -84.7285
 XXYZ=              0.0005 YYXZ=             -0.0002 ZZXY=             -4.4492
 N-N= 3.499626018853D+02 E-N=-1.682458520785D+03  KE= 4.176196345245D+02
 1\1\GINC-AJ\SP\UCCSD(T)-FC\6-311++G(d,p)\C5H7O3(2)\AAYUSH\22-Apr-2025\
 0\\# ccsd(t)/6-311++g(d,p) sp\\Title Card Required\\0,2\C,0,2.539826,0
 .058925,0.000001\H,0,3.610736,0.149759,0.000001\C,0,1.437925,0.654991,
 -0.000003\C,0,0.014245,0.951848,-0.000005\O,0,-0.440385,2.060584,-0.00
 001\O,0,-0.70317,-0.175226,0.\C,0,-2.137058,-0.000597,-0.000001\C,0,-2
 .754881,-1.378464,0.000005\H,0,-2.411605,0.578202,0.883888\H,0,-2.4116
 05,0.578194,-0.883895\H,0,-2.453079,-1.93729,-0.886738\H,0,-2.453079,-
 1.937283,0.886753\H,0,-3.842515,-1.290477,0.000005\O,0,2.358455,-1.741
 012,0.00001\H,0,1.395307,-1.845488,0.00001\\Version=ES64L-G16RevA.03\S
 tate=2-A\HF=-417.9852136\MP2=-419.2391048\MP3=-419.269615\MP4D=-419.30
 01938\MP4DQ=-419.2760483\PUHF=-418.017505\PMP2-0=-419.2676877\PMP3-0=-
 419.2920403\MP4SDQ=-419.2988998\CCSD=-419.3087432\CCSD(T)=-419.3636751
 \S2=1.138466\S2-1=1.03434\S2A=0.86005\RMSD=7.058e-09\PG=C01 [X(C5H7O3)
 ]\\@


 BREAD HAS TO MOLD IN ORDER TO GET PENICILLIN.
          -- JERRY BOATZ
 Job cpu time:       0 days 16 hours 42 minutes 56.7 seconds.
 Elapsed time:       0 days  0 hours 42 minutes  0.3 seconds.
 File lengths (MBytes):  RWF=  44733 Int=      0 D2E=      0 Chk=      6 Scr=      1
 Normal termination of Gaussian 16 at Tue Apr 22 07:41:27 2025.
