 Entering Link 1 = C:\G09W\l1.exe PID=      4920.
  
 Copyright (c) 1988,1990,1992,1993,1995,1998,2003,2009,2013,
            Gaussian, Inc.  All Rights Reserved.
  
 This is part of the Gaussian(R) 09 program.  It is based on
 the Gaussian(R) 03 system (copyright 2003, Gaussian, Inc.),
 the Gaussian(R) 98 system (copyright 1998, Gaussian, Inc.),
 the Gaussian(R) 94 system (copyright 1995, Gaussian, Inc.),
 the Gaussian 92(TM) system (copyright 1992, Gaussian, Inc.),
 the Gaussian 90(TM) system (copyright 1990, Gaussian, Inc.),
 the Gaussian 88(TM) system (copyright 1988, Gaussian, Inc.),
 the Gaussian 86(TM) system (copyright 1986, Carnegie Mellon
 University), and the Gaussian 82(TM) system (copyright 1983,
 Carnegie Mellon University). Gaussian is a federally registered
 trademark of Gaussian, Inc.
  
 This software contains proprietary and confidential information,
 including trade secrets, belonging to Gaussian, Inc.
  
 This software is provided under written license and may be
 used, copied, transmitted, or stored only in accord with that
 written license.
  
 The following legend is applicable only to US Government
 contracts under FAR:
  
                    RESTRICTED RIGHTS LEGEND
  
 Use, reproduction and disclosure by the US Government is
 subject to restrictions as set forth in subparagraphs (a)
 and (c) of the Commercial Computer Software - Restricted
 Rights clause in FAR 52.227-19.
  
 Gaussian, Inc.
 340 Quinnipiac St., Bldg. 40, Wallingford CT 06492
  
  
 ---------------------------------------------------------------
 Warning -- This program may not be used in any manner that
 competes with the business of Gaussian, Inc. or will provide
 assistance to any competitor of Gaussian, Inc.  The licensee
 of this program is prohibited from giving any competitor of
 Gaussian, Inc. access to this program.  By using this program,
 the user acknowledges that Gaussian, Inc. is engaged in the
 business of creating and licensing software in the field of
 computational chemistry and represents and warrants to the
 licensee that it is not a competitor of Gaussian, Inc. and that
 it will not use this program in any manner prohibited above.
 ---------------------------------------------------------------
  

 Cite this work as:
 Gaussian 09, Revision D.01,
 M. J. Frisch, G. W. Trucks, H. B. Schlegel, G. E. Scuseria, 
 M. A. Robb, J. R. Cheeseman, G. Scalmani, V. Barone, B. Mennucci, 
 G. A. Petersson, H. Nakatsuji, M. Caricato, X. Li, H. P. Hratchian, 
 A. F. Izmaylov, J. Bloino, G. Zheng, J. L. Sonnenberg, M. Hada, 
 M. Ehara, K. Toyota, R. Fukuda, J. Hasegawa, M. Ishida, T. Nakajima, 
 Y. Honda, O. Kitao, H. Nakai, T. Vreven, J. A. Montgomery, Jr., 
 J. E. Peralta, F. Ogliaro, M. Bearpark, J. J. Heyd, E. Brothers, 
 K. N. Kudin, V. N. Staroverov, T. Keith, R. Kobayashi, J. Normand, 
 K. Raghavachari, A. Rendell, J. C. Burant, S. S. Iyengar, J. Tomasi, 
 M. Cossi, N. Rega, J. M. Millam, M. Klene, J. E. Knox, J. B. Cross, 
 V. Bakken, C. Adamo, J. Jaramillo, R. Gomperts, R. E. Stratmann, 
 O. Yazyev, A. J. Austin, R. Cammi, C. Pomelli, J. W. Ochterski, 
 R. L. Martin, K. Morokuma, V. G. Zakrzewski, G. A. Voth, 
 P. Salvador, J. J. Dannenberg, S. Dapprich, A. D. Daniels, 
 O. Farkas, J. B. Foresman, J. V. Ortiz, J. Cioslowski, 
 and D. J. Fox, Gaussian, Inc., Wallingford CT, 2013.
 
 ******************************************
 Gaussian 09:  IA32W-G09RevD.01 24-Apr-2013
                28-Mar-2025 
 ******************************************
 %chk=ethyl_propiolate.chk
 %nprocshared=4
 Will use up to    4 processors via shared memory.
 %mem=1700MB
 --------------------------
 # freq 6-311++g(d,p) m062x
 --------------------------
 1/10=4,30=1,38=1/1,3;
 2/12=2,17=6,18=5,40=1/2;
 3/5=4,6=6,7=1111,11=2,16=1,25=1,30=1,71=2,74=-55,140=1/1,2,3;
 4//1;
 5/5=2,38=5,98=1/2;
 8/6=4,10=90,11=11/1;
 11/6=1,8=1,9=11,15=111,16=1/1,2,10;
 10/6=1/2;
 6/7=2,8=2,9=2,10=2,18=1,28=1/1;
 7/8=1,10=1,25=1/1,2,3,16;
 1/10=4,30=1/3;
 99//99;
 -------------------
 Title Card Required
 -------------------
 Symbolic Z-matrix:
 Charge =  0 Multiplicity = 2
 C                     2.53613   0.03844   0. 
 H                     3.60571   0.15748   0. 
 C                     1.43904   0.65817  0. 
 C                     0.01453   0.95156  -0.00001 
 O                    -0.44042   2.06047  -0.00001 
 O                    -0.70322  -0.17537   0. 
 C                    -2.13707  -0.00064  0. 
 C                    -2.7549   -1.37848   0.00001 
 H                    -2.4116    0.57818   0.88388 
 H                    -2.4116    0.57817  -0.88389 
 H                    -2.45309  -1.93731  -0.88674 
 H                    -2.45309  -1.9373    0.88675 
 H                    -3.84254  -1.29054   0.00001 
 O                     2.36042  -1.72843   0.00001 
 H                     1.39833  -1.83869   0.00001 
 

 GradGradGradGradGradGradGradGradGradGradGradGradGradGradGradGradGradGrad
 Berny optimization.
 Initialization pass.
 Trust Radius=3.00D-01 FncErr=1.00D-07 GrdErr=1.00D-07
 Number of steps in this run=      2 maximum allowed number of steps=      2.
 GradGradGradGradGradGradGradGradGradGradGradGradGradGradGradGradGradGrad

                          Input orientation:                          
 ---------------------------------------------------------------------
 Center     Atomic      Atomic             Coordinates (Angstroms)
 Number     Number       Type             X           Y           Z
 ---------------------------------------------------------------------
      1          6           0        2.536126    0.038440    0.000001
      2          1           0        3.605706    0.157484    0.000001
      3          6           0        1.439039    0.658174   -0.000003
      4          6           0        0.014532    0.951563   -0.000005
      5          8           0       -0.440420    2.060472   -0.000010
      6          8           0       -0.703222   -0.175365    0.000000
      7          6           0       -2.137073   -0.000642   -0.000001
      8          6           0       -2.754904   -1.378475    0.000005
      9          1           0       -2.411599    0.578182    0.883878
     10          1           0       -2.411599    0.578174   -0.883885
     11          1           0       -2.453092   -1.937308   -0.886739
     12          1           0       -2.453092   -1.937300    0.886754
     13          1           0       -3.842543   -1.290544    0.000005
     14          8           0        2.360422   -1.728426    0.000010
     15          1           0        1.398333   -1.838694    0.000010
 ---------------------------------------------------------------------
                    Distance matrix (angstroms):
                    1          2          3          4          5
     1  C    0.000000
     2  H    1.076184   0.000000
     3  C    1.260028   2.223766   0.000000
     4  C    2.681833   3.677920   1.454406   0.000000
     5  O    3.598394   4.471297   2.344953   1.198608   0.000000
     6  O    3.246396   4.321765   2.298710   1.336090   2.251229
     7  C    4.673362   5.744956   3.636291   2.352892   2.669611
     8  C    5.477467   6.543434   4.662306   3.619234   4.145261
     9  H    5.054952   6.096408   3.951589   2.608980   2.619921
    10  H    5.054953   6.096408   3.951590   2.608980   2.619922
    11  H    5.438951   6.471746   4.761461   3.901415   4.562826
    12  H    5.438950   6.471745   4.761461   3.901415   4.562826
    13  H    6.515644   7.587700   5.629619   4.461398   4.775327
    14  O    1.775581   2.259953   2.558282   3.561677   4.711737
    15  H    2.195041   2.976109   2.497200   3.114553   4.310975
                    6          7          8          9         10
     6  O    0.000000
     7  C    1.444457   0.000000
     8  C    2.378418   1.510013   0.000000
     9  H    2.065823   1.091624   2.174304   0.000000
    10  H    2.065823   1.091624   2.174303   1.767763   0.000000
    11  H    2.636815   2.153334   1.090734   3.076442   2.515826
    12  H    2.636815   2.153334   1.090734   2.515826   3.076442
    13  H    3.331510   2.138335   1.091188   2.514154   2.514154
    14  O    3.434809   4.817956   5.127282   5.373439   5.373440
    15  H    2.680149   3.984662   4.178658   4.597618   4.597619
                   11         12         13         14         15
    11  H    0.000000
    12  H    1.773493   0.000000
    13  H    1.770648   1.770647   0.000000
    14  O    4.898966   4.898965   6.218401   0.000000
    15  H    3.953419   3.953418   5.269464   0.968387   0.000000
 Stoichiometry    C5H7O3(2)
 Framework group  C1[X(C5H7O3)]
 Deg. of freedom    39
 Full point group                 C1      NOp   1
 Largest Abelian subgroup         C1      NOp   1
 Largest concise Abelian subgroup C1      NOp   1
                         Standard orientation:                         
 ---------------------------------------------------------------------
 Center     Atomic      Atomic             Coordinates (Angstroms)
 Number     Number       Type             X           Y           Z
 ---------------------------------------------------------------------
      1          6           0        2.605567    0.090282    0.000001
      2          1           0        3.674890    0.211615    0.000001
      3          6           0        1.507156    0.707667   -0.000003
      4          6           0        0.082024    0.998006   -0.000005
      5          8           0       -0.375300    2.105939   -0.000010
      6          8           0       -0.633316   -0.130455    0.000000
      7          6           0       -2.067538    0.041198   -0.000001
      8          6           0       -2.682418   -1.337954    0.000005
      9          1           0       -2.343302    0.619434    0.883878
     10          1           0       -2.343302    0.619426   -0.883885
     11          1           0       -2.379411   -1.896139   -0.886739
     12          1           0       -2.379411   -1.896131    0.886754
     13          1           0       -3.770243   -1.252351    0.000005
     14          8           0        2.433645   -1.676956    0.000010
     15          1           0        1.471794   -1.789282    0.000010
 ---------------------------------------------------------------------
 Rotational constants (GHZ):      2.9525168      1.2465637      0.8862143
 Standard basis: 6-311++G(d,p) (5D, 7F)
 There are   233 symmetry adapted cartesian basis functions of A   symmetry.
 There are   225 symmetry adapted basis functions of A   symmetry.
   225 basis functions,   351 primitive gaussians,   233 cartesian basis functions
    31 alpha electrons       30 beta electrons
       nuclear repulsion energy       350.2355839361 Hartrees.
 NAtoms=   15 NActive=   15 NUniq=   15 SFac= 1.00D+00 NAtFMM=   60 NAOKFM=F Big=F
 Integral buffers will be    262144 words long.
 Raffenetti 2 integral format.
 Two-electron integral symmetry is turned on.
 One-electron integrals computed using PRISM.
 NBasis=   225 RedAO= T EigKep=  2.11D-06  NBF=   225
 NBsUse=   225 1.00D-06 EigRej= -1.00D+00 NBFU=   225
 ExpMin= 3.60D-02 ExpMax= 8.59D+03 ExpMxC= 1.30D+03 IAcc=3 IRadAn=         5 AccDes= 0.00D+00
 Harris functional with IExCor= 1009 and IRadAn=       5 diagonalized for initial guess.
 HarFok:  IExCor= 1009 AccDes= 0.00D+00 IRadAn=         5 IDoV= 1 UseB2=F ITyADJ=14
 ICtDFT=  3500011 ScaDFX=  1.000000  1.000000  1.000000  1.000000
 FoFCou: FMM=F IPFlag=           0 FMFlag=      100000 FMFlg1=           0
         NFxFlg=           0 DoJE=T BraDBF=F KetDBF=T FulRan=T
         wScrn=  0.000000 ICntrl=     500 IOpCl=  0 I1Cent=   200000004 NGrid=           0
         NMat0=    1 NMatS0=      1 NMatT0=    0 NMatD0=    1 NMtDS0=    0 NMtDT0=    0
 Petite list used in FoFCou.
 Initial guess <Sx>= 0.0000 <Sy>= 0.0000 <Sz>= 0.5000 <S**2>= 0.7500 S= 0.5000
 Requested convergence on RMS density matrix=1.00D-08 within 128 cycles.
 Requested convergence on MAX density matrix=1.00D-06.
 Requested convergence on             energy=1.00D-06.
 No special actions if energy rises.
 SCF Done:  E(UM062X) =  -420.218980171     A.U. after   19 cycles
            NFock= 19  Conv=0.42D-08     -V/T= 2.0038
 <Sx>= 0.0000 <Sy>= 0.0000 <Sz>= 0.5000 <S**2>= 0.7830 S= 0.5163
 <L.S>= 0.000000000000E+00
 Annihilation of the first spin contaminant:
 S**2 before annihilation     0.7830,   after     0.7506
 DoSCS=F DFT=T ScalE2(SS,OS)=  1.000000  1.000000
 Range of M.O.s used for correlation:     1   225
 NBasis=   225 NAE=    31 NBE=    30 NFC=     0 NFV=     0
 NROrb=    225 NOA=    31 NOB=    30 NVA=   194 NVB=   195

 **** Warning!!: The largest alpha MO coefficient is  0.22923657D+03


 **** Warning!!: The largest beta MO coefficient is  0.19600018D+03

 Symmetrizing basis deriv contribution to polar:
 IMax=3 JMax=2 DiffMx= 0.00D+00
 G2DrvN: will do    16 centers at a time, making    1 passes.
 Calling FoFCou, ICntrl=  3107 FMM=F I1Cent=   0 AccDes= 0.00D+00.
 End of G2Drv F.D. properties file   721 does not exist.
 End of G2Drv F.D. properties file   722 does not exist.
 End of G2Drv F.D. properties file   788 does not exist.
          IDoAtm=111111111111111
          Differentiating once with respect to electric field.
                with respect to dipole field.
          Differentiating once with respect to nuclear coordinates.
          There are    48 degrees of freedom in the 1st order CPHF.  IDoFFX=6 NUNeed=     3.
     46 vectors produced by pass  0 Test12= 2.47D-14 2.08D-09 XBig12= 9.67D+01 4.03D+00.
 AX will form    46 AO Fock derivatives at one time.
     45 vectors produced by pass  1 Test12= 2.47D-14 2.08D-09 XBig12= 1.49D+01 4.62D-01.
     45 vectors produced by pass  2 Test12= 2.47D-14 2.08D-09 XBig12= 7.18D-01 1.19D-01.
     45 vectors produced by pass  3 Test12= 2.47D-14 2.08D-09 XBig12= 1.21D-02 1.92D-02.
     45 vectors produced by pass  4 Test12= 2.47D-14 2.08D-09 XBig12= 1.91D-04 2.14D-03.
     45 vectors produced by pass  5 Test12= 2.47D-14 2.08D-09 XBig12= 2.42D-06 1.60D-04.
     42 vectors produced by pass  6 Test12= 2.47D-14 2.08D-09 XBig12= 1.70D-08 2.35D-05.
     25 vectors produced by pass  7 Test12= 2.47D-14 2.08D-09 XBig12= 1.16D-10 9.64D-07.
      9 vectors produced by pass  8 Test12= 2.47D-14 2.08D-09 XBig12= 1.43D-12 1.83D-07.
      8 vectors produced by pass  9 Test12= 2.47D-14 2.08D-09 XBig12= 1.37D-13 5.24D-08.
      8 vectors produced by pass 10 Test12= 2.47D-14 2.08D-09 XBig12= 2.24D-14 1.84D-08.
      8 vectors produced by pass 11 Test12= 2.47D-14 2.08D-09 XBig12= 1.87D-15 6.81D-09.
      8 vectors produced by pass 12 Test12= 2.47D-14 2.08D-09 XBig12= 1.04D-15 4.31D-09.
      8 vectors produced by pass 13 Test12= 2.47D-14 2.08D-09 XBig12= 9.12D-16 4.64D-09.
      7 vectors produced by pass 14 Test12= 2.47D-14 2.08D-09 XBig12= 1.42D-15 5.55D-09.
      6 vectors produced by pass 15 Test12= 2.47D-14 2.08D-09 XBig12= 7.67D-16 3.39D-09.
      5 vectors produced by pass 16 Test12= 2.47D-14 2.08D-09 XBig12= 1.03D-15 4.12D-09.
      5 vectors produced by pass 17 Test12= 2.47D-14 2.08D-09 XBig12= 1.02D-15 4.05D-09.
      4 vectors produced by pass 18 Test12= 2.47D-14 2.08D-09 XBig12= 5.57D-16 3.38D-09.
      4 vectors produced by pass 19 Test12= 2.47D-14 2.08D-09 XBig12= 6.90D-16 3.10D-09.
      4 vectors produced by pass 20 Test12= 2.47D-14 2.08D-09 XBig12= 7.53D-16 3.28D-09.
      2 vectors produced by pass 21 Test12= 2.47D-14 2.08D-09 XBig12= 4.67D-16 2.54D-09.
      1 vectors produced by pass 22 Test12= 2.47D-14 2.08D-09 XBig12= 5.46D-16 2.28D-09.
 InvSVY:  IOpt=1 It=  1 EMax= 3.55D-15
 Solved reduced A of dimension   425 with    48 vectors.
 Isotropic polarizability for W=    0.000000       73.93 Bohr**3.
 End of Minotr F.D. properties file   721 does not exist.
 End of Minotr F.D. properties file   722 does not exist.
 End of Minotr F.D. properties file   788 does not exist.

 **********************************************************************

            Population analysis using the SCF density.

 **********************************************************************

 Orbital symmetries:
 Alpha Orbitals:
       Occupied  (A) (A) (A) (A) (A) (A) (A) (A) (A) (A) (A) (A)
                 (A) (A) (A) (A) (A) (A) (A) (A) (A) (A) (A) (A)
                 (A) (A) (A) (A) (A) (A) (A)
       Virtual   (A) (A) (A) (A) (A) (A) (A) (A) (A) (A) (A) (A)
                 (A) (A) (A) (A) (A) (A) (A) (A) (A) (A) (A) (A)
                 (A) (A) (A) (A) (A) (A) (A) (A) (A) (A) (A) (A)
                 (A) (A) (A) (A) (A) (A) (A) (A) (A) (A) (A) (A)
                 (A) (A) (A) (A) (A) (A) (A) (A) (A) (A) (A) (A)
                 (A) (A) (A) (A) (A) (A) (A) (A) (A) (A) (A) (A)
                 (A) (A) (A) (A) (A) (A) (A) (A) (A) (A) (A) (A)
                 (A) (A) (A) (A) (A) (A) (A) (A) (A) (A) (A) (A)
                 (A) (A) (A) (A) (A) (A) (A) (A) (A) (A) (A) (A)
                 (A) (A) (A) (A) (A) (A) (A) (A) (A) (A) (A) (A)
                 (A) (A) (A) (A) (A) (A) (A) (A) (A) (A) (A) (A)
                 (A) (A) (A) (A) (A) (A) (A) (A) (A) (A) (A) (A)
                 (A) (A) (A) (A) (A) (A) (A) (A) (A) (A) (A) (A)
                 (A) (A) (A) (A) (A) (A) (A) (A) (A) (A) (A) (A)
                 (A) (A) (A) (A) (A) (A) (A) (A) (A) (A) (A) (A)
                 (A) (A) (A) (A) (A) (A) (A) (A) (A) (A) (A) (A)
                 (A) (A)
 Beta  Orbitals:
       Occupied  (A) (A) (A) (A) (A) (A) (A) (A) (A) (A) (A) (A)
                 (A) (A) (A) (A) (A) (A) (A) (A) (A) (A) (A) (A)
                 (A) (A) (A) (A) (A) (A)
       Virtual   (A) (A) (A) (A) (A) (A) (A) (A) (A) (A) (A) (A)
                 (A) (A) (A) (A) (A) (A) (A) (A) (A) (A) (A) (A)
                 (A) (A) (A) (A) (A) (A) (A) (A) (A) (A) (A) (A)
                 (A) (A) (A) (A) (A) (A) (A) (A) (A) (A) (A) (A)
                 (A) (A) (A) (A) (A) (A) (A) (A) (A) (A) (A) (A)
                 (A) (A) (A) (A) (A) (A) (A) (A) (A) (A) (A) (A)
                 (A) (A) (A) (A) (A) (A) (A) (A) (A) (A) (A) (A)
                 (A) (A) (A) (A) (A) (A) (A) (A) (A) (A) (A) (A)
                 (A) (A) (A) (A) (A) (A) (A) (A) (A) (A) (A) (A)
                 (A) (A) (A) (A) (A) (A) (A) (A) (A) (A) (A) (A)
                 (A) (A) (A) (A) (A) (A) (A) (A) (A) (A) (A) (A)
                 (A) (A) (A) (A) (A) (A) (A) (A) (A) (A) (A) (A)
                 (A) (A) (A) (A) (A) (A) (A) (A) (A) (A) (A) (A)
                 (A) (A) (A) (A) (A) (A) (A) (A) (A) (A) (A) (A)
                 (A) (A) (A) (A) (A) (A) (A) (A) (A) (A) (A) (A)
                 (A) (A) (A) (A) (A) (A) (A) (A) (A) (A) (A) (A)
                 (A) (A) (A)
 The electronic state is 2-A.
 Alpha  occ. eigenvalues --  -19.69741 -19.64481 -19.64204 -10.71796 -10.63741
 Alpha  occ. eigenvalues --  -10.61692 -10.59981 -10.54999  -1.26991  -1.17761
 Alpha  occ. eigenvalues --   -1.10494  -0.92808  -0.88868  -0.79014  -0.71620
 Alpha  occ. eigenvalues --   -0.67076  -0.62746  -0.60455  -0.58762  -0.52917
 Alpha  occ. eigenvalues --   -0.52774  -0.51146  -0.48806  -0.47645  -0.45391
 Alpha  occ. eigenvalues --   -0.44665  -0.42386  -0.40018  -0.39874  -0.36141
 Alpha  occ. eigenvalues --   -0.32028
 Alpha virt. eigenvalues --   -0.03239  -0.00846   0.00719   0.01302   0.01700
 Alpha virt. eigenvalues --    0.02252   0.04315   0.05083   0.05708   0.06446
 Alpha virt. eigenvalues --    0.06599   0.07233   0.08285   0.08767   0.10173
 Alpha virt. eigenvalues --    0.11029   0.11723   0.12163   0.12661   0.13073
 Alpha virt. eigenvalues --    0.13308   0.13449   0.14288   0.14640   0.15415
 Alpha virt. eigenvalues --    0.16597   0.17498   0.17653   0.18998   0.19268
 Alpha virt. eigenvalues --    0.21002   0.22532   0.22623   0.22656   0.22943
 Alpha virt. eigenvalues --    0.23165   0.26013   0.26621   0.28121   0.30241
 Alpha virt. eigenvalues --    0.30737   0.30842   0.31143   0.31297   0.32459
 Alpha virt. eigenvalues --    0.32875   0.34982   0.36047   0.36307   0.37756
 Alpha virt. eigenvalues --    0.40410   0.40921   0.44008   0.44946   0.49613
 Alpha virt. eigenvalues --    0.51902   0.52365   0.53642   0.55628   0.56348
 Alpha virt. eigenvalues --    0.61391   0.61908   0.64334   0.64996   0.67266
 Alpha virt. eigenvalues --    0.67453   0.68034   0.68582   0.68866   0.69825
 Alpha virt. eigenvalues --    0.72680   0.74753   0.77654   0.80238   0.80590
 Alpha virt. eigenvalues --    0.84157   0.86927   0.90025   0.91250   0.95622
 Alpha virt. eigenvalues --    1.00953   1.02170   1.06591   1.06710   1.08385
 Alpha virt. eigenvalues --    1.14626   1.14693   1.18426   1.18651   1.20238
 Alpha virt. eigenvalues --    1.21301   1.22249   1.23140   1.28137   1.29319
 Alpha virt. eigenvalues --    1.31155   1.34688   1.35300   1.43690   1.44212
 Alpha virt. eigenvalues --    1.49066   1.51034   1.51496   1.53366   1.53436
 Alpha virt. eigenvalues --    1.57078   1.58029   1.59366   1.59974   1.61726
 Alpha virt. eigenvalues --    1.65741   1.68234   1.69824   1.73950   1.75624
 Alpha virt. eigenvalues --    1.76428   1.81332   1.85042   1.87542   1.88423
 Alpha virt. eigenvalues --    1.88953   1.90707   1.98663   2.00956   2.08121
 Alpha virt. eigenvalues --    2.12389   2.14450   2.18798   2.21507   2.26132
 Alpha virt. eigenvalues --    2.27158   2.29929   2.35610   2.48265   2.50077
 Alpha virt. eigenvalues --    2.53454   2.57597   2.60486   2.63204   2.63564
 Alpha virt. eigenvalues --    2.65639   2.66419   2.66555   2.68940   2.69228
 Alpha virt. eigenvalues --    2.77803   2.79080   2.80681   2.86794   2.89211
 Alpha virt. eigenvalues --    2.91731   2.94665   2.95793   2.96454   3.00626
 Alpha virt. eigenvalues --    3.05146   3.10732   3.14696   3.20004   3.26081
 Alpha virt. eigenvalues --    3.27990   3.28330   3.30985   3.34656   3.42263
 Alpha virt. eigenvalues --    3.57632   3.59910   3.65759   3.74315   3.82917
 Alpha virt. eigenvalues --    3.84665   3.84710   3.93782   4.03261   4.09672
 Alpha virt. eigenvalues --    4.13713   4.29170   5.09572   5.10400   5.14683
 Alpha virt. eigenvalues --    5.18620   5.31067   5.44436   5.61431   5.71893
 Alpha virt. eigenvalues --    5.93015  23.60560  23.92288  23.92751  24.04460
 Alpha virt. eigenvalues --   24.67852  49.98254  49.99745  50.10570
  Beta  occ. eigenvalues --  -19.69698 -19.64402 -19.63502 -10.71843 -10.63900
  Beta  occ. eigenvalues --  -10.61683 -10.59385 -10.54998  -1.26833  -1.17531
  Beta  occ. eigenvalues --   -1.07945  -0.91379  -0.87833  -0.78793  -0.71131
  Beta  occ. eigenvalues --   -0.66698  -0.62097  -0.60330  -0.58468  -0.52670
  Beta  occ. eigenvalues --   -0.51413  -0.50193  -0.48056  -0.45212  -0.44685
  Beta  occ. eigenvalues --   -0.42739  -0.41566  -0.39885  -0.39103  -0.34484
  Beta virt. eigenvalues --   -0.09156  -0.03041  -0.00820   0.00809   0.01520
  Beta virt. eigenvalues --    0.01719   0.02425   0.04737   0.05123   0.05533
  Beta virt. eigenvalues --    0.06465   0.06665   0.07758   0.08963   0.09121
  Beta virt. eigenvalues --    0.10288   0.11372   0.11501   0.12356   0.12744
  Beta virt. eigenvalues --    0.13368   0.13591   0.14033   0.14370   0.14892
  Beta virt. eigenvalues --    0.15387   0.16899   0.17615   0.17977   0.19188
  Beta virt. eigenvalues --    0.19220   0.20918   0.22621   0.22753   0.22788
  Beta virt. eigenvalues --    0.23122   0.23310   0.26032   0.26721   0.28134
  Beta virt. eigenvalues --    0.30113   0.30669   0.30894   0.31194   0.31270
  Beta virt. eigenvalues --    0.32250   0.33170   0.35022   0.35920   0.36633
  Beta virt. eigenvalues --    0.37987   0.40453   0.41046   0.44370   0.44945
  Beta virt. eigenvalues --    0.49833   0.51988   0.52445   0.54047   0.55573
  Beta virt. eigenvalues --    0.56443   0.61440   0.61845   0.64284   0.65729
  Beta virt. eigenvalues --    0.67521   0.67964   0.68241   0.68624   0.69259
  Beta virt. eigenvalues --    0.69899   0.72584   0.74926   0.77677   0.79432
  Beta virt. eigenvalues --    0.80332   0.83635   0.87346   0.90302   0.91065
  Beta virt. eigenvalues --    0.95691   1.01387   1.02298   1.06642   1.07011
  Beta virt. eigenvalues --    1.09265   1.14979   1.15218   1.19427   1.19434
  Beta virt. eigenvalues --    1.21702   1.22080   1.22522   1.23349   1.28148
  Beta virt. eigenvalues --    1.29364   1.31192   1.35032   1.36341   1.43910
  Beta virt. eigenvalues --    1.46290   1.49075   1.51022   1.51671   1.53792
  Beta virt. eigenvalues --    1.54323   1.57087   1.58470   1.59583   1.60219
  Beta virt. eigenvalues --    1.62356   1.65919   1.68256   1.69852   1.74611
  Beta virt. eigenvalues --    1.75636   1.76306   1.81768   1.85147   1.87736
  Beta virt. eigenvalues --    1.88920   1.89443   1.90737   1.99449   2.00974
  Beta virt. eigenvalues --    2.08369   2.12486   2.14845   2.18864   2.21588
  Beta virt. eigenvalues --    2.26208   2.27520   2.30853   2.35631   2.48273
  Beta virt. eigenvalues --    2.50099   2.53487   2.57602   2.60681   2.63158
  Beta virt. eigenvalues --    2.63645   2.65404   2.66356   2.67405   2.69085
  Beta virt. eigenvalues --    2.69295   2.78636   2.79187   2.81827   2.87078
  Beta virt. eigenvalues --    2.89274   2.92723   2.95254   2.96654   2.97604
  Beta virt. eigenvalues --    3.02472   3.05941   3.10848   3.15152   3.20830
  Beta virt. eigenvalues --    3.26098   3.28472   3.30268   3.31949   3.35284
  Beta virt. eigenvalues --    3.42363   3.57085   3.59531   3.66020   3.74441
  Beta virt. eigenvalues --    3.82942   3.84670   3.84722   3.95233   4.03791
  Beta virt. eigenvalues --    4.09935   4.13929   4.29276   5.10333   5.11001
  Beta virt. eigenvalues --    5.14841   5.22151   5.31324   5.44608   5.62777
  Beta virt. eigenvalues --    5.72139   5.93098  23.60706  23.92312  23.92791
  Beta virt. eigenvalues --   24.04463  24.68411  49.97666  49.99656  50.10504
          Condensed to atoms (all electrons):
               1          2          3          4          5          6
     1  C   12.637140   0.606209  -1.943267  -4.052157   0.032688   0.057218
     2  H    0.606209   0.433394  -0.149733  -0.066142   0.001950   0.001992
     3  C   -1.943267  -0.149733  11.626218  -3.811194   0.024190  -0.508048
     4  C   -4.052157  -0.066142  -3.811194  13.365911   0.265324   0.142058
     5  O    0.032688   0.001950   0.024190   0.265324   8.049076  -0.126092
     6  O    0.057218   0.001992  -0.508048   0.142058  -0.126092   8.494865
     7  C   -0.068847   0.000718  -0.336835   0.002845  -0.018883   0.198013
     8  C   -0.072752  -0.000070  -0.270682   0.335054   0.016446  -0.135536
     9  H    0.003440  -0.000025  -0.001419  -0.004600  -0.013444  -0.037471
    10  H    0.003440  -0.000025  -0.001419  -0.004600  -0.013444  -0.037471
    11  H    0.003546  -0.000029   0.011903  -0.009111  -0.000766  -0.007693
    12  H    0.003546  -0.000029   0.011903  -0.009111  -0.000766  -0.007693
    13  H   -0.000885   0.000039  -0.001382   0.004372   0.001393   0.018956
    14  O   -0.033001  -0.039829  -0.089507   0.146750  -0.002758   0.009426
    15  H    0.159795   0.009009  -0.023340  -0.160117   0.002203   0.014651
               7          8          9         10         11         12
     1  C   -0.068847  -0.072752   0.003440   0.003440   0.003546   0.003546
     2  H    0.000718  -0.000070  -0.000025  -0.000025  -0.000029  -0.000029
     3  C   -0.336835  -0.270682  -0.001419  -0.001419   0.011903   0.011903
     4  C    0.002845   0.335054  -0.004600  -0.004600  -0.009111  -0.009111
     5  O   -0.018883   0.016446  -0.013444  -0.013444  -0.000766  -0.000766
     6  O    0.198013  -0.135536  -0.037471  -0.037471  -0.007693  -0.007693
     7  C    5.598742  -0.001445   0.425854   0.425854  -0.026817  -0.026817
     8  C   -0.001445   5.647896  -0.052491  -0.052491   0.389497   0.389497
     9  H    0.425854  -0.052491   0.528589  -0.046210   0.006361  -0.009418
    10  H    0.425854  -0.052491  -0.046210   0.528589  -0.009418   0.006361
    11  H   -0.026817   0.389497   0.006361  -0.009418   0.538253  -0.041610
    12  H   -0.026817   0.389497  -0.009418   0.006361  -0.041610   0.538253
    13  H   -0.045957   0.408497  -0.004709  -0.004709  -0.031040  -0.031040
    14  O   -0.005034   0.004314   0.000226   0.000226  -0.000126  -0.000126
    15  H    0.009732  -0.006950  -0.000027  -0.000027  -0.000739  -0.000739
              13         14         15
     1  C   -0.000885  -0.033001   0.159795
     2  H    0.000039  -0.039829   0.009009
     3  C   -0.001382  -0.089507  -0.023340
     4  C    0.004372   0.146750  -0.160117
     5  O    0.001393  -0.002758   0.002203
     6  O    0.018956   0.009426   0.014651
     7  C   -0.045957  -0.005034   0.009732
     8  C    0.408497   0.004314  -0.006950
     9  H   -0.004709   0.000226  -0.000027
    10  H   -0.004709   0.000226  -0.000027
    11  H   -0.031040  -0.000126  -0.000739
    12  H   -0.031040  -0.000126  -0.000739
    13  H    0.520283  -0.000054  -0.000218
    14  O   -0.000054   8.078832   0.261693
    15  H   -0.000218   0.261693   0.496346
          Atomic-Atomic Spin Densities.
               1          2          3          4          5          6
     1  C   -0.169918   0.044198   0.495576  -0.472629  -0.000848  -0.072518
     2  H    0.044198   0.024662  -0.018599  -0.011280  -0.000176  -0.000667
     3  C    0.495576  -0.018599   2.570092  -1.842686   0.067593  -0.269774
     4  C   -0.472629  -0.011280  -1.842686   2.000464  -0.064910   0.292918
     5  O   -0.000848  -0.000176   0.067593  -0.064910   0.048154  -0.019084
     6  O   -0.072518  -0.000667  -0.269774   0.292918  -0.019084   0.033217
     7  C   -0.037428  -0.000370  -0.065926   0.096180  -0.004638   0.011843
     8  C    0.001645   0.000317  -0.105405   0.052631  -0.007273   0.015648
     9  H   -0.001674   0.000016  -0.011410   0.009381  -0.000525   0.001004
    10  H   -0.001674   0.000016  -0.011410   0.009381  -0.000525   0.001004
    11  H    0.000033  -0.000012   0.000346   0.000131   0.000042   0.000264
    12  H    0.000033  -0.000012   0.000346   0.000131   0.000042   0.000264
    13  H   -0.000070  -0.000007  -0.001034   0.000781  -0.000092   0.000616
    14  O   -0.034721  -0.007304  -0.153389   0.094862  -0.002185   0.010241
    15  H   -0.008679   0.000300   0.036882  -0.015694   0.000840  -0.004336
               7          8          9         10         11         12
     1  C   -0.037428   0.001645  -0.001674  -0.001674   0.000033   0.000033
     2  H   -0.000370   0.000317   0.000016   0.000016  -0.000012  -0.000012
     3  C   -0.065926  -0.105405  -0.011410  -0.011410   0.000346   0.000346
     4  C    0.096180   0.052631   0.009381   0.009381   0.000131   0.000131
     5  O   -0.004638  -0.007273  -0.000525  -0.000525   0.000042   0.000042
     6  O    0.011843   0.015648   0.001004   0.001004   0.000264   0.000264
     7  C    0.032527  -0.018147  -0.001103  -0.001103  -0.002044  -0.002044
     8  C   -0.018147   0.043572   0.003817   0.003817   0.001643   0.001643
     9  H   -0.001103   0.003817   0.000077   0.000407   0.000007  -0.000038
    10  H   -0.001103   0.003817   0.000407   0.000077  -0.000038   0.000007
    11  H   -0.002044   0.001643   0.000007  -0.000038  -0.000124  -0.000091
    12  H   -0.002044   0.001643  -0.000038   0.000007  -0.000091  -0.000124
    13  H   -0.001459   0.001596   0.000015   0.000015  -0.000135  -0.000135
    14  O    0.000424   0.002428   0.000003   0.000003   0.000060   0.000060
    15  H    0.001878  -0.002812  -0.000044  -0.000044  -0.000005  -0.000005
              13         14         15
     1  C   -0.000070  -0.034721  -0.008679
     2  H   -0.000007  -0.007304   0.000300
     3  C   -0.001034  -0.153389   0.036882
     4  C    0.000781   0.094862  -0.015694
     5  O   -0.000092  -0.002185   0.000840
     6  O    0.000616   0.010241  -0.004336
     7  C   -0.001459   0.000424   0.001878
     8  C    0.001596   0.002428  -0.002812
     9  H    0.000015   0.000003  -0.000044
    10  H    0.000015   0.000003  -0.000044
    11  H   -0.000135   0.000060  -0.000005
    12  H   -0.000135   0.000060  -0.000005
    13  H    0.000245   0.000075  -0.000065
    14  O    0.000075   0.457591   0.000996
    15  H   -0.000065   0.000996  -0.012768
 Mulliken charges and spin densities:
               1          2
     1  C   -1.336113  -0.258674
     2  H    0.202569   0.031082
     3  C    1.462611   0.691201
     4  C   -0.145283   0.149663
     5  O   -0.217117   0.016414
     6  O   -0.077174   0.000641
     7  C   -0.131121   0.008590
     8  C   -0.598784  -0.004879
     9  H    0.205342  -0.000067
    10  H    0.205342  -0.000067
    11  H    0.177789   0.000079
    12  H    0.177789   0.000079
    13  H    0.166454   0.000349
    14  O   -0.331033   0.369143
    15  H    0.238728  -0.003556
 Sum of Mulliken charges =   0.00000   1.00000
 Mulliken charges and spin densities with hydrogens summed into heavy atoms:
               1          2
     1  C   -1.133544  -0.227592
     3  C    1.462611   0.691201
     4  C   -0.145283   0.149663
     5  O   -0.217117   0.016414
     6  O   -0.077174   0.000641
     7  C    0.279563   0.008456
     8  C   -0.076751  -0.004371
    14  O   -0.092305   0.365587
 APT charges:
               1
     1  C    0.159856
     2  H    0.169112
     3  C   -0.366808
     4  C    1.487070
     5  O   -0.789602
     6  O   -0.962399
     7  C    0.546913
     8  C   -0.005133
     9  H   -0.024263
    10  H   -0.024256
    11  H    0.014582
    12  H    0.014596
    13  H    0.013137
    14  O   -0.462527
    15  H    0.229721
 Sum of APT charges =   0.00000
 APT charges with hydrogens summed into heavy atoms:
               1
     1  C    0.328968
     3  C   -0.366808
     4  C    1.487070
     5  O   -0.789602
     6  O   -0.962399
     7  C    0.498394
     8  C    0.037183
    14  O   -0.232806
 Electronic spatial extent (au):  <R**2>=           1254.0909
 Charge=              0.0000 electrons
 Dipole moment (field-independent basis, Debye):
    X=             -2.1404    Y=             -0.4610    Z=              0.0000  Tot=              2.1895
 Quadrupole moment (field-independent basis, Debye-Ang):
   XX=            -40.4215   YY=            -57.1335   ZZ=            -47.7316
   XY=              8.6372   XZ=              0.0000   YZ=              0.0000
 Traceless Quadrupole moment (field-independent basis, Debye-Ang):
   XX=              8.0073   YY=             -8.7046   ZZ=              0.6973
   XY=              8.6372   XZ=              0.0000   YZ=              0.0000
 Octapole moment (field-independent basis, Debye-Ang**2):
  XXX=             -1.1675  YYY=            -16.3453  ZZZ=              0.0000  XYY=            -11.7028
  XXY=             19.8005  XXZ=             -0.0001  XZZ=             -5.1721  YZZ=              1.1601
  YYZ=              0.0001  XYZ=              0.0000
 Hexadecapole moment (field-independent basis, Debye-Ang**3):
 XXXX=           -974.0501 YYYY=           -502.2342 ZZZZ=            -60.8452 XXXY=             54.4734
 XXXZ=             -0.0005 YYYX=             12.9602 YYYZ=              0.0012 ZZZX=             -0.0003
 ZZZY=              0.0010 XXYY=           -305.5158 XXZZ=           -205.1370 YYZZ=            -85.2795
 XXYZ=              0.0005 YYXZ=             -0.0002 ZZXY=             -3.2299
 N-N= 3.502355839361D+02 E-N=-1.684468748771D+03  KE= 4.186354635232D+02
  Exact polarizability:  89.721  -8.574  84.619   0.001  -0.001  47.465
 Approx polarizability:  94.072 -16.874 104.070   0.000   0.000  57.186
                          Isotropic Fermi Contact Couplings
        Atom                 a.u.       MegaHertz       Gauss      10(-4) cm-1
     1  C(13)             -0.01817     -20.42467      -7.28803      -6.81294
     2  H(1)               0.01292      57.76957      20.61362      19.26985
     3  C(13)              0.16288     183.10792      65.33746      61.07823
     4  C(13)             -0.02528     -28.42460     -10.14260      -9.48142
     5  O(17)              0.01645      -9.97037      -3.55768      -3.32576
     6  O(17)              0.04942     -29.95874     -10.69002      -9.99316
     7  C(13)              0.00611       6.86517       2.44966       2.28998
     8  C(13)              0.00028       0.31319       0.11175       0.10447
     9  H(1)              -0.00007      -0.32437      -0.11574      -0.10820
    10  H(1)              -0.00007      -0.32437      -0.11574      -0.10820
    11  H(1)              -0.00001      -0.02269      -0.00809      -0.00757
    12  H(1)              -0.00001      -0.02269      -0.00809      -0.00757
    13  H(1)               0.00019       0.84756       0.30243       0.28272
    14  O(17)              0.05884     -35.66746     -12.72703     -11.89738
    15  H(1)              -0.00617     -27.57456      -9.83929      -9.19788
 --------------------------------------------------------
       Center         ----  Spin Dipole Couplings  ----
                      3XX-RR        3YY-RR        3ZZ-RR
 --------------------------------------------------------
     1   Atom        0.161017     -0.073968     -0.087049
     2   Atom       -0.003722      0.007179     -0.003457
     3   Atom       -0.396371      0.740689     -0.344318
     4   Atom        0.016633      0.004951     -0.021584
     5   Atom        0.085545     -0.072341     -0.013204
     6   Atom        0.044915     -0.029592     -0.015323
     7   Atom        0.014183     -0.007008     -0.007175
     8   Atom        0.002245     -0.000236     -0.002009
     9   Atom        0.003266     -0.001723     -0.001544
    10   Atom        0.003266     -0.001723     -0.001543
    11   Atom        0.001498     -0.000255     -0.001243
    12   Atom        0.001498     -0.000255     -0.001243
    13   Atom        0.001409     -0.000483     -0.000926
    14   Atom       -0.734171      1.538294     -0.804123
    15   Atom        0.066720     -0.008789     -0.057931
 --------------------------------------------------------
                        XY            XZ            YZ
 --------------------------------------------------------
     1   Atom       -0.036795      0.000000      0.000000
     2   Atom       -0.001569      0.000000      0.000000
     3   Atom        0.396071     -0.000002     -0.000005
     4   Atom       -0.006328      0.000000      0.000000
     5   Atom       -0.010800      0.000000      0.000000
     6   Atom        0.009203      0.000000      0.000000
     7   Atom        0.001669      0.000000      0.000000
     8   Atom        0.002074      0.000000      0.000000
     9   Atom       -0.000268     -0.001768      0.000484
    10   Atom       -0.000268      0.001768     -0.000484
    11   Atom        0.001354      0.000657      0.000474
    12   Atom        0.001354     -0.000657     -0.000474
    13   Atom        0.000596      0.000000      0.000000
    14   Atom       -0.340051      0.000002     -0.000013
    15   Atom        0.015870      0.000000      0.000000
 --------------------------------------------------------


 ---------------------------------------------------------------------------------
              Anisotropic Spin Dipole Couplings in Principal Axis System
 ---------------------------------------------------------------------------------

       Atom             a.u.   MegaHertz   Gauss  10(-4) cm-1        Axes

              Baa    -0.0870   -11.681    -4.168    -3.896  0.0000  0.0000  1.0000
     1 C(13)  Bbb    -0.0796   -10.681    -3.811    -3.563  0.1512  0.9885  0.0000
              Bcc     0.1666    22.362     7.979     7.459  0.9885 -0.1512  0.0000
 
              Baa    -0.0039    -2.104    -0.751    -0.702  0.9902  0.1397  0.0000
     2 H(1)   Bbb    -0.0035    -1.845    -0.658    -0.615  0.0000  0.0000  1.0000
              Bcc     0.0074     3.948     1.409     1.317 -0.1397  0.9902  0.0000
 
              Baa    -0.5207   -69.877   -24.934   -23.309  0.9541 -0.2996  0.0000
     3 C(13)  Bbb    -0.3443   -46.204   -16.487   -15.412  0.0000  0.0000  1.0000
              Bcc     0.8651   116.081    41.421    38.721  0.2996  0.9541  0.0000
 
              Baa    -0.0216    -2.896    -1.033    -0.966  0.0000  0.0000  1.0000
     4 C(13)  Bbb     0.0022     0.293     0.104     0.098  0.4011  0.9160  0.0000
              Bcc     0.0194     2.604     0.929     0.869  0.9160 -0.4011  0.0000
 
              Baa    -0.0731     5.288     1.887     1.764  0.0679  0.9977  0.0000
     5 O(17)  Bbb    -0.0132     0.955     0.341     0.319  0.0000  0.0000  1.0000
              Bcc     0.0863    -6.243    -2.228    -2.083  0.9977 -0.0679  0.0000
 
              Baa    -0.0307     2.222     0.793     0.741 -0.1208  0.9927  0.0000
     6 O(17)  Bbb    -0.0153     1.109     0.396     0.370  0.0000  0.0000  1.0000
              Bcc     0.0460    -3.331    -1.189    -1.111  0.9927  0.1208  0.0000
 
              Baa    -0.0072    -0.963    -0.344    -0.321  0.0000  0.0000  1.0000
     7 C(13)  Bbb    -0.0071    -0.958    -0.342    -0.320 -0.0781  0.9969  0.0000
              Bcc     0.0143     1.921     0.685     0.641  0.9969  0.0781  0.0000
 
              Baa    -0.0020    -0.270    -0.096    -0.090  0.0000  0.0000  1.0000
     8 C(13)  Bbb    -0.0014    -0.190    -0.068    -0.063 -0.4934  0.8698  0.0000
              Bcc     0.0034     0.459     0.164     0.153  0.8698  0.4934  0.0000
 
              Baa    -0.0024    -1.257    -0.449    -0.419  0.2320 -0.5265  0.8179
     9 H(1)   Bbb    -0.0015    -0.810    -0.289    -0.270  0.2253  0.8471  0.4814
              Bcc     0.0039     2.068     0.738     0.690  0.9463 -0.0726 -0.3152
 
              Baa    -0.0024    -1.257    -0.449    -0.419 -0.2320  0.5265  0.8179
    10 H(1)   Bbb    -0.0015    -0.810    -0.289    -0.270  0.2253  0.8471 -0.4814
              Bcc     0.0039     2.068     0.738     0.690  0.9463 -0.0726  0.3152
 
              Baa    -0.0014    -0.769    -0.274    -0.257 -0.0796 -0.2899  0.9537
    11 H(1)   Bbb    -0.0010    -0.517    -0.185    -0.173 -0.5127  0.8324  0.2102
              Bcc     0.0024     1.286     0.459     0.429  0.8548  0.4723  0.2149
 
              Baa    -0.0014    -0.769    -0.274    -0.257  0.0796  0.2899  0.9537
    12 H(1)   Bbb    -0.0010    -0.517    -0.185    -0.173 -0.5127  0.8324 -0.2102
              Bcc     0.0024     1.286     0.459     0.429  0.8548  0.4723 -0.2149
 
              Baa    -0.0009    -0.494    -0.176    -0.165  0.0000  0.0000  1.0000
    13 H(1)   Bbb    -0.0007    -0.349    -0.125    -0.117 -0.2776  0.9607  0.0000
              Bcc     0.0016     0.843     0.301     0.281  0.9607  0.2776  0.0000
 
              Baa    -0.8041    58.186    20.762    19.409  0.0000  0.0000  1.0000
    14 O(17)  Bbb    -0.7840    56.727    20.242    18.922  0.9894  0.1449  0.0000
              Bcc     1.5881  -114.913   -41.004   -38.331 -0.1449  0.9894  0.0000
 
              Baa    -0.0579   -30.909   -11.029   -10.310  0.0000  0.0000  1.0000
    15 H(1)   Bbb    -0.0120    -6.397    -2.282    -2.134 -0.1977  0.9803  0.0000
              Bcc     0.0699    37.306    13.312    12.444  0.9803  0.1977  0.0000
 

 ---------------------------------------------------------------------------------

 Calling FoFJK, ICntrl=    100127 FMM=F ISym2X=0 I1Cent= 0 IOpClX= 1 NMat=1 NMatS=1 NMatT=0.
 Full mass-weighted force constant matrix:
 Low frequencies --- -664.1607   -0.0006    0.0002    0.0005   16.0842   19.6602
 Low frequencies ---   30.5426   83.6993  109.7935
 ******    1 imaginary frequencies (negative Signs) ****** 
 Diagonal vibrational polarizability:
       19.1088255      10.2115724      37.1296773
 Harmonic frequencies (cm**-1), IR intensities (KM/Mole), Raman scattering
 activities (A**4/AMU), depolarization ratios for plane and unpolarized
 incident light, reduced masses (AMU), force constants (mDyne/A),
 and normal coordinates:
                      1                      2                      3
                      A                      A                      A
 Frequencies --   -664.1607                82.2151               101.4782
 Red. masses --     11.6779                 3.8355                 5.3339
 Frc consts  --      3.0350                 0.0153                 0.0324
 IR Inten    --     21.3963                 1.3834                 0.8613
  Atom  AN      X      Y      Z        X      Y      Z        X      Y      Z
     1   6     0.16   0.77   0.00     0.00   0.00   0.01    -0.09  -0.07   0.00
     2   1     0.22  -0.13   0.00     0.00   0.00   0.02    -0.07  -0.27   0.00
     3   6    -0.06  -0.13   0.00     0.00   0.00  -0.03     0.04   0.15   0.00
     4   6    -0.03   0.01   0.00     0.00   0.00  -0.01     0.03   0.12   0.00
     5   8     0.00   0.01   0.00     0.00   0.00   0.22    -0.03   0.09   0.00
     6   8     0.00   0.01   0.00     0.00   0.00  -0.27     0.11   0.07   0.00
     7   6     0.00   0.00   0.00     0.00   0.00  -0.20     0.10  -0.07   0.00
     8   6     0.00   0.00   0.00     0.00   0.00   0.21     0.27  -0.15   0.00
     9   1     0.00   0.00   0.00     0.06   0.23  -0.34     0.04  -0.11   0.00
    10   1     0.00   0.00   0.00    -0.06  -0.23  -0.34     0.04  -0.11   0.00
    11   1     0.00   0.00   0.00    -0.05  -0.25   0.35     0.34  -0.11   0.00
    12   1     0.00   0.00   0.00     0.05   0.25   0.35     0.34  -0.11   0.00
    13   1     0.00   0.00   0.00     0.00   0.00   0.25     0.26  -0.29   0.00
    14   8    -0.06  -0.49   0.00     0.00   0.00   0.05    -0.37  -0.08   0.00
    15   1    -0.11  -0.21   0.00     0.00   0.00  -0.03    -0.39   0.08   0.00
                      4                      5                      6
                      A                      A                      A
 Frequencies --    114.1904               188.7076               201.9356
 Red. masses --      2.4853                 3.4022                 4.7052
 Frc consts  --      0.0191                 0.0714                 0.1130
 IR Inten    --      0.0005                 4.7221                 5.1566
  Atom  AN      X      Y      Z        X      Y      Z        X      Y      Z
     1   6     0.00   0.00  -0.01     0.00   0.00   0.20    -0.06  -0.10   0.00
     2   1     0.00   0.00  -0.04     0.00   0.00   0.39    -0.07   0.01   0.00
     3   6     0.00   0.00   0.15     0.00   0.00   0.25    -0.10  -0.17   0.00
     4   6     0.00   0.00   0.08     0.00   0.00  -0.05    -0.06   0.11   0.00
     5   8     0.00   0.00  -0.08     0.00   0.00  -0.16     0.11   0.18   0.00
     6   8     0.00   0.00   0.16     0.00   0.00  -0.15    -0.16   0.18   0.00
     7   6     0.00   0.00  -0.17     0.00   0.00   0.06    -0.16   0.02   0.00
     8   6     0.00   0.00   0.06     0.00   0.00   0.10     0.17  -0.14   0.00
     9   1    -0.18   0.23  -0.38     0.15  -0.05   0.14    -0.26  -0.03   0.01
    10   1     0.18  -0.23  -0.38    -0.15   0.05   0.14    -0.26  -0.03  -0.01
    11   1     0.21  -0.24   0.28    -0.31   0.10  -0.06     0.34  -0.05   0.00
    12   1    -0.21   0.24   0.28     0.31  -0.10  -0.06     0.34  -0.05   0.00
    13   1     0.00   0.00  -0.22     0.00   0.00   0.49     0.14  -0.47   0.00
    14   8     0.00   0.00  -0.14     0.00   0.00  -0.16     0.18  -0.09   0.00
    15   1     0.00   0.00  -0.06     0.00   0.00  -0.33     0.19  -0.23   0.00
                      7                      8                      9
                      A                      A                      A
 Frequencies --    271.1477               308.5251               337.7570
 Red. masses --      1.2242                 1.4551                 6.9067
 Frc consts  --      0.0530                 0.0816                 0.4642
 IR Inten    --      0.0122                38.6401                 1.1637
  Atom  AN      X      Y      Z        X      Y      Z        X      Y      Z
     1   6     0.00   0.00   0.07     0.00   0.00   0.09     0.15   0.15   0.00
     2   1     0.00   0.00   0.20     0.00   0.00   0.33     0.15   0.11   0.00
     3   6     0.00   0.00  -0.03     0.00   0.00  -0.14     0.04  -0.10   0.00
     4   6     0.00   0.00  -0.04     0.00   0.00  -0.02     0.07  -0.11   0.00
     5   8     0.00   0.00   0.00     0.00   0.00   0.02     0.40   0.02   0.00
     6   8     0.00   0.00  -0.06     0.00   0.00   0.09    -0.12  -0.01   0.00
     7   6     0.00   0.00   0.08     0.00   0.00  -0.03    -0.16  -0.11   0.00
     8   6     0.00   0.00   0.02     0.00   0.00   0.01    -0.11  -0.16   0.00
     9   1     0.07  -0.06   0.15    -0.07   0.05  -0.09    -0.20  -0.13   0.01
    10   1    -0.07   0.06   0.15     0.07  -0.05  -0.09    -0.20  -0.13  -0.01
    11   1     0.44  -0.12   0.24    -0.12   0.01  -0.04    -0.09  -0.15   0.00
    12   1    -0.44   0.12   0.24     0.12  -0.01  -0.04    -0.09  -0.15   0.00
    13   1     0.00   0.00  -0.55     0.00   0.00   0.16    -0.11  -0.20   0.00
    14   8     0.00   0.00  -0.02     0.00   0.00   0.01    -0.22   0.25   0.00
    15   1     0.00   0.00  -0.20     0.00   0.00  -0.87    -0.25   0.49   0.00
                     10                     11                     12
                      A                      A                      A
 Frequencies --    354.7467               393.4678               531.6370
 Red. masses --      1.8860                 3.4903                 6.8489
 Frc consts  --      0.1398                 0.3184                 1.1405
 IR Inten    --     68.2916                10.1910                 1.3065
  Atom  AN      X      Y      Z        X      Y      Z        X      Y      Z
     1   6     0.00   0.00  -0.17    -0.03  -0.05   0.00     0.12  -0.04   0.00
     2   1     0.00   0.00  -0.46    -0.03  -0.07   0.00     0.15  -0.23   0.00
     3   6     0.00   0.00   0.16     0.04   0.11   0.00     0.33   0.47   0.00
     4   6     0.00   0.00   0.06     0.02   0.15   0.00     0.06  -0.09   0.00
     5   8     0.00   0.00  -0.02     0.04   0.16   0.00    -0.02  -0.12   0.00
     6   8     0.00   0.00  -0.05     0.09   0.06   0.00    -0.16   0.03   0.00
     7   6     0.00   0.00   0.02     0.04  -0.20   0.00    -0.28   0.09   0.00
     8   6     0.00   0.00  -0.01    -0.24  -0.13   0.00    -0.04  -0.06   0.00
     9   1     0.04  -0.04   0.06    -0.01  -0.21  -0.01    -0.29   0.06   0.01
    10   1    -0.04   0.04   0.06    -0.01  -0.21   0.01    -0.29   0.06  -0.01
    11   1     0.05   0.00   0.00    -0.47  -0.24  -0.01     0.15   0.04   0.01
    12   1    -0.05   0.00   0.00    -0.47  -0.24   0.01     0.15   0.04  -0.01
    13   1     0.00   0.00  -0.09    -0.21   0.27   0.00    -0.07  -0.41   0.00
    14   8     0.00   0.00   0.11     0.07  -0.08   0.00     0.05  -0.14   0.00
    15   1     0.00   0.00  -0.83     0.07  -0.14   0.00     0.05  -0.13   0.00
                     13                     14                     15
                      A                      A                      A
 Frequencies --    600.7417               768.5882               803.7611
 Red. masses --      7.0559                 4.8311                 1.5585
 Frc consts  --      1.5003                 1.6814                 0.5932
 IR Inten    --     11.3732                 5.9490                46.8255
  Atom  AN      X      Y      Z        X      Y      Z        X      Y      Z
     1   6     0.39  -0.08   0.00     0.00   0.00   0.19     0.00   0.00  -0.16
     2   1     0.42  -0.19   0.00     0.00   0.00  -0.73     0.00   0.00   0.94
     3   6     0.22  -0.31   0.00     0.00   0.00  -0.22     0.00   0.00   0.00
     4   6     0.06   0.15   0.00     0.00   0.00   0.47     0.00   0.00   0.14
     5   8    -0.33   0.00   0.00     0.00   0.00  -0.14     0.00   0.00  -0.04
     6   8     0.00   0.18   0.00     0.00   0.00  -0.11     0.00   0.00  -0.03
     7   6    -0.07  -0.01   0.00     0.00   0.00  -0.03     0.00   0.00  -0.02
     8   6    -0.06  -0.06   0.00     0.00   0.00   0.00     0.00   0.00  -0.01
     9   1    -0.14  -0.04   0.00     0.08  -0.17   0.11     0.02  -0.13   0.07
    10   1    -0.14  -0.04   0.00    -0.08   0.17   0.11    -0.02   0.13   0.07
    11   1    -0.10  -0.08   0.00    -0.03  -0.12   0.06    -0.03  -0.10   0.04
    12   1    -0.10  -0.08   0.00     0.03   0.12   0.06     0.03   0.10   0.04
    13   1    -0.05  -0.01   0.00     0.00   0.00   0.05     0.00   0.00   0.04
    14   8    -0.07   0.06   0.00     0.00   0.00  -0.03     0.00   0.00   0.02
    15   1    -0.12   0.45   0.00     0.00   0.00  -0.03     0.00   0.00   0.07
                     16                     17                     18
                      A                      A                      A
 Frequencies --    826.1119               897.0873               948.0653
 Red. masses --      1.1528                 2.4638                 4.4850
 Frc consts  --      0.4636                 1.1682                 2.3751
 IR Inten    --      0.6035                15.0557                26.1049
  Atom  AN      X      Y      Z        X      Y      Z        X      Y      Z
     1   6     0.00   0.00  -0.02    -0.03   0.01   0.00     0.16  -0.07   0.00
     2   1     0.00   0.00   0.12    -0.03   0.02   0.00     0.15   0.21   0.00
     3   6     0.00   0.00  -0.01    -0.01   0.03   0.00     0.09   0.05   0.00
     4   6     0.00   0.00   0.06     0.03  -0.08   0.00    -0.24   0.02   0.00
     5   8     0.00   0.00  -0.02     0.01  -0.13   0.00     0.01   0.19   0.00
     6   8     0.00   0.00  -0.04    -0.12   0.19   0.00    -0.18  -0.21   0.00
     7   6     0.00   0.00   0.07     0.09  -0.07   0.00     0.05  -0.14   0.00
     8   6     0.00   0.00   0.04     0.13   0.01   0.00     0.14   0.15   0.00
     9   1     0.02   0.45  -0.23    -0.14  -0.16  -0.01    -0.02  -0.18   0.01
    10   1    -0.02  -0.45  -0.23    -0.14  -0.16   0.01    -0.02  -0.18  -0.01
    11   1     0.12   0.41  -0.18    -0.30  -0.14  -0.05    -0.02   0.11  -0.03
    12   1    -0.12  -0.41  -0.18    -0.30  -0.14   0.05    -0.02   0.11   0.03
    13   1     0.00   0.00  -0.18     0.18   0.73   0.00     0.17   0.51   0.00
    14   8     0.00   0.00   0.00     0.00   0.00   0.00     0.00  -0.06   0.00
    15   1     0.00   0.00   0.01     0.01  -0.09   0.00    -0.06   0.51   0.00
                     19                     20                     21
                      A                      A                      A
 Frequencies --    964.9688              1079.6103              1129.4291
 Red. masses --      1.1531                 3.2176                 1.1400
 Frc consts  --      0.6326                 2.2096                 0.8568
 IR Inten    --     47.3130                38.2432                24.1673
  Atom  AN      X      Y      Z        X      Y      Z        X      Y      Z
     1   6    -0.01  -0.03   0.00     0.05  -0.01   0.00     0.05  -0.01   0.00
     2   1    -0.11   0.84   0.00     0.06  -0.08   0.00     0.00   0.57   0.00
     3   6    -0.01   0.01   0.00     0.02   0.03   0.00     0.04  -0.01   0.00
     4   6     0.03  -0.01   0.00    -0.10  -0.04   0.00     0.01   0.01   0.00
     5   8     0.00  -0.03   0.00     0.01   0.01   0.00    -0.01   0.02   0.00
     6   8     0.02   0.03   0.00    -0.18   0.05   0.00    -0.03  -0.01   0.00
     7   6    -0.01   0.02   0.00     0.30   0.11   0.00     0.02  -0.03   0.00
     8   6    -0.02  -0.02   0.00    -0.11  -0.14   0.00    -0.01   0.02   0.00
     9   1     0.01   0.02   0.00     0.42   0.26  -0.05     0.00  -0.03   0.00
    10   1     0.01   0.02   0.00     0.42   0.26   0.05     0.00  -0.03   0.00
    11   1     0.00  -0.02   0.00     0.04  -0.18   0.06     0.05   0.04   0.01
    12   1     0.00  -0.02   0.00     0.04  -0.18  -0.06     0.05   0.04  -0.01
    13   1    -0.02  -0.05   0.00    -0.13  -0.45   0.00    -0.01  -0.05   0.00
    14   8     0.00  -0.07   0.00     0.00  -0.01   0.00    -0.05   0.02   0.00
    15   1    -0.07   0.51   0.00    -0.01   0.09   0.00     0.04  -0.81   0.00
                     22                     23                     24
                      A                      A                      A
 Frequencies --   1151.3158              1186.4644              1272.3183
 Red. masses --      2.2103                 1.5725                 8.9557
 Frc consts  --      1.7262                 1.3042                 8.5416
 IR Inten    --      8.8238                 4.2313               623.3709
  Atom  AN      X      Y      Z        X      Y      Z        X      Y      Z
     1   6     0.02  -0.01   0.00     0.00   0.00   0.00    -0.15   0.05   0.00
     2   1     0.01   0.11   0.00     0.00   0.00   0.00    -0.16  -0.06   0.00
     3   6     0.01  -0.01   0.00     0.00   0.00   0.00    -0.01  -0.03   0.00
     4   6    -0.03   0.00   0.00     0.00   0.00   0.01     0.59   0.30   0.00
     5   8    -0.01   0.05   0.00     0.00   0.00   0.00    -0.08   0.02   0.00
     6   8     0.04  -0.10   0.00     0.00   0.00  -0.05    -0.32  -0.26   0.00
     7   6    -0.07   0.22   0.00     0.00   0.00   0.18     0.14   0.04   0.00
     8   6     0.10  -0.16   0.00     0.00   0.00  -0.13     0.00   0.00   0.00
     9   1    -0.01   0.24   0.01    -0.36   0.32  -0.14    -0.33  -0.13  -0.01
    10   1    -0.01   0.24  -0.01     0.36  -0.32  -0.14    -0.33  -0.13   0.01
    11   1    -0.41  -0.32  -0.07    -0.07  -0.41   0.11     0.00  -0.07   0.03
    12   1    -0.41  -0.32   0.07     0.07   0.41   0.11     0.00  -0.07  -0.03
    13   1     0.12   0.40   0.00     0.00   0.00   0.26     0.00   0.02   0.00
    14   8    -0.01   0.00   0.00     0.00   0.00   0.00     0.02   0.00   0.00
    15   1     0.01  -0.16   0.00     0.00   0.00   0.00    -0.02   0.22   0.00
                     25                     26                     27
                      A                      A                      A
 Frequencies --   1315.4005              1402.3818              1441.7415
 Red. masses --      1.0822                 1.2452                 1.4637
 Frc consts  --      1.1032                 1.4429                 1.7926
 IR Inten    --      1.7490                 3.6813                14.5892
  Atom  AN      X      Y      Z        X      Y      Z        X      Y      Z
     1   6     0.00   0.00   0.00     0.01   0.00   0.00    -0.01   0.00   0.00
     2   1     0.00   0.00   0.00     0.01   0.00   0.00    -0.02   0.00   0.00
     3   6     0.00   0.00   0.00     0.00   0.00   0.00     0.00   0.00   0.00
     4   6     0.00   0.00   0.00    -0.04  -0.01   0.00     0.05   0.01   0.00
     5   8     0.00   0.00   0.00     0.01   0.00   0.00    -0.01   0.00   0.00
     6   8     0.00   0.00   0.04     0.03  -0.01   0.00    -0.03   0.01   0.00
     7   6     0.00   0.00   0.00     0.06   0.06   0.00    -0.09  -0.11   0.00
     8   6     0.00   0.00  -0.07     0.02   0.10   0.00     0.09   0.10   0.00
     9   1     0.62   0.27   0.02    -0.34  -0.25   0.07     0.42   0.25  -0.07
    10   1    -0.62  -0.27   0.02    -0.34  -0.25  -0.07     0.42   0.25   0.07
    11   1    -0.03  -0.19   0.04    -0.22  -0.31   0.17    -0.34  -0.18   0.03
    12   1     0.03   0.19   0.04    -0.22  -0.31  -0.17    -0.34  -0.18  -0.03
    13   1     0.00   0.00   0.09    -0.03  -0.51   0.00     0.04  -0.41   0.00
    14   8     0.00   0.00   0.00     0.00   0.00   0.00     0.00   0.00   0.00
    15   1     0.00   0.00   0.00     0.00   0.00   0.00     0.00   0.00   0.00
                     28                     29                     30
                      A                      A                      A
 Frequencies --   1493.6526              1507.3661              1529.7664
 Red. masses --      1.0373                 1.0528                 1.0851
 Frc consts  --      1.3635                 1.4094                 1.4962
 IR Inten    --      9.1254                 3.3437                 8.1783
  Atom  AN      X      Y      Z        X      Y      Z        X      Y      Z
     1   6     0.00   0.00   0.00     0.00   0.00   0.00     0.00   0.00   0.00
     2   1     0.00   0.00   0.00     0.00   0.00   0.00    -0.01   0.00   0.00
     3   6     0.00   0.00   0.00     0.00   0.00   0.00     0.00   0.00   0.00
     4   6     0.00   0.00   0.00     0.00   0.00   0.00     0.02   0.00   0.00
     5   8     0.00   0.00   0.00     0.00   0.00   0.00     0.00   0.00   0.00
     6   8     0.00   0.00   0.00     0.01   0.00   0.00    -0.02   0.01   0.00
     7   6     0.00   0.00  -0.02    -0.02  -0.04   0.00    -0.05   0.05   0.00
     8   6     0.00   0.00  -0.05    -0.03   0.04   0.00    -0.01   0.01   0.00
     9   1     0.00  -0.04   0.00    -0.07   0.23  -0.18     0.37  -0.36   0.38
    10   1     0.00   0.04   0.00    -0.07   0.23   0.18     0.37  -0.36  -0.38
    11   1     0.48   0.14   0.05     0.29  -0.38   0.36     0.13  -0.17   0.16
    12   1    -0.48  -0.14   0.05     0.29  -0.38  -0.36     0.13  -0.17  -0.16
    13   1     0.00   0.00   0.70     0.00   0.29   0.00     0.00   0.15   0.00
    14   8     0.00   0.00   0.00     0.00   0.00   0.00     0.00   0.00   0.00
    15   1     0.00   0.00   0.00     0.00   0.00   0.00     0.00   0.00   0.00
                     31                     32                     33
                      A                      A                      A
 Frequencies --   1834.2679              1912.0983              3069.0663
 Red. masses --     11.9563                 7.7091                 1.0355
 Frc consts  --     23.7012                16.6064                 5.7466
 IR Inten    --    354.9563               180.2638                 7.7009
  Atom  AN      X      Y      Z        X      Y      Z        X      Y      Z
     1   6     0.16  -0.06   0.00    -0.39   0.13   0.00     0.00   0.00   0.00
     2   1     0.23  -0.01   0.00    -0.61   0.11   0.00     0.00   0.00   0.00
     3   6    -0.17   0.07   0.00     0.57  -0.22   0.00     0.00   0.00   0.00
     4   6    -0.27   0.70   0.00    -0.19   0.13   0.00     0.00   0.00   0.00
     5   8     0.21  -0.47   0.00     0.03  -0.07   0.00     0.00   0.00   0.00
     6   8     0.00  -0.06   0.00    -0.01  -0.01   0.00     0.00   0.00   0.00
     7   6    -0.03   0.01   0.00     0.01   0.01   0.00     0.00   0.00   0.00
     8   6     0.01  -0.01   0.00     0.00   0.00   0.00    -0.02  -0.04   0.00
     9   1     0.12   0.06   0.03     0.00   0.01   0.00     0.00  -0.01  -0.01
    10   1     0.12   0.06  -0.03     0.00   0.01   0.00     0.00  -0.01   0.01
    11   1    -0.02  -0.03   0.00     0.00   0.00   0.00    -0.16   0.28   0.46
    12   1    -0.02  -0.03   0.00     0.00   0.00   0.00    -0.16   0.28  -0.46
    13   1     0.01   0.05   0.00     0.00   0.00   0.00     0.60  -0.05   0.00
    14   8    -0.01  -0.01   0.00     0.01   0.04   0.00     0.00   0.00   0.00
    15   1     0.00  -0.08   0.00     0.01   0.10   0.00     0.00   0.00   0.00
                     34                     35                     36
                      A                      A                      A
 Frequencies --   3104.3933              3142.4713              3148.3157
 Red. masses --      1.0589                 1.1068                 1.1013
 Frc consts  --      6.0124                 6.4394                 6.4315
 IR Inten    --      9.2524                 0.0557                11.9702
  Atom  AN      X      Y      Z        X      Y      Z        X      Y      Z
     1   6     0.00   0.00   0.00     0.00   0.00   0.00     0.00   0.00   0.00
     2   1     0.00   0.00   0.00     0.00   0.00   0.00     0.00   0.00   0.00
     3   6     0.00   0.00   0.00     0.00   0.00   0.00     0.00   0.00   0.00
     4   6     0.00   0.00   0.00     0.00   0.00   0.00     0.00   0.00   0.00
     5   8     0.00   0.00   0.00     0.00   0.00   0.00     0.00   0.00   0.00
     6   8     0.00   0.00   0.00     0.00   0.00   0.00     0.00   0.00   0.00
     7   6     0.03  -0.06   0.00     0.00   0.00  -0.07    -0.01   0.01   0.00
     8   6    -0.01   0.01   0.00     0.00   0.00   0.07    -0.08   0.04   0.00
     9   1    -0.17   0.36   0.58    -0.13   0.27   0.41     0.02  -0.05  -0.08
    10   1    -0.17   0.36  -0.58     0.13  -0.27   0.41     0.02  -0.05   0.08
    11   1     0.01  -0.02  -0.04     0.14  -0.25  -0.40     0.10  -0.21  -0.35
    12   1     0.01  -0.02   0.04    -0.14   0.25  -0.40     0.10  -0.21   0.35
    13   1     0.12  -0.01   0.00     0.00   0.00   0.01     0.78  -0.06   0.00
    14   8     0.00   0.00   0.00     0.00   0.00   0.00     0.00   0.00   0.00
    15   1     0.00   0.00   0.00     0.00   0.00   0.00     0.00   0.00   0.00
                     37                     38                     39
                      A                      A                      A
 Frequencies --   3164.9906              3312.7053              3826.6946
 Red. masses --      1.1074                 1.1189                 1.0680
 Frc consts  --      6.5357                 7.2346                 9.2143
 IR Inten    --     20.9367                21.7557                45.0143
  Atom  AN      X      Y      Z        X      Y      Z        X      Y      Z
     1   6     0.00   0.00   0.00    -0.10   0.00   0.00     0.00   0.00   0.00
     2   1     0.00   0.00   0.00     0.99   0.11   0.00     0.00   0.00   0.00
     3   6     0.00   0.00   0.00     0.02  -0.01   0.00     0.00   0.00   0.00
     4   6     0.00   0.00   0.00     0.00   0.00   0.00     0.00   0.00   0.00
     5   8     0.00   0.00   0.00     0.00   0.00   0.00     0.00   0.00   0.00
     6   8     0.00   0.00   0.00     0.00   0.00   0.00     0.00   0.00   0.00
     7   6     0.00   0.00   0.07     0.00   0.00   0.00     0.00   0.00   0.00
     8   6     0.00   0.00   0.07     0.00   0.00   0.00     0.00   0.00   0.00
     9   1     0.12  -0.26  -0.40     0.00   0.00   0.00     0.00   0.00   0.00
    10   1    -0.12   0.26  -0.40     0.00   0.00   0.00     0.00   0.00   0.00
    11   1     0.14  -0.26  -0.41     0.00   0.00   0.00     0.00   0.00   0.00
    12   1    -0.14   0.26  -0.41     0.00   0.00   0.00     0.00   0.00   0.00
    13   1     0.00   0.00   0.01     0.00   0.00   0.00     0.00   0.00   0.00
    14   8     0.00   0.00   0.00     0.00   0.00   0.00     0.06   0.01   0.00
    15   1     0.00   0.00   0.00     0.00   0.00   0.00    -0.99  -0.12   0.00

 -------------------
 - Thermochemistry -
 -------------------
 Temperature   298.150 Kelvin.  Pressure   1.00000 Atm.
 Atom     1 has atomic number  6 and mass  12.00000
 Atom     2 has atomic number  1 and mass   1.00783
 Atom     3 has atomic number  6 and mass  12.00000
 Atom     4 has atomic number  6 and mass  12.00000
 Atom     5 has atomic number  8 and mass  15.99491
 Atom     6 has atomic number  8 and mass  15.99491
 Atom     7 has atomic number  6 and mass  12.00000
 Atom     8 has atomic number  6 and mass  12.00000
 Atom     9 has atomic number  1 and mass   1.00783
 Atom    10 has atomic number  1 and mass   1.00783
 Atom    11 has atomic number  1 and mass   1.00783
 Atom    12 has atomic number  1 and mass   1.00783
 Atom    13 has atomic number  1 and mass   1.00783
 Atom    14 has atomic number  8 and mass  15.99491
 Atom    15 has atomic number  1 and mass   1.00783
 Molecular mass:   115.03952 amu.
 Principal axes and moments of inertia in atomic units:
                           1         2         3
     Eigenvalues --   611.255181447.772912036.46136
           X            0.99922   0.03957   0.00000
           Y           -0.03957   0.99922   0.00000
           Z            0.00000   0.00000   1.00000
 This molecule is an asymmetric top.
 Rotational symmetry number  1.
 Warning -- assumption of classical behavior for rotation
           may cause significant error
 Rotational temperatures (Kelvin)      0.14170     0.05983     0.04253
 Rotational constants (GHZ):           2.95252     1.24656     0.88621
    1 imaginary frequencies ignored.
 Zero-point vibrational energy     297389.1 (Joules/Mol)
                                   71.07771 (Kcal/Mol)
 Warning -- explicit consideration of  12 degrees of freedom as
           vibrations may cause significant error
 Vibrational temperatures:    118.29   146.00   164.29   271.51   290.54
          (Kelvin)            390.12   443.90   485.96   510.40   566.11
                              764.91   864.33  1105.83  1156.43  1188.59
                             1290.71  1364.05  1388.37  1553.32  1624.99
                             1656.48  1707.06  1830.58  1892.57  2017.71
                             2074.34  2149.03  2168.76  2200.99  2639.10
                             2751.08  4415.70  4466.52  4521.31  4529.72
                             4553.71  4766.24  5505.75
 
 Zero-point correction=                           0.113270 (Hartree/Particle)
 Thermal correction to Energy=                    0.122241
 Thermal correction to Enthalpy=                  0.123185
 Thermal correction to Gibbs Free Energy=         0.078528
 Sum of electronic and zero-point Energies=           -420.105711
 Sum of electronic and thermal Energies=              -420.096739
 Sum of electronic and thermal Enthalpies=            -420.095795
 Sum of electronic and thermal Free Energies=         -420.140452
 
                     E (Thermal)             CV                S
                      KCal/Mol        Cal/Mol-Kelvin    Cal/Mol-Kelvin
 Total                   76.707             30.824             93.988
 Electronic               0.000              0.000              1.377
 Translational            0.889              2.981             40.136
 Rotational               0.889              2.981             28.979
 Vibrational             74.930             24.862             23.496
 Vibration     1          0.600              1.961              3.837
 Vibration     2          0.604              1.948              3.426
 Vibration     3          0.607              1.938              3.196
 Vibration     4          0.633              1.855              2.240
 Vibration     5          0.639              1.837              2.115
 Vibration     6          0.675              1.726              1.589
 Vibration     7          0.698              1.657              1.370
 Vibration     8          0.718              1.600              1.223
 Vibration     9          0.731              1.566              1.145
 Vibration    10          0.761              1.484              0.987
 Vibration    11          0.887              1.180              0.584
 Vibration    12          0.959              1.030              0.448
                       Q            Log10(Q)             Ln(Q)
 Total Bot       0.757848D-36        -36.120418        -83.170336
 Total V=0       0.954649D+16         15.979844         36.794950
 Vib (Bot)       0.162585D-49        -49.788920       -114.643225
 Vib (Bot)    1  0.250407D+01          0.398646          0.917915
 Vib (Bot)    2  0.202180D+01          0.305738          0.703988
 Vib (Bot)    3  0.179197D+01          0.253332          0.583317
 Vib (Bot)    4  0.106108D+01          0.025749          0.059289
 Vib (Bot)    5  0.986687D+00         -0.005821         -0.013403
 Vib (Bot)    6  0.712336D+00         -0.147315         -0.339205
 Vib (Bot)    7  0.613417D+00         -0.212244         -0.488711
 Vib (Bot)    8  0.550537D+00         -0.259214         -0.596861
 Vib (Bot)    9  0.518479D+00         -0.285269         -0.656856
 Vib (Bot)   10  0.455144D+00         -0.341851         -0.787142
 Vib (Bot)   11  0.300365D+00         -0.522351         -1.202758
 Vib (Bot)   12  0.248369D+00         -0.604902         -1.392838
 Vib (V=0)       0.204806D+03          2.311342          5.322061
 Vib (V=0)    1  0.305350D+01          0.484797          1.116287
 Vib (V=0)    2  0.258271D+01          0.412075          0.948839
 Vib (V=0)    3  0.236042D+01          0.372990          0.858840
 Vib (V=0)    4  0.167299D+01          0.223492          0.514610
 Vib (V=0)    5  0.160614D+01          0.205784          0.473835
 Vib (V=0)    6  0.137030D+01          0.136816          0.315030
 Vib (V=0)    7  0.129138D+01          0.111054          0.255710
 Vib (V=0)    8  0.124370D+01          0.094716          0.218091
 Vib (V=0)    9  0.122029D+01          0.086464          0.199090
 Vib (V=0)   10  0.117613D+01          0.070456          0.162232
 Vib (V=0)   11  0.108328D+01          0.034742          0.079996
 Vib (V=0)   12  0.105829D+01          0.024605          0.056654
 Electronic      0.200000D+01          0.301030          0.693147
 Translational   0.484982D+08          7.685726         17.697038
 Rotational      0.480558D+06          5.681746         13.082704
 ***** Axes restored to original set *****
 -------------------------------------------------------------------
 Center     Atomic                   Forces (Hartrees/Bohr)
 Number     Number              X              Y              Z
 -------------------------------------------------------------------
      1        6          -0.012408133   -0.066594652    0.000000321
      2        1          -0.001767664    0.001953209   -0.000000009
      3        6           0.004395810    0.010218139   -0.000000047
      4        6           0.001093140   -0.000936550    0.000000058
      5        8          -0.000206234   -0.000552688   -0.000000017
      6        8          -0.000317002   -0.000694594   -0.000000032
      7        6          -0.000025151   -0.000150879    0.000000093
      8        6          -0.000085200   -0.000036246    0.000000051
      9        1           0.000000850   -0.000004432   -0.000003742
     10        1           0.000000853   -0.000004343    0.000003645
     11        1          -0.000005803   -0.000005218   -0.000001882
     12        1          -0.000005766   -0.000005248    0.000001886
     13        1          -0.000009507   -0.000023409   -0.000000034
     14        8           0.008501398    0.055035368   -0.000000280
     15        1           0.000838407    0.001801542   -0.000000011
 -------------------------------------------------------------------
 Cartesian Forces:  Max     0.066594652 RMS     0.013188912

 GradGradGradGradGradGradGradGradGradGradGradGradGradGradGradGradGradGrad
 Berny optimization.
 Search for a local minimum.
 Step number   1 out of a maximum of    2
 All quantities printed in internal units (Hartrees-Bohrs-Radians)
 Second derivative matrix not updated -- analytic derivatives used.
 ITU=  0
     Eigenvalues ---   -0.21059   0.00093   0.00186   0.00239   0.00349
     Eigenvalues ---    0.00543   0.00765   0.01273   0.02181   0.02540
     Eigenvalues ---    0.02632   0.03196   0.04765   0.05601   0.07538
     Eigenvalues ---    0.08213   0.08547   0.10830   0.11487   0.12129
     Eigenvalues ---    0.12881   0.14923   0.15061   0.16541   0.20164
     Eigenvalues ---    0.29224   0.30230   0.44849   0.47371   0.63722
     Eigenvalues ---    0.69350   0.73509   0.79241   0.86199   0.89340
     Eigenvalues ---    0.92241   1.03406   1.72678   1.89321
 Eigenvalue     1 is  -2.11D-01 should be greater than     0.000000 Eigenvector:
                          Y1        Y14       Y3        X1        X2
   1                    0.76897  -0.58212  -0.13467   0.12853   0.11886
                          X3        X15       Y15       X14       X4
   1                   -0.07895  -0.07878  -0.06740  -0.03541  -0.03213
 Quadratic step=5.622D-01 exceeds max=3.000D-01 adjusted using Lamda=-8.366D-02.
 Angle between NR and scaled steps=  38.47 degrees.
 Angle between quadratic step and forces=   6.13 degrees.
 Linear search not attempted -- first point.
 TrRot= -0.000167  0.002396  0.000000  0.000166  0.000000  0.000166
 Variable       Old X    -DE/DX   Delta X   Delta X   Delta X     New X
                                 (Linear)    (Quad)   (Total)
    X1        4.79258  -0.01241   0.00000  -0.03048  -0.03060   4.76198
    Y1        0.07264  -0.06659   0.00000  -0.22829  -0.22432  -0.15168
    Z1        0.00000   0.00000   0.00000   0.00000   0.00000   0.00000
    X2        6.81380  -0.00177   0.00000  -0.01028  -0.01055   6.80325
    Y2        0.29760   0.00195   0.00000   0.00239   0.00703   0.30463
    Z2        0.00000   0.00000   0.00000   0.00000   0.00000   0.00000
    X3        2.71939   0.00440   0.00000   0.01862   0.01804   2.73743
    Y3        1.24377   0.01022   0.00000   0.02525   0.02855   1.27232
    Z3       -0.00001   0.00000   0.00000   0.00000   0.00000   0.00000
    X4        0.02746   0.00109   0.00000   0.00510   0.00434   0.03180
    Y4        1.79819  -0.00094   0.00000  -0.00522  -0.00282   1.79538
    Z4       -0.00001   0.00000   0.00000   0.00000   0.00000  -0.00001
    X5       -0.83227  -0.00021   0.00000   0.00157   0.00011  -0.83216
    Y5        3.89373  -0.00055   0.00000  -0.00274  -0.00062   3.89311
    Z5       -0.00002   0.00000   0.00000   0.00000   0.00000  -0.00002
    X6       -1.32890  -0.00032   0.00000  -0.00643  -0.00648  -1.33538
    Y6       -0.33139  -0.00069   0.00000  -0.00214  -0.00018  -0.33158
    Z6        0.00000   0.00000   0.00000   0.00000   0.00000   0.00000
    X7       -4.03848  -0.00003   0.00000  -0.00412  -0.00429  -4.04277
    Y7       -0.00121  -0.00015   0.00000  -0.00003   0.00103  -0.00019
    Z7        0.00000   0.00000   0.00000   0.00000   0.00000   0.00000
    X8       -5.20601  -0.00009   0.00000  -0.00240  -0.00171  -5.20772
    Y8       -2.60494  -0.00004   0.00000  -0.00073  -0.00006  -2.60500
    Z8        0.00001   0.00000   0.00000   0.00000   0.00000   0.00001
    X9       -4.55726   0.00000   0.00000  -0.00360  -0.00413  -4.56139
    Y9        1.09261   0.00000   0.00000   0.00015   0.00103   1.09364
    Z9        1.67029   0.00000   0.00000   0.00031   0.00030   1.67059
   X10       -4.55726   0.00000   0.00000  -0.00360  -0.00413  -4.56139
   Y10        1.09259   0.00000   0.00000   0.00015   0.00104   1.09363
   Z10       -1.67030   0.00000   0.00000  -0.00030  -0.00030  -1.67060
   X11       -4.63567  -0.00001   0.00000  -0.00045   0.00059  -4.63508
   Y11       -3.66098  -0.00001   0.00000   0.00000   0.00086  -3.66012
   Z11       -1.67569   0.00000   0.00000   0.00000   0.00000  -1.67569
   X12       -4.63567  -0.00001   0.00000  -0.00045   0.00059  -4.63508
   Y12       -3.66097  -0.00001   0.00000   0.00000   0.00086  -3.66010
   Z12        1.67572   0.00000   0.00000   0.00000   0.00000   1.67572
   X13       -7.26135  -0.00001   0.00000  -0.00174  -0.00110  -7.26246
   Y13       -2.43877  -0.00002   0.00000  -0.00147  -0.00148  -2.44026
   Z13        0.00001   0.00000   0.00000   0.00000   0.00000   0.00001
   X14        4.46055   0.00850   0.00000   0.01584   0.01669   4.47724
   Y14       -3.26625   0.05504   0.00000   0.18742   0.19130  -3.07496
   Z14        0.00002   0.00000   0.00000   0.00000   0.00000   0.00002
   X15        2.64247   0.00084   0.00000   0.02165   0.02263   2.66510
   Y15       -3.47463   0.00180   0.00000  -0.00550  -0.00222  -3.47685
   Z15        0.00002   0.00000   0.00000   0.00000   0.00000   0.00002
         Item               Value     Threshold  Converged?
 Maximum Force            0.066595     0.000450     NO 
 RMS     Force            0.013189     0.000300     NO 
 Maximum Displacement     0.224322     0.001800     NO 
 RMS     Displacement     0.044742     0.001200     NO 
 Predicted change in Energy=-3.555369D-02
 GradGradGradGradGradGradGradGradGradGradGradGradGradGradGradGradGradGrad

 1|1|UNPC-DIT|Freq|UM062X|6-311++G(d,p)|C5H7O3(2)|NDITM|28-Mar-2025|0||
 # freq 6-311++g(d,p) m062x||Title Card Required||0,2|C,2.536126,0.0384
 4,0.000001|H,3.605706,0.157484,0.000001|C,1.439039,0.658174,-0.000003|
 C,0.014532,0.951563,-0.000005|O,-0.44042,2.060472,-0.00001|O,-0.703222
 ,-0.175365,0.|C,-2.137073,-0.000642,-0.000001|C,-2.754904,-1.378475,0.
 000005|H,-2.411599,0.578182,0.883878|H,-2.411599,0.578174,-0.883885|H,
 -2.453092,-1.937308,-0.886739|H,-2.453092,-1.9373,0.886754|H,-3.842543
 ,-1.290544,0.000005|O,2.360422,-1.728426,0.00001|H,1.398333,-1.838694,
 0.00001||Version=IA32W-G09RevD.01|State=2-A|HF=-420.2189802|S2=0.78295
 |S2-1=0.|S2A=0.750591|RMSD=4.190e-009|RMSF=1.319e-002|ZeroPoint=0.1132
 695|Thermal=0.1222409|Dipole=-0.8424824,-0.1795861,0.0000002|DipoleDer
 iv=0.2045894,0.1457305,-0.0000225,-0.2177533,0.2625538,0.0000341,-0.00
 00254,0.0000133,0.0124247,0.1955401,-0.0272799,0.0000215,-0.0026255,0.
 123986,-0.0000024,-0.0000055,0.0000033,0.1878087,-0.7980828,0.0610544,
 -0.0000507,0.1568884,-0.2051362,-0.0000279,0.0000993,-0.0000548,-0.097
 204,2.1419655,-0.3036123,0.0000532,0.4345973,1.912734,0.0000066,-0.000
 1007,0.0000479,0.4065098,-0.8220382,0.4276143,-0.0000055,0.0204491,-1.
 2016035,-0.0000102,0.0000108,-0.0000021,-0.3451654,-1.6494133,-0.38862
 85,-0.0000062,-0.6525649,-0.9576834,0.0000047,-0.0000051,0.0000072,-0.
 2800988,1.0086913,0.2060549,0.0000052,0.0903952,0.3352737,0.0000005,0.
 0000313,-0.0000177,0.2967738,-0.0300409,-0.0462576,-0.0000646,-0.05755
 92,-0.0417751,0.000005,-0.0001091,0.0000611,0.0564184,-0.040694,-0.045
 1561,-0.0108087,0.0254614,0.0046596,-0.0621196,0.0328921,-0.0614965,-0
 .0367544,-0.0406912,-0.0451574,0.0108165,0.0254533,0.0046651,0.0621114
 ,-0.0328892,0.0614946,-0.0367414,0.0715589,0.0371872,0.0577206,-0.0141
 677,0.0105336,-0.0421068,0.0377964,-0.0705335,-0.038345,0.0715735,0.03
 71786,-0.0577246,-0.0142208,0.0105639,0.0421124,-0.0377188,0.07049,-0.
 0383502,-0.102306,-0.0055724,0.0000657,0.0142145,0.050069,-0.0000065,0
 .0000117,-0.0000064,0.0916478,-0.330166,-0.1789913,0.0000038,0.2013799
 ,-0.5736828,-0.0000044,0.0000247,-0.0000137,-0.4837309,0.1195138,0.125
 8354,-0.0000036,-0.0099476,0.2648423,0.0000033,-0.0000125,0.0000072,0.
 3048069|Polar=89.6838298,-8.5846165,84.6560163,0.0010907,-0.0007462,47
 .464889|PG=C01 [X(C5H7O3)]|NImag=1||1.07231271,-0.19898747,-0.05000082
 ,0.00000142,0.00000112,0.09952551,-0.37373012,-0.02949034,0.00000044,0
 .37732549,-0.04428752,-0.00715368,-0.00000017,0.03570697,0.04139848,-0
 .00000004,-0.00000006,-0.03228619,0.00000012,-0.00000010,0.01777689,-0
 .63443150,0.20801506,-0.00000237,-0.00270371,0.02787928,-0.00000028,0.
 95664177,0.27242576,-0.06865316,0.00000036,-0.00290696,-0.01001989,0.0
 0000009,-0.33679970,0.22630678,-0.00000032,-0.00000183,-0.03498734,-0.
 00000186,0.00000018,0.00409763,0.00000528,-0.00000060,0.05260015,0.000
 11210,0.00989434,0.00000069,-0.00078610,-0.00042447,0.00000014,-0.2400
 9378,0.04494698,-0.00000330,0.67460406,0.02123666,-0.01598653,0.000000
 25,-0.00107987,0.00272193,0.00000004,0.00793925,-0.02924464,-0.0000008
 7,-0.17155042,0.92019960,-0.00000174,0.00000210,-0.00032412,0.00000182
 ,-0.00000004,0.00723024,-0.00000262,-0.00000042,-0.06814984,0.00000353
 ,-0.00000240,0.20865595,-0.00397319,-0.00120820,-0.00000004,0.00040488
 ,0.00004292,0.,-0.03285300,0.04341195,-0.00000004,-0.21375203,0.255699
 72,-0.00000121,0.21717307,-0.00137908,0.00206765,-0.00000033,-0.000033
 22,-0.00037233,-0.00000007,0.04772454,-0.02597073,0.00000147,0.2334263
 7,-0.65815636,0.00000122,-0.27614387,0.79379832,0.00000019,-0.00000024
 ,0.00108307,-0.00000020,0.,-0.00124944,0.00000007,0.00000028,0.0210507
 1,-0.00000129,0.00000236,-0.08089516,0.00000119,-0.00000313,0.03380052
 ,0.00491463,-0.01128086,-0.00000022,0.00001461,0.00149974,-0.00000007,
 -0.06208375,-0.02729560,0.00000111,-0.17417182,-0.09989095,-0.00000064
 ,0.03087989,-0.01520850,0.00000018,0.47660165,0.00085711,-0.00522138,0
 .,0.00019957,0.00020133,-0.00000001,-0.01796182,0.00373149,0.00000007,
 -0.06067800,-0.22847002,0.00000059,-0.02130722,-0.10947691,0.00000064,
 0.08892711,0.43142067,-0.00000019,0.00000035,0.00071780,0.00000017,-0.
 00000003,-0.00078256,-0.00000041,-0.00000028,0.01157997,0.00000069,0.0
 0000080,-0.06887782,0.00000006,0.00000051,0.03105090,-0.00000036,-0.00
 000150,0.08016988,-0.00043588,0.00048911,0.00000011,-0.00025331,-0.000
 02707,0.00000002,0.00493699,-0.00112816,-0.00000043,-0.04617567,-0.036
 78185,0.00000057,-0.00237631,0.02000551,-0.00000014,-0.17604663,0.0240
 3926,-0.00000006,0.43936095,0.00053760,-0.00144618,-0.00000010,-0.0001
 2175,0.00025233,-0.00000003,-0.00445345,-0.00217627,0.00000037,-0.0382
 2810,0.00455456,-0.00000040,-0.00322324,-0.00222517,0.00000002,0.04872
 146,-0.09566648,0.00000015,-0.01010562,0.58812133,0.00000029,-0.000000
 01,-0.00027512,-0.00000047,-0.00000007,-0.00031033,-0.00000016,-0.0000
 0097,0.00597968,0.00000025,0.00000007,0.00191545,-0.00000001,0.0000003
 0,-0.00602261,0.00000023,0.00000027,-0.06889158,0.,0.00000049,0.631424
 95,0.00025725,-0.00065446,-0.00000054,-0.00000891,0.00010679,-0.000000
 08,-0.00196777,-0.00080450,0.00000260,-0.00561294,0.00672285,-0.000002
 10,0.00305771,-0.00220603,0.00000027,-0.03840528,-0.04413654,-0.000000
 46,-0.08848231,-0.03949685,-0.00000100,0.57510358,-0.00007037,0.000377
 94,0.00000004,-0.00000725,-0.00004402,0.,0.00062020,0.00020848,-0.0000
 0020,0.00215010,-0.00237581,0.00000018,-0.00149665,0.00100881,-0.00000
 002,0.00039857,0.00665289,0.00000002,-0.05587831,-0.21483671,0.0000005
 7,-0.03254836,0.52152073,-0.00000146,0.00000136,0.00001672,0.00000185,
 0.00000004,0.00001269,-0.00000146,0.00000119,-0.00007970,0.00000169,0.
 00000029,-0.00009166,-0.00000006,-0.00000123,0.00104939,-0.00000133,-0
 .00000026,0.00143293,0.00000059,-0.00000015,-0.08666476,0.00000017,0.0
 0000055,0.58820176,0.00009456,-0.00015767,0.00007804,0.00003383,0.0000
 1034,0.00005165,-0.00071873,0.00001572,-0.00110444,0.00168167,0.008685
 55,0.00147531,0.00158063,-0.00311101,-0.00003656,-0.03167469,0.0163655
 4,0.03023923,-0.06153335,0.02952262,0.04385910,0.00519997,-0.00758084,
 -0.01318442,0.08105714,-0.00007118,-0.00001389,0.00002895,0.00000832,-
 0.00000030,0.00002254,0.00026833,0.00001373,-0.00043464,-0.00206043,0.
 00134214,0.00063190,0.00078128,-0.00023628,0.00019241,0.00513006,-0.00
 167546,-0.00141009,0.03346886,-0.12440856,-0.11552167,0.00623517,-0.01
 476633,-0.02427261,-0.03700405,0.13320485,-0.00012065,-0.00001274,0.00
 001681,0.00000489,-0.00000061,0.00002504,0.00013929,0.00017768,-0.0004
 9241,-0.00012038,-0.00318226,0.00054370,-0.00173336,0.00080515,0.00027
 610,0.00308527,0.00331572,0.00623143,0.05236026,-0.11511001,-0.2387585
 5,-0.00163726,0.00176348,0.00297645,-0.05705962,0.12603041,0.24787237,
 0.00009467,-0.00015791,-0.00007794,0.00003374,0.00001036,-0.00005163,-
 0.00071836,0.00001607,0.00110400,0.00168132,0.00868542,-0.00147499,0.0
 0158067,-0.00311094,0.00003655,-0.03167467,0.01636524,-0.03023931,-0.0
 6153326,0.02952217,-0.04385933,0.00520059,-0.00758078,0.01318473,0.004
 47010,-0.00462190,0.00559190,0.08105691,-0.00007141,-0.00001345,-0.000
 02900,0.00000852,-0.00000034,-0.00002255,0.00026768,0.00001322,0.00043
 489,-0.00205977,0.00134235,-0.00063209,0.00078126,-0.00023640,-0.00019
 238,0.00512999,-0.00167543,0.00141007,0.03346845,-0.12440636,0.1155204
 9,0.00623419,-0.01476611,0.02427293,-0.00462195,0.00919393,-0.01396170
 ,-0.03700345,0.13320239,0.00012090,0.00001211,0.00001698,-0.00000505,0
 .00000069,0.00002507,-0.00013830,-0.00017669,-0.00049314,0.00011945,0.
 00318197,0.00054432,0.00173343,-0.00080504,0.00027604,-0.00308540,-0.0
 0331576,0.00623158,-0.05236062,0.11510889,-0.23876030,0.00163892,-0.00
 176343,0.00297652,-0.00559186,0.01396143,-0.02084129,0.05705978,-0.126
 02921,0.24787412,-0.00002868,-0.00002969,-0.00000722,-0.00000872,0.000
 00123,-0.00000179,0.00011241,0.00003517,0.00006328,-0.00010996,-0.0010
 9859,-0.00000613,-0.00044518,0.00046489,0.00005820,0.00220051,0.001151
 62,-0.00030976,0.00244257,-0.00863854,-0.01331253,-0.06890346,0.040120
 47,0.06302876,-0.00069622,-0.00271296,0.00008037,0.00017965,0.00084188
 ,0.00027180,0.07029690,-0.00002024,-0.00004790,-0.00000487,0.00000159,
 0.00000330,0.00000042,-0.00003127,0.00002367,-0.00003893,0.00023208,-0
 .00077871,0.00006192,-0.00060790,0.00028251,0.00020302,0.00136266,0.00
 242612,0.00103837,0.01027129,-0.01804679,-0.02835483,0.03780023,-0.116
 19079,-0.10982891,-0.00334853,-0.00443276,0.00109060,0.00057077,0.0009
 9253,0.00027642,-0.04053501,0.12819494,-0.00000868,-0.00010084,-0.0000
 0069,-0.00000062,0.00001062,-0.00000298,-0.00006754,0.00002129,0.00001
 397,-0.00007589,-0.00015836,0.00002910,-0.00004285,0.00030619,-0.00005
 400,-0.00053063,0.00009747,0.00016353,-0.00055123,0.00073048,0.0013966
 5,0.06231116,-0.11183241,-0.23194813,0.00060430,0.00054968,0.00144431,
 -0.00061182,-0.00019939,0.00075319,-0.06850641,0.12240020,0.24655442,-
 0.00002846,-0.00002994,0.00000711,-0.00000898,0.00000124,0.00000177,0.
 00011271,0.00003512,-0.00006285,-0.00011028,-0.00109866,0.00000571,-0.
 00044516,0.00046506,-0.00005815,0.00220067,0.00115164,0.00030973,0.002
 44251,-0.00863836,0.01331279,-0.06890318,0.04011986,-0.06302952,0.0001
 7963,0.00084189,-0.00027178,-0.00069624,-0.00271297,-0.00008039,0.0020
 0771,-0.00596132,0.00817682,0.07029687,-0.00002100,-0.00004711,0.00000
 498,0.00000251,0.00000330,-0.00000040,-0.00003218,0.00002402,0.0000384
 9,0.00023310,-0.00077851,-0.00006151,-0.00060795,0.00028189,-0.0002030
 7,0.00136206,0.00242603,-0.00103834,0.01027148,-0.01804687,0.02835499,
 0.03779935,-0.11618852,0.10982803,0.00057087,0.00099250,-0.00027657,-0
 .00334849,-0.00443273,-0.00109049,-0.00596149,0.00919340,-0.01367941,-
 0.04053452,0.12819270,0.00000970,0.00009993,-0.00000078,-0.00000069,-0
 .00001065,-0.00000300,0.00006847,-0.00002224,0.00001432,0.00007478,0.0
 0015820,0.00002877,0.00004289,-0.00030532,-0.00005396,0.00053157,-0.00
 009731,0.00016351,0.00055090,-0.00072982,0.00139647,-0.06231171,0.1118
 3121,-0.23195021,0.00061173,0.00019935,0.00075329,-0.00060434,-0.00054
 971,0.00144426,-0.00817660,0.01367911,-0.01940635,0.06850688,-0.122399
 17,0.24655661,0.00002322,-0.00009526,0.00000070,0.00001694,0.00001359,
 0.00000012,-0.00032102,-0.00005006,-0.00000311,0.00045085,0.00160674,0
 .00000263,0.00018797,-0.00070464,-0.00000032,-0.00100885,-0.00408966,0
 .00000066,-0.01235753,0.00461031,0.00000075,-0.31652664,0.02171476,0.0
 0000069,0.00028638,-0.00026180,-0.00030948,0.00028581,-0.00026086,0.00
 030793,-0.00701823,0.00028083,-0.00061896,-0.00701852,0.00028151,0.000
 61862,0.34298219,0.00006994,-0.00032391,-0.00000009,0.00000163,0.00004
 735,-0.00000002,-0.00067079,-0.00023828,0.00000039,-0.00129389,0.00202
 020,-0.00000036,0.00060592,-0.00059983,0.00000004,-0.00605445,-0.00775
 904,-0.00000002,-0.02798903,0.00713010,-0.00000006,0.02444932,-0.05038
 268,-0.00000020,0.00066584,0.00078506,-0.00067881,0.00066589,0.0007849
 9,0.00067893,0.01635822,-0.00167355,0.00183323,0.01635804,-0.00167368,
 -0.00183306,-0.02310294,0.05169755,0.00000016,-0.00000016,-0.00001228,
 -0.00000020,0.,0.00000487,0.00000018,-0.00000011,-0.00001308,-0.000000
 20,-0.00000004,0.00044299,0.,0.00000014,-0.00015047,0.00000016,0.00000
 006,0.00099386,0.00000008,0.00000002,-0.00251743,0.,0.,-0.04605744,0.0
 0005548,0.00003882,-0.00004737,-0.00005551,-0.00003883,-0.00004741,0.0
 2685688,-0.00050753,0.00109124,-0.02685698,0.00050752,0.00109129,-0.00
 000009,0.,0.04526307,-0.06449378,0.01520767,0.00000003,-0.00080195,-0.
 02089654,0.00000014,0.01206252,0.00932793,-0.00000049,-0.00366902,-0.0
 0255023,0.00000048,0.00053312,0.00068714,-0.00000005,0.00085800,0.0019
 6242,0.,0.00050507,0.00002256,-0.00000024,-0.00003609,-0.00007530,0.00
 000063,-0.00003739,0.00005887,0.00003349,-0.00003737,0.00005887,-0.000
 03343,0.00008422,0.00002212,0.00008924,0.00008414,0.00002241,-0.000089
 70,-0.00005161,0.00007167,-0.00000007,0.57664275,-0.02463919,0.1449023
 7,-0.00000115,-0.00202526,-0.02117422,0.00000009,0.06534354,-0.0919356
 2,0.00000130,-0.01516575,0.00646344,-0.00000079,0.00388943,-0.00119384
 ,0.00000009,0.00870187,0.00308639,-0.00000004,-0.00167786,0.00054319,0
 .00000034,0.00054672,-0.00032059,-0.00000097,0.00024677,-0.00003405,0.
 00004132,0.00024676,-0.00003406,-0.00004139,0.00002803,0.00003163,0.00
 012795,0.00002815,0.00003118,-0.00012725,0.00008443,0.00030821,0.00000
 010,0.02758867,-0.00127577,0.00000048,-0.00000130,-0.03184980,-0.00000
 043,0.00000012,0.00416473,0.00000013,0.00000038,0.00925002,-0.00000045
 ,-0.00000014,-0.00175552,0.,0.00000030,-0.00014153,0.00000025,0.000000
 03,0.00070801,-0.00000008,0.00000013,0.00010165,0.00000019,-0.00000003
 ,-0.00021473,-0.00005005,0.00004484,0.00002244,0.00004997,-0.00004484,
 0.00002233,0.00006662,0.00003853,0.00004289,-0.00006651,-0.00003861,0.
 00004297,-0.00000038,0.00000006,0.00005162,0.00000005,0.00000035,0.022
 58771,-0.00068752,0.00848564,-0.00000020,0.00047232,0.00036313,-0.0000
 0004,0.00202523,-0.00122972,0.00000057,0.00595161,0.00347438,-0.000000
 61,-0.00155307,-0.00087620,0.00000007,-0.00260428,-0.00284627,0.,-0.00
 049385,-0.00003081,0.00000033,0.00002747,0.00011389,-0.00000085,0.0000
 7646,-0.00006045,-0.00004296,0.00007644,-0.00006043,0.00004285,-0.0001
 1352,-0.00003730,-0.00016690,-0.00011342,-0.00003768,0.00016751,0.0000
 6904,-0.00013537,0.00000009,-0.52164260,-0.06319630,0.00000020,0.51850
 968,-0.02557961,0.00156005,-0.00000002,-0.00026447,-0.00586324,0.00000
 004,0.00189131,-0.00208280,-0.00000009,0.00057787,-0.00285365,0.000000
 08,-0.00061746,0.00102868,-0.00000001,-0.00150317,-0.00000019,0.000000
 03,0.00157398,0.00065787,0.00000008,-0.00004786,0.00010269,-0.00000007
 ,-0.00025918,0.00003541,-0.00000165,-0.00025922,0.00003546,0.00000156,
 -0.00002523,0.00002240,-0.00010668,-0.00002523,0.00002239,0.00010673,-
 0.00002696,-0.00012250,0.,-0.03150826,-0.03939828,0.00000017,0.0560734
 9,0.04685569,-0.00000005,0.00000021,-0.00164057,0.00000022,0.00000003,
 0.00129734,-0.00000028,0.00000003,-0.00037091,0.00000029,0.00000008,0.
 00070359,-0.00000001,-0.00000015,-0.00001954,-0.00000013,-0.00000002,-
 0.00089145,0.00000004,-0.00000006,-0.00001418,-0.00000017,0.00000002,0
 .00034017,0.00005211,-0.00006132,-0.00002233,-0.00005206,0.00006131,-0
 .00002227,-0.00010545,-0.00005350,-0.00007717,0.00010540,0.00005355,-0
 .00007721,0.00000025,-0.00000004,-0.00009347,-0.00000009,0.00000005,-0
 .00303277,-0.00000006,-0.00000018,0.00392077||0.01240813,0.06659465,-0
 .00000032,0.00176766,-0.00195321,0.,-0.00439581,-0.01021814,0.00000005
 ,-0.00109314,0.00093655,-0.00000006,0.00020623,0.00055269,0.00000002,0
 .00031700,0.00069459,0.00000003,0.00002515,0.00015088,-0.00000009,0.00
 008520,0.00003625,-0.00000005,-0.00000085,0.00000443,0.00000374,-0.000
 00085,0.00000434,-0.00000364,0.00000580,0.00000522,0.00000188,0.000005
 77,0.00000525,-0.00000189,0.00000951,0.00002341,0.00000003,-0.00850140
 ,-0.05503537,0.00000028,-0.00083841,-0.00180154,0.00000001|||@


 Fatherhood is pretending the present you love most is soap-on-a-rope.
 -- Bill Cosby
 Job cpu time:       0 days  0 hours 20 minutes 59.0 seconds.
 File lengths (MBytes):  RWF=    152 Int=      0 D2E=      0 Chk=      9 Scr=      1
 Normal termination of Gaussian 09 at Fri Mar 28 15:40:45 2025.
