 Entering Link 1 = C:\G09W\l1.exe PID=     17592.
  
 Copyright (c) 1988,1990,1992,1993,1995,1998,2003,2009,2013,
            Gaussian, Inc.  All Rights Reserved.
  
 This is part of the Gaussian(R) 09 program.  It is based on
 the Gaussian(R) 03 system (copyright 2003, Gaussian, Inc.),
 the Gaussian(R) 98 system (copyright 1998, Gaussian, Inc.),
 the Gaussian(R) 94 system (copyright 1995, Gaussian, Inc.),
 the Gaussian 92(TM) system (copyright 1992, Gaussian, Inc.),
 the Gaussian 90(TM) system (copyright 1990, Gaussian, Inc.),
 the Gaussian 88(TM) system (copyright 1988, Gaussian, Inc.),
 the Gaussian 86(TM) system (copyright 1986, Carnegie Mellon
 University), and the Gaussian 82(TM) system (copyright 1983,
 Carnegie Mellon University). Gaussian is a federally registered
 trademark of Gaussian, Inc.
  
 This software contains proprietary and confidential information,
 including trade secrets, belonging to Gaussian, Inc.
  
 This software is provided under written license and may be
 used, copied, transmitted, or stored only in accord with that
 written license.
  
 The following legend is applicable only to US Government
 contracts under FAR:
  
                    RESTRICTED RIGHTS LEGEND
  
 Use, reproduction and disclosure by the US Government is
 subject to restrictions as set forth in subparagraphs (a)
 and (c) of the Commercial Computer Software - Restricted
 Rights clause in FAR 52.227-19.
  
 Gaussian, Inc.
 340 Quinnipiac St., Bldg. 40, Wallingford CT 06492
  
  
 ---------------------------------------------------------------
 Warning -- This program may not be used in any manner that
 competes with the business of Gaussian, Inc. or will provide
 assistance to any competitor of Gaussian, Inc.  The licensee
 of this program is prohibited from giving any competitor of
 Gaussian, Inc. access to this program.  By using this program,
 the user acknowledges that Gaussian, Inc. is engaged in the
 business of creating and licensing software in the field of
 computational chemistry and represents and warrants to the
 licensee that it is not a competitor of Gaussian, Inc. and that
 it will not use this program in any manner prohibited above.
 ---------------------------------------------------------------
  

 Cite this work as:
 Gaussian 09, Revision D.01,
 M. J. Frisch, G. W. Trucks, H. B. Schlegel, G. E. Scuseria, 
 M. A. Robb, J. R. Cheeseman, G. Scalmani, V. Barone, B. Mennucci, 
 G. A. Petersson, H. Nakatsuji, M. Caricato, X. Li, H. P. Hratchian, 
 A. F. Izmaylov, J. Bloino, G. Zheng, J. L. Sonnenberg, M. Hada, 
 M. Ehara, K. Toyota, R. Fukuda, J. Hasegawa, M. Ishida, T. Nakajima, 
 Y. Honda, O. Kitao, H. Nakai, T. Vreven, J. A. Montgomery, Jr., 
 J. E. Peralta, F. Ogliaro, M. Bearpark, J. J. Heyd, E. Brothers, 
 K. N. Kudin, V. N. Staroverov, T. Keith, R. Kobayashi, J. Normand, 
 K. Raghavachari, A. Rendell, J. C. Burant, S. S. Iyengar, J. Tomasi, 
 M. Cossi, N. Rega, J. M. Millam, M. Klene, J. E. Knox, J. B. Cross, 
 V. Bakken, C. Adamo, J. Jaramillo, R. Gomperts, R. E. Stratmann, 
 O. Yazyev, A. J. Austin, R. Cammi, C. Pomelli, J. W. Ochterski, 
 R. L. Martin, K. Morokuma, V. G. Zakrzewski, G. A. Voth, 
 P. Salvador, J. J. Dannenberg, S. Dapprich, A. D. Daniels, 
 O. Farkas, J. B. Foresman, J. V. Ortiz, J. Cioslowski, 
 and D. J. Fox, Gaussian, Inc., Wallingford CT, 2013.
 
 ******************************************
 Gaussian 09:  IA32W-G09RevD.01 24-Apr-2013
                28-Mar-2025 
 ******************************************
 %chk=ethyl_propiolate.chk
 %nprocshared=4
 Will use up to    4 processors via shared memory.
 %mem=1700MB
 --------------------------
 # freq 6-311++g(d,p) m062x
 --------------------------
 1/10=4,30=1,38=1/1,3;
 2/12=2,17=6,18=5,40=1/2;
 3/5=4,6=6,7=1111,11=2,16=1,25=1,30=1,71=2,74=-55,140=1/1,2,3;
 4//1;
 5/5=2,38=5,98=1/2;
 8/6=4,10=90,11=11/1;
 11/6=1,8=1,9=11,15=111,16=1/1,2,10;
 10/6=1/2;
 6/7=2,8=2,9=2,10=2,18=1,28=1/1;
 7/8=1,10=1,25=1/1,2,3,16;
 1/10=4,30=1/3;
 99//99;
 -------------------
 Title Card Required
 -------------------
 Symbolic Z-matrix:
 Charge =  0 Multiplicity = 2
 C                     2.55339   0.14136   0. 
 H                     3.62238   0.11191   0. 
 C                     1.43552   0.64339  0. 
 C                     0.01399   0.95282  -0.00001 
 O                    -0.44051   2.0607   -0.00001 
 O                    -0.70338  -0.17501   0. 
 C                    -2.13691  -0.00047  0. 
 C                    -2.75486  -1.37844   0.00001 
 H                    -2.4118    0.57827   0.88385 
 H                    -2.4118    0.57826  -0.88386 
 H                    -2.45312  -1.93725  -0.88678 
 H                    -2.45312  -1.93724   0.88679 
 H                    -3.8425   -1.29049   0.00001 
 O                     2.35053  -1.79111   0.00001 
 H                     1.38349  -1.87502   0.00001 
 

 GradGradGradGradGradGradGradGradGradGradGradGradGradGradGradGradGradGrad
 Berny optimization.
 Initialization pass.
 Trust Radius=3.00D-01 FncErr=1.00D-07 GrdErr=1.00D-07
 Number of steps in this run=      2 maximum allowed number of steps=      2.
 GradGradGradGradGradGradGradGradGradGradGradGradGradGradGradGradGradGrad

                          Input orientation:                          
 ---------------------------------------------------------------------
 Center     Atomic      Atomic             Coordinates (Angstroms)
 Number     Number       Type             X           Y           Z
 ---------------------------------------------------------------------
      1          6           0        2.553392    0.141357    0.000000
      2          1           0        3.622375    0.111905    0.000001
      3          6           0        1.435515    0.643390   -0.000003
      4          6           0        0.013986    0.952824   -0.000005
      5          8           0       -0.440509    2.060701   -0.000010
      6          8           0       -0.703378   -0.175014    0.000000
      7          6           0       -2.136910   -0.000465   -0.000001
      8          6           0       -2.754864   -1.378439    0.000005
      9          1           0       -2.411804    0.578265    0.883853
     10          1           0       -2.411804    0.578257   -0.883859
     11          1           0       -2.453115   -1.937249   -0.886778
     12          1           0       -2.453115   -1.937241    0.886793
     13          1           0       -3.842500   -1.290492    0.000005
     14          8           0        2.350526   -1.791110    0.000010
     15          1           0        1.383492   -1.875017    0.000010
 ---------------------------------------------------------------------
                    Distance matrix (angstroms):
                    1          2          3          4          5
     1  C    0.000000
     2  H    1.069389   0.000000
     3  C    1.225433   2.250518   0.000000
     4  C    2.665907   3.705080   1.454818   0.000000
     5  O    3.556308   4.506088   2.351220   1.197479   0.000000
     6  O    3.272100   4.335258   2.290120   1.336649   2.251116
     7  C    4.692446   5.760381   3.629982   2.352682   2.669491
     8  C    5.521536   6.549069   4.652641   3.619574   4.145350
     9  H    5.062139   6.116372   3.948076   2.608823   2.620083
    10  H    5.062140   6.116372   3.948076   2.608823   2.620083
    11  H    5.492913   6.472788   4.750527   3.901984   4.562953
    12  H    5.492912   6.472788   4.750527   3.901983   4.562953
    13  H    6.554207   7.595464   5.621151   4.461496   4.775357
    14  O    1.943086   2.288901   2.600776   3.603969   4.756714
    15  H    2.331186   2.993402   2.518944   3.142011   4.337840
                    6          7          8          9         10
     6  O    0.000000
     7  C    1.444120   0.000000
     8  C    2.378408   1.510192   0.000000
     9  H    2.065755   1.091647   2.174297   0.000000
    10  H    2.065755   1.091646   2.174296   1.767712   0.000000
    11  H    2.636935   2.153484   1.090736   3.076467   2.515847
    12  H    2.636935   2.153483   1.090736   2.515847   3.076466
    13  H    3.331423   2.138506   1.091186   2.514027   2.514027
    14  O    3.455155   4.831510   5.122041   5.392115   5.392116
    15  H    2.691661   3.988380   4.168043   4.604785   4.604785
                   11         12         13         14         15
    11  H    0.000000
    12  H    1.773571   0.000000
    13  H    1.770613   1.770612   0.000000
    14  O    4.886995   4.886993   6.213227   0.000000
    15  H    3.938251   3.938250   5.258580   0.970667   0.000000
 Stoichiometry    C5H7O3(2)
 Framework group  C1[X(C5H7O3)]
 Deg. of freedom    39
 Full point group                 C1      NOp   1
 Largest Abelian subgroup         C1      NOp   1
 Largest concise Abelian subgroup C1      NOp   1
                         Standard orientation:                         
 ---------------------------------------------------------------------
 Center     Atomic      Atomic             Coordinates (Angstroms)
 Number     Number       Type             X           Y           Z
 ---------------------------------------------------------------------
      1          6           0        2.622877    0.190122    0.000000
      2          1           0        3.691880    0.161417    0.000001
      3          6           0        1.504650    0.691375   -0.000003
      4          6           0        0.082905    0.999816   -0.000005
      5          8           0       -0.372364    2.107375   -0.000010
      6          8           0       -0.633671   -0.128523    0.000000
      7          6           0       -2.067325    0.045025   -0.000001
      8          6           0       -2.684316   -1.333380    0.000005
      9          1           0       -2.342623    0.623563    0.883853
     10          1           0       -2.342623    0.623555   -0.883859
     11          1           0       -2.382177   -1.891979   -0.886778
     12          1           0       -2.382177   -1.891971    0.886793
     13          1           0       -3.772014   -1.246193    0.000005
     14          8           0        2.421361   -1.742486    0.000010
     15          1           0        1.454385   -1.827068    0.000010
 ---------------------------------------------------------------------
 Rotational constants (GHZ):      2.8896150      1.2458863      0.8801236
 Standard basis: 6-311++G(d,p) (5D, 7F)
 There are   233 symmetry adapted cartesian basis functions of A   symmetry.
 There are   225 symmetry adapted basis functions of A   symmetry.
   225 basis functions,   351 primitive gaussians,   233 cartesian basis functions
    31 alpha electrons       30 beta electrons
       nuclear repulsion energy       348.9303656445 Hartrees.
 NAtoms=   15 NActive=   15 NUniq=   15 SFac= 1.00D+00 NAtFMM=   60 NAOKFM=F Big=F
 Integral buffers will be    262144 words long.
 Raffenetti 2 integral format.
 Two-electron integral symmetry is turned on.
 One-electron integrals computed using PRISM.
 NBasis=   225 RedAO= T EigKep=  1.31D-06  NBF=   225
 NBsUse=   225 1.00D-06 EigRej= -1.00D+00 NBFU=   225
 ExpMin= 3.60D-02 ExpMax= 8.59D+03 ExpMxC= 1.30D+03 IAcc=3 IRadAn=         5 AccDes= 0.00D+00
 Harris functional with IExCor= 1009 and IRadAn=       5 diagonalized for initial guess.
 HarFok:  IExCor= 1009 AccDes= 0.00D+00 IRadAn=         5 IDoV= 1 UseB2=F ITyADJ=14
 ICtDFT=  3500011 ScaDFX=  1.000000  1.000000  1.000000  1.000000
 FoFCou: FMM=F IPFlag=           0 FMFlag=      100000 FMFlg1=           0
         NFxFlg=           0 DoJE=T BraDBF=F KetDBF=T FulRan=T
         wScrn=  0.000000 ICntrl=     500 IOpCl=  0 I1Cent=   200000004 NGrid=           0
         NMat0=    1 NMatS0=      1 NMatT0=    0 NMatD0=    1 NMtDS0=    0 NMtDT0=    0
 Petite list used in FoFCou.
 Initial guess <Sx>= 0.0000 <Sy>= 0.0000 <Sz>= 0.5000 <S**2>= 0.7500 S= 0.5000
 Requested convergence on RMS density matrix=1.00D-08 within 128 cycles.
 Requested convergence on MAX density matrix=1.00D-06.
 Requested convergence on             energy=1.00D-06.
 No special actions if energy rises.
 SCF Done:  E(UM062X) =  -420.205663633     A.U. after   20 cycles
            NFock= 20  Conv=0.80D-08     -V/T= 2.0034
 <Sx>= 0.0000 <Sy>= 0.0000 <Sz>= 0.5000 <S**2>= 0.7818 S= 0.5158
 <L.S>= 0.000000000000E+00
 Annihilation of the first spin contaminant:
 S**2 before annihilation     0.7818,   after     0.7504
 DoSCS=F DFT=T ScalE2(SS,OS)=  1.000000  1.000000
 Range of M.O.s used for correlation:     1   225
 NBasis=   225 NAE=    31 NBE=    30 NFC=     0 NFV=     0
 NROrb=    225 NOA=    31 NOB=    30 NVA=   194 NVB=   195

 **** Warning!!: The largest alpha MO coefficient is  0.22462097D+03


 **** Warning!!: The largest beta MO coefficient is  0.22036211D+03

 Symmetrizing basis deriv contribution to polar:
 IMax=3 JMax=2 DiffMx= 0.00D+00
 G2DrvN: will do    16 centers at a time, making    1 passes.
 Calling FoFCou, ICntrl=  3107 FMM=F I1Cent=   0 AccDes= 0.00D+00.
 End of G2Drv F.D. properties file   721 does not exist.
 End of G2Drv F.D. properties file   722 does not exist.
 End of G2Drv F.D. properties file   788 does not exist.
          IDoAtm=111111111111111
          Differentiating once with respect to electric field.
                with respect to dipole field.
          Differentiating once with respect to nuclear coordinates.
          There are    48 degrees of freedom in the 1st order CPHF.  IDoFFX=6 NUNeed=     3.
     46 vectors produced by pass  0 Test12= 2.47D-14 2.08D-09 XBig12= 1.01D+02 4.02D+00.
 AX will form    46 AO Fock derivatives at one time.
     45 vectors produced by pass  1 Test12= 2.47D-14 2.08D-09 XBig12= 1.64D+01 5.78D-01.
     45 vectors produced by pass  2 Test12= 2.47D-14 2.08D-09 XBig12= 9.35D-01 1.26D-01.
     45 vectors produced by pass  3 Test12= 2.47D-14 2.08D-09 XBig12= 1.33D-02 2.06D-02.
     45 vectors produced by pass  4 Test12= 2.47D-14 2.08D-09 XBig12= 1.55D-04 1.43D-03.
     45 vectors produced by pass  5 Test12= 2.47D-14 2.08D-09 XBig12= 1.81D-06 1.37D-04.
     39 vectors produced by pass  6 Test12= 2.47D-14 2.08D-09 XBig12= 1.12D-08 1.37D-05.
     23 vectors produced by pass  7 Test12= 2.47D-14 2.08D-09 XBig12= 7.21D-11 8.91D-07.
      8 vectors produced by pass  8 Test12= 2.47D-14 2.08D-09 XBig12= 1.85D-12 1.47D-07.
      8 vectors produced by pass  9 Test12= 2.47D-14 2.08D-09 XBig12= 3.53D-13 8.45D-08.
      8 vectors produced by pass 10 Test12= 2.47D-14 2.08D-09 XBig12= 2.65D-14 3.08D-08.
      8 vectors produced by pass 11 Test12= 2.47D-14 2.08D-09 XBig12= 3.13D-15 7.75D-09.
      8 vectors produced by pass 12 Test12= 2.47D-14 2.08D-09 XBig12= 1.55D-15 5.36D-09.
      8 vectors produced by pass 13 Test12= 2.47D-14 2.08D-09 XBig12= 1.84D-15 4.21D-09.
      8 vectors produced by pass 14 Test12= 2.47D-14 2.08D-09 XBig12= 1.33D-15 4.71D-09.
      7 vectors produced by pass 15 Test12= 2.47D-14 2.08D-09 XBig12= 1.14D-15 3.55D-09.
      7 vectors produced by pass 16 Test12= 2.47D-14 2.08D-09 XBig12= 9.83D-16 3.91D-09.
      4 vectors produced by pass 17 Test12= 2.47D-14 2.08D-09 XBig12= 6.83D-16 3.23D-09.
      4 vectors produced by pass 18 Test12= 2.47D-14 2.08D-09 XBig12= 1.77D-15 4.53D-09.
      4 vectors produced by pass 19 Test12= 2.47D-14 2.08D-09 XBig12= 1.64D-15 4.73D-09.
      2 vectors produced by pass 20 Test12= 2.47D-14 2.08D-09 XBig12= 7.07D-16 3.95D-09.
      2 vectors produced by pass 21 Test12= 2.47D-14 2.08D-09 XBig12= 6.92D-16 2.65D-09.
      1 vectors produced by pass 22 Test12= 2.47D-14 2.08D-09 XBig12= 4.30D-16 2.09D-09.
 InvSVY:  IOpt=1 It=  1 EMax= 7.11D-15
 Solved reduced A of dimension   420 with    48 vectors.
 Isotropic polarizability for W=    0.000000       76.30 Bohr**3.
 End of Minotr F.D. properties file   721 does not exist.
 End of Minotr F.D. properties file   722 does not exist.
 End of Minotr F.D. properties file   788 does not exist.

 **********************************************************************

            Population analysis using the SCF density.

 **********************************************************************

 Orbital symmetries:
 Alpha Orbitals:
       Occupied  (A) (A) (A) (A) (A) (A) (A) (A) (A) (A) (A) (A)
                 (A) (A) (A) (A) (A) (A) (A) (A) (A) (A) (A) (A)
                 (A) (A) (A) (A) (A) (A) (A)
       Virtual   (A) (A) (A) (A) (A) (A) (A) (A) (A) (A) (A) (A)
                 (A) (A) (A) (A) (A) (A) (A) (A) (A) (A) (A) (A)
                 (A) (A) (A) (A) (A) (A) (A) (A) (A) (A) (A) (A)
                 (A) (A) (A) (A) (A) (A) (A) (A) (A) (A) (A) (A)
                 (A) (A) (A) (A) (A) (A) (A) (A) (A) (A) (A) (A)
                 (A) (A) (A) (A) (A) (A) (A) (A) (A) (A) (A) (A)
                 (A) (A) (A) (A) (A) (A) (A) (A) (A) (A) (A) (A)
                 (A) (A) (A) (A) (A) (A) (A) (A) (A) (A) (A) (A)
                 (A) (A) (A) (A) (A) (A) (A) (A) (A) (A) (A) (A)
                 (A) (A) (A) (A) (A) (A) (A) (A) (A) (A) (A) (A)
                 (A) (A) (A) (A) (A) (A) (A) (A) (A) (A) (A) (A)
                 (A) (A) (A) (A) (A) (A) (A) (A) (A) (A) (A) (A)
                 (A) (A) (A) (A) (A) (A) (A) (A) (A) (A) (A) (A)
                 (A) (A) (A) (A) (A) (A) (A) (A) (A) (A) (A) (A)
                 (A) (A) (A) (A) (A) (A) (A) (A) (A) (A) (A) (A)
                 (A) (A) (A) (A) (A) (A) (A) (A) (A) (A) (A) (A)
                 (A) (A)
 Beta  Orbitals:
       Occupied  (A) (A) (A) (A) (A) (A) (A) (A) (A) (A) (A) (A)
                 (A) (A) (A) (A) (A) (A) (A) (A) (A) (A) (A) (A)
                 (A) (A) (A) (A) (A) (A)
       Virtual   (A) (A) (A) (A) (A) (A) (A) (A) (A) (A) (A) (A)
                 (A) (A) (A) (A) (A) (A) (A) (A) (A) (A) (A) (A)
                 (A) (A) (A) (A) (A) (A) (A) (A) (A) (A) (A) (A)
                 (A) (A) (A) (A) (A) (A) (A) (A) (A) (A) (A) (A)
                 (A) (A) (A) (A) (A) (A) (A) (A) (A) (A) (A) (A)
                 (A) (A) (A) (A) (A) (A) (A) (A) (A) (A) (A) (A)
                 (A) (A) (A) (A) (A) (A) (A) (A) (A) (A) (A) (A)
                 (A) (A) (A) (A) (A) (A) (A) (A) (A) (A) (A) (A)
                 (A) (A) (A) (A) (A) (A) (A) (A) (A) (A) (A) (A)
                 (A) (A) (A) (A) (A) (A) (A) (A) (A) (A) (A) (A)
                 (A) (A) (A) (A) (A) (A) (A) (A) (A) (A) (A) (A)
                 (A) (A) (A) (A) (A) (A) (A) (A) (A) (A) (A) (A)
                 (A) (A) (A) (A) (A) (A) (A) (A) (A) (A) (A) (A)
                 (A) (A) (A) (A) (A) (A) (A) (A) (A) (A) (A) (A)
                 (A) (A) (A) (A) (A) (A) (A) (A) (A) (A) (A) (A)
                 (A) (A) (A) (A) (A) (A) (A) (A) (A) (A) (A) (A)
                 (A) (A) (A)
 The electronic state is 2-A.
 Alpha  occ. eigenvalues --  -19.69757 -19.64636 -19.64553 -10.71906 -10.61710
 Alpha  occ. eigenvalues --  -10.61326 -10.59250 -10.55016  -1.27018  -1.17811
 Alpha  occ. eigenvalues --   -1.10661  -0.92574  -0.88790  -0.78931  -0.71373
 Alpha  occ. eigenvalues --   -0.66933  -0.62705  -0.60458  -0.58848  -0.52898
 Alpha  occ. eigenvalues --   -0.52635  -0.50915  -0.49191  -0.47820  -0.45351
 Alpha  occ. eigenvalues --   -0.44693  -0.41785  -0.40013  -0.39962  -0.37113
 Alpha  occ. eigenvalues --   -0.33201
 Alpha virt. eigenvalues --   -0.02812  -0.00849   0.00747   0.01359   0.01701
 Alpha virt. eigenvalues --    0.02238   0.04319   0.05076   0.05559   0.06276
 Alpha virt. eigenvalues --    0.06485   0.06773   0.07980   0.08745   0.10132
 Alpha virt. eigenvalues --    0.10818   0.12015   0.12045   0.12676   0.13091
 Alpha virt. eigenvalues --    0.13312   0.13507   0.14156   0.15075   0.15715
 Alpha virt. eigenvalues --    0.17059   0.17378   0.17599   0.19247   0.19454
 Alpha virt. eigenvalues --    0.21041   0.22098   0.22559   0.22623   0.22789
 Alpha virt. eigenvalues --    0.23223   0.25788   0.26786   0.28936   0.29810
 Alpha virt. eigenvalues --    0.30626   0.30693   0.31431   0.31576   0.31951
 Alpha virt. eigenvalues --    0.33375   0.34790   0.35916   0.36320   0.37678
 Alpha virt. eigenvalues --    0.40394   0.41515   0.44017   0.44940   0.49888
 Alpha virt. eigenvalues --    0.52252   0.52378   0.54346   0.55674   0.56125
 Alpha virt. eigenvalues --    0.61714   0.62329   0.64438   0.65287   0.67122
 Alpha virt. eigenvalues --    0.67484   0.68340   0.68655   0.68981   0.69951
 Alpha virt. eigenvalues --    0.72535   0.74373   0.79256   0.79993   0.80562
 Alpha virt. eigenvalues --    0.84933   0.89681   0.90679   0.92078   0.96229
 Alpha virt. eigenvalues --    1.02276   1.03468   1.07232   1.07838   1.09272
 Alpha virt. eigenvalues --    1.13898   1.14665   1.16774   1.18608   1.20566
 Alpha virt. eigenvalues --    1.21248   1.22482   1.23139   1.28129   1.29021
 Alpha virt. eigenvalues --    1.31186   1.33710   1.35568   1.43608   1.44289
 Alpha virt. eigenvalues --    1.48039   1.49083   1.49950   1.52883   1.56138
 Alpha virt. eigenvalues --    1.57029   1.57915   1.58267   1.60637   1.60928
 Alpha virt. eigenvalues --    1.65662   1.68156   1.69872   1.72110   1.75571
 Alpha virt. eigenvalues --    1.76760   1.82114   1.84855   1.86076   1.87981
 Alpha virt. eigenvalues --    1.90358   1.90987   1.99768   2.00956   2.09573
 Alpha virt. eigenvalues --    2.11407   2.14395   2.15735   2.20469   2.26316
 Alpha virt. eigenvalues --    2.34957   2.34985   2.37765   2.48338   2.50115
 Alpha virt. eigenvalues --    2.53516   2.57604   2.60813   2.63646   2.63779
 Alpha virt. eigenvalues --    2.64496   2.66704   2.67910   2.70489   2.72559
 Alpha virt. eigenvalues --    2.79780   2.80288   2.85603   2.88817   2.89666
 Alpha virt. eigenvalues --    2.94279   2.95161   2.97433   2.97738   3.03472
 Alpha virt. eigenvalues --    3.06590   3.10822   3.14834   3.19424   3.25331
 Alpha virt. eigenvalues --    3.26102   3.27383   3.29965   3.33322   3.41252
 Alpha virt. eigenvalues --    3.42361   3.54555   3.65578   3.73306   3.82912
 Alpha virt. eigenvalues --    3.84646   3.84685   3.92072   4.03943   4.10528
 Alpha virt. eigenvalues --    4.13622   4.29191   5.08240   5.10392   5.14592
 Alpha virt. eigenvalues --    5.14727   5.31187   5.44511   5.60248   5.71826
 Alpha virt. eigenvalues --    5.93042  23.61071  23.92263  23.92907  24.04538
 Alpha virt. eigenvalues --   24.91847  49.97049  49.99671  50.10478
  Beta  occ. eigenvalues --  -19.69733 -19.64497 -19.63421 -10.71939 -10.61705
  Beta  occ. eigenvalues --  -10.61439 -10.58892 -10.55015  -1.26922  -1.17658
  Beta  occ. eigenvalues --   -1.05935  -0.91645  -0.88125  -0.78766  -0.71094
  Beta  occ. eigenvalues --   -0.66702  -0.62209  -0.60378  -0.58640  -0.52738
  Beta  occ. eigenvalues --   -0.50982  -0.49913  -0.48101  -0.45242  -0.44662
  Beta  occ. eigenvalues --   -0.40763  -0.40451  -0.39894  -0.38779  -0.35099
  Beta virt. eigenvalues --   -0.09968  -0.02737  -0.00796   0.00923   0.01526
  Beta virt. eigenvalues --    0.01729   0.02429   0.04691   0.05123   0.05645
  Beta virt. eigenvalues --    0.06558   0.06579   0.07692   0.08602   0.08914
  Beta virt. eigenvalues --    0.10227   0.11280   0.11881   0.12267   0.12854
  Beta virt. eigenvalues --    0.13349   0.13426   0.13740   0.14295   0.15173
  Beta virt. eigenvalues --    0.15765   0.17376   0.17511   0.17895   0.19423
  Beta virt. eigenvalues --    0.19449   0.21054   0.22630   0.22670   0.22825
  Beta virt. eigenvalues --    0.22869   0.23391   0.25841   0.26845   0.28761
  Beta virt. eigenvalues --    0.29677   0.30758   0.30900   0.31322   0.31410
  Beta virt. eigenvalues --    0.31866   0.33260   0.35006   0.35867   0.36518
  Beta virt. eigenvalues --    0.37831   0.40492   0.41597   0.44304   0.44939
  Beta virt. eigenvalues --    0.50042   0.52345   0.52438   0.54675   0.55653
  Beta virt. eigenvalues --    0.56290   0.61640   0.62260   0.64771   0.65522
  Beta virt. eigenvalues --    0.67446   0.67595   0.68480   0.68869   0.69106
  Beta virt. eigenvalues --    0.70043   0.72547   0.74529   0.79361   0.79725
  Beta virt. eigenvalues --    0.80718   0.85107   0.89621   0.91125   0.91923
  Beta virt. eigenvalues --    0.96425   1.02341   1.03681   1.07746   1.08189
  Beta virt. eigenvalues --    1.09836   1.14998   1.15013   1.17594   1.19227
  Beta virt. eigenvalues --    1.21470   1.22703   1.22789   1.23246   1.28132
  Beta virt. eigenvalues --    1.29091   1.31213   1.34924   1.35621   1.44527
  Beta virt. eigenvalues --    1.45330   1.47937   1.49082   1.50294   1.53508
  Beta virt. eigenvalues --    1.56366   1.57029   1.58565   1.58707   1.60845
  Beta virt. eigenvalues --    1.61038   1.65730   1.68176   1.69901   1.72508
  Beta virt. eigenvalues --    1.75580   1.76719   1.82547   1.85055   1.86413
  Beta virt. eigenvalues --    1.88124   1.90719   1.91155   2.00132   2.00967
  Beta virt. eigenvalues --    2.09723   2.11583   2.14815   2.16308   2.20535
  Beta virt. eigenvalues --    2.26323   2.35057   2.35111   2.38112   2.48343
  Beta virt. eigenvalues --    2.50126   2.53540   2.57606   2.60861   2.63616
  Beta virt. eigenvalues --    2.63683   2.64386   2.66667   2.68017   2.70215
  Beta virt. eigenvalues --    2.73160   2.79911   2.81409   2.86155   2.88983
  Beta virt. eigenvalues --    2.94888   2.95628   2.95652   2.97871   2.97877
  Beta virt. eigenvalues --    3.03690   3.07899   3.10899   3.15250   3.20985
  Beta virt. eigenvalues --    3.26114   3.27284   3.29389   3.30587   3.33806
  Beta virt. eigenvalues --    3.41374   3.42428   3.54405   3.65776   3.73479
  Beta virt. eigenvalues --    3.82927   3.84649   3.84695   3.94742   4.04244
  Beta virt. eigenvalues --    4.10731   4.13785   4.29264   5.10095   5.10612
  Beta virt. eigenvalues --    5.14833   5.21495   5.31367   5.44625   5.62558
  Beta virt. eigenvalues --    5.71982   5.93096  23.61171  23.92279  23.92933
  Beta virt. eigenvalues --   24.04539  24.92171  49.96451  49.99620  50.10432
          Condensed to atoms (all electrons):
               1          2          3          4          5          6
     1  C   17.851069   0.728353  -3.175581  -7.573165   0.073893   0.121192
     2  H    0.728353   0.419086  -0.242390  -0.086714   0.000800   0.000853
     3  C   -3.175581  -0.242390  13.466362  -4.922602   0.122494  -0.328792
     4  C   -7.573165  -0.086714  -4.922602  18.070229   0.147001  -0.087905
     5  O    0.073893   0.000800   0.122494   0.147001   8.032320  -0.123331
     6  O    0.121192   0.000853  -0.328792  -0.087905  -0.123331   8.494869
     7  C   -0.156892   0.000057  -0.463194   0.218167  -0.027353   0.199444
     8  C   -0.095785   0.000419  -0.334524   0.411809   0.014661  -0.156236
     9  H    0.006273  -0.000025   0.007985  -0.013603  -0.013464  -0.037001
    10  H    0.006273  -0.000025   0.007984  -0.013603  -0.013464  -0.037001
    11  H    0.005568  -0.000022   0.017087  -0.014525  -0.000725  -0.007543
    12  H    0.005568  -0.000022   0.017087  -0.014525  -0.000725  -0.007543
    13  H   -0.002412   0.000030  -0.003912   0.007150   0.001338   0.018893
    14  O   -0.203322  -0.032651  -0.048901   0.194610  -0.002322   0.010107
    15  H    0.196759   0.006785  -0.043262  -0.158360   0.001712   0.012851
               7          8          9         10         11         12
     1  C   -0.156892  -0.095785   0.006273   0.006273   0.005568   0.005568
     2  H    0.000057   0.000419  -0.000025  -0.000025  -0.000022  -0.000022
     3  C   -0.463194  -0.334524   0.007985   0.007984   0.017087   0.017087
     4  C    0.218167   0.411809  -0.013603  -0.013603  -0.014525  -0.014525
     5  O   -0.027353   0.014661  -0.013464  -0.013464  -0.000725  -0.000725
     6  O    0.199444  -0.156236  -0.037001  -0.037001  -0.007543  -0.007543
     7  C    5.585426   0.025252   0.423692   0.423691  -0.024091  -0.024091
     8  C    0.025252   5.671609  -0.054256  -0.054256   0.384268   0.384268
     9  H    0.423692  -0.054256   0.529324  -0.046495   0.006410  -0.009418
    10  H    0.423691  -0.054256  -0.046495   0.529324  -0.009418   0.006410
    11  H   -0.024091   0.384268   0.006410  -0.009418   0.538465  -0.041535
    12  H   -0.024091   0.384268  -0.009418   0.006410  -0.041535   0.538465
    13  H   -0.049832   0.414009  -0.004793  -0.004793  -0.031013  -0.031013
    14  O   -0.002649   0.004772   0.000206   0.000206  -0.000110  -0.000110
    15  H    0.006051  -0.003404  -0.000043  -0.000043  -0.000784  -0.000784
              13         14         15
     1  C   -0.002412  -0.203322   0.196759
     2  H    0.000030  -0.032651   0.006785
     3  C   -0.003912  -0.048901  -0.043262
     4  C    0.007150   0.194610  -0.158360
     5  O    0.001338  -0.002322   0.001712
     6  O    0.018893   0.010107   0.012851
     7  C   -0.049832  -0.002649   0.006051
     8  C    0.414009   0.004772  -0.003404
     9  H   -0.004793   0.000206  -0.000043
    10  H   -0.004793   0.000206  -0.000043
    11  H   -0.031013  -0.000110  -0.000784
    12  H   -0.031013  -0.000110  -0.000784
    13  H    0.519766   0.000007  -0.000199
    14  O    0.000007   8.133317   0.260476
    15  H   -0.000199   0.260476   0.487635
          Atomic-Atomic Spin Densities.
               1          2          3          4          5          6
     1  C    0.386068   0.055823   0.440428  -0.894053   0.016365  -0.080861
     2  H    0.055823   0.017468  -0.043489  -0.002850  -0.000507  -0.000144
     3  C    0.440428  -0.043489   2.133538  -1.719224   0.067038  -0.198456
     4  C   -0.894053  -0.002850  -1.719224   2.326660  -0.083425   0.246896
     5  O    0.016365  -0.000507   0.067038  -0.083425   0.033980  -0.010812
     6  O   -0.080861  -0.000144  -0.198456   0.246896  -0.010812   0.013669
     7  C   -0.030136  -0.000374  -0.049746   0.074693  -0.003965   0.013320
     8  C   -0.012991   0.000557  -0.106244   0.079186  -0.005337   0.006724
     9  H   -0.002154   0.000006  -0.007761   0.007531  -0.000203   0.000225
    10  H   -0.002154   0.000006  -0.007761   0.007531  -0.000203   0.000225
    11  H    0.000339  -0.000008  -0.000207   0.000014   0.000019   0.000362
    12  H    0.000339  -0.000008  -0.000207   0.000014   0.000019   0.000362
    13  H    0.000159   0.000005  -0.001511   0.000888  -0.000053   0.000394
    14  O   -0.130263   0.000463  -0.129594   0.126971  -0.001794   0.009042
    15  H    0.000541  -0.000737   0.038424  -0.022717   0.000744  -0.003677
               7          8          9         10         11         12
     1  C   -0.030136  -0.012991  -0.002154  -0.002154   0.000339   0.000339
     2  H   -0.000374   0.000557   0.000006   0.000006  -0.000008  -0.000008
     3  C   -0.049746  -0.106244  -0.007761  -0.007761  -0.000207  -0.000207
     4  C    0.074693   0.079186   0.007531   0.007531   0.000014   0.000014
     5  O   -0.003965  -0.005337  -0.000203  -0.000203   0.000019   0.000019
     6  O    0.013320   0.006724   0.000225   0.000225   0.000362   0.000362
     7  C    0.016842  -0.011281  -0.000143  -0.000143  -0.002026  -0.002026
     8  C   -0.011281   0.036387   0.002227   0.002227   0.001877   0.001877
     9  H   -0.000143   0.002227  -0.000056   0.000323   0.000043  -0.000035
    10  H   -0.000143   0.002227   0.000323  -0.000056  -0.000035   0.000043
    11  H   -0.002026   0.001877   0.000043  -0.000035  -0.000202  -0.000099
    12  H   -0.002026   0.001877  -0.000035   0.000043  -0.000099  -0.000202
    13  H   -0.002418   0.002793   0.000016   0.000016  -0.000150  -0.000150
    14  O    0.000700   0.002808  -0.000065  -0.000065   0.000062   0.000062
    15  H    0.001732  -0.003437   0.000017   0.000017  -0.000039  -0.000039
              13         14         15
     1  C    0.000159  -0.130263   0.000541
     2  H    0.000005   0.000463  -0.000737
     3  C   -0.001511  -0.129594   0.038424
     4  C    0.000888   0.126971  -0.022717
     5  O   -0.000053  -0.001794   0.000744
     6  O    0.000394   0.009042  -0.003677
     7  C   -0.002418   0.000700   0.001732
     8  C    0.002793   0.002808  -0.003437
     9  H    0.000016  -0.000065   0.000017
    10  H    0.000016  -0.000065   0.000017
    11  H   -0.000150   0.000062  -0.000039
    12  H   -0.000150   0.000062  -0.000039
    13  H    0.000250   0.000076  -0.000148
    14  O    0.000076   0.781217   0.002165
    15  H   -0.000148   0.002165  -0.023198
 Mulliken charges and spin densities:
               1          2
     1  C   -1.787790  -0.252549
     2  H    0.205467   0.026212
     3  C    1.924162   0.415230
     4  C   -0.163964   0.148117
     5  O   -0.212834   0.011868
     6  O   -0.072857  -0.002731
     7  C   -0.133680   0.005030
     8  C   -0.612606  -0.002626
     9  H    0.205210  -0.000027
    10  H    0.205210  -0.000027
    11  H    0.177969  -0.000050
    12  H    0.177969  -0.000050
    13  H    0.166773   0.000168
    14  O   -0.313639   0.661786
    15  H    0.234610  -0.010353
 Sum of Mulliken charges =   0.00000   1.00000
 Mulliken charges and spin densities with hydrogens summed into heavy atoms:
               1          2
     1  C   -1.582323  -0.226336
     3  C    1.924162   0.415230
     4  C   -0.163964   0.148117
     5  O   -0.212834   0.011868
     6  O   -0.072857  -0.002731
     7  C    0.276740   0.004977
     8  C   -0.089896  -0.002558
    14  O   -0.079028   0.651434
 APT charges:
               1
     1  C   -0.358089
     2  H    0.242183
     3  C   -0.201427
     4  C    1.475974
     5  O   -0.788062
     6  O   -0.959717
     7  C    0.550825
     8  C   -0.005921
     9  H   -0.024724
    10  H   -0.024722
    11  H    0.014699
    12  H    0.014700
    13  H    0.014015
    14  O   -0.198452
    15  H    0.248716
 Sum of APT charges =   0.00000
 APT charges with hydrogens summed into heavy atoms:
               1
     1  C   -0.115905
     3  C   -0.201427
     4  C    1.475974
     5  O   -0.788062
     6  O   -0.959717
     7  C    0.501379
     8  C    0.037493
    14  O    0.050265
 Electronic spatial extent (au):  <R**2>=           1260.6748
 Charge=              0.0000 electrons
 Dipole moment (field-independent basis, Debye):
    X=             -2.1309    Y=             -0.6556    Z=              0.0000  Tot=              2.2294
 Quadrupole moment (field-independent basis, Debye-Ang):
   XX=            -39.7771   YY=            -56.6897   ZZ=            -47.7286
   XY=              7.8242   XZ=              0.0000   YZ=              0.0000
 Traceless Quadrupole moment (field-independent basis, Debye-Ang):
   XX=              8.2880   YY=             -8.6246   ZZ=              0.3365
   XY=              7.8242   XZ=              0.0000   YZ=              0.0000
 Octapole moment (field-independent basis, Debye-Ang**2):
  XXX=              2.5625  YYY=            -17.6456  ZZZ=              0.0000  XYY=            -11.0116
  XXY=             17.1490  XXZ=             -0.0001  XZZ=             -5.2505  YZZ=              1.2764
  YYZ=              0.0001  XYZ=              0.0000
 Hexadecapole moment (field-independent basis, Debye-Ang**3):
 XXXX=           -956.2935 YYYY=           -506.1672 ZZZZ=            -60.8480 XXXY=             45.1848
 XXXZ=             -0.0004 YYYX=              8.7322 YYYZ=              0.0012 ZZZX=             -0.0002
 ZZZY=              0.0010 XXYY=           -304.9518 XXZZ=           -205.3849 YYZZ=            -86.7139
 XXYZ=              0.0005 YYXZ=             -0.0002 ZZXY=             -3.1627
 N-N= 3.489303656445D+02 E-N=-1.682057514512D+03  KE= 4.187696351890D+02
  Exact polarizability:  90.383 -10.002  91.077   0.000   0.000  47.441
 Approx polarizability:  96.765 -17.887 103.999   0.000   0.000  56.856
                          Isotropic Fermi Contact Couplings
        Atom                 a.u.       MegaHertz       Gauss      10(-4) cm-1
     1  C(13)              0.00024       0.26792       0.09560       0.08937
     2  H(1)               0.01021      45.62516      16.28019      15.21891
     3  C(13)              0.07655      86.05796      30.70762      28.70584
     4  C(13)             -0.01961     -22.04354      -7.86568      -7.35293
     5  O(17)              0.01136      -6.88918      -2.45823      -2.29798
     6  O(17)              0.02682     -16.25656      -5.80074      -5.42260
     7  C(13)              0.00352       3.95368       1.41077       1.31881
     8  C(13)              0.00018       0.20257       0.07228       0.06757
     9  H(1)              -0.00003      -0.15585      -0.05561      -0.05199
    10  H(1)              -0.00003      -0.15585      -0.05561      -0.05199
    11  H(1)              -0.00001      -0.03116      -0.01112      -0.01039
    12  H(1)              -0.00001      -0.03116      -0.01112      -0.01039
    13  H(1)               0.00011       0.48776       0.17404       0.16270
    14  O(17)              0.10877     -65.93469     -23.52713     -21.99344
    15  H(1)              -0.01144     -51.14496     -18.24979     -17.06012
 --------------------------------------------------------
       Center         ----  Spin Dipole Couplings  ----
                      3XX-RR        3YY-RR        3ZZ-RR
 --------------------------------------------------------
     1   Atom        0.125388     -0.076626     -0.048761
     2   Atom       -0.004646      0.008152     -0.003506
     3   Atom       -0.287363      0.512186     -0.224822
     4   Atom        0.010461      0.004365     -0.014826
     5   Atom        0.061568     -0.049995     -0.011573
     6   Atom        0.030117     -0.020554     -0.009564
     7   Atom        0.009017     -0.004335     -0.004682
     8   Atom        0.002266     -0.000586     -0.001680
     9   Atom        0.002496     -0.001185     -0.001311
    10   Atom        0.002496     -0.001185     -0.001311
    11   Atom        0.001883     -0.000660     -0.001224
    12   Atom        0.001883     -0.000660     -0.001224
    13   Atom        0.001347     -0.000536     -0.000812
    14   Atom       -1.293704      2.629118     -1.335414
    15   Atom        0.123669     -0.028270     -0.095399
 --------------------------------------------------------
                        XY            XZ            YZ
 --------------------------------------------------------
     1   Atom       -0.031924      0.000000      0.000000
     2   Atom        0.008885      0.000000      0.000000
     3   Atom        0.207456     -0.000001     -0.000004
     4   Atom       -0.005363      0.000000      0.000000
     5   Atom       -0.010717      0.000000      0.000000
     6   Atom        0.003742      0.000000      0.000000
     7   Atom        0.000631      0.000000      0.000000
     8   Atom        0.001167      0.000000      0.000000
     9   Atom       -0.000597     -0.001249      0.000346
    10   Atom       -0.000597      0.001249     -0.000346
    11   Atom        0.000839      0.000676      0.000291
    12   Atom        0.000839     -0.000676     -0.000291
    13   Atom        0.000285      0.000000      0.000000
    14   Atom       -0.442590      0.000002     -0.000021
    15   Atom        0.022109      0.000000      0.000000
 --------------------------------------------------------


 ---------------------------------------------------------------------------------
              Anisotropic Spin Dipole Couplings in Principal Axis System
 ---------------------------------------------------------------------------------

       Atom             a.u.   MegaHertz   Gauss  10(-4) cm-1        Axes

              Baa    -0.0816   -10.943    -3.905    -3.650  0.1525  0.9883  0.0000
     1 C(13)  Bbb    -0.0488    -6.543    -2.335    -2.183  0.0000  0.0000  1.0000
              Bcc     0.1303    17.487     6.240     5.833  0.9883 -0.1525  0.0000
 
              Baa    -0.0092    -4.907    -1.751    -1.637  0.8901 -0.4558  0.0000
     2 H(1)   Bbb    -0.0035    -1.871    -0.667    -0.624  0.0000  0.0000  1.0000
              Bcc     0.0127     6.778     2.418     2.261  0.4558  0.8901  0.0000
 
              Baa    -0.3380   -45.354   -16.184   -15.129  0.9715 -0.2371  0.0000
     3 C(13)  Bbb    -0.2248   -30.169   -10.765   -10.063  0.0000  0.0000  1.0000
              Bcc     0.5628    75.523    26.949    25.192  0.2371  0.9715  0.0000
 
              Baa    -0.0148    -1.990    -0.710    -0.664  0.0000  0.0000  1.0000
     4 C(13)  Bbb     0.0012     0.167     0.060     0.056  0.5030  0.8643  0.0000
              Bcc     0.0136     1.823     0.650     0.608  0.8643 -0.5030  0.0000
 
              Baa    -0.0510     3.691     1.317     1.231  0.0948  0.9955  0.0000
     5 O(17)  Bbb    -0.0116     0.837     0.299     0.279  0.0000  0.0000  1.0000
              Bcc     0.0626    -4.529    -1.616    -1.511  0.9955 -0.0948  0.0000
 
              Baa    -0.0208     1.507     0.538     0.503 -0.0732  0.9973  0.0000
     6 O(17)  Bbb    -0.0096     0.692     0.247     0.231  0.0000  0.0000  1.0000
              Bcc     0.0304    -2.199    -0.785    -0.734  0.9973  0.0732  0.0000
 
              Baa    -0.0047    -0.628    -0.224    -0.210  0.0000  0.0000  1.0000
     7 C(13)  Bbb    -0.0044    -0.586    -0.209    -0.195 -0.0471  0.9989  0.0000
              Bcc     0.0090     1.214     0.433     0.405  0.9989  0.0471  0.0000
 
              Baa    -0.0017    -0.225    -0.080    -0.075  0.0000  0.0000  1.0000
     8 C(13)  Bbb    -0.0010    -0.134    -0.048    -0.045 -0.3362  0.9418  0.0000
              Bcc     0.0027     0.360     0.128     0.120  0.9418  0.3362  0.0000
 
              Baa    -0.0017    -0.929    -0.331    -0.310  0.2239 -0.3303  0.9169
     9 H(1)   Bbb    -0.0012    -0.660    -0.236    -0.220  0.2413  0.9303  0.2762
              Bcc     0.0030     1.589     0.567     0.530  0.9443 -0.1594 -0.2880
 
              Baa    -0.0017    -0.929    -0.331    -0.310 -0.2239  0.3303  0.9169
    10 H(1)   Bbb    -0.0012    -0.660    -0.236    -0.220  0.2413  0.9303 -0.2762
              Bcc     0.0030     1.589     0.567     0.530  0.9443 -0.1594  0.2880
 
              Baa    -0.0014    -0.742    -0.265    -0.247 -0.1430 -0.2198  0.9650
    11 H(1)   Bbb    -0.0009    -0.479    -0.171    -0.160 -0.3214  0.9325  0.1648
              Bcc     0.0023     1.220     0.435     0.407  0.9361  0.2866  0.2040
 
              Baa    -0.0014    -0.742    -0.265    -0.247  0.1430  0.2198  0.9650
    12 H(1)   Bbb    -0.0009    -0.479    -0.171    -0.160 -0.3214  0.9325 -0.1648
              Bcc     0.0023     1.220     0.435     0.407  0.9361  0.2866 -0.2040
 
              Baa    -0.0008    -0.433    -0.155    -0.144  0.0000  0.0000  1.0000
    13 H(1)   Bbb    -0.0006    -0.308    -0.110    -0.103 -0.1466  0.9892  0.0000
              Bcc     0.0014     0.741     0.265     0.247  0.9892  0.1466  0.0000
 
              Baa    -1.3430    97.180    34.676    32.416  0.9938  0.1107  0.0000
    14 O(17)  Bbb    -1.3354    96.630    34.480    32.232  0.0000  0.0000  1.0000
              Bcc     2.6784  -193.810   -69.156   -64.648 -0.1107  0.9938  0.0000
 
              Baa    -0.0954   -50.900   -18.163   -16.979  0.0000  0.0000  1.0000
    15 H(1)   Bbb    -0.0314   -16.765    -5.982    -5.592 -0.1411  0.9900  0.0000
              Bcc     0.1268    67.666    24.145    22.571  0.9900  0.1411  0.0000
 

 ---------------------------------------------------------------------------------

 Calling FoFJK, ICntrl=    100127 FMM=F ISym2X=0 I1Cent= 0 IOpClX= 1 NMat=1 NMatS=1 NMatT=0.
 Full mass-weighted force constant matrix:
 Low frequencies --- -746.7922    0.0006    0.0009    0.0012   16.1404   24.3920
 Low frequencies ---   30.1221   75.6114   84.0620
 ******    1 imaginary frequencies (negative Signs) ****** 
 Diagonal vibrational polarizability:
       22.7206872      17.2184511      61.8714143
 Harmonic frequencies (cm**-1), IR intensities (KM/Mole), Raman scattering
 activities (A**4/AMU), depolarization ratios for plane and unpolarized
 incident light, reduced masses (AMU), force constants (mDyne/A),
 and normal coordinates:
                      1                      2                      3
                      A                      A                      A
 Frequencies --   -746.7921                73.5292                81.8519
 Red. masses --     10.6168                 5.5536                 6.4413
 Frc consts  --      3.4885                 0.0177                 0.0254
 IR Inten    --     82.0531                 1.1679                 3.4650
  Atom  AN      X      Y      Z        X      Y      Z        X      Y      Z
     1   6     0.13   0.75   0.00    -0.04  -0.06   0.00     0.00   0.00  -0.08
     2   1     0.06  -0.34   0.00    -0.05  -0.25   0.00     0.00   0.00  -0.09
     3   6    -0.02  -0.10   0.00     0.05   0.14   0.00     0.00   0.00  -0.13
     4   6     0.00   0.01   0.00     0.04   0.10   0.00     0.00   0.00  -0.03
     5   8     0.00   0.00   0.00    -0.03   0.07   0.00     0.00   0.00   0.35
     6   8    -0.01   0.00   0.00     0.12   0.05   0.00     0.00   0.00  -0.37
     7   6     0.00   0.00   0.00     0.11  -0.08   0.00     0.00   0.00  -0.18
     8   6     0.00   0.00   0.00     0.25  -0.15   0.00     0.00   0.00   0.20
     9   1     0.00   0.00   0.00     0.05  -0.11   0.00     0.13   0.18  -0.26
    10   1     0.00   0.00   0.00     0.05  -0.11   0.00    -0.13  -0.18  -0.26
    11   1     0.00   0.00   0.00     0.31  -0.11   0.00    -0.12  -0.20   0.28
    12   1     0.00   0.00   0.00     0.31  -0.11   0.00     0.12   0.20   0.28
    13   1     0.00   0.00   0.00     0.24  -0.27   0.00     0.00   0.00   0.32
    14   8    -0.07  -0.46   0.00    -0.42  -0.03   0.00     0.00   0.00   0.18
    15   1    -0.10  -0.27   0.00    -0.44   0.17   0.00     0.00   0.00   0.00
                      4                      5                      6
                      A                      A                      A
 Frequencies --     92.7620               142.2597               190.7136
 Red. masses --      2.5703                 2.5018                 4.6481
 Frc consts  --      0.0130                 0.0298                 0.0996
 IR Inten    --      0.6236                 4.3014                 4.7593
  Atom  AN      X      Y      Z        X      Y      Z        X      Y      Z
     1   6     0.00   0.00   0.12     0.00   0.00   0.22    -0.11  -0.12   0.00
     2   1     0.00   0.00   0.18     0.00   0.00   0.45    -0.11  -0.08   0.00
     3   6     0.00   0.00   0.15     0.00   0.00   0.03    -0.09  -0.08   0.00
     4   6     0.00   0.00   0.03     0.00   0.00  -0.10    -0.06   0.13   0.00
     5   8     0.00   0.00  -0.06     0.00   0.00  -0.07     0.06   0.18   0.00
     6   8     0.00   0.00   0.01     0.00   0.00  -0.18    -0.12   0.18   0.00
     7   6     0.00   0.00  -0.17     0.00   0.00   0.13    -0.12   0.02   0.00
     8   6     0.00   0.00   0.16     0.00   0.00   0.06     0.19  -0.13   0.00
     9   1    -0.09   0.25  -0.37     0.19  -0.13   0.28    -0.22  -0.04   0.01
    10   1     0.09  -0.25  -0.37    -0.19   0.13   0.28    -0.22  -0.04  -0.01
    11   1     0.10  -0.26   0.35    -0.25   0.16  -0.12     0.36  -0.05   0.00
    12   1    -0.10   0.26   0.35     0.25  -0.16  -0.12     0.36  -0.05   0.00
    13   1     0.00   0.00   0.01     0.00   0.00   0.39     0.17  -0.44   0.00
    14   8     0.00   0.00  -0.18     0.00   0.00  -0.07     0.17  -0.17   0.00
    15   1     0.00   0.00  -0.16     0.00   0.00  -0.25     0.19  -0.30   0.00
                      7                      8                      9
                      A                      A                      A
 Frequencies --    257.6838               271.8272               292.5234
 Red. masses --      1.3480                 1.1317                 7.0401
 Frc consts  --      0.0527                 0.0493                 0.3549
 IR Inten    --     10.2052                86.2284                 1.6990
  Atom  AN      X      Y      Z        X      Y      Z        X      Y      Z
     1   6     0.00   0.00   0.07     0.00   0.00  -0.03     0.15   0.14   0.00
     2   1     0.00   0.00   0.25     0.00   0.00  -0.06     0.15   0.21   0.00
     3   6     0.00   0.00  -0.14     0.00   0.00   0.01     0.00  -0.25   0.00
     4   6     0.00   0.00  -0.04     0.00   0.00   0.03     0.04  -0.11   0.00
     5   8     0.00   0.00   0.03     0.00   0.00  -0.01     0.38   0.02   0.00
     6   8     0.00   0.00   0.01     0.00   0.00   0.05    -0.18   0.03   0.00
     7   6     0.00   0.00   0.05     0.00   0.00  -0.04    -0.20  -0.04   0.00
     8   6     0.00   0.00   0.00     0.00   0.00   0.00    -0.01  -0.15   0.00
     9   1     0.01  -0.03   0.07    -0.04   0.04  -0.08    -0.25  -0.07   0.01
    10   1    -0.01   0.03   0.07     0.04  -0.04  -0.08    -0.25  -0.07  -0.01
    11   1     0.39  -0.11   0.20    -0.20   0.05  -0.10     0.11  -0.09   0.00
    12   1    -0.39   0.11   0.20     0.20  -0.05  -0.10     0.11  -0.09   0.00
    13   1     0.00   0.00  -0.50     0.00   0.00   0.25    -0.02  -0.36   0.00
    14   8     0.00   0.00   0.01     0.00   0.00   0.06    -0.16   0.25   0.00
    15   1     0.00   0.00  -0.49     0.00   0.00  -0.89    -0.18   0.38   0.00
                     10                     11                     12
                      A                      A                      A
 Frequencies --    302.8194               387.7249               541.7135
 Red. masses --      2.6077                 3.4717                 6.5368
 Frc consts  --      0.1409                 0.3075                 1.1302
 IR Inten    --      6.8863                10.4357                 0.0742
  Atom  AN      X      Y      Z        X      Y      Z        X      Y      Z
     1   6     0.00   0.00  -0.13     0.00  -0.02   0.00     0.22  -0.06   0.00
     2   1     0.00   0.00  -0.45     0.00  -0.06   0.00     0.22  -0.22   0.00
     3   6     0.00   0.00   0.28     0.05   0.12   0.00     0.35   0.38   0.00
     4   6     0.00   0.00   0.04     0.03   0.12   0.00     0.07  -0.07   0.00
     5   8     0.00   0.00  -0.07     0.11   0.15   0.00    -0.06  -0.13   0.00
     6   8     0.00   0.00  -0.15     0.07   0.05   0.00    -0.15   0.04   0.00
     7   6     0.00   0.00   0.09     0.01  -0.21   0.00    -0.30   0.09   0.00
     8   6     0.00   0.00   0.01    -0.25  -0.15   0.00    -0.05  -0.07   0.00
     9   1     0.14  -0.11   0.20    -0.04  -0.23  -0.01    -0.30   0.06   0.01
    10   1    -0.14   0.11   0.20    -0.04  -0.23   0.01    -0.30   0.06  -0.01
    11   1     0.32  -0.06   0.15    -0.47  -0.25  -0.01     0.14   0.03   0.01
    12   1    -0.32   0.06   0.15    -0.47  -0.25   0.01     0.14   0.03  -0.01
    13   1     0.00   0.00  -0.40    -0.22   0.24   0.00    -0.08  -0.42   0.00
    14   8     0.00   0.00   0.04     0.02  -0.05   0.00     0.02  -0.10   0.00
    15   1     0.00   0.00  -0.33     0.02  -0.03   0.00     0.00   0.06   0.00
                     13                     14                     15
                      A                      A                      A
 Frequencies --    600.4802               773.8010               790.8025
 Red. masses --      8.3983                 3.8910                 1.6029
 Frc consts  --      1.7842                 1.3727                 0.5906
 IR Inten    --      7.6437                 2.4448                54.1862
  Atom  AN      X      Y      Z        X      Y      Z        X      Y      Z
     1   6    -0.37   0.07   0.00     0.00   0.00   0.17     0.00   0.00  -0.14
     2   1    -0.37   0.16   0.00     0.00   0.00  -0.80     0.00   0.00   0.95
     3   6    -0.17   0.45   0.00     0.00   0.00  -0.20     0.00   0.00  -0.01
     4   6    -0.04  -0.20   0.00     0.00   0.00   0.40     0.00   0.00   0.17
     5   8     0.37  -0.04   0.00     0.00   0.00  -0.12     0.00   0.00  -0.05
     6   8    -0.03  -0.21   0.00     0.00   0.00  -0.09     0.00   0.00  -0.03
     7   6     0.01   0.03   0.00     0.00   0.00  -0.03     0.00   0.00  -0.02
     8   6     0.05   0.05   0.00     0.00   0.00   0.00     0.00   0.00  -0.01
     9   1     0.09   0.06   0.01     0.07  -0.16   0.10     0.03  -0.09   0.06
    10   1     0.09   0.06  -0.01    -0.07   0.16   0.10    -0.03   0.09   0.06
    11   1     0.15   0.10   0.01    -0.03  -0.11   0.06    -0.02  -0.07   0.03
    12   1     0.15   0.10  -0.01     0.03   0.11   0.06     0.02   0.07   0.03
    13   1     0.04  -0.10   0.00     0.00   0.00   0.04     0.00   0.00   0.03
    14   8     0.02  -0.05   0.00     0.00   0.00  -0.01     0.00   0.00   0.01
    15   1     0.05  -0.35   0.00     0.00   0.00   0.00     0.00   0.00   0.04
                     16                     17                     18
                      A                      A                      A
 Frequencies --    826.0784               833.3666               897.1016
 Red. masses --      1.1427                 1.1333                 2.1654
 Frc consts  --      0.4594                 0.4637                 1.0268
 IR Inten    --      0.0992               165.4963                18.2295
  Atom  AN      X      Y      Z        X      Y      Z        X      Y      Z
     1   6     0.00   0.00  -0.01     0.01  -0.02   0.00    -0.02   0.00   0.00
     2   1     0.00   0.00   0.05     0.04   0.78   0.00    -0.01   0.36   0.00
     3   6     0.00   0.00  -0.02    -0.01   0.01   0.00     0.00   0.03   0.00
     4   6     0.00   0.00   0.06    -0.02   0.00   0.00     0.04  -0.07   0.00
     5   8     0.00   0.00  -0.02     0.00   0.01   0.00     0.01  -0.12   0.00
     6   8     0.00   0.00  -0.04     0.00  -0.01   0.00    -0.10   0.18   0.00
     7   6     0.00   0.00   0.07     0.00   0.00   0.00     0.08  -0.05   0.00
     8   6     0.00   0.00   0.04     0.00   0.01   0.00     0.11   0.00   0.00
     9   1     0.02   0.45  -0.23     0.01   0.00   0.00    -0.13  -0.13  -0.01
    10   1    -0.02  -0.45  -0.23     0.01   0.00   0.00    -0.13  -0.13   0.01
    11   1     0.12   0.42  -0.18     0.01   0.01   0.00    -0.26  -0.13  -0.04
    12   1    -0.12  -0.42  -0.18     0.01   0.01   0.00    -0.26  -0.13   0.04
    13   1     0.00   0.00  -0.19     0.00   0.01   0.00     0.15   0.62   0.00
    14   8     0.00   0.00   0.00     0.00  -0.09   0.00    -0.02   0.00   0.00
    15   1     0.00   0.00   0.00    -0.06   0.62   0.00     0.01  -0.37   0.00
                     19                     20                     21
                      A                      A                      A
 Frequencies --    921.8200               959.3177              1082.1206
 Red. masses --      1.1930                 4.4588                 3.3422
 Frc consts  --      0.5973                 2.4177                 2.3059
 IR Inten    --      4.8009                 3.7238                39.0987
  Atom  AN      X      Y      Z        X      Y      Z        X      Y      Z
     1   6     0.02   0.00   0.00     0.19  -0.04   0.00     0.05  -0.01   0.00
     2   1     0.04   0.60   0.00     0.21   0.22   0.00     0.06  -0.04   0.00
     3   6     0.01  -0.02   0.00     0.11   0.02   0.00     0.03   0.03   0.00
     4   6     0.04   0.02   0.00    -0.22   0.04   0.00    -0.11  -0.04   0.00
     5   8    -0.01   0.00   0.00     0.00   0.20   0.00     0.01   0.02   0.00
     6   8     0.06   0.00   0.00    -0.16  -0.22   0.00    -0.19   0.04   0.00
     7   6    -0.03   0.04   0.00     0.03  -0.14   0.00     0.31   0.11   0.00
     8   6    -0.06  -0.03   0.00     0.13   0.14   0.00    -0.11  -0.14   0.00
     9   1     0.03   0.07   0.00    -0.03  -0.17   0.01     0.43   0.26  -0.05
    10   1     0.03   0.07   0.00    -0.03  -0.17  -0.01     0.43   0.26   0.05
    11   1     0.07   0.01   0.02     0.01   0.13  -0.03     0.04  -0.18   0.06
    12   1     0.07   0.01  -0.02     0.01   0.13   0.03     0.04  -0.18  -0.06
    13   1    -0.08  -0.27   0.00     0.15   0.44   0.00    -0.13  -0.44   0.00
    14   8    -0.04   0.01   0.00    -0.03   0.00   0.00     0.00  -0.01   0.00
    15   1     0.02  -0.72   0.00     0.02  -0.57   0.00     0.00   0.01   0.00
                     22                     23                     24
                      A                      A                      A
 Frequencies --   1151.1123              1186.6455              1272.8266
 Red. masses --      2.2496                 1.5731                 9.0472
 Frc consts  --      1.7563                 1.3051                 8.6358
 IR Inten    --     14.8286                 4.2741               633.5131
  Atom  AN      X      Y      Z        X      Y      Z        X      Y      Z
     1   6     0.01   0.00   0.00     0.00   0.00   0.00    -0.13   0.03   0.00
     2   1     0.01   0.00   0.00     0.00   0.00   0.00    -0.16   0.13   0.00
     3   6     0.00  -0.01   0.00     0.00   0.00   0.00    -0.01  -0.03   0.00
     4   6    -0.03   0.00   0.00     0.00   0.00   0.01     0.60   0.30   0.00
     5   8     0.00   0.05   0.00     0.00   0.00   0.00    -0.08   0.02   0.00
     6   8     0.04  -0.10   0.00     0.00   0.00  -0.05    -0.32  -0.26   0.00
     7   6    -0.08   0.22   0.00     0.00   0.00   0.18     0.14   0.04   0.00
     8   6     0.10  -0.17   0.00     0.00   0.00  -0.13     0.00   0.00   0.00
     9   1    -0.01   0.25   0.01    -0.36   0.32  -0.14    -0.35  -0.13  -0.01
    10   1    -0.01   0.25  -0.01     0.36  -0.32  -0.14    -0.35  -0.13   0.01
    11   1    -0.42  -0.33  -0.07    -0.07  -0.41   0.11     0.00  -0.07   0.03
    12   1    -0.42  -0.33   0.07     0.07   0.41   0.11     0.00  -0.07  -0.03
    13   1     0.13   0.41   0.00     0.00   0.00   0.27     0.01   0.01   0.00
    14   8     0.00   0.00   0.00     0.00   0.00   0.00     0.01   0.01   0.00
    15   1     0.00  -0.01   0.00     0.00   0.00   0.00    -0.01   0.07   0.00
                     25                     26                     27
                      A                      A                      A
 Frequencies --   1315.8339              1402.7636              1442.0829
 Red. masses --      1.0819                 1.2461                 1.4651
 Frc consts  --      1.1037                 1.4447                 1.7952
 IR Inten    --      1.7775                 4.4114                16.3046
  Atom  AN      X      Y      Z        X      Y      Z        X      Y      Z
     1   6     0.00   0.00   0.00     0.01   0.00   0.00    -0.01   0.00   0.00
     2   1     0.00   0.00   0.00     0.01  -0.01   0.00    -0.01   0.01   0.00
     3   6     0.00   0.00   0.00     0.00   0.00   0.00     0.00   0.00   0.00
     4   6     0.00   0.00   0.00    -0.04  -0.01   0.00     0.05   0.01   0.00
     5   8     0.00   0.00   0.00     0.01   0.00   0.00    -0.01   0.00   0.00
     6   8     0.00   0.00   0.04     0.03  -0.01   0.00    -0.03   0.01   0.00
     7   6     0.00   0.00   0.00     0.06   0.06   0.00    -0.09  -0.11   0.00
     8   6     0.00   0.00  -0.07     0.02   0.10   0.00     0.09   0.10   0.00
     9   1     0.62   0.27   0.02    -0.34  -0.25   0.07     0.42   0.25  -0.08
    10   1    -0.62  -0.27   0.02    -0.34  -0.25  -0.07     0.42   0.25   0.08
    11   1    -0.03  -0.19   0.04    -0.22  -0.31   0.17    -0.34  -0.18   0.03
    12   1     0.03   0.19   0.04    -0.22  -0.31  -0.17    -0.34  -0.18  -0.03
    13   1     0.00   0.00   0.09    -0.03  -0.51   0.00     0.04  -0.40   0.00
    14   8     0.00   0.00   0.00     0.00   0.00   0.00     0.00   0.00   0.00
    15   1     0.00   0.00   0.00     0.00   0.00   0.00     0.00   0.00   0.00
                     28                     29                     30
                      A                      A                      A
 Frequencies --   1493.7389              1507.4253              1529.9249
 Red. masses --      1.0373                 1.0527                 1.0853
 Frc consts  --      1.3637                 1.4093                 1.4967
 IR Inten    --      9.1241                 3.3775                 8.6107
  Atom  AN      X      Y      Z        X      Y      Z        X      Y      Z
     1   6     0.00   0.00   0.00     0.00   0.00   0.00     0.00   0.00   0.00
     2   1     0.00   0.00   0.00     0.00   0.00   0.00    -0.01   0.00   0.00
     3   6     0.00   0.00   0.00     0.00   0.00   0.00     0.00   0.00   0.00
     4   6     0.00   0.00   0.00     0.00   0.00   0.00     0.02   0.00   0.00
     5   8     0.00   0.00   0.00     0.00   0.00   0.00     0.00   0.00   0.00
     6   8     0.00   0.00   0.00     0.01   0.00   0.00    -0.02   0.01   0.00
     7   6     0.00   0.00  -0.02    -0.02  -0.04   0.00    -0.06   0.05   0.00
     8   6     0.00   0.00  -0.05    -0.03   0.04   0.00    -0.01   0.01   0.00
     9   1     0.00  -0.04   0.00    -0.07   0.23  -0.18     0.37  -0.36   0.38
    10   1     0.00   0.04   0.00    -0.07   0.23   0.18     0.37  -0.36  -0.38
    11   1     0.48   0.14   0.05     0.29  -0.38   0.36     0.13  -0.17   0.16
    12   1    -0.48  -0.14   0.05     0.29  -0.38  -0.36     0.13  -0.17  -0.16
    13   1     0.00   0.00   0.70     0.00   0.29   0.00     0.00   0.15   0.00
    14   8     0.00   0.00   0.00     0.00   0.00   0.00     0.00   0.00   0.00
    15   1     0.00   0.00   0.00     0.00   0.00   0.00     0.00   0.00   0.00
                     31                     32                     33
                      A                      A                      A
 Frequencies --   1848.2656              2047.3063              3069.2638
 Red. masses --     12.4223                 6.6020                 1.0355
 Frc consts  --     25.0024                16.3038                 5.7474
 IR Inten    --    425.7465                93.3058                 7.5689
  Atom  AN      X      Y      Z        X      Y      Z        X      Y      Z
     1   6     0.10  -0.03   0.00    -0.38   0.10   0.00     0.00   0.00   0.00
     2   1     0.15  -0.02   0.00    -0.67   0.20   0.00     0.00   0.00   0.00
     3   6    -0.08   0.02   0.00     0.55  -0.18   0.00     0.00   0.00   0.00
     4   6    -0.30   0.73   0.00    -0.14   0.05   0.00     0.00   0.00   0.00
     5   8     0.21  -0.49   0.00     0.01  -0.02   0.00     0.00   0.00   0.00
     6   8     0.00  -0.06   0.00     0.00  -0.01   0.00     0.00   0.00   0.00
     7   6    -0.03   0.01   0.00     0.00   0.00   0.00     0.00   0.00   0.00
     8   6     0.01  -0.01   0.00     0.00   0.00   0.00    -0.02  -0.04   0.00
     9   1     0.11   0.06   0.03     0.00   0.00   0.00     0.00  -0.01  -0.01
    10   1     0.11   0.06  -0.03     0.00   0.00   0.00     0.00  -0.01   0.01
    11   1    -0.02  -0.03   0.00     0.00   0.00   0.00    -0.16   0.28   0.46
    12   1    -0.02  -0.03   0.00     0.00   0.00   0.00    -0.16   0.28  -0.46
    13   1     0.01   0.05   0.00     0.00   0.00   0.00     0.60  -0.05   0.00
    14   8     0.00   0.00   0.00     0.01   0.03   0.00     0.00   0.00   0.00
    15   1     0.00  -0.05   0.00     0.00   0.05   0.00     0.00   0.00   0.00
                     34                     35                     36
                      A                      A                      A
 Frequencies --   3104.2682              3142.4755              3148.4771
 Red. masses --      1.0589                 1.1068                 1.1013
 Frc consts  --      6.0118                 6.4397                 6.4323
 IR Inten    --      9.6100                 0.0806                11.7936
  Atom  AN      X      Y      Z        X      Y      Z        X      Y      Z
     1   6     0.00   0.00   0.00     0.00   0.00   0.00     0.00   0.00   0.00
     2   1     0.00   0.00   0.00     0.00   0.00   0.00     0.00   0.00   0.00
     3   6     0.00   0.00   0.00     0.00   0.00   0.00     0.00   0.00   0.00
     4   6     0.00   0.00   0.00     0.00   0.00   0.00     0.00   0.00   0.00
     5   8     0.00   0.00   0.00     0.00   0.00   0.00     0.00   0.00   0.00
     6   8     0.00   0.00   0.00     0.00   0.00   0.00     0.00   0.00   0.00
     7   6     0.03  -0.06   0.00     0.00   0.00  -0.07    -0.01   0.01   0.00
     8   6    -0.01   0.01   0.00     0.00   0.00   0.06    -0.08   0.04   0.00
     9   1    -0.17   0.36   0.58    -0.13   0.27   0.41     0.02  -0.05  -0.08
    10   1    -0.17   0.36  -0.58     0.13  -0.27   0.41     0.02  -0.05   0.08
    11   1     0.01  -0.02  -0.04     0.14  -0.25  -0.39     0.10  -0.21  -0.35
    12   1     0.01  -0.02   0.04    -0.14   0.25  -0.39     0.10  -0.21   0.35
    13   1     0.12  -0.01   0.00     0.00   0.00   0.01     0.78  -0.06   0.00
    14   8     0.00   0.00   0.00     0.00   0.00   0.00     0.00   0.00   0.00
    15   1     0.00   0.00   0.00     0.00   0.00   0.00     0.00   0.00   0.00
                     37                     38                     39
                      A                      A                      A
 Frequencies --   3164.9978              3395.5211              3791.1858
 Red. masses --      1.1073                 1.1402                 1.0679
 Frc consts  --      6.5354                 7.7452                 9.0433
 IR Inten    --     20.9044                60.2288                39.9683
  Atom  AN      X      Y      Z        X      Y      Z        X      Y      Z
     1   6     0.00   0.00   0.00    -0.11   0.01   0.00     0.00   0.00   0.00
     2   1     0.00   0.00   0.00     0.99  -0.03   0.00     0.00   0.00   0.00
     3   6     0.00   0.00   0.00     0.02  -0.01   0.00     0.00   0.00   0.00
     4   6     0.00   0.00   0.00     0.00   0.00   0.00     0.00   0.00   0.00
     5   8     0.00   0.00   0.00     0.00   0.00   0.00     0.00   0.00   0.00
     6   8     0.00   0.00   0.00     0.00   0.00   0.00     0.00   0.00   0.00
     7   6     0.00   0.00   0.07     0.00   0.00   0.00     0.00   0.00   0.00
     8   6     0.00   0.00   0.07     0.00   0.00   0.00     0.00   0.00   0.00
     9   1     0.12  -0.26  -0.39     0.00   0.00   0.00     0.00   0.00   0.00
    10   1    -0.12   0.26  -0.39     0.00   0.00   0.00     0.00   0.00   0.00
    11   1     0.14  -0.27  -0.41     0.00   0.00   0.00     0.00   0.00   0.00
    12   1    -0.14   0.27  -0.41     0.00   0.00   0.00     0.00   0.00   0.00
    13   1     0.00   0.00   0.01     0.00   0.00   0.00     0.00   0.00   0.00
    14   8     0.00   0.00   0.00     0.00   0.00   0.00     0.06   0.01   0.00
    15   1     0.00   0.00   0.00     0.00   0.00   0.00    -0.99  -0.08   0.00

 -------------------
 - Thermochemistry -
 -------------------
 Temperature   298.150 Kelvin.  Pressure   1.00000 Atm.
 Atom     1 has atomic number  6 and mass  12.00000
 Atom     2 has atomic number  1 and mass   1.00783
 Atom     3 has atomic number  6 and mass  12.00000
 Atom     4 has atomic number  6 and mass  12.00000
 Atom     5 has atomic number  8 and mass  15.99491
 Atom     6 has atomic number  8 and mass  15.99491
 Atom     7 has atomic number  6 and mass  12.00000
 Atom     8 has atomic number  6 and mass  12.00000
 Atom     9 has atomic number  1 and mass   1.00783
 Atom    10 has atomic number  1 and mass   1.00783
 Atom    11 has atomic number  1 and mass   1.00783
 Atom    12 has atomic number  1 and mass   1.00783
 Atom    13 has atomic number  1 and mass   1.00783
 Atom    14 has atomic number  8 and mass  15.99491
 Atom    15 has atomic number  1 and mass   1.00783
 Molecular mass:   115.03952 amu.
 Principal axes and moments of inertia in atomic units:
                           1         2         3
     Eigenvalues --   624.561121448.560142050.55419
           X            0.99924   0.03910   0.00000
           Y           -0.03910   0.99924   0.00000
           Z            0.00000   0.00000   1.00000
 This molecule is an asymmetric top.
 Rotational symmetry number  1.
 Warning -- assumption of classical behavior for rotation
           may cause significant error
 Rotational temperatures (Kelvin)      0.13868     0.05979     0.04224
 Rotational constants (GHZ):           2.88962     1.24589     0.88012
    1 imaginary frequencies ignored.
 Zero-point vibrational energy     295085.3 (Joules/Mol)
                                   70.52708 (Kcal/Mol)
 Warning -- explicit consideration of  12 degrees of freedom as
           vibrations may cause significant error
 Vibrational temperatures:    105.79   117.77   133.46   204.68   274.39
          (Kelvin)            370.75   391.10   420.88   435.69   557.85
                              779.40   863.96  1113.33  1137.79  1188.54
                             1199.03  1290.73  1326.29  1380.24  1556.93
                             1656.19  1707.32  1831.31  1893.19  2018.26
                             2074.83  2149.15  2168.85  2201.22  2659.24
                             2945.61  4415.98  4466.34  4521.32  4529.95
                             4553.72  4885.39  5454.66
 
 Zero-point correction=                           0.112392 (Hartree/Particle)
 Thermal correction to Energy=                    0.121789
 Thermal correction to Enthalpy=                  0.122733
 Thermal correction to Gibbs Free Energy=         0.076816
 Sum of electronic and zero-point Energies=           -419.3555005
 Sum of electronic and thermal Energies=              -420.083874
 Sum of electronic and thermal Enthalpies=            -420.082930
 Sum of electronic and thermal Free Energies=         -420.128848
 
                     E (Thermal)             CV                S
                      KCal/Mol        Cal/Mol-Kelvin    Cal/Mol-Kelvin
 Total                   76.424             31.586             96.641
 Electronic               0.000              0.000              1.377
 Translational            0.889              2.981             40.136
 Rotational               0.889              2.981             29.008
 Vibrational             74.646             25.624             26.120
 Vibration     1          0.599              1.966              4.057
 Vibration     2          0.600              1.962              3.846
 Vibration     3          0.602              1.954              3.601
 Vibration     4          0.616              1.911              2.773
 Vibration     5          0.634              1.853              2.221
 Vibration     6          0.667              1.750              1.677
 Vibration     7          0.675              1.725              1.585
 Vibration     8          0.688              1.688              1.459
 Vibration     9          0.694              1.668              1.401
 Vibration    10          0.756              1.496              1.009
 Vibration    11          0.897              1.158              0.562
 Vibration    12          0.959              1.031              0.449
                       Q            Log10(Q)             Ln(Q)
 Total Bot       0.464641D-35        -35.332882        -81.356968
 Total V=0       0.231082D+17         16.363767         37.678965
 Vib (Bot)       0.982481D-49        -49.007676       -112.844343
 Vib (Bot)    1  0.280354D+01          0.447706          1.030881
 Vib (Bot)    2  0.251532D+01          0.400594          0.922401
 Vib (Bot)    3  0.221540D+01          0.345452          0.795433
 Vib (Bot)    4  0.142845D+01          0.154865          0.356590
 Vib (Bot)    5  0.104916D+01          0.020840          0.047986
 Vib (Bot)    6  0.754616D+00         -0.122274         -0.281547
 Vib (Bot)    7  0.710308D+00         -0.148553         -0.342057
 Vib (Bot)    8  0.652834D+00         -0.185197         -0.426432
 Vib (Bot)    9  0.627020D+00         -0.202718         -0.466776
 Vib (Bot)   10  0.463790D+00         -0.333679         -0.768323
 Vib (Bot)   11  0.291996D+00         -0.534623         -1.231016
 Vib (Bot)   12  0.248544D+00         -0.604596         -1.392134
 Vib (V=0)       0.488622D+03          2.688973          6.191590
 Vib (V=0)    1  0.334777D+01          0.524756          1.208295
 Vib (V=0)    2  0.306454D+01          0.486365          1.119896
 Vib (V=0)    3  0.277112D+01          0.442656          1.019252
 Vib (V=0)    4  0.201343D+01          0.303937          0.699840
 Vib (V=0)    5  0.166221D+01          0.220686          0.508147
 Vib (V=0)    6  0.140523D+01          0.147748          0.340202
 Vib (V=0)    7  0.136864D+01          0.136290          0.313818
 Vib (V=0)    8  0.132231D+01          0.121333          0.279380
 Vib (V=0)    9  0.130197D+01          0.114601          0.263878
 Vib (V=0)   10  0.118198D+01          0.072611          0.167194
 Vib (V=0)   11  0.107902D+01          0.033029          0.076051
 Vib (V=0)   12  0.105837D+01          0.024637          0.056728
 Electronic      0.200000D+01          0.301030          0.693147
 Translational   0.484982D+08          7.685726         17.697038
 Rotational      0.487571D+06          5.688038         13.097191
 ***** Axes restored to original set *****
 -------------------------------------------------------------------
 Center     Atomic                   Forces (Hartrees/Bohr)
 Number     Number              X              Y              Z
 -------------------------------------------------------------------
      1        6          -0.001793327   -0.016886993    0.000000119
      2        1          -0.000580867    0.000693308   -0.000000018
      3        6          -0.000242241    0.002095339   -0.000000033
      4        6           0.000065507   -0.000207370    0.000000043
      5        8           0.000110439    0.000043896   -0.000000015
      6        8           0.000119389    0.000007076   -0.000000045
      7        6          -0.000019685   -0.000016977    0.000000543
      8        6           0.000003394    0.000012161    0.000000046
      9        1           0.000005917   -0.000001730    0.000000884
     10        1           0.000005802   -0.000001377   -0.000001409
     11        1           0.000001447   -0.000002204   -0.000000454
     12        1           0.000001484   -0.000002231    0.000000453
     13        1           0.000002060    0.000001481   -0.000000034
     14        8           0.002036885    0.013750711   -0.000000075
     15        1           0.000283796    0.000514910   -0.000000004
 -------------------------------------------------------------------
 Cartesian Forces:  Max     0.016886993 RMS     0.003290751

 GradGradGradGradGradGradGradGradGradGradGradGradGradGradGradGradGradGrad
 Berny optimization.
 Search for a local minimum.
 Step number   1 out of a maximum of    2
 All quantities printed in internal units (Hartrees-Bohrs-Radians)
 Second derivative matrix not updated -- analytic derivatives used.
 ITU=  0
     Eigenvalues ---   -0.26539   0.00087   0.00126   0.00179   0.00215
     Eigenvalues ---    0.00487   0.00624   0.00660   0.02021   0.02075
     Eigenvalues ---    0.02608   0.03196   0.03799   0.05429   0.06338
     Eigenvalues ---    0.07837   0.08522   0.09477   0.10216   0.11470
     Eigenvalues ---    0.11619   0.14636   0.15008   0.16739   0.20153
     Eigenvalues ---    0.29435   0.30237   0.44916   0.47443   0.63775
     Eigenvalues ---    0.69972   0.73549   0.79260   0.86352   0.89309
     Eigenvalues ---    0.92252   1.00406   1.74792   2.21708
 Eigenvalue     1 is  -2.65D-01 should be greater than     0.000000 Eigenvector:
                          Y1        Y14       X1        Y3        X15
   1                    0.79259  -0.57281   0.12151  -0.10509  -0.07315
                          Y2        Y15       X14       X2        X3
   1                   -0.06482  -0.05883  -0.04661   0.03722  -0.03288
 Angle between quadratic step and forces=  34.17 degrees.
 Linear search not attempted -- first point.
 TrRot=  0.000536  0.000742  0.000000  0.000224  0.000000  0.000224
 Variable       Old X    -DE/DX   Delta X   Delta X   Delta X     New X
                                 (Linear)    (Quad)   (Total)
    X1        4.82521  -0.00179   0.00000  -0.00377  -0.00333   4.82188
    Y1        0.26713  -0.01689   0.00000  -0.05700  -0.05409   0.21304
    Z1        0.00000   0.00000   0.00000   0.00000   0.00000   0.00000
    X2        6.84530  -0.00058   0.00000   0.00335   0.00379   6.84909
    Y2        0.21147   0.00069   0.00000   0.00314   0.00695   0.21842
    Z2        0.00000   0.00000   0.00000   0.00000   0.00000   0.00000
    X3        2.71273  -0.00024   0.00000  -0.00013  -0.00014   2.71259
    Y3        1.21583   0.00210   0.00000  -0.00263  -0.00067   1.21516
    Z3       -0.00001   0.00000   0.00000   0.00000   0.00000   0.00000
    X4        0.02643   0.00007   0.00000  -0.00155  -0.00182   0.02461
    Y4        1.80058  -0.00021   0.00000  -0.00851  -0.00776   1.79282
    Z4       -0.00001   0.00000   0.00000   0.00000   0.00000  -0.00001
    X5       -0.83244   0.00011   0.00000   0.00382   0.00261  -0.82984
    Y5        3.89416   0.00004   0.00000  -0.00561  -0.00525   3.88892
    Z5       -0.00002   0.00000   0.00000   0.00000   0.00000  -0.00002
    X6       -1.32919   0.00012   0.00000  -0.00650  -0.00582  -1.33501
    Y6       -0.33073   0.00001   0.00000  -0.00432  -0.00418  -0.33491
    Z6        0.00000   0.00000   0.00000   0.00000   0.00000   0.00000
    X7       -4.03817  -0.00002   0.00000  -0.00640  -0.00586  -4.04404
    Y7       -0.00088  -0.00002   0.00000   0.00210   0.00102   0.00015
    Z7        0.00000   0.00000   0.00000   0.00000   0.00000   0.00000
    X8       -5.20594   0.00000   0.00000  -0.01221  -0.01051  -5.21645
    Y8       -2.60487   0.00001   0.00000   0.00472   0.00312  -2.60175
    Z8        0.00001   0.00000   0.00000   0.00000   0.00000   0.00001
    X9       -4.55765   0.00001   0.00000  -0.00415  -0.00411  -4.56176
    Y9        1.09276   0.00000   0.00000   0.00342   0.00211   1.09488
    Z9        1.67024   0.00000   0.00000  -0.00007  -0.00007   1.67017
   X10       -4.55765   0.00001   0.00000  -0.00415  -0.00411  -4.56175
   Y10        1.09275   0.00000   0.00000   0.00342   0.00212   1.09486
   Z10       -1.67025   0.00000   0.00000   0.00007   0.00007  -1.67018
   X11       -4.63572   0.00000   0.00000  -0.01458  -0.01240  -4.64812
   Y11       -3.66087   0.00000   0.00000   0.00363   0.00229  -3.65858
   Z11       -1.67577   0.00000   0.00000  -0.00002  -0.00002  -1.67578
   X12       -4.63572   0.00000   0.00000  -0.01458  -0.01240  -4.64812
   Y12       -3.66085   0.00000   0.00000   0.00363   0.00229  -3.65857
   Z12        1.67580   0.00000   0.00000   0.00001   0.00001   1.67581
   X13       -7.26127   0.00000   0.00000  -0.01194  -0.01032  -7.27159
   Y13       -2.43868   0.00000   0.00000   0.00924   0.00672  -2.43196
   Z13        0.00001   0.00000   0.00000   0.00000   0.00000   0.00001
   X14        4.44185   0.00204   0.00000   0.02863   0.03066   4.47251
   Y14       -3.38471   0.01375   0.00000   0.06081   0.06356  -3.32115
   Z14        0.00002   0.00000   0.00000   0.00000   0.00000   0.00002
   X15        2.61442   0.00028   0.00000   0.03162   0.03376   2.64818
   Y15       -3.54327   0.00051   0.00000  -0.02016  -0.01823  -3.56150
   Z15        0.00002   0.00000   0.00000   0.00000   0.00000   0.00002
         Item               Value     Threshold  Converged?
 Maximum Force            0.016887     0.000450     NO 
 RMS     Force            0.003291     0.000300     NO 
 Maximum Displacement     0.063557     0.001800     NO 
 RMS     Displacement     0.015106     0.001200     NO 
 Predicted change in Energy=-2.737257D-03
 GradGradGradGradGradGradGradGradGradGradGradGradGradGradGradGradGradGrad

 1|1|UNPC-DIT|Freq|UM062X|6-311++G(d,p)|C5H7O3(2)|NDITM|28-Mar-2025|0||
 # freq 6-311++g(d,p) m062x||Title Card Required||0,2|C,2.553392,0.1413
 57,0.|H,3.622375,0.111905,0.000001|C,1.435515,0.64339,-0.000003|C,0.01
 3986,0.952824,-0.000005|O,-0.440509,2.060701,-0.00001|O,-0.703378,-0.1
 75014,0.|C,-2.13691,-0.000465,-0.000001|C,-2.754864,-1.378439,0.000005
 |H,-2.411804,0.578265,0.883853|H,-2.411804,0.578257,-0.883859|H,-2.453
 115,-1.937249,-0.886778|H,-2.453115,-1.937241,0.886793|H,-3.8425,-1.29
 0492,0.000005|O,2.350526,-1.79111,0.00001|H,1.383492,-1.875017,0.00001
 ||Version=IA32W-G09RevD.01|State=2-A|HF=-420.2056636|S2=0.781778|S2-1=
 0.|S2A=0.750387|RMSD=7.992e-009|RMSF=3.291e-003|ZeroPoint=0.1123921|Th
 ermal=0.1217893|Dipole=-0.838524,-0.257331,0.0000007|DipoleDeriv=-0.06
 82843,0.4753621,-0.0000161,0.1788775,-0.980058,0.0000178,-0.0000096,0.
 0000059,-0.025924,0.2620646,-0.0070968,0.0000075,-0.0525106,0.2679574,
 -0.000003,-0.000001,0.,0.196528,-0.612793,-0.4088647,-0.000002,0.02516
 61,0.1005811,-0.0000228,0.0000216,-0.0000022,-0.0920676,2.155278,-0.36
 69464,0.0000083,0.4500807,1.8737421,0.00001,-0.0000203,-0.0000074,0.39
 89017,-0.830075,0.4626753,-0.0000019,0.0128588,-1.1917424,-0.0000023,0
 .0000018,0.0000047,-0.3423681,-1.660443,-0.3327898,0.,-0.6468383,-0.93
 83722,0.0000034,0.0000058,0.0000032,-0.2803368,1.0182282,0.1900668,0.0
 00002,0.0911444,0.3360454,0.,0.0000116,0.0000031,0.2982007,-0.0307049,
 -0.0425935,-0.0000158,-0.0570772,-0.0433925,0.0000022,-0.0000173,-0.00
 00028,0.0563345,-0.0414441,-0.0435533,-0.0109268,0.0257926,0.0039623,-
 0.0621104,0.0330669,-0.0612834,-0.0366892,-0.0414435,-0.0435541,0.0109
 291,0.0257927,0.0039646,0.0621088,-0.0330749,0.0612804,-0.0366872,0.07
 17058,0.037502,0.0577004,-0.0141895,0.0106894,-0.0421453,0.0376532,-0.
 0695611,-0.0382977,0.0717109,0.0375022,-0.0576995,-0.0141977,0.0106886
 ,0.0421436,-0.0376403,0.0695635,-0.0382995,-0.1017778,-0.0052373,0.000
 0148,0.0142453,0.0521134,-0.0000006,0.0000015,-0.0000002,0.0917103,-0.
 2981297,-0.0894244,0.0000031,0.0120591,0.160207,-0.0000033,0.0000024,-
 0.0000035,-0.457432,0.1061079,0.1369519,-0.0000031,-0.0512038,0.333613
 8,0.0000019,-0.0000013,-0.0000003,0.3064269|Polar=90.369183,-10.001343
 7,91.0912942,0.0002379,-0.0001324,47.4414457|PG=C01 [X(C5H7O3)]|NImag=
 1||1.24073698,-0.24394813,-0.11013268,0.00000137,0.00000121,0.07497655
 ,-0.40200043,0.02523324,-0.00000019,0.39590805,-0.00290091,0.00603787,
 -0.00000025,-0.01276483,0.02782916,-0.00000032,-0.00000017,-0.03187712
 ,0.00000035,-0.00000006,0.01788015,-0.80788992,0.19388152,-0.00000136,
 0.00796539,0.02846333,-0.00000014,1.12509768,0.28952089,-0.05090231,0.
 00000004,-0.00716322,-0.01039079,0.00000012,-0.33837733,0.21433872,-0.
 00000042,-0.00000077,-0.03355472,-0.00000049,0.00000026,0.00670069,0.0
 0000216,-0.00000034,0.05492865,0.00869086,-0.00516038,0.00000031,-0.00
 116042,0.00150790,0.00000005,-0.25458318,0.04735805,-0.00000107,0.6821
 3229,0.01902152,-0.01277152,0.00000028,0.00016535,0.00462365,0.,0.0101
 2477,-0.04570642,-0.00000065,-0.17773708,0.93731795,-0.00000138,0.0000
 0099,0.00126341,0.00000049,-0.00000016,0.00615900,-0.00000011,-0.00000
 088,-0.06998284,0.00000151,-0.00000244,0.20971823,-0.00664693,0.003964
 85,0.00000004,0.00040284,-0.00132010,0.00000001,-0.02722116,0.04500791
 ,-0.00000034,-0.21596305,0.25568110,-0.00000098,0.21730654,-0.00103374
 ,0.00229797,-0.00000020,-0.00014542,-0.00026678,-0.00000003,0.04549919
 ,-0.02604255,0.00000072,0.23798648,-0.66455451,0.00000202,-0.27808189,
 0.80039629,0.00000017,-0.00000014,0.00079646,-0.00000007,0.00000002,-0
 .00120874,-0.00000019,0.00000041,0.02107712,-0.00000108,0.00000234,-0.
 08080945,0.00000119,-0.00000325,0.03383882,-0.00061093,0.00174835,-0.0
 0000010,0.00063706,0.00048785,-0.00000002,-0.05806078,-0.03439108,0.00
 000039,-0.17391706,-0.09582108,0.00000017,0.03021057,-0.01586360,0.000
 00009,0.47923744,-0.00094917,0.00129043,0.00000008,0.00020214,-0.00055
 513,0.00000001,-0.01551916,0.00294635,-0.00000017,-0.06033170,-0.22833
 204,0.00000082,-0.02078296,-0.11002419,0.00000062,0.08796078,0.4309730
 8,0.00000021,-0.00000015,0.00058589,-0.00000009,0.00000003,-0.00058129
 ,0.00000008,0.00000021,0.01162826,0.00000012,0.00000051,-0.06948213,0.
 00000008,0.00000071,0.03110823,-0.00000028,-0.00000155,0.08084380,0.00
 124161,-0.00247611,0.00000001,-0.00034445,0.00029448,0.,0.00331079,0.0
 0010399,-0.00000004,-0.04612953,-0.03712464,0.00000024,-0.00221428,0.0
 2018755,-0.00000012,-0.17703424,0.02392633,-0.00000012,0.44013999,0.00
 016724,-0.00046904,0.,-0.00004561,0.00021604,0.,-0.00414944,-0.0032077
 4,0.00000004,-0.03837400,0.00466454,-0.00000003,-0.00329361,-0.0021885
 6,-0.00000001,0.04888567,-0.09561960,0.00000015,-0.01029220,0.58805910
 ,0.00000088,-0.00000069,-0.00030619,-0.00000042,0.00000014,-0.00021490
 ,0.00000019,0.00000099,0.00607845,-0.00000026,-0.00000078,0.00178070,-
 0.00000004,0.00000035,-0.00605087,-0.00000017,0.00000006,-0.06895422,0
 .00000036,-0.00000064,0.63143937,-0.00009585,0.00010135,-0.00000037,0.
 00004229,0.00005148,0.,-0.00165314,-0.00129227,0.00000086,-0.00562547,
 0.00692324,-0.00000090,0.00299522,-0.00224638,0.00000013,-0.03834914,-
 0.04414185,0.00000037,-0.08842639,-0.03937822,0.00000097,0.57511037,0.
 00014736,-0.00017860,0.00000003,-0.00001760,0.00000655,0.,0.00041597,0
 .00049409,-0.00000010,0.00213477,-0.00248732,0.00000010,-0.00146812,0.
 00102624,-0.00000002,0.00039557,0.00669097,-0.00000004,-0.05580169,-0.
 21467500,0.00000045,-0.03266164,0.52139282,-0.00000119,0.00000089,0.00
 003160,0.00000057,-0.00000018,0.00000768,-0.00000026,-0.00000120,-0.00
 010858,0.00000061,0.00000102,-0.00006729,0.00000008,-0.00000051,0.0010
 3397,-0.00000015,0.00000010,0.00143058,0.00000036,0.00000050,-0.086644
 96,-0.00000111,0.00000063,0.58830023,-0.00006504,0.00012463,0.00007774
 ,0.00004694,-0.00001310,0.00003526,-0.00057729,-0.00011666,-0.00110373
 ,0.00168761,0.00884248,0.00148161,0.00155882,-0.00314737,-0.00002631,-
 0.03165486,0.01632482,0.03026603,-0.06160685,0.02954397,0.04389595,0.0
 0519902,-0.00757566,-0.01317669,0.08115080,-0.00003438,-0.00003929,0.0
 0002486,0.00000254,0.00001146,0.00002388,0.00025430,-0.00000540,-0.000
 42128,-0.00208249,0.00137136,0.00061895,0.00078517,-0.00023806,0.00018
 778,0.00514097,-0.00167866,-0.00140358,0.03349503,-0.12436034,-0.11546
 636,0.00623876,-0.01477141,-0.02427616,-0.03703568,0.13315925,-0.00014
 707,0.00008541,0.00002869,0.00000202,-0.00001575,0.00002187,0.00018368
 ,0.00017303,-0.00050737,-0.00012394,-0.00321556,0.00055788,-0.00172325
 ,0.00081817,0.00026502,0.00309159,0.00332861,0.00622995,0.05241870,-0.
 11507118,-0.23869959,-0.00164407,0.00176343,0.00297322,-0.05714075,0.1
 2598115,0.24782769,-0.00006506,0.00012469,-0.00007768,0.00004696,-0.00
 001311,-0.00003525,-0.00057731,-0.00011681,0.00110357,0.00168761,0.008
 84256,-0.00148154,0.00155883,-0.00314736,0.00002632,-0.03165484,0.0163
 2457,-0.03026622,-0.06160669,0.02954382,-0.04389667,0.00519897,-0.0075
 7557,0.01317693,0.00447127,-0.00462764,0.00559798,0.08115061,-0.000034
 30,-0.00003939,-0.00002492,0.00000249,0.00001148,-0.00002389,0.0002543
 3,-0.00000520,0.00042142,-0.00208250,0.00137127,-0.00061908,0.00078520
 ,-0.00023802,-0.00018777,0.00514090,-0.00167867,0.00140366,0.03349479,
 -0.12435860,0.11546625,0.00623889,-0.01477126,0.02427624,-0.00462770,0
 .00919293,-0.01395904,-0.03703543,0.13315733,0.00014647,-0.00008494,0.
 00002880,-0.00000173,0.00001565,0.00002188,-0.00018382,-0.00017374,-0.
 00050766,0.00012425,0.00321611,0.00055811,0.00172329,-0.00081842,0.000
 26500,-0.00309165,-0.00332850,0.00622994,-0.05241931,0.11507104,-0.238
 70253,0.00164344,-0.00176324,0.00297328,-0.00559788,0.01395872,-0.0208
 4571,0.05714144,-0.12598098,0.24783072,-0.00003454,0.00005436,-0.00000
 848,-0.00001704,-0.00000983,-0.00000014,0.00013363,0.00002202,0.000069
 93,-0.00010166,-0.00110544,-0.00000981,-0.00044475,0.00046996,0.000056
 87,0.00219674,0.00114971,-0.00030995,0.00244554,-0.00863685,-0.0133056
 6,-0.06891231,0.04010782,0.06302251,-0.00069705,-0.00271232,0.00008065
 ,0.00017970,0.00084190,0.00027119,0.07030202,-0.00004729,0.00003474,0.
 00000460,0.00000336,-0.00000617,-0.00000144,-0.00000349,0.00000230,-0.
 00004377,0.00024079,-0.00077477,0.00006301,-0.00060779,0.00028522,0.00
 020134,0.00135636,0.00241857,0.00103673,0.01027315,-0.01804315,-0.0283
 4414,0.03779181,-0.11621178,-0.10984531,-0.00334770,-0.00443322,0.0010
 9009,0.00057010,0.00099128,0.00027528,-0.04052710,0.12821068,-0.000077
 62,0.00012921,-0.00000345,-0.00000349,-0.00001618,-0.00000171,0.000020
 54,-0.00004291,0.00002053,-0.00006644,-0.00014621,0.00002379,-0.000048
 37,0.00030388,-0.00005367,-0.00053662,0.00008886,0.00016204,-0.0005506
 6,0.00073569,0.00140063,0.06231517,-0.11185620,-0.23199996,0.00060331,
 0.00055067,0.00144313,-0.00061177,-0.00019956,0.00075271,-0.06850528,0
 .12241831,0.24660513,-0.00003422,0.00005415,0.00000847,-0.00001719,-0.
 00000979,0.00000013,0.00013371,0.00002229,-0.00006987,-0.00010184,-0.0
 0110569,0.00000979,-0.00044478,0.00047011,-0.00005688,0.00219679,0.001
 14967,0.00030994,0.00244552,-0.00863675,0.01330571,-0.06891190,0.04010
 720,-0.06302273,0.00017968,0.00084192,-0.00027115,-0.00069707,-0.00271
 231,-0.00008065,0.00200580,-0.00596416,0.00817631,0.07030192,-0.000047
 85,0.00003520,-0.00000460,0.00000363,-0.00000625,0.00000145,-0.0000036
 1,0.00000166,0.00004377,0.00024107,-0.00077426,-0.00006301,-0.00060776
 ,0.00028498,-0.00020134,0.00135631,0.00241863,-0.00103674,0.01027324,-
 0.01804296,0.02834438,0.03779069,-0.11620949,0.10984406,0.00057014,0.0
 0099125,-0.00027535,-0.00334769,-0.00443326,-0.00108999,-0.00596423,0.
 00919710,-0.01367747,-0.04052644,0.12820825,0.00007852,-0.00012991,-0.
 00000349,0.00000306,0.00001632,-0.00000171,-0.00002033,0.00004390,0.00
 002062,0.00006598,0.00014540,0.00002370,0.00004832,-0.00030349,-0.0000
 5366,0.00053671,-0.00008896,0.00016207,0.00055045,-0.00073550,0.001400
 44,-0.06231455,0.11185493,-0.23200181,0.00061170,0.00019960,0.00075279
 ,-0.00060334,-0.00055058,0.00144303,-0.00817628,0.01367724,-0.01940207
 ,0.06850553,-0.12241709,0.24660717,-0.00002870,-0.00000135,0.00000043,
 0.00002371,0.00000337,0.00000001,-0.00026917,-0.00009361,-0.00000101,0
 .00043701,0.00160939,0.00000097,0.00018658,-0.00070566,-0.00000012,-0.
 00101215,-0.00407179,-0.00000017,-0.01233676,0.00461879,-0.00000084,-0
 .31656433,0.02173318,0.00000109,0.00028472,-0.00025938,-0.00030673,0.0
 0028475,-0.00025947,0.00030730,-0.00701587,0.00028283,-0.00061814,-0.0
 0701619,0.00028336,0.00061729,0.34300745,-0.00012153,0.00016050,-0.000
 00003,0.00001433,0.00000109,0.,-0.00048093,-0.00046986,0.00000009,-0.0
 0127557,0.00210799,-0.00000008,0.00057771,-0.00061199,0.00000001,-0.00
 605162,-0.00777630,0.00000005,-0.02796702,0.00713093,0.,0.02447870,-0.
 05039446,-0.00000007,0.00066416,0.00078733,-0.00067934,0.00066417,0.00
 078735,0.00067929,0.01635912,-0.00167637,0.00183208,0.01635891,-0.0016
 7640,-0.00183200,-0.02313771,0.05171932,0.00000007,-0.00000002,-0.0000
 1778,-0.00000002,0.,0.00000426,0.,-0.00000003,0.00000054,-0.00000005,-
 0.00000001,0.00043675,-0.00000001,0.00000003,-0.00014997,0.00000004,0.
 00000002,0.00098561,0.00000013,-0.00000005,-0.00251725,0.00000002,0.,-
 0.04605711,0.00005425,0.00003875,-0.00004732,-0.00005426,-0.00003875,-
 0.00004734,0.02685701,-0.00051542,0.00108938,-0.02685716,0.00051544,0.
 00108940,-0.00000003,-0.00000001,0.04527279,-0.03146259,0.01703652,-0.
 00000011,-0.00162295,-0.01357513,0.00000006,0.01068646,0.00149507,0.00
 000004,-0.00286652,-0.00165723,0.,0.00032894,0.00062476,-0.00000002,0.
 00052728,0.00149740,-0.00000002,0.00049686,0.00006649,-0.00000008,-0.0
 0002494,-0.00006332,0.00000011,-0.00004492,0.00004647,0.00002433,-0.00
 004490,0.00004645,-0.00002427,0.00007320,0.00001814,0.00007467,0.00007
 317,0.00001820,-0.00007477,-0.00004859,0.00005878,0.,0.53861052,-0.045
 56422,0.15937808,-0.00000114,-0.00464135,-0.02412505,0.00000011,0.0777
 9994,-0.07673715,0.00000096,-0.00377479,0.00659280,-0.00000041,0.00029
 264,-0.00126209,0.00000002,0.00176536,-0.00091023,0.00000005,-0.000095
 87,0.00020210,0.00000012,0.00017644,-0.00001783,-0.00000019,0.00007358
 ,-0.00002734,-0.00001979,0.00007362,-0.00002737,0.00001973,-0.00002931
 ,-0.00001508,-0.00001321,-0.00002924,-0.00001515,0.00001333,0.00003405
 ,0.00004245,0.00000004,0.02228587,-0.03480268,0.00000033,-0.00000093,-
 0.01133034,-0.00000003,0.00000014,0.00243583,-0.00000038,0.00000043,0.
 00463155,-0.00000005,-0.00000009,-0.00102390,-0.00000002,0.00000006,-0
 .00002043,0.00000001,-0.00000001,0.00060998,0.00000001,0.,0.00001130,0
 .00000008,-0.00000001,-0.00021102,-0.00003809,0.00004457,0.00002013,0.
 00003807,-0.00004456,0.00002010,0.00006400,0.00003792,0.00004228,-0.00
 006400,-0.00003792,0.00004229,-0.00000010,0.,0.00005340,0.00000012,0.0
 0000028,0.00685721,-0.00173525,0.00926231,-0.00000007,0.00008925,-0.00
 020160,0.,0.00350430,-0.00197923,0.00000003,0.00581336,0.00334075,-0.0
 0000006,-0.00161339,-0.00086663,0.00000002,-0.00271189,-0.00273878,0.0
 0000003,-0.00038112,-0.00001930,0.00000009,0.00001759,0.00012173,-0.00
 000012,0.00006716,-0.00005327,-0.00004200,0.00006714,-0.00005325,0.000
 04193,-0.00011342,-0.00003900,-0.00017161,-0.00011339,-0.00003906,0.00
 017171,0.00006754,-0.00014149,0.,-0.51468104,-0.04836671,0.00000003,0.
 51172317,-0.01417547,0.00529803,0.00000004,-0.00084905,-0.00338713,0.0
 0000003,0.00184061,-0.00431569,-0.00000019,0.00134944,-0.00264871,0.00
 000020,-0.00093234,0.00113604,-0.00000003,-0.00211075,-0.00016319,-0.0
 0000004,0.00170897,0.00069229,-0.00000014,-0.00007099,0.00010648,0.000
 00019,-0.00027991,0.00004014,-0.00000389,-0.00027992,0.00004013,0.0000
 0399,-0.00001981,0.00002064,-0.00010695,-0.00001986,0.00002073,0.00010
 681,-0.00003600,-0.00013157,-0.00000001,-0.02789845,-0.02827544,0.0000
 0010,0.04177352,0.03156727,-0.00000002,0.00000002,-0.00061831,0.000000
 05,0.00000001,0.00065413,-0.00000005,-0.00000005,-0.00042523,0.0000000
 7,0.00000008,0.00084404,0.,-0.00000005,-0.00003783,0.,0.,-0.00095871,0
 .,0.,-0.00002039,-0.00000005,0.00000002,0.00034017,0.00005759,-0.00006
 155,-0.00002035,-0.00005757,0.00006154,-0.00002034,-0.00010657,-0.0000
 5444,-0.00007877,0.00010657,0.00005443,-0.00007878,0.00000006,0.,-0.00
 009535,-0.00000008,0.00000011,-0.00213839,0.,-0.00000012,0.00265411||0
 .00179333,0.01688699,-0.00000012,0.00058087,-0.00069331,0.00000002,0.0
 0024224,-0.00209534,0.00000003,-0.00006551,0.00020737,-0.00000004,-0.0
 0011044,-0.00004390,0.00000002,-0.00011939,-0.00000708,0.00000004,0.00
 001968,0.00001698,-0.00000054,-0.00000339,-0.00001216,-0.00000005,-0.0
 0000592,0.00000173,-0.00000088,-0.00000580,0.00000138,0.00000141,-0.00
 000145,0.00000220,0.00000045,-0.00000148,0.00000223,-0.00000045,-0.000
 00206,-0.00000148,0.00000003,-0.00203688,-0.01375071,0.00000007,-0.000
 28380,-0.00051491,0.|||@


 PERICLES, SOPHOCLES,
 PELOPONESIAN WAR,
 FRENCH VERBS, LATIN VERBS
 H2SO4.
 Job cpu time:       0 days  0 hours 21 minutes 10.0 seconds.
 File lengths (MBytes):  RWF=    152 Int=      0 D2E=      0 Chk=      9 Scr=      1
 Normal termination of Gaussian 09 at Fri Mar 28 13:53:56 2025.
