 Entering Gaussian System, Link 0=g16
 Initial command:
 /opt/g16/l1.exe "/home/aayush/scratches/g16/Gau-7154.inp" -scrdir="/home/aayush/scratches/g16/"
 Entering Link 1 = /opt/g16/l1.exe PID=      7159.
  
 Copyright (c) 1988,1990,1992,1993,1995,1998,2003,2009,2016,
            Gaussian, Inc.  All Rights Reserved.
  
 This is part of the Gaussian(R) 16 program.  It is based on
 the Gaussian(R) 09 system (copyright 2009, Gaussian, Inc.),
 the Gaussian(R) 03 system (copyright 2003, Gaussian, Inc.),
 the Gaussian(R) 98 system (copyright 1998, Gaussian, Inc.),
 the Gaussian(R) 94 system (copyright 1995, Gaussian, Inc.),
 the Gaussian 92(TM) system (copyright 1992, Gaussian, Inc.),
 the Gaussian 90(TM) system (copyright 1990, Gaussian, Inc.),
 the Gaussian 88(TM) system (copyright 1988, Gaussian, Inc.),
 the Gaussian 86(TM) system (copyright 1986, Carnegie Mellon
 University), and the Gaussian 82(TM) system (copyright 1983,
 Carnegie Mellon University). Gaussian is a federally registered
 trademark of Gaussian, Inc.
  
 This software contains proprietary and confidential information,
 including trade secrets, belonging to Gaussian, Inc.
  
 This software is provided under written license and may be
 used, copied, transmitted, or stored only in accord with that
 written license.
  
 The following legend is applicable only to US Government
 contracts under FAR:
  
                    RESTRICTED RIGHTS LEGEND
  
 Use, reproduction and disclosure by the US Government is
 subject to restrictions as set forth in subparagraphs (a)
 and (c) of the Commercial Computer Software - Restricted
 Rights clause in FAR 52.227-19.
  
 Gaussian, Inc.
 340 Quinnipiac St., Bldg. 40, Wallingford CT 06492
  
  
 ---------------------------------------------------------------
 Warning -- This program may not be used in any manner that
 competes with the business of Gaussian, Inc. or will provide
 assistance to any competitor of Gaussian, Inc.  The licensee
 of this program is prohibited from giving any competitor of
 Gaussian, Inc. access to this program.  By using this program,
 the user acknowledges that Gaussian, Inc. is engaged in the
 business of creating and licensing software in the field of
 computational chemistry and represents and warrants to the
 licensee that it is not a competitor of Gaussian, Inc. and that
 it will not use this program in any manner prohibited above.
 ---------------------------------------------------------------
  

 Cite this work as:
 Gaussian 16, Revision A.03,
 M. J. Frisch, G. W. Trucks, H. B. Schlegel, G. E. Scuseria, 
 M. A. Robb, J. R. Cheeseman, G. Scalmani, V. Barone, 
 G. A. Petersson, H. Nakatsuji, X. Li, M. Caricato, A. V. Marenich, 
 J. Bloino, B. G. Janesko, R. Gomperts, B. Mennucci, H. P. Hratchian, 
 J. V. Ortiz, A. F. Izmaylov, J. L. Sonnenberg, D. Williams-Young, 
 F. Ding, F. Lipparini, F. Egidi, J. Goings, B. Peng, A. Petrone, 
 T. Henderson, D. Ranasinghe, V. G. Zakrzewski, J. Gao, N. Rega, 
 G. Zheng, W. Liang, M. Hada, M. Ehara, K. Toyota, R. Fukuda, 
 J. Hasegawa, M. Ishida, T. Nakajima, Y. Honda, O. Kitao, H. Nakai, 
 T. Vreven, K. Throssell, J. A. Montgomery, Jr., J. E. Peralta, 
 F. Ogliaro, M. J. Bearpark, J. J. Heyd, E. N. Brothers, K. N. Kudin, 
 V. N. Staroverov, T. A. Keith, R. Kobayashi, J. Normand, 
 K. Raghavachari, A. P. Rendell, J. C. Burant, S. S. Iyengar, 
 J. Tomasi, M. Cossi, J. M. Millam, M. Klene, C. Adamo, R. Cammi, 
 J. W. Ochterski, R. L. Martin, K. Morokuma, O. Farkas, 
 J. B. Foresman, and D. J. Fox, Gaussian, Inc., Wallingford CT, 2016.
 
 ******************************************
 Gaussian 16:  ES64L-G16RevA.03 25-Dec-2016
                22-Apr-2025 
 ******************************************
 %chk=ethyl_propiolate.chk
 %nprocshared=24
 Will use up to   24 processors via shared memory.
 %mem=12GB
 --------------------------
 # ccsd(t)/6-311++g(d,p) sp
 --------------------------
 1/38=1,172=1/1;
 2/12=2,17=6,18=5,40=1/2;
 3/5=4,6=6,7=1111,11=9,25=1,30=1/1,2,3;
 4//1;
 5/5=2,38=5/2;
 8/6=4,9=120000,10=2/1,4;
 9/5=7,14=2/13;
 6/7=2,8=2,9=2,10=2/1;
 99/5=1,9=1/99;
 -------------------
 Title Card Required
 -------------------
 Symbolic Z-matrix:
 Charge =  0 Multiplicity = 2
 C                     2.581     0.27908   0. 
 H                     3.62864   0.08785   0. 
 C                     1.43288   0.64047  0. 
 C                     0.0139    0.95365  -0.00001 
 O                    -0.44262   2.06027  -0.00001 
 O                    -0.70478  -0.17542   0. 
 C                    -2.1369   -0.00042  0. 
 C                    -2.75538  -1.3783    0.00001 
 H                    -2.41251   0.57834   0.88368 
 H                    -2.41251   0.57833  -0.88369 
 H                    -2.45373  -1.93718  -0.88687 
 H                    -2.45373  -1.93718   0.88688 
 H                    -3.84305  -1.29094   0.00001 
 O                     2.33675  -1.8884    0.00001 
 H                     1.36449  -1.91029   0.00001 
 
                          Input orientation:                          
 ---------------------------------------------------------------------
 Center     Atomic      Atomic             Coordinates (Angstroms)
 Number     Number       Type             X           Y           Z
 ---------------------------------------------------------------------
      1          6           0        2.581001    0.279079    0.000000
      2          1           0        3.628641    0.087845    0.000001
      3          6           0        1.432877    0.640468   -0.000003
      4          6           0        0.013903    0.953653   -0.000005
      5          8           0       -0.442619    2.060268   -0.000010
      6          8           0       -0.704777   -0.175424    0.000000
      7          6           0       -2.136903   -0.000422   -0.000001
      8          6           0       -2.755382   -1.378303    0.000005
      9          1           0       -2.412507    0.578342    0.883680
     10          1           0       -2.412507    0.578334   -0.883687
     11          1           0       -2.453725   -1.937182   -0.886869
     12          1           0       -2.453725   -1.937175    0.886884
     13          1           0       -3.843046   -1.290937    0.000005
     14          8           0        2.336749   -1.888401    0.000011
     15          1           0        1.364490   -1.910286    0.000010
 ---------------------------------------------------------------------
                    Distance matrix (angstroms):
                    1          2          3          4          5
     1  C    0.000000
     2  H    1.064951   0.000000
     3  C    1.203657   2.264238   0.000000
     4  C    2.654250   3.716982   1.453125   0.000000
     5  O    3.509261   4.523893   2.352300   1.197084   0.000000
     6  O    3.317063   4.341408   2.288066   1.338400   2.251010
     7  C    4.726176   5.766220   3.626854   2.352919   2.667778
     8  C    5.587835   6.550217   4.649403   3.620353   4.143989
     9  H    5.079918   6.125108   3.946104   2.609449   2.618677
    10  H    5.079919   6.125108   3.946104   2.609449   2.618678
    11  H    5.571967   6.471665   4.747261   3.902902   4.561872
    12  H    5.571967   6.471665   4.747261   3.902902   4.561872
    13  H    6.613118   7.597838   5.618335   4.462537   4.774252
    14  O    2.181199   2.361045   2.685547   3.670543   4.828755
    15  H    2.504639   3.019753   2.551671   3.166423   4.362447
                    6          7          8          9         10
     6  O    0.000000
     7  C    1.442779   0.000000
     8  C    2.377372   1.510322   0.000000
     9  H    2.065283   1.091704   2.174145   0.000000
    10  H    2.065283   1.091704   2.174144   1.767367   0.000000
    11  H    2.636123   2.153590   1.090820   3.076427   2.515856
    12  H    2.636124   2.153591   1.090820   2.515857   3.076427
    13  H    3.330631   2.139241   1.091167   2.514265   2.514265
    14  O    3.490726   4.855721   5.117616   5.424124   5.424125
    15  H    2.700299   3.988400   4.154076   4.608671   4.608672
                   11         12         13         14         15
    11  H    0.000000
    12  H    1.773753   0.000000
    13  H    1.770421   1.770421   0.000000
    14  O    4.872122   4.872121   6.208609   0.000000
    15  H    3.919955   3.919953   5.244237   0.972505   0.000000
 Stoichiometry    C5H7O3(2)
 Framework group  C1[X(C5H7O3)]
 Deg. of freedom    39
 Full point group                 C1      NOp   1
 Largest Abelian subgroup         C1      NOp   1
 Largest concise Abelian subgroup C1      NOp   1
                         Standard orientation:                         
 ---------------------------------------------------------------------
 Center     Atomic      Atomic             Coordinates (Angstroms)
 Number     Number       Type             X           Y           Z
 ---------------------------------------------------------------------
      1          6           0       -2.651434   -0.320881   -0.000000
      2          1           0       -3.698667   -0.127428    0.000001
      3          6           0       -1.504079   -0.684703   -0.000003
      4          6           0       -0.085772   -1.000894   -0.000005
      5          8           0        0.368404   -2.108474   -0.000010
      6          8           0        0.635300    0.126657   -0.000000
      7          6           0        2.067052   -0.051379   -0.000001
      8          6           0        2.688449    1.325188    0.000005
      9          1           0        2.341428   -0.630726    0.883680
     10          1           0        2.341428   -0.630718   -0.883687
     11          1           0        2.387977    1.884705   -0.886869
     12          1           0        2.387977    1.884698    0.886884
     13          1           0        3.775926    1.235517    0.000005
     14          8           0       -2.402589    1.846076    0.000011
     15          1           0       -1.430286    1.865901    0.000010
 ---------------------------------------------------------------------
 Rotational constants (GHZ):           2.7852913           1.2439666           0.8692585
 Standard basis: 6-311++G(d,p) (5D, 7F)
 There are   233 symmetry adapted cartesian basis functions of A   symmetry.
 There are   225 symmetry adapted basis functions of A   symmetry.
   225 basis functions,   351 primitive gaussians,   233 cartesian basis functions
    31 alpha electrons       30 beta electrons
       nuclear repulsion energy       346.8886791651 Hartrees.
 NAtoms=   15 NActive=   15 NUniq=   15 SFac= 1.00D+00 NAtFMM=   60 NAOKFM=F Big=F
 Integral buffers will be    131072 words long.
 Raffenetti 2 integral format.
 Two-electron integral symmetry is turned on.
 One-electron integrals computed using PRISM.
 NBasis=   225 RedAO= T EigKep=  6.94D-06  NBF=   225
 NBsUse=   224 1.00D-06 EigRej=  7.78D-07 NBFU=   224
 ExpMin= 3.60D-02 ExpMax= 8.59D+03 ExpMxC= 1.30D+03 IAcc=3 IRadAn=         5 AccDes= 0.00D+00
 Harris functional with IExCor=  205 and IRadAn=       5 diagonalized for initial guess.
 HarFok:  IExCor=  205 AccDes= 0.00D+00 IRadAn=         5 IDoV= 1 UseB2=F ITyADJ=14
 ICtDFT=  3500011 ScaDFX=  1.000000  1.000000  1.000000  1.000000
 FoFCou: FMM=F IPFlag=           0 FMFlag=      100000 FMFlg1=           0
         NFxFlg=           0 DoJE=T BraDBF=F KetDBF=T FulRan=T
         wScrn=  0.000000 ICntrl=       500 IOpCl=  0 I1Cent=   200000004 NGrid=           0
         NMat0=    1 NMatS0=      1 NMatT0=    0 NMatD0=    1 NMtDS0=    0 NMtDT0=    0
 Petite list used in FoFCou.
 Initial guess <Sx>= 0.0000 <Sy>= 0.0000 <Sz>= 0.5000 <S**2>= 0.7500 S= 0.5000
 Requested convergence on RMS density matrix=1.00D-08 within 128 cycles.
 Requested convergence on MAX density matrix=1.00D-06.
 Requested convergence on             energy=1.00D-06.
 No special actions if energy rises.
 Initial convergence to 1.0D-05 achieved.  Increase integral accuracy.
 SCF Done:  E(UHF) =  -417.990844059     A.U. after   32 cycles
            NFock= 32  Conv=0.31D-08     -V/T= 2.0006
 <Sx>= 0.0000 <Sy>= 0.0000 <Sz>= 0.5000 <S**2>= 0.8820 S= 0.5640
 <L.S>=  0.00000000000    
 Annihilation of the first spin contaminant:
 S**2 before annihilation     0.8820,   after     0.7614
 ExpMin= 3.60D-02 ExpMax= 8.59D+03 ExpMxC= 1.30D+03 IAcc=3 IRadAn=         5 AccDes= 0.00D+00
 HarFok:  IExCor=  205 AccDes= 0.00D+00 IRadAn=         5 IDoV=-2 UseB2=F ITyADJ=14
 ICtDFT= 12500011 ScaDFX=  1.000000  1.000000  1.000000  1.000000
 Range of M.O.s used for correlation:     9   224
 NBasis=   225 NAE=    31 NBE=    30 NFC=     8 NFV=     0
 NROrb=    216 NOA=    23 NOB=    22 NVA=   193 NVB=   194

 **** Warning!!: The largest alpha MO coefficient is  0.12633820D+03


 **** Warning!!: The largest beta MO coefficient is  0.11486674D+03

 Semi-Direct transformation.
 ModeAB=           4 MOrb=            23 LenV=    1609188501
 LASXX=    107793295 LTotXX=   107793295 LenRXX=   218294035
 LTotAB=   110500740 MaxLAS=   124880616 LenRXY=           0
 NonZer=   326087330 LenScr=   491049984 LnRSAI=   124880616
 LnScr1=   188086272 LExtra=           0 Total=   1022310907
 MaxDsk=          -1 SrtSym=           T ITran=            4
 JobTyp=1 Pass  1:  I=   1 to  23.
 (rs|ai) integrals will be sorted in core.
 ModeAB=           4 MOrb=            22 LenV=    1609188501
 LASXX=    103454307 LTotXX=   103454307 LenRXX=   188091948
 LTotAB=    84637641 MaxLAS=   119451024 LenRXY=           0
 NonZer=   291546255 LenScr=   439034880 LnRSAI=   119451024
 LnScr1=   179937280 LExtra=           0 Total=    926515132
 MaxDsk=          -1 SrtSym=           T ITran=            4
 JobTyp=2 Pass  1:  I=   1 to  22.
 (rs|ai) integrals will be sorted in core.
 SymMOI:  orbitals are not symmetric.
 Spin components of T(2) and E(2):
     alpha-alpha T2 =       0.5137237120D-01 E2=     -0.1682355323D+00
     alpha-beta  T2 =       0.2842887296D+00 E2=     -0.9322853764D+00
     beta-beta   T2 =       0.5025255194D-01 E2=     -0.1563887980D+00
 ANorm=    0.1177248339D+01
 E2 =    -0.1256909707D+01 EUMP2 =    -0.41924775376570D+03
 (S**2,0)=  0.88200D+00           (S**2,1)=  0.84391D+00
 E(PUHF)=      -0.41800235925D+03        E(PMP2)=      -0.41925768797D+03
 Keep R2 and R3 ints in memory in canonical form, NReq=652883968.
 CIDS: In Core Option IDoMem=           1.
 Iterations=  50 Convergence= 0.100D-06
 Produce multiple copies of IABC intergrals
 Iteration Nr.   1
 **********************
 DD1Dir will call FoFMem   1 times, MxPair=      1496
 NAB=   506 NAA=   253 NBB=   231.
 E(PMP3)=      -0.41928348905D+03
 MP4(R+Q)=  0.24803484D-01
 E3=       -0.28521552D-01        EUMP3=      -0.41927627532D+03
 E4(DQ)=   -0.57569900D-02        UMP4(DQ)=   -0.41928203231D+03
 E4(SDQ)=  -0.25177957D-01        UMP4(SDQ)=  -0.41930145328D+03
 DE(Corr)=  -1.2601694     E(Corr)=     -419.25101341    
 NORM(A)=   0.11848344D+01
 Iteration Nr.   2
 **********************
 DD1Dir will call FoFMem   1 times, MxPair=      1496
 NAB=   506 NAA=   253 NBB=   231.
 DE(Corr)=  -1.3025033     E(CORR)=     -419.29334740     Delta=-4.23D-02
 NORM(A)=   0.12042792D+01
 Iteration Nr.   3
 **********************
 DD1Dir will call FoFMem   1 times, MxPair=      1496
 NAB=   506 NAA=   253 NBB=   231.
 DE(Corr)=  -1.3048542     E(CORR)=     -419.29569829     Delta=-2.35D-03
 NORM(A)=   0.12132692D+01
 Iteration Nr.   4
 **********************
 DD1Dir will call FoFMem   1 times, MxPair=      1496
 NAB=   506 NAA=   253 NBB=   231.
 DE(Corr)=  -1.3108558     E(CORR)=     -419.30169985     Delta=-6.00D-03
 NORM(A)=   0.12184664D+01
 Iteration Nr.   5
 **********************
 DD1Dir will call FoFMem   1 times, MxPair=      1496
 NAB=   506 NAA=   253 NBB=   231.
 DE(Corr)=  -1.3123044     E(CORR)=     -419.30314842     Delta=-1.45D-03
 NORM(A)=   0.12212809D+01
 Iteration Nr.   6
 **********************
 DD1Dir will call FoFMem   1 times, MxPair=      1496
 NAB=   506 NAA=   253 NBB=   231.
 DE(Corr)=  -1.3127576     E(CORR)=     -419.30360169     Delta=-4.53D-04
 NORM(A)=   0.12217767D+01
 Iteration Nr.   7
 **********************
 DD1Dir will call FoFMem   1 times, MxPair=      1496
 NAB=   506 NAA=   253 NBB=   231.
 DE(Corr)=  -1.3128291     E(CORR)=     -419.30367321     Delta=-7.15D-05
 NORM(A)=   0.12218836D+01
 Iteration Nr.   8
 **********************
 DD1Dir will call FoFMem   1 times, MxPair=      1496
 NAB=   506 NAA=   253 NBB=   231.
 DE(Corr)=  -1.3128155     E(CORR)=     -419.30365951     Delta= 1.37D-05
 NORM(A)=   0.12219098D+01
 Iteration Nr.   9
 **********************
 DD1Dir will call FoFMem   1 times, MxPair=      1496
 NAB=   506 NAA=   253 NBB=   231.
 DE(Corr)=  -1.3128231     E(CORR)=     -419.30366716     Delta=-7.65D-06
 NORM(A)=   0.12219104D+01
 Iteration Nr.  10
 **********************
 DD1Dir will call FoFMem   1 times, MxPair=      1496
 NAB=   506 NAA=   253 NBB=   231.
 DE(Corr)=  -1.3128241     E(CORR)=     -419.30366819     Delta=-1.03D-06
 NORM(A)=   0.12219135D+01
 Iteration Nr.  11
 **********************
 DD1Dir will call FoFMem   1 times, MxPair=      1496
 NAB=   506 NAA=   253 NBB=   231.
 DE(Corr)=  -1.3128305     E(CORR)=     -419.30367452     Delta=-6.34D-06
 NORM(A)=   0.12219236D+01
 Iteration Nr.  12
 **********************
 DD1Dir will call FoFMem   1 times, MxPair=      1496
 NAB=   506 NAA=   253 NBB=   231.
 DE(Corr)=  -1.3128337     E(CORR)=     -419.30367780     Delta=-3.28D-06
 NORM(A)=   0.12219349D+01
 Iteration Nr.  13
 **********************
 DD1Dir will call FoFMem   1 times, MxPair=      1496
 NAB=   506 NAA=   253 NBB=   231.
 DE(Corr)=  -1.3128368     E(CORR)=     -419.30368084     Delta=-3.04D-06
 NORM(A)=   0.12219449D+01
 Iteration Nr.  14
 **********************
 DD1Dir will call FoFMem   1 times, MxPair=      1496
 NAB=   506 NAA=   253 NBB=   231.
 DE(Corr)=  -1.3128391     E(CORR)=     -419.30368318     Delta=-2.34D-06
 NORM(A)=   0.12219517D+01
 Iteration Nr.  15
 **********************
 DD1Dir will call FoFMem   1 times, MxPair=      1496
 NAB=   506 NAA=   253 NBB=   231.
 DE(Corr)=  -1.3128402     E(CORR)=     -419.30368427     Delta=-1.08D-06
 NORM(A)=   0.12219553D+01
 Iteration Nr.  16
 **********************
 DD1Dir will call FoFMem   1 times, MxPair=      1496
 NAB=   506 NAA=   253 NBB=   231.
 DE(Corr)=  -1.3128410     E(CORR)=     -419.30368504     Delta=-7.76D-07
 NORM(A)=   0.12219571D+01
 Iteration Nr.  17
 **********************
 DD1Dir will call FoFMem   1 times, MxPair=      1496
 NAB=   506 NAA=   253 NBB=   231.
 DE(Corr)=  -1.3128413     E(CORR)=     -419.30368534     Delta=-3.01D-07
 NORM(A)=   0.12219576D+01
 Iteration Nr.  18
 **********************
 DD1Dir will call FoFMem   1 times, MxPair=      1496
 NAB=   506 NAA=   253 NBB=   231.
 DE(Corr)=  -1.3128414     E(CORR)=     -419.30368542     Delta=-7.81D-08
 NORM(A)=   0.12219578D+01
 Wavefunction amplitudes converged. E(Corr)=     -419.30368542    
 Largest amplitude= 6.64D-02
 Time for triples=    35480.65 seconds.
 T4(CCSD)= -0.56186066D-01
 T5(CCSD)=  0.36084554D-02
 CCSD(T)= -0.41935626303D+03

 S**2, projected HF & approx projected MPn energies after annihilation of
 unwanted spin states (see manual for definitions):

 spins       (S**2,0) (S**2,1)    PUHF        PMP2        PMP3        PMP4
 annihilated
 s+1         0.74329  0.74762 -418.002359 -419.257688 -419.283489
 s+1,s+2     0.75008  0.74998 -418.001840 -419.257199 -419.283039
 s+1 to s+3  0.75000  0.75000 -418.001847 -419.257205 -419.283041
 s+1 to s+4  0.75000  0.75000 -418.001847 -419.257205 -419.283041
 s+1 to s+5  0.75000  0.75000 -418.001847
 s+1 to s+6  0.75000  0.75000 -418.001847

 Discarding MO integrals.

 **********************************************************************

            Population analysis using the SCF density.

 **********************************************************************

 Orbital symmetries:
 Alpha Orbitals:
       Occupied  (A) (A) (A) (A) (A) (A) (A) (A) (A) (A) (A) (A)
                 (A) (A) (A) (A) (A) (A) (A) (A) (A) (A) (A) (A)
                 (A) (A) (A) (A) (A) (A) (A)
       Virtual   (A) (A) (A) (A) (A) (A) (A) (A) (A) (A) (A) (A)
                 (A) (A) (A) (A) (A) (A) (A) (A) (A) (A) (A) (A)
                 (A) (A) (A) (A) (A) (A) (A) (A) (A) (A) (A) (A)
                 (A) (A) (A) (A) (A) (A) (A) (A) (A) (A) (A) (A)
                 (A) (A) (A) (A) (A) (A) (A) (A) (A) (A) (A) (A)
                 (A) (A) (A) (A) (A) (A) (A) (A) (A) (A) (A) (A)
                 (A) (A) (A) (A) (A) (A) (A) (A) (A) (A) (A) (A)
                 (A) (A) (A) (A) (A) (A) (A) (A) (A) (A) (A) (A)
                 (A) (A) (A) (A) (A) (A) (A) (A) (A) (A) (A) (A)
                 (A) (A) (A) (A) (A) (A) (A) (A) (A) (A) (A) (A)
                 (A) (A) (A) (A) (A) (A) (A) (A) (A) (A) (A) (A)
                 (A) (A) (A) (A) (A) (A) (A) (A) (A) (A) (A) (A)
                 (A) (A) (A) (A) (A) (A) (A) (A) (A) (A) (A) (A)
                 (A) (A) (A) (A) (A) (A) (A) (A) (A) (A) (A) (A)
                 (A) (A) (A) (A) (A) (A) (A) (A) (A) (A) (A) (A)
                 (A) (A) (A) (A) (A) (A) (A) (A) (A) (A) (A) (A)
                 (A)
 Beta  Orbitals:
       Occupied  (A) (A) (A) (A) (A) (A) (A) (A) (A) (A) (A) (A)
                 (A) (A) (A) (A) (A) (A) (A) (A) (A) (A) (A) (A)
                 (A) (A) (A) (A) (A) (A)
       Virtual   (A) (A) (A) (A) (A) (A) (A) (A) (A) (A) (A) (A)
                 (A) (A) (A) (A) (A) (A) (A) (A) (A) (A) (A) (A)
                 (A) (A) (A) (A) (A) (A) (A) (A) (A) (A) (A) (A)
                 (A) (A) (A) (A) (A) (A) (A) (A) (A) (A) (A) (A)
                 (A) (A) (A) (A) (A) (A) (A) (A) (A) (A) (A) (A)
                 (A) (A) (A) (A) (A) (A) (A) (A) (A) (A) (A) (A)
                 (A) (A) (A) (A) (A) (A) (A) (A) (A) (A) (A) (A)
                 (A) (A) (A) (A) (A) (A) (A) (A) (A) (A) (A) (A)
                 (A) (A) (A) (A) (A) (A) (A) (A) (A) (A) (A) (A)
                 (A) (A) (A) (A) (A) (A) (A) (A) (A) (A) (A) (A)
                 (A) (A) (A) (A) (A) (A) (A) (A) (A) (A) (A) (A)
                 (A) (A) (A) (A) (A) (A) (A) (A) (A) (A) (A) (A)
                 (A) (A) (A) (A) (A) (A) (A) (A) (A) (A) (A) (A)
                 (A) (A) (A) (A) (A) (A) (A) (A) (A) (A) (A) (A)
                 (A) (A) (A) (A) (A) (A) (A) (A) (A) (A) (A) (A)
                 (A) (A) (A) (A) (A) (A) (A) (A) (A) (A) (A) (A)
                 (A) (A)
 The electronic state is 2-A.
 Alpha  occ. eigenvalues --  -20.62453 -20.62300 -20.57108 -11.42012 -11.30616
 Alpha  occ. eigenvalues --  -11.26799 -11.26293 -11.23851  -1.49192  -1.39309
 Alpha  occ. eigenvalues --   -1.37933  -1.09309  -1.04990  -0.92368  -0.84229
 Alpha  occ. eigenvalues --   -0.78154  -0.73527  -0.70465  -0.70189  -0.66740
 Alpha  occ. eigenvalues --   -0.64908  -0.61227  -0.60186  -0.56802  -0.55178
 Alpha  occ. eigenvalues --   -0.53513  -0.53189  -0.49312  -0.48310  -0.43043
 Alpha  occ. eigenvalues --   -0.42153
 Alpha virt. eigenvalues --    0.03627   0.04713   0.05674   0.06082   0.06909
 Alpha virt. eigenvalues --    0.08767   0.09352   0.09557   0.11226   0.12289
 Alpha virt. eigenvalues --    0.12514   0.13270   0.15502   0.15696   0.16209
 Alpha virt. eigenvalues --    0.16735   0.18320   0.18491   0.18796   0.19223
 Alpha virt. eigenvalues --    0.19260   0.20540   0.22067   0.22628   0.23460
 Alpha virt. eigenvalues --    0.24399   0.25450   0.27555   0.27814   0.28894
 Alpha virt. eigenvalues --    0.28976   0.30430   0.30444   0.31767   0.32938
 Alpha virt. eigenvalues --    0.34206   0.35832   0.36497   0.37774   0.39100
 Alpha virt. eigenvalues --    0.39147   0.40210   0.40642   0.42127   0.42742
 Alpha virt. eigenvalues --    0.44628   0.45734   0.46223   0.48470   0.50577
 Alpha virt. eigenvalues --    0.55274   0.56259   0.57509   0.61088   0.64637
 Alpha virt. eigenvalues --    0.65478   0.68402   0.69921   0.71079   0.76403
 Alpha virt. eigenvalues --    0.78875   0.79776   0.80161   0.83597   0.84851
 Alpha virt. eigenvalues --    0.84854   0.85613   0.85716   0.86821   0.88255
 Alpha virt. eigenvalues --    0.89694   0.91171   0.96427   0.96562   1.01520
 Alpha virt. eigenvalues --    1.07587   1.08418   1.11428   1.18048   1.21044
 Alpha virt. eigenvalues --    1.23715   1.24746   1.26529   1.29678   1.32656
 Alpha virt. eigenvalues --    1.34703   1.35072   1.38080   1.39019   1.40558
 Alpha virt. eigenvalues --    1.42417   1.42687   1.48246   1.48858   1.50805
 Alpha virt. eigenvalues --    1.52880   1.57199   1.61787   1.63530   1.67000
 Alpha virt. eigenvalues --    1.69116   1.70461   1.70733   1.77289   1.79271
 Alpha virt. eigenvalues --    1.79856   1.82359   1.83744   1.86879   1.88557
 Alpha virt. eigenvalues --    1.91505   1.92247   1.94773   1.99627   2.01241
 Alpha virt. eigenvalues --    2.04665   2.08790   2.09516   2.12919   2.16041
 Alpha virt. eigenvalues --    2.18106   2.27495   2.28009   2.35804   2.37535
 Alpha virt. eigenvalues --    2.39217   2.41896   2.47948   2.55316   2.64007
 Alpha virt. eigenvalues --    2.70131   2.77363   2.78101   2.81266   2.85287
 Alpha virt. eigenvalues --    2.87361   2.88989   2.92993   2.94376   2.95406
 Alpha virt. eigenvalues --    2.96590   2.98067   2.99350   3.03836   3.10301
 Alpha virt. eigenvalues --    3.14720   3.16217   3.18907   3.21049   3.24333
 Alpha virt. eigenvalues --    3.27672   3.30408   3.36026   3.36878   3.39569
 Alpha virt. eigenvalues --    3.43580   3.48014   3.48053   3.50409   3.56259
 Alpha virt. eigenvalues --    3.59621   3.62405   3.67893   3.76525   3.77353
 Alpha virt. eigenvalues --    3.90781   4.01984   4.10541   4.19154   4.20929
 Alpha virt. eigenvalues --    4.21058   4.24383   4.43346   4.50744   4.53248
 Alpha virt. eigenvalues --    4.68784   5.48067   5.54422   5.55430   5.60586
 Alpha virt. eigenvalues --    5.76383   5.90628   6.02037   6.20442   6.41908
 Alpha virt. eigenvalues --   24.70589  25.00396  25.01153  25.13255  26.25646
 Alpha virt. eigenvalues --   51.50394  51.59704  51.70576
  Beta  occ. eigenvalues --  -20.62431 -20.58280 -20.56776 -11.42275 -11.30608
  Beta  occ. eigenvalues --  -11.27975 -11.24901 -11.23851  -1.48998  -1.38746
  Beta  occ. eigenvalues --   -1.22984  -1.08044  -1.04925  -0.92868  -0.84107
  Beta  occ. eigenvalues --   -0.77934  -0.73271  -0.70387  -0.69730  -0.62631
  Beta  occ. eigenvalues --   -0.60763  -0.59850  -0.56701  -0.53141  -0.53016
  Beta  occ. eigenvalues --   -0.50542  -0.48596  -0.47581  -0.43560  -0.42690
  Beta virt. eigenvalues --    0.03588   0.04648   0.05416   0.06077   0.06855
  Beta virt. eigenvalues --    0.07845   0.08635   0.09329   0.10809   0.12160
  Beta virt. eigenvalues --    0.12213   0.12317   0.13648   0.15222   0.15773
  Beta virt. eigenvalues --    0.16228   0.17544   0.18389   0.18452   0.18776
  Beta virt. eigenvalues --    0.19262   0.19265   0.20402   0.22051   0.23031
  Beta virt. eigenvalues --    0.23747   0.24440   0.25620   0.27881   0.28194
  Beta virt. eigenvalues --    0.28864   0.29172   0.30923   0.31332   0.31836
  Beta virt. eigenvalues --    0.33109   0.34605   0.36503   0.37295   0.37817
  Beta virt. eigenvalues --    0.39216   0.40528   0.41115   0.41294   0.42531
  Beta virt. eigenvalues --    0.42918   0.44893   0.46021   0.46528   0.48702
  Beta virt. eigenvalues --    0.50819   0.55955   0.56254   0.57619   0.61156
  Beta virt. eigenvalues --    0.64710   0.65696   0.68826   0.70027   0.70293
  Beta virt. eigenvalues --    0.76222   0.77991   0.80007   0.80220   0.83777
  Beta virt. eigenvalues --    0.84590   0.85112   0.85747   0.86410   0.86674
  Beta virt. eigenvalues --    0.88506   0.89855   0.92871   0.96418   0.96874
  Beta virt. eigenvalues --    1.02009   1.07641   1.08836   1.11691   1.18836
  Beta virt. eigenvalues --    1.21056   1.26070   1.26567   1.27825   1.29810
  Beta virt. eigenvalues --    1.33851   1.35399   1.35819   1.38782   1.39998
  Beta virt. eigenvalues --    1.42358   1.42614   1.43664   1.48231   1.48961
  Beta virt. eigenvalues --    1.51076   1.56474   1.56770   1.62419   1.63081
  Beta virt. eigenvalues --    1.66692   1.70561   1.70733   1.72833   1.78503
  Beta virt. eigenvalues --    1.79266   1.79872   1.82732   1.83807   1.87321
  Beta virt. eigenvalues --    1.88589   1.91602   1.92723   1.95026   1.99643
  Beta virt. eigenvalues --    2.01415   2.05183   2.08838   2.09622   2.13045
  Beta virt. eigenvalues --    2.16133   2.18155   2.27679   2.28017   2.36090
  Beta virt. eigenvalues --    2.38799   2.39365   2.41898   2.47955   2.55319
  Beta virt. eigenvalues --    2.64016   2.70101   2.77358   2.78388   2.81256
  Beta virt. eigenvalues --    2.85353   2.87363   2.88753   2.93017   2.94347
  Beta virt. eigenvalues --    2.95422   2.96692   2.98044   2.99956   3.03374
  Beta virt. eigenvalues --    3.12907   3.16642   3.20639   3.22085   3.24119
  Beta virt. eigenvalues --    3.28531   3.30390   3.32007   3.36273   3.37132
  Beta virt. eigenvalues --    3.43022   3.43747   3.49143   3.49998   3.53880
  Beta virt. eigenvalues --    3.59612   3.59943   3.62679   3.68128   3.76719
  Beta virt. eigenvalues --    3.77880   3.90631   4.02176   4.10860   4.19159
  Beta virt. eigenvalues --    4.20930   4.21084   4.27734   4.43481   4.50857
  Beta virt. eigenvalues --    4.53348   4.68813   5.50531   5.55503   5.61415
  Beta virt. eigenvalues --    5.67137   5.76624   5.90685   6.04582   6.20568
  Beta virt. eigenvalues --    6.41989  24.70757  25.00278  25.01070  25.13256
  Beta virt. eigenvalues --   26.25658  51.52677  51.59760  51.70761
          Condensed to atoms (all electrons):
               1          2          3          4          5          6
     1  C    6.336077   0.453836  -1.490604   1.485440  -0.062234  -0.111139
     2  H    0.453836   0.395121  -0.084675   0.028169  -0.001502  -0.005301
     3  C   -1.490604  -0.084675  10.203364  -3.298582   0.058904  -0.087882
     4  C    1.485440   0.028169  -3.298582   7.967717   0.369892  -0.044252
     5  O   -0.062234  -0.001502   0.058904   0.369892   8.057622  -0.100772
     6  O   -0.111139  -0.005301  -0.087882  -0.044252  -0.100772   8.546031
     7  C    0.047946  -0.000685  -0.302227  -0.155130  -0.024752   0.206452
     8  C    0.050188   0.002048  -0.178751   0.161866   0.022206  -0.189678
     9  H   -0.000295  -0.000179  -0.004776   0.000943  -0.015227  -0.036027
    10  H   -0.000295  -0.000179  -0.004777   0.000943  -0.015227  -0.036027
    11  H   -0.002085  -0.000052   0.012125  -0.001546  -0.000643  -0.007371
    12  H   -0.002085  -0.000052   0.012125  -0.001546  -0.000643  -0.007371
    13  H   -0.000377   0.000013   0.001925   0.000823   0.001253   0.020973
    14  O    0.026868  -0.011013  -0.157538   0.049884  -0.001057   0.001564
    15  H   -0.019132  -0.001110   0.042572  -0.019366   0.000893   0.009290
               7          8          9         10         11         12
     1  C    0.047946   0.050188  -0.000295  -0.000295  -0.002085  -0.002085
     2  H   -0.000685   0.002048  -0.000179  -0.000179  -0.000052  -0.000052
     3  C   -0.302227  -0.178751  -0.004776  -0.004777   0.012125   0.012125
     4  C   -0.155130   0.161866   0.000943   0.000943  -0.001546  -0.001546
     5  O   -0.024752   0.022206  -0.015227  -0.015227  -0.000643  -0.000643
     6  O    0.206452  -0.189678  -0.036027  -0.036027  -0.007371  -0.007371
     7  C    5.530459  -0.046739   0.440723   0.440723  -0.034358  -0.034358
     8  C   -0.046739   5.682765  -0.055388  -0.055388   0.392472   0.392472
     9  H    0.440723  -0.055388   0.540020  -0.045060   0.004224  -0.006174
    10  H    0.440723  -0.055388  -0.045060   0.540020  -0.006174   0.004224
    11  H   -0.034358   0.392472   0.004224  -0.006174   0.567605  -0.044490
    12  H   -0.034358   0.392472  -0.006174   0.004224  -0.044490   0.567605
    13  H   -0.057278   0.424978  -0.004265  -0.004265  -0.032691  -0.032691
    14  O   -0.001179   0.002081   0.000180   0.000180  -0.000279  -0.000279
    15  H    0.003452   0.002405   0.000022   0.000022  -0.001021  -0.001021
              13         14         15
     1  C   -0.000377   0.026868  -0.019132
     2  H    0.000013  -0.011013  -0.001110
     3  C    0.001925  -0.157538   0.042572
     4  C    0.000823   0.049884  -0.019366
     5  O    0.001253  -0.001057   0.000893
     6  O    0.020973   0.001564   0.009290
     7  C   -0.057278  -0.001179   0.003452
     8  C    0.424978   0.002081   0.002405
     9  H   -0.004265   0.000180   0.000022
    10  H   -0.004265   0.000180   0.000022
    11  H   -0.032691  -0.000279  -0.001021
    12  H   -0.032691  -0.000279  -0.001021
    13  H    0.539272  -0.000010  -0.000030
    14  O   -0.000010   8.037067   0.297544
    15  H   -0.000030   0.297544   0.434167
          Atomic-Atomic Spin Densities.
               1          2          3          4          5          6
     1  C   -0.670283   0.012461  -0.034966   0.022798  -0.008933   0.014448
     2  H    0.012461   0.043266  -0.012957   0.003743  -0.000300   0.000502
     3  C   -0.034966  -0.012957   0.888518   0.003864   0.011602  -0.081574
     4  C    0.022798   0.003743   0.003864  -0.184979  -0.021370   0.064487
     5  O   -0.008933  -0.000300   0.011602  -0.021370   0.091162  -0.002224
     6  O    0.014448   0.000502  -0.081574   0.064487  -0.002224  -0.003925
     7  C    0.002945   0.000103  -0.009425   0.003047  -0.001221  -0.000019
     8  C    0.001351   0.000143  -0.000807  -0.000259  -0.001904   0.000636
     9  H    0.000121  -0.000001  -0.001081   0.000810  -0.000116  -0.000128
    10  H    0.000121  -0.000001  -0.001081   0.000810  -0.000116  -0.000128
    11  H    0.000178   0.000006  -0.000970   0.000474   0.000037   0.000041
    12  H    0.000178   0.000006  -0.000970   0.000474   0.000037   0.000041
    13  H    0.000408   0.000015  -0.001678   0.000409  -0.000019  -0.000094
    14  O    0.027008   0.006608  -0.086922   0.015220  -0.000606   0.005827
    15  H   -0.006742  -0.001234   0.018016  -0.004237   0.000265  -0.001655
               7          8          9         10         11         12
     1  C    0.002945   0.001351   0.000121   0.000121   0.000178   0.000178
     2  H    0.000103   0.000143  -0.000001  -0.000001   0.000006   0.000006
     3  C   -0.009425  -0.000807  -0.001081  -0.001081  -0.000970  -0.000970
     4  C    0.003047  -0.000259   0.000810   0.000810   0.000474   0.000474
     5  O   -0.001221  -0.001904  -0.000116  -0.000116   0.000037   0.000037
     6  O   -0.000019   0.000636  -0.000128  -0.000128   0.000041   0.000041
     7  C    0.014055  -0.007356  -0.000029  -0.000029  -0.000135  -0.000135
     8  C   -0.007356   0.005983   0.000240   0.000240   0.000417   0.000417
     9  H   -0.000029   0.000240  -0.000064   0.000238   0.000024  -0.000007
    10  H   -0.000029   0.000240   0.000238  -0.000064  -0.000007   0.000024
    11  H   -0.000135   0.000417   0.000024  -0.000007  -0.000040  -0.000050
    12  H   -0.000135   0.000417  -0.000007   0.000024  -0.000050  -0.000040
    13  H   -0.001134   0.001868   0.000001   0.000001  -0.000051  -0.000051
    14  O    0.000239   0.000594  -0.000078  -0.000078   0.000094   0.000094
    15  H    0.000588  -0.001911   0.000058   0.000058  -0.000010  -0.000010
              13         14         15
     1  C    0.000408   0.027008  -0.006742
     2  H    0.000015   0.006608  -0.001234
     3  C   -0.001678  -0.086922   0.018016
     4  C    0.000409   0.015220  -0.004237
     5  O   -0.000019  -0.000606   0.000265
     6  O   -0.000094   0.005827  -0.001655
     7  C   -0.001134   0.000239   0.000588
     8  C    0.001868   0.000594  -0.001911
     9  H    0.000001  -0.000078   0.000058
    10  H    0.000001  -0.000078   0.000058
    11  H   -0.000051   0.000094  -0.000010
    12  H   -0.000051   0.000094  -0.000010
    13  H    0.000497   0.000044  -0.000160
    14  O    0.000044   0.990310   0.002073
    15  H   -0.000160   0.002073  -0.037560
 Mulliken charges and spin densities:
               1          2
     1  C   -0.712108  -0.638908
     2  H    0.225561   0.052358
     3  C    1.278796   0.689568
     4  C   -0.545252  -0.094706
     5  O   -0.288713   0.066295
     6  O   -0.158491  -0.003766
     7  C   -0.013049   0.001494
     8  C   -0.607539  -0.000348
     9  H    0.181279  -0.000014
    10  H    0.181279  -0.000014
    11  H    0.154284   0.000009
    12  H    0.154284   0.000009
    13  H    0.142371   0.000057
    14  O   -0.244012   0.960427
    15  H    0.251310  -0.032461
 Sum of Mulliken charges =  -0.00000   1.00000
 Mulliken charges and spin densities with hydrogens summed into heavy atoms:
               1          2
     1  C   -0.486547  -0.586550
     3  C    1.278796   0.689568
     4  C   -0.545252  -0.094706
     5  O   -0.288713   0.066295
     6  O   -0.158491  -0.003766
     7  C    0.349510   0.001467
     8  C   -0.156600  -0.000273
    14  O    0.007298   0.927966
 Electronic spatial extent (au):  <R**2>=           1272.8825
 Charge=             -0.0000 electrons
 Dipole moment (field-independent basis, Debye):
    X=              1.7404    Y=              1.9958    Z=              0.0000  Tot=              2.6481
 Quadrupole moment (field-independent basis, Debye-Ang):
   XX=            -39.2082   YY=            -56.1813   ZZ=            -47.6723
   XY=              4.9871   XZ=              0.0000   YZ=             -0.0000
 Traceless Quadrupole moment (field-independent basis, Debye-Ang):
   XX=              8.4791   YY=             -8.4940   ZZ=              0.0150
   XY=              4.9871   XZ=              0.0000   YZ=             -0.0000
 Octapole moment (field-independent basis, Debye-Ang**2):
  XXX=             -6.4777  YYY=             26.7703  ZZZ=             -0.0000  XYY=              7.0383
  XXY=            -10.4890  XXZ=             -0.0000  XZZ=              5.1596  YZZ=             -0.4387
  YYZ=              0.0001  XYZ=              0.0000
 Hexadecapole moment (field-independent basis, Debye-Ang**3):
 XXXX=           -947.3563 YYYY=           -509.5791 ZZZZ=            -59.9082 XXXY=             20.0927
 XXXZ=              0.0003 YYYX=             -7.4887 YYYZ=             -0.0012 ZZZX=              0.0002
 ZZZY=             -0.0010 XXYY=           -300.8710 XXZZ=           -205.1874 YYZZ=            -88.3787
 XXYZ=             -0.0005 YYXZ=              0.0001 ZZXY=             -5.4940
 N-N= 3.468886791651D+02 E-N=-1.676546852598D+03  KE= 4.177260086155D+02
 1\1\GINC-AJ\SP\UCCSD(T)-FC\6-311++G(d,p)\C5H7O3(2)\AAYUSH\22-Apr-2025\
 0\\# ccsd(t)/6-311++g(d,p) sp\\Title Card Required\\0,2\C,0,2.581001,0
 .279079,0.\H,0,3.628641,0.087845,0.000001\C,0,1.432877,0.640468,-0.000
 003\C,0,0.013903,0.953653,-0.000005\O,0,-0.442619,2.060268,-0.00001\O,
 0,-0.704777,-0.175424,0.\C,0,-2.136903,-0.000422,-0.000001\C,0,-2.7553
 82,-1.378303,0.000005\H,0,-2.412507,0.578342,0.88368\H,0,-2.412507,0.5
 78334,-0.883687\H,0,-2.453725,-1.937182,-0.886869\H,0,-2.453725,-1.937
 175,0.886884\H,0,-3.843046,-1.290937,0.000005\O,0,2.336749,-1.888401,0
 .000011\H,0,1.36449,-1.910286,0.00001\\Version=ES64L-G16RevA.03\State=
 2-A\HF=-417.9908441\MP2=-419.2477538\MP3=-419.2762753\MP4D=-419.306835
 8\MP4DQ=-419.2820323\PUHF=-418.0023592\PMP2-0=-419.257688\PMP3-0=-419.
 283489\MP4SDQ=-419.3014533\CCSD=-419.3036854\CCSD(T)=-419.356263\S2=0.
 881998\S2-1=0.84391\S2A=0.761361\RMSD=3.053e-09\PG=C01 [X(C5H7O3)]\\@


 MYSTERY IS THE WISDOM OF BLOCKHEADS... HORACE WALPOLE 
 Job cpu time:       0 days 16 hours 34 minutes 57.5 seconds.
 Elapsed time:       0 days  0 hours 41 minutes 38.3 seconds.
 File lengths (MBytes):  RWF=  44258 Int=      0 D2E=      0 Chk=      5 Scr=      1
 Normal termination of Gaussian 16 at Tue Apr 22 05:03:14 2025.
