 Entering Gaussian System, Link 0=g16
 Initial command:
 /opt/g16/l1.exe "/home/aayush/scratches/g16/Gau-13785.inp" -scrdir="/home/aayush/scratches/g16/"
 Entering Link 1 = /opt/g16/l1.exe PID=     13790.
  
 Copyright (c) 1988,1990,1992,1993,1995,1998,2003,2009,2016,
            Gaussian, Inc.  All Rights Reserved.
  
 This is part of the Gaussian(R) 16 program.  It is based on
 the Gaussian(R) 09 system (copyright 2009, Gaussian, Inc.),
 the Gaussian(R) 03 system (copyright 2003, Gaussian, Inc.),
 the Gaussian(R) 98 system (copyright 1998, Gaussian, Inc.),
 the Gaussian(R) 94 system (copyright 1995, Gaussian, Inc.),
 the Gaussian 92(TM) system (copyright 1992, Gaussian, Inc.),
 the Gaussian 90(TM) system (copyright 1990, Gaussian, Inc.),
 the Gaussian 88(TM) system (copyright 1988, Gaussian, Inc.),
 the Gaussian 86(TM) system (copyright 1986, Carnegie Mellon
 University), and the Gaussian 82(TM) system (copyright 1983,
 Carnegie Mellon University). Gaussian is a federally registered
 trademark of Gaussian, Inc.
  
 This software contains proprietary and confidential information,
 including trade secrets, belonging to Gaussian, Inc.
  
 This software is provided under written license and may be
 used, copied, transmitted, or stored only in accord with that
 written license.
  
 The following legend is applicable only to US Government
 contracts under FAR:
  
                    RESTRICTED RIGHTS LEGEND
  
 Use, reproduction and disclosure by the US Government is
 subject to restrictions as set forth in subparagraphs (a)
 and (c) of the Commercial Computer Software - Restricted
 Rights clause in FAR 52.227-19.
  
 Gaussian, Inc.
 340 Quinnipiac St., Bldg. 40, Wallingford CT 06492
  
  
 ---------------------------------------------------------------
 Warning -- This program may not be used in any manner that
 competes with the business of Gaussian, Inc. or will provide
 assistance to any competitor of Gaussian, Inc.  The licensee
 of this program is prohibited from giving any competitor of
 Gaussian, Inc. access to this program.  By using this program,
 the user acknowledges that Gaussian, Inc. is engaged in the
 business of creating and licensing software in the field of
 computational chemistry and represents and warrants to the
 licensee that it is not a competitor of Gaussian, Inc. and that
 it will not use this program in any manner prohibited above.
 ---------------------------------------------------------------
  

 Cite this work as:
 Gaussian 16, Revision A.03,
 M. J. Frisch, G. W. Trucks, H. B. Schlegel, G. E. Scuseria, 
 M. A. Robb, J. R. Cheeseman, G. Scalmani, V. Barone, 
 G. A. Petersson, H. Nakatsuji, X. Li, M. Caricato, A. V. Marenich, 
 J. Bloino, B. G. Janesko, R. Gomperts, B. Mennucci, H. P. Hratchian, 
 J. V. Ortiz, A. F. Izmaylov, J. L. Sonnenberg, D. Williams-Young, 
 F. Ding, F. Lipparini, F. Egidi, J. Goings, B. Peng, A. Petrone, 
 T. Henderson, D. Ranasinghe, V. G. Zakrzewski, J. Gao, N. Rega, 
 G. Zheng, W. Liang, M. Hada, M. Ehara, K. Toyota, R. Fukuda, 
 J. Hasegawa, M. Ishida, T. Nakajima, Y. Honda, O. Kitao, H. Nakai, 
 T. Vreven, K. Throssell, J. A. Montgomery, Jr., J. E. Peralta, 
 F. Ogliaro, M. J. Bearpark, J. J. Heyd, E. N. Brothers, K. N. Kudin, 
 V. N. Staroverov, T. A. Keith, R. Kobayashi, J. Normand, 
 K. Raghavachari, A. P. Rendell, J. C. Burant, S. S. Iyengar, 
 J. Tomasi, M. Cossi, J. M. Millam, M. Klene, C. Adamo, R. Cammi, 
 J. W. Ochterski, R. L. Martin, K. Morokuma, O. Farkas, 
 J. B. Foresman, and D. J. Fox, Gaussian, Inc., Wallingford CT, 2016.
 
 ******************************************
 Gaussian 16:  ES64L-G16RevA.03 25-Dec-2016
                22-Apr-2025 
 ******************************************
 %chk=ethyl_propiolate.chk
 %nprocshared=24
 Will use up to   24 processors via shared memory.
 %mem=12GB
 --------------------------
 # ccsd(t)/6-311++g(d,p) sp
 --------------------------
 1/38=1,172=1/1;
 2/12=2,17=6,18=5,40=1/2;
 3/5=4,6=6,7=1111,11=9,25=1,30=1/1,2,3;
 4//1;
 5/5=2,38=5/2;
 8/6=4,9=120000,10=2/1,4;
 9/5=7,14=2/13;
 6/7=2,8=2,9=2,10=2/1;
 99/5=1,9=1/99;
 -------------------
 Title Card Required
 -------------------
 Symbolic Z-matrix:
 Charge =  0 Multiplicity = 2
 C                     2.60076   0.36688  0. 
 H                     3.64248   0.14556   0. 
 C                     1.43461   0.65278  0. 
 C                     0.01288   0.95501  -0.00001 
 O                    -0.44749   2.06002  -0.00001 
 O                    -0.70381  -0.17571   0. 
 C                    -2.13639  -0.00105  0. 
 C                    -2.75576  -1.3785    0.00001 
 H                    -2.41189   0.57787   0.88359 
 H                    -2.41189   0.57786  -0.8836 
 H                    -2.45473  -1.93767  -0.88692 
 H                    -2.45473  -1.93766   0.88693 
 H                    -3.84336  -1.29028   0.00001 
 O                     2.32514  -1.96574   0.00001 
 H                     1.35266  -1.92808   0.00001 
 
                          Input orientation:                          
 ---------------------------------------------------------------------
 Center     Atomic      Atomic             Coordinates (Angstroms)
 Number     Number       Type             X           Y           Z
 ---------------------------------------------------------------------
      1          6           0        2.600759    0.366875   -0.000001
      2          1           0        3.642482    0.145560    0.000001
      3          6           0        1.434614    0.652777   -0.000003
      4          6           0        0.012879    0.955006   -0.000005
      5          8           0       -0.447491    2.060024   -0.000010
      6          8           0       -0.703811   -0.175712    0.000000
      7          6           0       -2.136385   -0.001046   -0.000001
      8          6           0       -2.755760   -1.378495    0.000005
      9          1           0       -2.411887    0.577866    0.883591
     10          1           0       -2.411887    0.577859   -0.883597
     11          1           0       -2.454729   -1.937668   -0.886915
     12          1           0       -2.454729   -1.937661    0.886930
     13          1           0       -3.843363   -1.290276    0.000005
     14          8           0        2.325137   -1.965738    0.000011
     15          1           0        1.352662   -1.928083    0.000010
 ---------------------------------------------------------------------
                    Distance matrix (angstroms):
                    1          2          3          4          5
     1  C    0.000000
     2  H    1.064973   0.000000
     3  C    1.200681   2.265381   0.000000
     4  C    2.653869   3.718766   1.453504   0.000000
     5  O    3.486916   4.515867   2.350035   1.197082   0.000000
     6  O    3.348818   4.358151   2.293307   1.338719   2.250381
     7  C    4.751410   5.780726   3.630361   2.352312   2.664652
     8  C    5.633703   6.577252   4.656748   3.620855   4.141439
     9  H    5.094298   6.133759   3.947394   2.608154   2.614650
    10  H    5.094298   6.133760   3.947394   2.608154   2.614649
    11  H    5.626322   6.504033   4.756470   3.904262   4.560389
    12  H    5.626321   6.504032   4.756470   3.904262   4.560389
    13  H    6.653785   7.622303   5.624277   4.462274   4.770373
    14  O    2.348840   2.488569   2.765800   3.725222   4.888172
    15  H    2.612389   3.089218   2.582161   3.179186   4.375563
                    6          7          8          9         10
     6  O    0.000000
     7  C    1.443183   0.000000
     8  C    2.378483   1.510295   0.000000
     9  H    2.065463   1.091685   2.174010   0.000000
    10  H    2.065463   1.091684   2.174011   1.767188   0.000000
    11  H    2.637579   2.153709   1.090835   3.076433   2.515894
    12  H    2.637579   2.153710   1.090836   2.515894   3.076433
    13  H    3.331522   2.139133   1.091175   2.513922   2.513922
    14  O    3.518340   4.874956   5.114721   5.448856   5.448857
    15  H    2.701830   3.985840   4.145018   4.607855   4.607856
                   11         12         13         14         15
    11  H    0.000000
    12  H    1.773845   0.000000
    13  H    1.770324   1.770324   0.000000
    14  O    4.861537   4.861536   6.205372   0.000000
    15  H    3.909342   3.909341   5.235024   0.973204   0.000000
 Stoichiometry    C5H7O3(2)
 Framework group  C1[X(C5H7O3)]
 Deg. of freedom    39
 Full point group                 C1      NOp   1
 Largest Abelian subgroup         C1      NOp   1
 Largest concise Abelian subgroup C1      NOp   1
                         Standard orientation:                         
 ---------------------------------------------------------------------
 Center     Atomic      Atomic             Coordinates (Angstroms)
 Number     Number       Type             X           Y           Z
 ---------------------------------------------------------------------
      1          6           0       -2.672640   -0.399916   -0.000001
      2          1           0       -3.713184   -0.173122    0.000001
      3          6           0       -1.508016   -0.691951   -0.000003
      4          6           0       -0.087891   -1.001657   -0.000005
      5          8           0        0.366657   -2.109083   -0.000010
      6          8           0        0.634739    0.125273   -0.000000
      7          6           0        2.066374   -0.056929   -0.000001
      8          6           0        2.692989    1.317241    0.000005
      9          1           0        2.338826   -0.637283    0.883591
     10          1           0        2.338826   -0.637276   -0.883597
     11          1           0        2.394905    1.877991   -0.886915
     12          1           0        2.394905    1.877984    0.886930
     13          1           0        3.780113    1.223300    0.000005
     14          8           0       -2.384747    1.931214    0.000011
     15          1           0       -1.412484    1.888442    0.000010
 ---------------------------------------------------------------------
 Rotational constants (GHZ):           2.6992948           1.2424130           0.8599562
 Standard basis: 6-311++G(d,p) (5D, 7F)
 There are   233 symmetry adapted cartesian basis functions of A   symmetry.
 There are   225 symmetry adapted basis functions of A   symmetry.
   225 basis functions,   351 primitive gaussians,   233 cartesian basis functions
    31 alpha electrons       30 beta electrons
       nuclear repulsion energy       345.2456276450 Hartrees.
 NAtoms=   15 NActive=   15 NUniq=   15 SFac= 1.00D+00 NAtFMM=   60 NAOKFM=F Big=F
 Integral buffers will be    131072 words long.
 Raffenetti 2 integral format.
 Two-electron integral symmetry is turned on.
 One-electron integrals computed using PRISM.
 NBasis=   225 RedAO= T EigKep=  6.55D-06  NBF=   225
 NBsUse=   224 1.00D-06 EigRej=  6.73D-07 NBFU=   224
 ExpMin= 3.60D-02 ExpMax= 8.59D+03 ExpMxC= 1.30D+03 IAcc=3 IRadAn=         5 AccDes= 0.00D+00
 Harris functional with IExCor=  205 and IRadAn=       5 diagonalized for initial guess.
 HarFok:  IExCor=  205 AccDes= 0.00D+00 IRadAn=         5 IDoV= 1 UseB2=F ITyADJ=14
 ICtDFT=  3500011 ScaDFX=  1.000000  1.000000  1.000000  1.000000
 FoFCou: FMM=F IPFlag=           0 FMFlag=      100000 FMFlg1=           0
         NFxFlg=           0 DoJE=T BraDBF=F KetDBF=T FulRan=T
         wScrn=  0.000000 ICntrl=       500 IOpCl=  0 I1Cent=   200000004 NGrid=           0
         NMat0=    1 NMatS0=      1 NMatT0=    0 NMatD0=    1 NMtDS0=    0 NMtDT0=    0
 Petite list used in FoFCou.
 Initial guess <Sx>= 0.0000 <Sy>= 0.0000 <Sz>= 0.5000 <S**2>= 0.7500 S= 0.5000
 Requested convergence on RMS density matrix=1.00D-08 within 128 cycles.
 Requested convergence on MAX density matrix=1.00D-06.
 Requested convergence on             energy=1.00D-06.
 No special actions if energy rises.
 Initial convergence to 1.0D-05 achieved.  Increase integral accuracy.
 SCF Done:  E(UHF) =  -417.996609001     A.U. after   35 cycles
            NFock= 35  Conv=0.40D-08     -V/T= 2.0007
 <Sx>= 0.0000 <Sy>= 0.0000 <Sz>= 0.5000 <S**2>= 0.8144 S= 0.5317
 <L.S>=  0.00000000000    
 Annihilation of the first spin contaminant:
 S**2 before annihilation     0.8144,   after     0.7529
 ExpMin= 3.60D-02 ExpMax= 8.59D+03 ExpMxC= 1.30D+03 IAcc=3 IRadAn=         5 AccDes= 0.00D+00
 HarFok:  IExCor=  205 AccDes= 0.00D+00 IRadAn=         5 IDoV=-2 UseB2=F ITyADJ=14
 ICtDFT= 12500011 ScaDFX=  1.000000  1.000000  1.000000  1.000000
 Range of M.O.s used for correlation:     9   224
 NBasis=   225 NAE=    31 NBE=    30 NFC=     8 NFV=     0
 NROrb=    216 NOA=    23 NOB=    22 NVA=   193 NVB=   194

 **** Warning!!: The largest alpha MO coefficient is  0.14551858D+03


 **** Warning!!: The largest beta MO coefficient is  0.13573308D+03

 Semi-Direct transformation.
 ModeAB=           4 MOrb=            23 LenV=    1609188851
 LASXX=    107793295 LTotXX=   107793295 LenRXX=   218294035
 LTotAB=   110500740 MaxLAS=   124721640 LenRXY=           0
 NonZer=   326087330 LenScr=   491049984 LnRSAI=   124721640
 LnScr1=   187838464 LExtra=           0 Total=   1021904123
 MaxDsk=          -1 SrtSym=           T ITran=            4
 JobTyp=1 Pass  1:  I=   1 to  23.
 (rs|ai) integrals will be sorted in core.
 ModeAB=           4 MOrb=            22 LenV=    1609188851
 LASXX=    103454307 LTotXX=   103454307 LenRXX=   188091948
 LTotAB=    84637641 MaxLAS=   119298960 LenRXY=           0
 NonZer=   291546255 LenScr=   439034880 LnRSAI=   119298960
 LnScr1=   179720192 LExtra=           0 Total=    926145980
 MaxDsk=          -1 SrtSym=           T ITran=            4
 JobTyp=2 Pass  1:  I=   1 to  22.
 (rs|ai) integrals will be sorted in core.
 SymMOI:  orbitals are not symmetric.
 Spin components of T(2) and E(2):
     alpha-alpha T2 =       0.5173520401D-01 E2=     -0.1684754085D+00
     alpha-beta  T2 =       0.2863473050D+00 E2=     -0.9347908113D+00
     beta-beta   T2 =       0.4993657034D-01 E2=     -0.1554997693D+00
 ANorm=    0.1178142215D+01
 E2 =    -0.1258765989D+01 EUMP2 =    -0.41925537499008D+03
 (S**2,0)=  0.81444D+00           (S**2,1)=  0.79425D+00
 E(PUHF)=      -0.41800331554D+03        E(PMP2)=      -0.41926105796D+03
 Keep R2 and R3 ints in memory in canonical form, NReq=652883968.
 CIDS: In Core Option IDoMem=           1.
 Iterations=  50 Convergence= 0.100D-06
 Produce multiple copies of IABC intergrals
 Iteration Nr.   1
 **********************
 DD1Dir will call FoFMem   1 times, MxPair=      1496
 NAB=   506 NAA=   253 NBB=   231.
 E(PMP3)=      -0.41928694158D+03
 MP4(R+Q)=  0.24980725D-01
 E3=       -0.27537915D-01        EUMP3=      -0.41928291290D+03
 E4(DQ)=   -0.58070332D-02        UMP4(DQ)=   -0.41928871994D+03
 E4(SDQ)=  -0.24173624D-01        UMP4(SDQ)=  -0.41930708653D+03
 DE(Corr)=  -1.2607236     E(Corr)=     -419.25733262    
 NORM(A)=   0.11844238D+01
 Iteration Nr.   2
 **********************
 DD1Dir will call FoFMem   1 times, MxPair=      1496
 NAB=   506 NAA=   253 NBB=   231.
 DE(Corr)=  -1.3023970     E(CORR)=     -419.29900599     Delta=-4.17D-02
 NORM(A)=   0.12023375D+01
 Iteration Nr.   3
 **********************
 DD1Dir will call FoFMem   1 times, MxPair=      1496
 NAB=   506 NAA=   253 NBB=   231.
 DE(Corr)=  -1.3040709     E(CORR)=     -419.30067994     Delta=-1.67D-03
 NORM(A)=   0.12090570D+01
 Iteration Nr.   4
 **********************
 DD1Dir will call FoFMem   1 times, MxPair=      1496
 NAB=   506 NAA=   253 NBB=   231.
 DE(Corr)=  -1.3091221     E(CORR)=     -419.30573111     Delta=-5.05D-03
 NORM(A)=   0.12122414D+01
 Iteration Nr.   5
 **********************
 DD1Dir will call FoFMem   1 times, MxPair=      1496
 NAB=   506 NAA=   253 NBB=   231.
 DE(Corr)=  -1.3100918     E(CORR)=     -419.30670080     Delta=-9.70D-04
 NORM(A)=   0.12140191D+01
 Iteration Nr.   6
 **********************
 DD1Dir will call FoFMem   1 times, MxPair=      1496
 NAB=   506 NAA=   253 NBB=   231.
 DE(Corr)=  -1.3103798     E(CORR)=     -419.30698883     Delta=-2.88D-04
 NORM(A)=   0.12143830D+01
 Iteration Nr.   7
 **********************
 DD1Dir will call FoFMem   1 times, MxPair=      1496
 NAB=   506 NAA=   253 NBB=   231.
 DE(Corr)=  -1.3104346     E(CORR)=     -419.30704360     Delta=-5.48D-05
 NORM(A)=   0.12144640D+01
 Iteration Nr.   8
 **********************
 DD1Dir will call FoFMem   1 times, MxPair=      1496
 NAB=   506 NAA=   253 NBB=   231.
 DE(Corr)=  -1.3104239     E(CORR)=     -419.30703287     Delta= 1.07D-05
 NORM(A)=   0.12144965D+01
 Iteration Nr.   9
 **********************
 DD1Dir will call FoFMem   1 times, MxPair=      1496
 NAB=   506 NAA=   253 NBB=   231.
 DE(Corr)=  -1.3104317     E(CORR)=     -419.30704073     Delta=-7.86D-06
 NORM(A)=   0.12145014D+01
 Iteration Nr.  10
 **********************
 DD1Dir will call FoFMem   1 times, MxPair=      1496
 NAB=   506 NAA=   253 NBB=   231.
 DE(Corr)=  -1.3104341     E(CORR)=     -419.30704312     Delta=-2.39D-06
 NORM(A)=   0.12145074D+01
 Iteration Nr.  11
 **********************
 DD1Dir will call FoFMem   1 times, MxPair=      1496
 NAB=   506 NAA=   253 NBB=   231.
 DE(Corr)=  -1.3104395     E(CORR)=     -419.30704848     Delta=-5.37D-06
 NORM(A)=   0.12145146D+01
 Iteration Nr.  12
 **********************
 DD1Dir will call FoFMem   1 times, MxPair=      1496
 NAB=   506 NAA=   253 NBB=   231.
 DE(Corr)=  -1.3104418     E(CORR)=     -419.30705083     Delta=-2.34D-06
 NORM(A)=   0.12145206D+01
 Iteration Nr.  13
 **********************
 DD1Dir will call FoFMem   1 times, MxPair=      1496
 NAB=   506 NAA=   253 NBB=   231.
 DE(Corr)=  -1.3104436     E(CORR)=     -419.30705258     Delta=-1.75D-06
 NORM(A)=   0.12145252D+01
 Iteration Nr.  14
 **********************
 DD1Dir will call FoFMem   1 times, MxPair=      1496
 NAB=   506 NAA=   253 NBB=   231.
 DE(Corr)=  -1.3104447     E(CORR)=     -419.30705372     Delta=-1.15D-06
 NORM(A)=   0.12145281D+01
 Iteration Nr.  15
 **********************
 DD1Dir will call FoFMem   1 times, MxPair=      1496
 NAB=   506 NAA=   253 NBB=   231.
 DE(Corr)=  -1.3104451     E(CORR)=     -419.30705407     Delta=-3.47D-07
 NORM(A)=   0.12145297D+01
 Iteration Nr.  16
 **********************
 DD1Dir will call FoFMem   1 times, MxPair=      1496
 NAB=   506 NAA=   253 NBB=   231.
 DE(Corr)=  -1.3104454     E(CORR)=     -419.30705442     Delta=-3.55D-07
 NORM(A)=   0.12145305D+01
 Iteration Nr.  17
 **********************
 DD1Dir will call FoFMem   1 times, MxPair=      1496
 NAB=   506 NAA=   253 NBB=   231.
 DE(Corr)=  -1.3104455     E(CORR)=     -419.30705454     Delta=-1.15D-07
 NORM(A)=   0.12145308D+01
 Iteration Nr.  18
 **********************
 DD1Dir will call FoFMem   1 times, MxPair=      1496
 NAB=   506 NAA=   253 NBB=   231.
 DE(Corr)=  -1.3104456     E(CORR)=     -419.30705459     Delta=-5.48D-08
 NORM(A)=   0.12145309D+01
 Wavefunction amplitudes converged. E(Corr)=     -419.30705459    
 Largest amplitude= 5.37D-02
 Time for triples=    35213.21 seconds.
 T4(CCSD)= -0.55347368D-01
 T5(CCSD)=  0.33517896D-02
 CCSD(T)= -0.41935905017D+03

 S**2, projected HF & approx projected MPn energies after annihilation of
 unwanted spin states (see manual for definitions):

 spins       (S**2,0) (S**2,1)    PUHF        PMP2        PMP3        PMP4
 annihilated
 s+1         0.74831  0.74951 -418.003316 -419.261058 -419.286942
 s+1,s+2     0.75001  0.75000 -418.003152 -419.260906 -419.286803
 s+1 to s+3  0.75000  0.75000 -418.003154 -419.260907 -419.286803
 s+1 to s+4  0.75000  0.75000 -418.003154 -419.260907 -419.286803
 s+1 to s+5  0.75000  0.75000 -418.003154
 s+1 to s+6  0.75000  0.75000 -418.003154

 Discarding MO integrals.

 **********************************************************************

            Population analysis using the SCF density.

 **********************************************************************

 Orbital symmetries:
 Alpha Orbitals:
       Occupied  (A) (A) (A) (A) (A) (A) (A) (A) (A) (A) (A) (A)
                 (A) (A) (A) (A) (A) (A) (A) (A) (A) (A) (A) (A)
                 (A) (A) (A) (A) (A) (A) (A)
       Virtual   (A) (A) (A) (A) (A) (A) (A) (A) (A) (A) (A) (A)
                 (A) (A) (A) (A) (A) (A) (A) (A) (A) (A) (A) (A)
                 (A) (A) (A) (A) (A) (A) (A) (A) (A) (A) (A) (A)
                 (A) (A) (A) (A) (A) (A) (A) (A) (A) (A) (A) (A)
                 (A) (A) (A) (A) (A) (A) (A) (A) (A) (A) (A) (A)
                 (A) (A) (A) (A) (A) (A) (A) (A) (A) (A) (A) (A)
                 (A) (A) (A) (A) (A) (A) (A) (A) (A) (A) (A) (A)
                 (A) (A) (A) (A) (A) (A) (A) (A) (A) (A) (A) (A)
                 (A) (A) (A) (A) (A) (A) (A) (A) (A) (A) (A) (A)
                 (A) (A) (A) (A) (A) (A) (A) (A) (A) (A) (A) (A)
                 (A) (A) (A) (A) (A) (A) (A) (A) (A) (A) (A) (A)
                 (A) (A) (A) (A) (A) (A) (A) (A) (A) (A) (A) (A)
                 (A) (A) (A) (A) (A) (A) (A) (A) (A) (A) (A) (A)
                 (A) (A) (A) (A) (A) (A) (A) (A) (A) (A) (A) (A)
                 (A) (A) (A) (A) (A) (A) (A) (A) (A) (A) (A) (A)
                 (A) (A) (A) (A) (A) (A) (A) (A) (A) (A) (A) (A)
                 (A)
 Beta  Orbitals:
       Occupied  (A) (A) (A) (A) (A) (A) (A) (A) (A) (A) (A) (A)
                 (A) (A) (A) (A) (A) (A) (A) (A) (A) (A) (A) (A)
                 (A) (A) (A) (A) (A) (A)
       Virtual   (A) (A) (A) (A) (A) (A) (A) (A) (A) (A) (A) (A)
                 (A) (A) (A) (A) (A) (A) (A) (A) (A) (A) (A) (A)
                 (A) (A) (A) (A) (A) (A) (A) (A) (A) (A) (A) (A)
                 (A) (A) (A) (A) (A) (A) (A) (A) (A) (A) (A) (A)
                 (A) (A) (A) (A) (A) (A) (A) (A) (A) (A) (A) (A)
                 (A) (A) (A) (A) (A) (A) (A) (A) (A) (A) (A) (A)
                 (A) (A) (A) (A) (A) (A) (A) (A) (A) (A) (A) (A)
                 (A) (A) (A) (A) (A) (A) (A) (A) (A) (A) (A) (A)
                 (A) (A) (A) (A) (A) (A) (A) (A) (A) (A) (A) (A)
                 (A) (A) (A) (A) (A) (A) (A) (A) (A) (A) (A) (A)
                 (A) (A) (A) (A) (A) (A) (A) (A) (A) (A) (A) (A)
                 (A) (A) (A) (A) (A) (A) (A) (A) (A) (A) (A) (A)
                 (A) (A) (A) (A) (A) (A) (A) (A) (A) (A) (A) (A)
                 (A) (A) (A) (A) (A) (A) (A) (A) (A) (A) (A) (A)
                 (A) (A) (A) (A) (A) (A) (A) (A) (A) (A) (A) (A)
                 (A) (A) (A) (A) (A) (A) (A) (A) (A) (A) (A) (A)
                 (A) (A)
 The electronic state is 2-A.
 Alpha  occ. eigenvalues --  -20.62535 -20.62522 -20.57095 -11.42148 -11.30663
 Alpha  occ. eigenvalues --  -11.26858 -11.26247 -11.23886  -1.49214  -1.39262
 Alpha  occ. eigenvalues --   -1.37966  -1.09061  -1.05016  -0.92505  -0.84248
 Alpha  occ. eigenvalues --   -0.78121  -0.73251  -0.70493  -0.70174  -0.67095
 Alpha  occ. eigenvalues --   -0.65096  -0.61181  -0.60203  -0.56818  -0.55215
 Alpha  occ. eigenvalues --   -0.53468  -0.53224  -0.49300  -0.48255  -0.42990
 Alpha  occ. eigenvalues --   -0.42337
 Alpha virt. eigenvalues --    0.03620   0.04709   0.05670   0.06071   0.06906
 Alpha virt. eigenvalues --    0.08585   0.09325   0.09579   0.11147   0.12298
 Alpha virt. eigenvalues --    0.12468   0.13086   0.15395   0.15607   0.16195
 Alpha virt. eigenvalues --    0.16676   0.18311   0.18580   0.18821   0.19243
 Alpha virt. eigenvalues --    0.19252   0.20532   0.22056   0.22229   0.23469
 Alpha virt. eigenvalues --    0.24457   0.25277   0.27491   0.27878   0.28829
 Alpha virt. eigenvalues --    0.28925   0.30432   0.30434   0.31776   0.32398
 Alpha virt. eigenvalues --    0.34250   0.35611   0.36317   0.37750   0.38669
 Alpha virt. eigenvalues --    0.39060   0.40324   0.40749   0.42028   0.42745
 Alpha virt. eigenvalues --    0.44646   0.45621   0.46209   0.48831   0.50466
 Alpha virt. eigenvalues --    0.55114   0.56235   0.58001   0.60994   0.64616
 Alpha virt. eigenvalues --    0.65593   0.68531   0.69846   0.70906   0.75975
 Alpha virt. eigenvalues --    0.78697   0.79305   0.80245   0.83559   0.84903
 Alpha virt. eigenvalues --    0.85086   0.85654   0.85676   0.86661   0.88398
 Alpha virt. eigenvalues --    0.89001   0.90209   0.96614   0.96701   1.00943
 Alpha virt. eigenvalues --    1.07497   1.08210   1.11759   1.20775   1.20961
 Alpha virt. eigenvalues --    1.22765   1.25056   1.27401   1.29822   1.31423
 Alpha virt. eigenvalues --    1.34693   1.35839   1.37896   1.37908   1.42214
 Alpha virt. eigenvalues --    1.42232   1.42904   1.48240   1.49000   1.50795
 Alpha virt. eigenvalues --    1.52398   1.57707   1.59256   1.62740   1.66180
 Alpha virt. eigenvalues --    1.67760   1.70431   1.70700   1.76965   1.79229
 Alpha virt. eigenvalues --    1.79930   1.82728   1.83967   1.86992   1.88306
 Alpha virt. eigenvalues --    1.91098   1.91615   1.94494   1.99624   2.00805
 Alpha virt. eigenvalues --    2.01231   2.08973   2.08998   2.12443   2.16419
 Alpha virt. eigenvalues --    2.18783   2.27324   2.27976   2.34266   2.37212
 Alpha virt. eigenvalues --    2.39990   2.41917   2.47736   2.55275   2.64010
 Alpha virt. eigenvalues --    2.70650   2.77342   2.80196   2.81298   2.85594
 Alpha virt. eigenvalues --    2.87330   2.88228   2.93155   2.94345   2.95158
 Alpha virt. eigenvalues --    2.96009   2.97558   2.98043   3.03725   3.09786
 Alpha virt. eigenvalues --    3.14702   3.16310   3.17456   3.20295   3.23874
 Alpha virt. eigenvalues --    3.27774   3.30300   3.36549   3.36935   3.38941
 Alpha virt. eigenvalues --    3.43564   3.46002   3.47831   3.49059   3.56565
 Alpha virt. eigenvalues --    3.59547   3.63772   3.68412   3.73305   3.77371
 Alpha virt. eigenvalues --    3.93124   4.02323   4.10775   4.19106   4.20895
 Alpha virt. eigenvalues --    4.21000   4.23263   4.43888   4.50849   4.53561
 Alpha virt. eigenvalues --    4.68786   5.47423   5.52803   5.55375   5.60700
 Alpha virt. eigenvalues --    5.76366   5.90505   6.00799   6.20278   6.41850
 Alpha virt. eigenvalues --   24.70411  25.00364  25.01376  25.13213  26.28839
 Alpha virt. eigenvalues --   51.49639  51.59452  51.70520
  Beta  occ. eigenvalues --  -20.62524 -20.58431 -20.56864 -11.42327 -11.30659
  Beta  occ. eigenvalues --  -11.27630 -11.25316 -11.23885  -1.49085  -1.38876
  Beta  occ. eigenvalues --   -1.22469  -1.08220  -1.04971  -0.92850  -0.84181
  Beta  occ. eigenvalues --   -0.77996  -0.73150  -0.70443  -0.69850  -0.62723
  Beta  occ. eigenvalues --   -0.60863  -0.59963  -0.56751  -0.53191  -0.53113
  Beta  occ. eigenvalues --   -0.50292  -0.48797  -0.47759  -0.43261  -0.42774
  Beta virt. eigenvalues --    0.03589   0.04686   0.05423   0.06068   0.06834
  Beta virt. eigenvalues --    0.08046   0.08499   0.09317   0.10972   0.11987
  Beta virt. eigenvalues --    0.12264   0.12285   0.13406   0.15206   0.15673
  Beta virt. eigenvalues --    0.16213   0.17450   0.18455   0.18591   0.18810
  Beta virt. eigenvalues --    0.19246   0.19284   0.20385   0.22054   0.22656
  Beta virt. eigenvalues --    0.23608   0.24488   0.25532   0.27843   0.28289
  Beta virt. eigenvalues --    0.28799   0.29077   0.30763   0.31264   0.31813
  Beta virt. eigenvalues --    0.32551   0.34523   0.36236   0.37166   0.37771
  Beta virt. eigenvalues --    0.39111   0.40593   0.41076   0.41107   0.42431
  Beta virt. eigenvalues --    0.42882   0.44910   0.45868   0.46341   0.49018
  Beta virt. eigenvalues --    0.50676   0.55579   0.56231   0.58130   0.61169
  Beta virt. eigenvalues --    0.64663   0.65864   0.68922   0.70132   0.70181
  Beta virt. eigenvalues --    0.75917   0.78102   0.79368   0.80483   0.83691
  Beta virt. eigenvalues --    0.84898   0.85070   0.85773   0.86227   0.86740
  Beta virt. eigenvalues --    0.88500   0.89716   0.91053   0.96642   0.96888
  Beta virt. eigenvalues --    1.01613   1.07530   1.08545   1.11954   1.20973
  Beta virt. eigenvalues --    1.21036   1.26715   1.27574   1.28144   1.29960
  Beta virt. eigenvalues --    1.33358   1.35145   1.36399   1.38267   1.38308
  Beta virt. eigenvalues --    1.42308   1.42942   1.44209   1.48230   1.49076
  Beta virt. eigenvalues --    1.50978   1.54779   1.57291   1.60943   1.62312
  Beta virt. eigenvalues --    1.66047   1.70385   1.70700   1.71933   1.77863
  Beta virt. eigenvalues --    1.79228   1.79935   1.82974   1.84064   1.87300
  Beta virt. eigenvalues --    1.88338   1.91474   1.91695   1.94585   1.99636
  Beta virt. eigenvalues --    2.01244   2.01847   2.09036   2.09037   2.12531
  Beta virt. eigenvalues --    2.16482   2.18824   2.27426   2.27980   2.34690
  Beta virt. eigenvalues --    2.38630   2.40019   2.41939   2.47741   2.55277
  Beta virt. eigenvalues --    2.64016   2.70635   2.77339   2.80285   2.81279
  Beta virt. eigenvalues --    2.85623   2.87332   2.88141   2.93430   2.94330
  Beta virt. eigenvalues --    2.95280   2.96257   2.97749   2.98031   3.03528
  Beta virt. eigenvalues --    3.12854   3.16509   3.19743   3.21452   3.23845
  Beta virt. eigenvalues --    3.28401   3.30303   3.31632   3.36742   3.37190
  Beta virt. eigenvalues --    3.41293   3.43680   3.47907   3.49872   3.53896
  Beta virt. eigenvalues --    3.58678   3.59537   3.63895   3.68635   3.73461
  Beta virt. eigenvalues --    3.77736   3.93036   4.02452   4.11015   4.19109
  Beta virt. eigenvalues --    4.20896   4.21036   4.26773   4.43958   4.50929
  Beta virt. eigenvalues --    4.53629   4.68805   5.49948   5.55422   5.61274
  Beta virt. eigenvalues --    5.65825   5.76533   5.90546   6.03369   6.20362
  Beta virt. eigenvalues --    6.41906  24.70535  25.00305  25.01299  25.13214
  Beta virt. eigenvalues --   26.28846  51.51968  51.59495  51.70650
          Condensed to atoms (all electrons):
               1          2          3          4          5          6
     1  C    6.202099   0.452357  -1.404749   1.519530  -0.081228  -0.127226
     2  H    0.452357   0.391586  -0.096157   0.034320  -0.002651  -0.006286
     3  C   -1.404749  -0.096157  10.449581  -3.660389   0.096976  -0.057417
     4  C    1.519530   0.034320  -3.660389   8.303564   0.359440  -0.044885
     5  O   -0.081228  -0.002651   0.096976   0.359440   8.048227  -0.094662
     6  O   -0.127226  -0.006286  -0.057417  -0.044885  -0.094662   8.522454
     7  C    0.051684  -0.000812  -0.355842  -0.111041  -0.029012   0.210948
     8  C    0.044214   0.001991  -0.168736   0.160261   0.023462  -0.195656
     9  H   -0.001010  -0.000218  -0.003563   0.000838  -0.015153  -0.036362
    10  H   -0.001010  -0.000218  -0.003563   0.000838  -0.015153  -0.036362
    11  H   -0.001665  -0.000030   0.011565  -0.001048  -0.000649  -0.007183
    12  H   -0.001665  -0.000030   0.011565  -0.001048  -0.000649  -0.007183
    13  H   -0.000469   0.000006   0.002114   0.000286   0.001244   0.021104
    14  O    0.018390  -0.003405  -0.114252   0.040123  -0.000789   0.000426
    15  H   -0.020119  -0.002613   0.046493  -0.019801   0.000899   0.009542
               7          8          9         10         11         12
     1  C    0.051684   0.044214  -0.001010  -0.001010  -0.001665  -0.001665
     2  H   -0.000812   0.001991  -0.000218  -0.000218  -0.000030  -0.000030
     3  C   -0.355842  -0.168736  -0.003563  -0.003563   0.011565   0.011565
     4  C   -0.111041   0.160261   0.000838   0.000838  -0.001048  -0.001048
     5  O   -0.029012   0.023462  -0.015153  -0.015153  -0.000649  -0.000649
     6  O    0.210948  -0.195656  -0.036362  -0.036362  -0.007183  -0.007183
     7  C    5.533922  -0.043958   0.441895   0.441894  -0.035068  -0.035068
     8  C   -0.043958   5.686302  -0.057059  -0.057059   0.392663   0.392664
     9  H    0.441895  -0.057059   0.539740  -0.044817   0.004227  -0.006177
    10  H    0.441894  -0.057059  -0.044817   0.539740  -0.006177   0.004227
    11  H   -0.035068   0.392663   0.004227  -0.006177   0.567488  -0.044546
    12  H   -0.035068   0.392664  -0.006177   0.004227  -0.044546   0.567488
    13  H   -0.058364   0.426397  -0.004291  -0.004291  -0.032725  -0.032726
    14  O   -0.000042   0.001637   0.000163   0.000163  -0.000256  -0.000256
    15  H    0.003058   0.002394   0.000043   0.000043  -0.001041  -0.001041
              13         14         15
     1  C   -0.000469   0.018390  -0.020119
     2  H    0.000006  -0.003405  -0.002613
     3  C    0.002114  -0.114252   0.046493
     4  C    0.000286   0.040123  -0.019801
     5  O    0.001244  -0.000789   0.000899
     6  O    0.021104   0.000426   0.009542
     7  C   -0.058364  -0.000042   0.003058
     8  C    0.426397   0.001637   0.002394
     9  H   -0.004291   0.000163   0.000043
    10  H   -0.004291   0.000163   0.000043
    11  H   -0.032725  -0.000256  -0.001041
    12  H   -0.032726  -0.000256  -0.001041
    13  H    0.539119  -0.000008  -0.000028
    14  O   -0.000008   8.000897   0.301781
    15  H   -0.000028   0.301781   0.433980
          Atomic-Atomic Spin Densities.
               1          2          3          4          5          6
     1  C   -0.478137   0.007444   0.066196  -0.033373  -0.004942   0.009897
     2  H    0.007444   0.028750  -0.005563   0.000969  -0.000228   0.000502
     3  C    0.066196  -0.005563   0.363828   0.122156   0.006328  -0.055756
     4  C   -0.033373   0.000969   0.122156  -0.187075  -0.014760   0.044228
     5  O   -0.004942  -0.000228   0.006328  -0.014760   0.063724  -0.001095
     6  O    0.009897   0.000502  -0.055756   0.044228  -0.001095  -0.003076
     7  C    0.000486   0.000083  -0.000680  -0.003022  -0.001336  -0.000658
     8  C   -0.001069   0.000021   0.006749  -0.002198  -0.001487   0.001116
     9  H    0.000039  -0.000003  -0.000705   0.000530  -0.000039  -0.000136
    10  H    0.000039  -0.000003  -0.000705   0.000530  -0.000039  -0.000136
    11  H    0.000169   0.000008  -0.000833   0.000308   0.000027  -0.000049
    12  H    0.000169   0.000008  -0.000833   0.000308   0.000027  -0.000049
    13  H    0.000245   0.000011  -0.001093   0.000160  -0.000033  -0.000159
    14  O   -0.001209   0.004480  -0.041294   0.004930  -0.000426   0.004620
    15  H   -0.001782  -0.000967   0.009700  -0.001520   0.000242  -0.001451
               7          8          9         10         11         12
     1  C    0.000486  -0.001069   0.000039   0.000039   0.000169   0.000169
     2  H    0.000083   0.000021  -0.000003  -0.000003   0.000008   0.000008
     3  C   -0.000680   0.006749  -0.000705  -0.000705  -0.000833  -0.000833
     4  C   -0.003022  -0.002198   0.000530   0.000530   0.000308   0.000308
     5  O   -0.001336  -0.001487  -0.000039  -0.000039   0.000027   0.000027
     6  O   -0.000658   0.001116  -0.000136  -0.000136  -0.000049  -0.000049
     7  C    0.015764  -0.010731   0.000116   0.000116   0.000448   0.000448
     8  C   -0.010731   0.007484   0.000075   0.000075  -0.000125  -0.000125
     9  H    0.000116   0.000075  -0.000031   0.000170   0.000016  -0.000016
    10  H    0.000116   0.000075   0.000170  -0.000031  -0.000016   0.000016
    11  H    0.000448  -0.000125   0.000016  -0.000016   0.000014   0.000000
    12  H    0.000448  -0.000125  -0.000016   0.000016   0.000000   0.000014
    13  H   -0.000559   0.001112  -0.000020  -0.000020  -0.000008  -0.000008
    14  O    0.000059   0.000558  -0.000065  -0.000065   0.000060   0.000060
    15  H    0.000309  -0.001568   0.000062   0.000062  -0.000007  -0.000007
              13         14         15
     1  C    0.000245  -0.001209  -0.001782
     2  H    0.000011   0.004480  -0.000967
     3  C   -0.001093  -0.041294   0.009700
     4  C    0.000160   0.004930  -0.001520
     5  O   -0.000033  -0.000426   0.000242
     6  O   -0.000159   0.004620  -0.001451
     7  C   -0.000559   0.000059   0.000309
     8  C    0.001112   0.000558  -0.001568
     9  H   -0.000020  -0.000065   0.000062
    10  H   -0.000020  -0.000065   0.000062
    11  H   -0.000008   0.000060  -0.000007
    12  H   -0.000008   0.000060  -0.000007
    13  H    0.000524   0.000037  -0.000172
    14  O    0.000037   1.016949   0.001720
    15  H   -0.000172   0.001720  -0.038904
 Mulliken charges and spin densities:
               1          2
     1  C   -0.649133  -0.435825
     2  H    0.232160   0.035510
     3  C    1.246376   0.467495
     4  C   -0.580987  -0.067829
     5  O   -0.290301   0.045964
     6  O   -0.151252  -0.002203
     7  C   -0.014192   0.000843
     8  C   -0.609517  -0.000111
     9  H    0.181745  -0.000008
    10  H    0.181745  -0.000008
    11  H    0.154444   0.000013
    12  H    0.154444   0.000013
    13  H    0.142632   0.000014
    14  O   -0.244574   0.990416
    15  H    0.246410  -0.034281
 Sum of Mulliken charges =  -0.00000   1.00000
 Mulliken charges and spin densities with hydrogens summed into heavy atoms:
               1          2
     1  C   -0.416973  -0.400315
     3  C    1.246376   0.467495
     4  C   -0.580987  -0.067829
     5  O   -0.290301   0.045964
     6  O   -0.151252  -0.002203
     7  C    0.349298   0.000826
     8  C   -0.157996  -0.000071
    14  O    0.001836   0.956134
 Electronic spatial extent (au):  <R**2>=           1284.5223
 Charge=             -0.0000 electrons
 Dipole moment (field-independent basis, Debye):
    X=              1.7737    Y=              1.9474    Z=              0.0000  Tot=              2.6341
 Quadrupole moment (field-independent basis, Debye-Ang):
   XX=            -39.0614   YY=            -56.4482   ZZ=            -47.7177
   XY=              5.1958   XZ=              0.0000   YZ=             -0.0000
 Traceless Quadrupole moment (field-independent basis, Debye-Ang):
   XX=              8.6810   YY=             -8.7058   ZZ=              0.0247
   XY=              5.1958   XZ=              0.0000   YZ=             -0.0000
 Octapole moment (field-independent basis, Debye-Ang**2):
  XXX=             -7.1377  YYY=             26.9223  ZZZ=             -0.0000  XYY=              8.0770
  XXY=            -11.2271  XXZ=             -0.0000  XZZ=              5.3133  YZZ=             -0.3310
  YYZ=              0.0001  XYZ=              0.0000
 Hexadecapole moment (field-independent basis, Debye-Ang**3):
 XXXX=           -944.5732 YYYY=           -522.7348 ZZZZ=            -60.0578 XXXY=             22.2057
 XXXZ=              0.0003 YYYX=             -7.0876 YYYZ=             -0.0012 ZZZX=              0.0002
 ZZZY=             -0.0010 XXYY=           -305.7919 XXZZ=           -205.8119 YYZZ=            -90.7176
 XXYZ=             -0.0005 YYXZ=              0.0001 ZZXY=             -5.7153
 N-N= 3.452456276450D+02 E-N=-1.673213660831D+03  KE= 4.176858322325D+02
 1\1\GINC-AJ\SP\UCCSD(T)-FC\6-311++G(d,p)\C5H7O3(2)\AAYUSH\22-Apr-2025\
 0\\# ccsd(t)/6-311++g(d,p) sp\\Title Card Required\\0,2\C,0,2.600759,0
 .366875,-0.000001\H,0,3.642482,0.14556,0.000001\C,0,1.434614,0.652777,
 -0.000003\C,0,0.012879,0.955006,-0.000005\O,0,-0.447491,2.060024,-0.00
 001\O,0,-0.703811,-0.175712,0.\C,0,-2.136385,-0.001046,-0.000001\C,0,-
 2.75576,-1.378495,0.000005\H,0,-2.411887,0.577866,0.883591\H,0,-2.4118
 87,0.577859,-0.883597\H,0,-2.454729,-1.937668,-0.886915\H,0,-2.454729,
 -1.937661,0.88693\H,0,-3.843363,-1.290276,0.000005\O,0,2.325137,-1.965
 738,0.000011\H,0,1.352662,-1.928083,0.00001\\Version=ES64L-G16RevA.03\
 State=2-A\HF=-417.996609\MP2=-419.255375\MP3=-419.2829129\MP4D=-419.31
 37007\MP4DQ=-419.2887199\PUHF=-418.0033155\PMP2-0=-419.261058\PMP3-0=-
 419.2869416\MP4SDQ=-419.3070865\CCSD=-419.3070546\CCSD(T)=-419.3590502
 \S2=0.814439\S2-1=0.794253\S2A=0.752854\RMSD=4.034e-09\PG=C01 [X(C5H7O
 3)]\\@


 TIME IS IN FACT THE HERO OF THE PLOT. THE TIME
 WITH WHICH WE HAVE TO DEAL IS OF THE ORDER OF TWO
 BILLION YEARS...GIVEN SO MUCH TIME, THE "IMPOSSIBLE"
 BECOMES POSSIBLE, THE POSSIBLE PROBABLE, THE PROBABLE
 VIRTUALLY CERTAIN.  ONE HAS ONLY TO WAIT, TIME
 ITSELF PERFORMS THE MIRACLES.
 "ORIGIN OF LIFE" LECTURES, GEORGE WALD, 1954
 Job cpu time:       0 days 16 hours 34 minutes 11.5 seconds.
 Elapsed time:       0 days  0 hours 41 minutes 40.7 seconds.
 File lengths (MBytes):  RWF=  44258 Int=      0 D2E=      0 Chk=      6 Scr=      1
 Normal termination of Gaussian 16 at Tue Apr 22 13:12:03 2025.
