 Entering Link 1 = C:\G09W\l1.exe PID=     21536.
  
 Copyright (c) 1988,1990,1992,1993,1995,1998,2003,2009,2013,
            Gaussian, Inc.  All Rights Reserved.
  
 This is part of the Gaussian(R) 09 program.  It is based on
 the Gaussian(R) 03 system (copyright 2003, Gaussian, Inc.),
 the Gaussian(R) 98 system (copyright 1998, Gaussian, Inc.),
 the Gaussian(R) 94 system (copyright 1995, Gaussian, Inc.),
 the Gaussian 92(TM) system (copyright 1992, Gaussian, Inc.),
 the Gaussian 90(TM) system (copyright 1990, Gaussian, Inc.),
 the Gaussian 88(TM) system (copyright 1988, Gaussian, Inc.),
 the Gaussian 86(TM) system (copyright 1986, Carnegie Mellon
 University), and the Gaussian 82(TM) system (copyright 1983,
 Carnegie Mellon University). Gaussian is a federally registered
 trademark of Gaussian, Inc.
  
 This software contains proprietary and confidential information,
 including trade secrets, belonging to Gaussian, Inc.
  
 This software is provided under written license and may be
 used, copied, transmitted, or stored only in accord with that
 written license.
  
 The following legend is applicable only to US Government
 contracts under FAR:
  
                    RESTRICTED RIGHTS LEGEND
  
 Use, reproduction and disclosure by the US Government is
 subject to restrictions as set forth in subparagraphs (a)
 and (c) of the Commercial Computer Software - Restricted
 Rights clause in FAR 52.227-19.
  
 Gaussian, Inc.
 340 Quinnipiac St., Bldg. 40, Wallingford CT 06492
  
  
 ---------------------------------------------------------------
 Warning -- This program may not be used in any manner that
 competes with the business of Gaussian, Inc. or will provide
 assistance to any competitor of Gaussian, Inc.  The licensee
 of this program is prohibited from giving any competitor of
 Gaussian, Inc. access to this program.  By using this program,
 the user acknowledges that Gaussian, Inc. is engaged in the
 business of creating and licensing software in the field of
 computational chemistry and represents and warrants to the
 licensee that it is not a competitor of Gaussian, Inc. and that
 it will not use this program in any manner prohibited above.
 ---------------------------------------------------------------
  

 Cite this work as:
 Gaussian 09, Revision D.01,
 M. J. Frisch, G. W. Trucks, H. B. Schlegel, G. E. Scuseria, 
 M. A. Robb, J. R. Cheeseman, G. Scalmani, V. Barone, B. Mennucci, 
 G. A. Petersson, H. Nakatsuji, M. Caricato, X. Li, H. P. Hratchian, 
 A. F. Izmaylov, J. Bloino, G. Zheng, J. L. Sonnenberg, M. Hada, 
 M. Ehara, K. Toyota, R. Fukuda, J. Hasegawa, M. Ishida, T. Nakajima, 
 Y. Honda, O. Kitao, H. Nakai, T. Vreven, J. A. Montgomery, Jr., 
 J. E. Peralta, F. Ogliaro, M. Bearpark, J. J. Heyd, E. Brothers, 
 K. N. Kudin, V. N. Staroverov, T. Keith, R. Kobayashi, J. Normand, 
 K. Raghavachari, A. Rendell, J. C. Burant, S. S. Iyengar, J. Tomasi, 
 M. Cossi, N. Rega, J. M. Millam, M. Klene, J. E. Knox, J. B. Cross, 
 V. Bakken, C. Adamo, J. Jaramillo, R. Gomperts, R. E. Stratmann, 
 O. Yazyev, A. J. Austin, R. Cammi, C. Pomelli, J. W. Ochterski, 
 R. L. Martin, K. Morokuma, V. G. Zakrzewski, G. A. Voth, 
 P. Salvador, J. J. Dannenberg, S. Dapprich, A. D. Daniels, 
 O. Farkas, J. B. Foresman, J. V. Ortiz, J. Cioslowski, 
 and D. J. Fox, Gaussian, Inc., Wallingford CT, 2013.
 
 ******************************************
 Gaussian 09:  IA32W-G09RevD.01 24-Apr-2013
                10-Mar-2025 
 ******************************************
 %chk=h2Oproduct_ccsdt.chk
 --------------------------
 # ccsd(t)/6-311++g(d,p) sp
 --------------------------
 1/38=1/1;
 2/12=2,17=6,18=5,40=1/2;
 3/5=4,6=6,7=1111,11=9,16=1,25=1,30=1/1,2,3;
 4//1;
 5/5=2,38=5/2;
 8/6=4,9=120000,10=2/1,4;
 9/5=7,14=2/13;
 6/7=2,8=2,9=2,10=2/1;
 99/5=1,9=1/99;
 -------------------
 Title Card Required
 -------------------
 Symbolic Z-matrix:
 Charge =  0 Multiplicity = 1
 O                     0.        0.        0.1166 
 H                     0.        0.76167  -0.46639 
 H                     0.       -0.76167  -0.46639 
 
                          Input orientation:                          
 ---------------------------------------------------------------------
 Center     Atomic      Atomic             Coordinates (Angstroms)
 Number     Number       Type             X           Y           Z
 ---------------------------------------------------------------------
      1          8           0        0.000000    0.000000    0.116598
      2          1           0        0.000000    0.761666   -0.466391
      3          1           0        0.000000   -0.761666   -0.466391
 ---------------------------------------------------------------------
                    Distance matrix (angstroms):
                    1          2          3
     1  O    0.000000
     2  H    0.959172   0.000000
     3  H    0.959172   1.523332   0.000000
 Stoichiometry    H2O
 Framework group  C2V[C2(O),SGV(H2)]
 Deg. of freedom     2
 Full point group                 C2V     NOp   4
 Largest Abelian subgroup         C2V     NOp   4
 Largest concise Abelian subgroup C2      NOp   2
                         Standard orientation:                         
 ---------------------------------------------------------------------
 Center     Atomic      Atomic             Coordinates (Angstroms)
 Number     Number       Type             X           Y           Z
 ---------------------------------------------------------------------
      1          8           0        0.000000    0.000000    0.116598
      2          1           0        0.000000    0.761666   -0.466391
      3          1           0        0.000000   -0.761666   -0.466391
 ---------------------------------------------------------------------
 Rotational constants (GHZ):    830.6665834    432.1882128    284.2799562
 Standard basis: 6-311++G(d,p) (5D, 7F)
 There are    18 symmetry adapted cartesian basis functions of A1  symmetry.
 There are     2 symmetry adapted cartesian basis functions of A2  symmetry.
 There are     6 symmetry adapted cartesian basis functions of B1  symmetry.
 There are    11 symmetry adapted cartesian basis functions of B2  symmetry.
 There are    17 symmetry adapted basis functions of A1  symmetry.
 There are     2 symmetry adapted basis functions of A2  symmetry.
 There are     6 symmetry adapted basis functions of B1  symmetry.
 There are    11 symmetry adapted basis functions of B2  symmetry.
    36 basis functions,    54 primitive gaussians,    37 cartesian basis functions
     5 alpha electrons        5 beta electrons
       nuclear repulsion energy         9.1746133852 Hartrees.
 NAtoms=    3 NActive=    3 NUniq=    2 SFac= 2.25D+00 NAtFMM=   60 NAOKFM=F Big=F
 Integral buffers will be    262144 words long.
 Raffenetti 1 integral format.
 Two-electron integral symmetry is turned on.
 One-electron integrals computed using PRISM.
 NBasis=    36 RedAO= T EigKep=  4.98D-03  NBF=    17     2     6    11
 NBsUse=    36 1.00D-06 EigRej= -1.00D+00 NBFU=    17     2     6    11
 ExpMin= 3.60D-02 ExpMax= 8.59D+03 ExpMxC= 1.30D+03 IAcc=3 IRadAn=         5 AccDes= 0.00D+00
 Harris functional with IExCor=  205 and IRadAn=       5 diagonalized for initial guess.
 HarFok:  IExCor=  205 AccDes= 0.00D+00 IRadAn=         5 IDoV= 1 UseB2=F ITyADJ=14
 ICtDFT=  3500011 ScaDFX=  1.000000  1.000000  1.000000  1.000000
 FoFCou: FMM=F IPFlag=           0 FMFlag=      100000 FMFlg1=           0
         NFxFlg=           0 DoJE=T BraDBF=F KetDBF=T FulRan=T
         wScrn=  0.000000 ICntrl=     500 IOpCl=  0 I1Cent=   200000004 NGrid=           0
         NMat0=    1 NMatS0=      1 NMatT0=    0 NMatD0=    1 NMtDS0=    0 NMtDT0=    0
 Petite list used in FoFCou.
 Initial guess orbital symmetries:
       Occupied  (A1) (A1) (B2) (A1) (B1)
       Virtual   (A1) (B2) (A1) (B1) (B2) (A1) (B2) (A1) (B2) (A1)
                 (A1) (B1) (B2) (A1) (A2) (A1) (B1) (B2) (B2) (A1)
                 (A1) (B2) (B1) (A2) (A1) (A1) (B2) (B1) (A1) (B2)
                 (A1)
 The electronic state of the initial guess is 1-A1.
 Keep R1 ints in memory in symmetry-blocked form, NReq=1075865.
 Requested convergence on RMS density matrix=1.00D-08 within 128 cycles.
 Requested convergence on MAX density matrix=1.00D-06.
 Requested convergence on             energy=1.00D-06.
 No special actions if energy rises.
 SCF Done:  E(RHF) =  -76.0527348872     A.U. after   11 cycles
            NFock= 11  Conv=0.28D-08     -V/T= 2.0009
 ExpMin= 3.60D-02 ExpMax= 8.59D+03 ExpMxC= 1.30D+03 IAcc=3 IRadAn=         5 AccDes= 0.00D+00
 HarFok:  IExCor=  205 AccDes= 0.00D+00 IRadAn=         5 IDoV=-2 UseB2=F ITyADJ=14
 ICtDFT= 12500011 ScaDFX=  1.000000  1.000000  1.000000  1.000000
 Range of M.O.s used for correlation:     2    36
 NBasis=    36 NAE=     5 NBE=     5 NFC=     1 NFV=     0
 NROrb=     35 NOA=     4 NOB=     4 NVA=    31 NVB=    31
 Semi-Direct transformation.
 ModeAB=           4 MOrb=             4 LenV=      33389488
 LASXX=        20624 LTotXX=       20624 LenRXX=       43522
 LTotAB=       22898 MaxLAS=       75320 LenRXY=           0
 NonZer=       64146 LenScr=     1048064 LnRSAI=       75320
 LnScr1=     1048064 LExtra=           0 Total=      2214970
 MaxDsk=          -1 SrtSym=           T ITran=            4
 JobTyp=0 Pass  1:  I=   1 to   4.
 (rs|ai) integrals will be sorted in core.
 Spin components of T(2) and E(2):
     alpha-alpha T2 =       0.7039653629D-02 E2=     -0.2807147335D-01
     alpha-beta  T2 =       0.4128089114D-01 E2=     -0.1659773041D+00
     beta-beta   T2 =       0.7039653629D-02 E2=     -0.2807147335D-01
 ANorm=    0.1027307256D+01
 E2 =    -0.2221202508D+00 EUMP2 =    -0.76274855138033D+02
 Keep R2 and R3 ints in memory in symmetry-blocked form, NReq=1044553.
 Iterations=  50 Convergence= 0.100D-06
 Iteration Nr.   1
 **********************
 DD1Dir will call FoFMem   1 times, MxPair=        20
 NAB=    10 NAA=     0 NBB=     0.
 MP4(R+Q)=  0.20494757D-02
 E3=       -0.26446846D-02        EUMP3=      -0.76277499823D+02
 E4(DQ)=   -0.20111419D-02        UMP4(DQ)=   -0.76279510965D+02
 E4(SDQ)=  -0.38630799D-02        UMP4(SDQ)=  -0.76281362903D+02
 DE(Corr)= -0.22267643     E(Corr)=     -76.275411322    
 NORM(A)=   0.10278596D+01
 Iteration Nr.   2
 **********************
 DD1Dir will call FoFMem   1 times, MxPair=        20
 NAB=    10 NAA=     0 NBB=     0.
 DE(Corr)= -0.22743537     E(CORR)=     -76.280170255     Delta=-4.76D-03
 NORM(A)=   0.10300173D+01
 Iteration Nr.   3
 **********************
 DD1Dir will call FoFMem   1 times, MxPair=        20
 NAB=    10 NAA=     0 NBB=     0.
 DE(Corr)= -0.22806273     E(CORR)=     -76.280797622     Delta=-6.27D-04
 NORM(A)=   0.10304858D+01
 Iteration Nr.   4
 **********************
 DD1Dir will call FoFMem   1 times, MxPair=        20
 NAB=    10 NAA=     0 NBB=     0.
 DE(Corr)= -0.22845084     E(CORR)=     -76.281185724     Delta=-3.88D-04
 NORM(A)=   0.10305724D+01
 Iteration Nr.   5
 **********************
 DD1Dir will call FoFMem   1 times, MxPair=        20
 NAB=    10 NAA=     0 NBB=     0.
 DE(Corr)= -0.22847657     E(CORR)=     -76.281211457     Delta=-2.57D-05
 NORM(A)=   0.10305885D+01
 Iteration Nr.   6
 **********************
 DD1Dir will call FoFMem   1 times, MxPair=        20
 NAB=    10 NAA=     0 NBB=     0.
 DE(Corr)= -0.22847906     E(CORR)=     -76.281213944     Delta=-2.49D-06
 NORM(A)=   0.10305891D+01
 Iteration Nr.   7
 **********************
 DD1Dir will call FoFMem   1 times, MxPair=        20
 NAB=    10 NAA=     0 NBB=     0.
 DE(Corr)= -0.22847894     E(CORR)=     -76.281213830     Delta= 1.14D-07
 NORM(A)=   0.10305896D+01
 Iteration Nr.   8
 **********************
 DD1Dir will call FoFMem   1 times, MxPair=        20
 NAB=    10 NAA=     0 NBB=     0.
 DE(Corr)= -0.22847871     E(CORR)=     -76.281213601     Delta= 2.29D-07
 NORM(A)=   0.10305899D+01
 Iteration Nr.   9
 **********************
 DD1Dir will call FoFMem   1 times, MxPair=        20
 NAB=    10 NAA=     0 NBB=     0.
 DE(Corr)= -0.22847877     E(CORR)=     -76.281213655     Delta=-5.34D-08
 NORM(A)=   0.10305900D+01
 Largest amplitude= 3.60D-02
 Time for triples=        0.00 seconds.
 T4(CCSD)= -0.56241488D-02
 T5(CCSD)=  0.29675638D-03
 CCSD(T)= -0.76286541047D+02
 Discarding MO integrals.

 **********************************************************************

            Population analysis using the SCF density.

 **********************************************************************

 Orbital symmetries:
       Occupied  (A1) (A1) (B2) (A1) (B1)
       Virtual   (A1) (B2) (A1) (B1) (A1) (B2) (B2) (A1) (B2) (A1)
                 (A1) (B1) (B2) (A1) (A2) (A1) (B1) (B2) (B2) (A1)
                 (A1) (B2) (B1) (A2) (A1) (A1) (B2) (B1) (A1) (B2)
                 (A1)
 The electronic state is 1-A1.
 Alpha  occ. eigenvalues --  -20.56667  -1.35409  -0.72076  -0.58263  -0.50978
 Alpha virt. eigenvalues --    0.04312   0.07217   0.24176   0.24553   0.24814
 Alpha virt. eigenvalues --    0.26010   0.31872   0.32370   0.68382   0.73434
 Alpha virt. eigenvalues --    1.19991   1.24413   1.24626   1.47297   1.50287
 Alpha virt. eigenvalues --    1.61385   1.71733   1.92739   2.30575   2.45325
 Alpha virt. eigenvalues --    2.71172   2.87493   3.47980   3.53681   3.70894
 Alpha virt. eigenvalues --    4.08865   4.32756   5.48970   5.87148   6.19998
 Alpha virt. eigenvalues --   51.56904
          Condensed to atoms (all electrons):
               1          2          3
     1  O    7.845325   0.334548   0.334548
     2  H    0.334548   0.433206  -0.024963
     3  H    0.334548  -0.024963   0.433206
 Mulliken charges:
               1
     1  O   -0.514420
     2  H    0.257210
     3  H    0.257210
 Sum of Mulliken charges =   0.00000
 Mulliken charges with hydrogens summed into heavy atoms:
               1
     1  O    0.000000
 Electronic spatial extent (au):  <R**2>=             19.5391
 Charge=              0.0000 electrons
 Dipole moment (field-independent basis, Debye):
    X=              0.0000    Y=              0.0000    Z=             -2.2316  Tot=              2.2316
 Quadrupole moment (field-independent basis, Debye-Ang):
   XX=             -7.5654   YY=             -4.2181   ZZ=             -6.3123
   XY=              0.0000   XZ=              0.0000   YZ=              0.0000
 Traceless Quadrupole moment (field-independent basis, Debye-Ang):
   XX=             -1.5335   YY=              1.8139   ZZ=             -0.2804
   XY=              0.0000   XZ=              0.0000   YZ=              0.0000
 Octapole moment (field-independent basis, Debye-Ang**2):
  XXX=              0.0000  YYY=              0.0000  ZZZ=             -1.5489  XYY=              0.0000
  XXY=              0.0000  XXZ=             -0.4365  XZZ=              0.0000  YZZ=              0.0000
  YYZ=             -1.4445  XYZ=              0.0000
 Hexadecapole moment (field-independent basis, Debye-Ang**3):
 XXXX=             -6.6624 YYYY=             -5.9033 ZZZZ=             -7.2622 XXXY=              0.0000
 XXXZ=              0.0000 YYYX=              0.0000 YYYZ=              0.0000 ZZZX=              0.0000
 ZZZY=              0.0000 XXYY=             -2.4076 XXZZ=             -2.3775 YYZZ=             -1.8472
 XXYZ=              0.0000 YYXZ=              0.0000 ZZXY=              0.0000
 N-N= 9.174613385224D+00 E-N=-1.989681344507D+02  KE= 7.598128960697D+01
 Symmetry A1   KE= 6.793964060164D+01
 Symmetry A2   KE= 9.095383963707D-35
 Symmetry B1   KE= 4.479731446034D+00
 Symmetry B2   KE= 3.561917559289D+00
 1|1|UNPC-DIT|SP|RCCSD(T)-FC|6-311++G(d,p)|H2O1|NDITM|10-Mar-2025|0||# 
 ccsd(t)/6-311++g(d,p) sp||Title Card Required||0,1|O,0,0.,0.,0.116598|
 H,0,0.,0.761666,-0.466391|H,0,0.,-0.761666,-0.466391||Version=IA32W-G0
 9RevD.01|State=1-A1|HF=-76.0527349|MP2=-76.2748551|MP3=-76.2774998|MP4
 D=-76.2815604|MP4DQ=-76.279511|MP4SDQ=-76.2813629|CCSD=-76.2812137|CCS
 D(T)=-76.286541|RMSD=2.819e-009|PG=C02V [C2(O1),SGV(H2)]||@


 REPARTEE - WHAT YOU THINK OF AFTER YOU BECOME A DEPARTEE.
 Job cpu time:       0 days  0 hours  0 minutes  2.0 seconds.
 File lengths (MBytes):  RWF=     23 Int=      0 D2E=      0 Chk=      1 Scr=      1
 Normal termination of Gaussian 09 at Mon Mar 10 09:36:59 2025.
