 Entering Gaussian System, Link 0=g16
 Initial command:
 /opt/g16/l1.exe "/home/aayush/scratches/g16/Gau-7591.inp" -scrdir="/home/aayush/scratches/g16/"
 Entering Link 1 = /opt/g16/l1.exe PID=      7594.
  
 Copyright (c) 1988,1990,1992,1993,1995,1998,2003,2009,2016,
            Gaussian, Inc.  All Rights Reserved.
  
 This is part of the Gaussian(R) 16 program.  It is based on
 the Gaussian(R) 09 system (copyright 2009, Gaussian, Inc.),
 the Gaussian(R) 03 system (copyright 2003, Gaussian, Inc.),
 the Gaussian(R) 98 system (copyright 1998, Gaussian, Inc.),
 the Gaussian(R) 94 system (copyright 1995, Gaussian, Inc.),
 the Gaussian 92(TM) system (copyright 1992, Gaussian, Inc.),
 the Gaussian 90(TM) system (copyright 1990, Gaussian, Inc.),
 the Gaussian 88(TM) system (copyright 1988, Gaussian, Inc.),
 the Gaussian 86(TM) system (copyright 1986, Carnegie Mellon
 University), and the Gaussian 82(TM) system (copyright 1983,
 Carnegie Mellon University). Gaussian is a federally registered
 trademark of Gaussian, Inc.
  
 This software contains proprietary and confidential information,
 including trade secrets, belonging to Gaussian, Inc.
  
 This software is provided under written license and may be
 used, copied, transmitted, or stored only in accord with that
 written license.
  
 The following legend is applicable only to US Government
 contracts under FAR:
  
                    RESTRICTED RIGHTS LEGEND
  
 Use, reproduction and disclosure by the US Government is
 subject to restrictions as set forth in subparagraphs (a)
 and (c) of the Commercial Computer Software - Restricted
 Rights clause in FAR 52.227-19.
  
 Gaussian, Inc.
 340 Quinnipiac St., Bldg. 40, Wallingford CT 06492
  
  
 ---------------------------------------------------------------
 Warning -- This program may not be used in any manner that
 competes with the business of Gaussian, Inc. or will provide
 assistance to any competitor of Gaussian, Inc.  The licensee
 of this program is prohibited from giving any competitor of
 Gaussian, Inc. access to this program.  By using this program,
 the user acknowledges that Gaussian, Inc. is engaged in the
 business of creating and licensing software in the field of
 computational chemistry and represents and warrants to the
 licensee that it is not a competitor of Gaussian, Inc. and that
 it will not use this program in any manner prohibited above.
 ---------------------------------------------------------------
  

 Cite this work as:
 Gaussian 16, Revision A.03,
 M. J. Frisch, G. W. Trucks, H. B. Schlegel, G. E. Scuseria, 
 M. A. Robb, J. R. Cheeseman, G. Scalmani, V. Barone, 
 G. A. Petersson, H. Nakatsuji, X. Li, M. Caricato, A. V. Marenich, 
 J. Bloino, B. G. Janesko, R. Gomperts, B. Mennucci, H. P. Hratchian, 
 J. V. Ortiz, A. F. Izmaylov, J. L. Sonnenberg, D. Williams-Young, 
 F. Ding, F. Lipparini, F. Egidi, J. Goings, B. Peng, A. Petrone, 
 T. Henderson, D. Ranasinghe, V. G. Zakrzewski, J. Gao, N. Rega, 
 G. Zheng, W. Liang, M. Hada, M. Ehara, K. Toyota, R. Fukuda, 
 J. Hasegawa, M. Ishida, T. Nakajima, Y. Honda, O. Kitao, H. Nakai, 
 T. Vreven, K. Throssell, J. A. Montgomery, Jr., J. E. Peralta, 
 F. Ogliaro, M. J. Bearpark, J. J. Heyd, E. N. Brothers, K. N. Kudin, 
 V. N. Staroverov, T. A. Keith, R. Kobayashi, J. Normand, 
 K. Raghavachari, A. P. Rendell, J. C. Burant, S. S. Iyengar, 
 J. Tomasi, M. Cossi, J. M. Millam, M. Klene, C. Adamo, R. Cammi, 
 J. W. Ochterski, R. L. Martin, K. Morokuma, O. Farkas, 
 J. B. Foresman, and D. J. Fox, Gaussian, Inc., Wallingford CT, 2016.
 
 ******************************************
 Gaussian 16:  ES64L-G16RevA.03 25-Dec-2016
                 3-May-2025 
 ******************************************
 %chk=ethyl_propiolate.chk
 %nprocshared=24
 Will use up to   24 processors via shared memory.
 %mem=12GB
 --------------------------
 # ccsd(t)/6-311++g(d,p) sp
 --------------------------
 1/38=1,172=1/1;
 2/12=2,17=6,18=5,40=1/2;
 3/5=4,6=6,7=1111,11=9,25=1,30=1/1,2,3;
 4//1;
 5/5=2,38=5/2;
 8/6=4,9=120000,10=2/1,4;
 9/5=7,14=2/13;
 6/7=2,8=2,9=2,10=2/1;
 99/5=1,9=1/99;
 -------------------
 Title Card Required
 -------------------
 Symbolic Z-matrix:
 Charge =  0 Multiplicity = 2
 C                     1.26173   2.24939  -0.05944 
 H                     1.18662   3.31179  -0.07394 
 C                     1.35335   1.05396  -0.04256 
 C                     1.54541  -0.39851   0.00713 
 O                     2.59672  -0.88295   0.29979 
 O                     0.49106  -1.16105  -0.30431 
 C                    -0.79435  -0.57228  -0.55959 
 C                    -1.49302  -0.26443   0.74348 
 H                    -0.68432   0.31937  -1.1793 
 H                    -1.33132  -1.3273   -1.13088 
 H                    -1.6416   -1.16206   1.34388 
 H                    -0.96782   0.49463   1.32557 
 H                    -2.47507   0.18915   0.50776 
 O                    -3.84788   0.39563  -0.13509 
 H                    -4.32213  -0.2905    0.36453 
 
                          Input orientation:                          
 ---------------------------------------------------------------------
 Center     Atomic      Atomic             Coordinates (Angstroms)
 Number     Number       Type             X           Y           Z
 ---------------------------------------------------------------------
      1          6           0        1.261733    2.249387   -0.059441
      2          1           0        1.186618    3.311787   -0.073939
      3          6           0        1.353351    1.053963   -0.042564
      4          6           0        1.545409   -0.398506    0.007134
      5          8           0        2.596716   -0.882946    0.299789
      6          8           0        0.491056   -1.161047   -0.304314
      7          6           0       -0.794346   -0.572278   -0.559593
      8          6           0       -1.493020   -0.264431    0.743476
      9          1           0       -0.684324    0.319366   -1.179302
     10          1           0       -1.331322   -1.327301   -1.130879
     11          1           0       -1.641595   -1.162055    1.343884
     12          1           0       -0.967818    0.494630    1.325569
     13          1           0       -2.475074    0.189152    0.507761
     14          8           0       -3.847883    0.395626   -0.135085
     15          1           0       -4.322130   -0.290501    0.364526
 ---------------------------------------------------------------------
                    Distance matrix (angstroms):
                    1          2          3          4          5
     1  C    0.000000
     2  H    1.065151   0.000000
     3  C    1.199048   2.264189   0.000000
     4  C    2.663877   3.728482   1.465954   0.000000
     5  O    3.423848   4.441152   2.326968   1.193975   0.000000
     6  O    3.504992   4.532452   2.391304   1.337957   2.208186
     7  C    3.526954   4.387031   2.743097   2.413676   3.512030
     8  C    3.814790   4.542902   3.233860   3.129253   4.159971
     9  H    2.960778   3.698220   2.446206   2.625772   3.794534
    10  H    4.545834   5.383148   3.749976   3.230064   4.204015
    11  H    4.694313   5.479441   3.975258   3.539336   4.373936
    12  H    3.157265   3.812688   2.751812   2.975277   3.956747
    13  H    4.304650   4.847392   3.963281   4.093929   5.188034
    14  O    5.436021   5.818413   5.243549   5.453299   6.584582
    15  H    6.149008   6.596593   5.846742   5.879405   6.944466
                    6          7          8          9         10
     6  O    0.000000
     7  C    1.436689   0.000000
     8  C    2.416266   1.510266   0.000000
     9  H    2.082965   1.091409   2.166076   0.000000
    10  H    2.007962   1.088472   2.160797   1.769877   0.000000
    11  H    2.695321   2.165385   1.090089   3.078546   2.499605
    12  H    2.743374   2.173067   1.091258   2.526948   3.079887
    13  H    3.358635   2.131635   1.107127   2.463721   2.508573
    14  O    4.612837   3.231274   2.598639   3.332313   3.208296
    15  H    4.936796   3.657684   2.854496   3.998622   3.500875
                   11         12         13         14         15
    11  H    0.000000
    12  H    1.788551   0.000000
    13  H    1.794310   1.741823   0.000000
    14  O    3.079192   3.230803   1.529865   0.000000
    15  H    2.983960   3.576513   1.913687   0.972261   0.000000
 Stoichiometry    C5H7O3(2)
 Framework group  C1[X(C5H7O3)]
 Deg. of freedom    39
 Full point group                 C1      NOp   1
 Largest Abelian subgroup         C1      NOp   1
 Largest concise Abelian subgroup C1      NOp   1
                         Standard orientation:                         
 ---------------------------------------------------------------------
 Center     Atomic      Atomic             Coordinates (Angstroms)
 Number     Number       Type             X           Y           Z
 ---------------------------------------------------------------------
      1          6           0        1.340786    2.239544   -0.067121
      2          1           0        1.263715    3.301830   -0.079568
      3          6           0        1.434606    1.044260   -0.052563
      4          6           0        1.629389   -0.407944   -0.005822
      5          8           0        2.682076   -0.890996    0.284156
      6          8           0        0.575891   -1.171840   -0.316842
      7          6           0       -0.711015   -0.584952   -0.568854
      8          6           0       -1.408011   -0.280732    0.735964
      9          1           0       -0.603678    0.308008   -1.187137
     10          1           0       -1.247597   -1.339919   -1.140585
     11          1           0       -1.553923   -1.179708    1.335001
     12          1           0       -0.883191    0.478232    1.318529
     13          1           0       -2.391291    0.171487    0.502752
     14          8           0       -3.765574    0.376621   -0.137367
     15          1           0       -4.237715   -0.311269    0.361813
 ---------------------------------------------------------------------
 Rotational constants (GHZ):           3.3245499           0.9997964           0.8192216
 Standard basis: 6-311++G(d,p) (5D, 7F)
 There are   233 symmetry adapted cartesian basis functions of A   symmetry.
 There are   225 symmetry adapted basis functions of A   symmetry.
   225 basis functions,   351 primitive gaussians,   233 cartesian basis functions
    31 alpha electrons       30 beta electrons
       nuclear repulsion energy       343.5164132911 Hartrees.
 NAtoms=   15 NActive=   15 NUniq=   15 SFac= 1.00D+00 NAtFMM=   60 NAOKFM=F Big=F
 Integral buffers will be    131072 words long.
 Raffenetti 2 integral format.
 Two-electron integral symmetry is turned on.
 One-electron integrals computed using PRISM.
 NBasis=   225 RedAO= T EigKep=  1.52D-06  NBF=   225
 NBsUse=   225 1.00D-06 EigRej= -1.00D+00 NBFU=   225
 ExpMin= 3.60D-02 ExpMax= 8.59D+03 ExpMxC= 1.30D+03 IAcc=3 IRadAn=         5 AccDes= 0.00D+00
 Harris functional with IExCor=  205 and IRadAn=       5 diagonalized for initial guess.
 HarFok:  IExCor=  205 AccDes= 0.00D+00 IRadAn=         5 IDoV= 1 UseB2=F ITyADJ=14
 ICtDFT=  3500011 ScaDFX=  1.000000  1.000000  1.000000  1.000000
 FoFCou: FMM=F IPFlag=           0 FMFlag=      100000 FMFlg1=           0
         NFxFlg=           0 DoJE=T BraDBF=F KetDBF=T FulRan=T
         wScrn=  0.000000 ICntrl=       500 IOpCl=  0 I1Cent=   200000004 NGrid=           0
         NMat0=    1 NMatS0=      1 NMatT0=    0 NMatD0=    1 NMtDS0=    0 NMtDT0=    0
 Petite list used in FoFCou.
 Initial guess <Sx>= 0.0000 <Sy>= 0.0000 <Sz>= 0.5000 <S**2>= 0.7500 S= 0.5000
 Requested convergence on RMS density matrix=1.00D-08 within 128 cycles.
 Requested convergence on MAX density matrix=1.00D-06.
 Requested convergence on             energy=1.00D-06.
 No special actions if energy rises.
 Initial convergence to 1.0D-05 achieved.  Increase integral accuracy.
 Restarting incremental Fock formation.
 SCF Done:  E(UHF) =  -417.969263165     A.U. after   36 cycles
            NFock= 36  Conv=0.19D-08     -V/T= 2.0006
 <Sx>= 0.0000 <Sy>= 0.0000 <Sz>= 0.5000 <S**2>= 0.7626 S= 0.5063
 <L.S>=  0.00000000000    
 Annihilation of the first spin contaminant:
 S**2 before annihilation     0.7626,   after     0.7501
 ExpMin= 3.60D-02 ExpMax= 8.59D+03 ExpMxC= 1.30D+03 IAcc=3 IRadAn=         5 AccDes= 0.00D+00
 HarFok:  IExCor=  205 AccDes= 0.00D+00 IRadAn=         5 IDoV=-2 UseB2=F ITyADJ=14
 ICtDFT= 12500011 ScaDFX=  1.000000  1.000000  1.000000  1.000000
 Range of M.O.s used for correlation:     9   225
 NBasis=   225 NAE=    31 NBE=    30 NFC=     8 NFV=     0
 NROrb=    217 NOA=    23 NOB=    22 NVA=   194 NVB=   195

 **** Warning!!: The largest alpha MO coefficient is  0.29481872D+03


 **** Warning!!: The largest beta MO coefficient is  0.30244334D+03

 Semi-Direct transformation.
 ModeAB=           4 MOrb=            23 LenV=    1609175736
 LASXX=    109339976 LTotXX=   109339976 LenRXX=   221407890
 LTotAB=   112067914 MaxLAS=   126581742 LenRXY=           0
 NonZer=   330747866 LenScr=   498067456 LnRSAI=   126581742
 LnScr1=   190640128 LExtra=           0 Total=   1036697216
 MaxDsk=          -1 SrtSym=           T ITran=            4
 JobTyp=1 Pass  1:  I=   1 to  23.
 (rs|ai) integrals will be sorted in core.
 ModeAB=           4 MOrb=            22 LenV=    1609175736
 LASXX=    104936601 LTotXX=   104936601 LenRXX=   190867446
 LTotAB=    85930845 MaxLAS=   121078188 LenRXY=           0
 NonZer=   295804047 LenScr=   445446144 LnRSAI=   121078188
 LnScr1=   182380032 LExtra=           0 Total=    939771810
 MaxDsk=          -1 SrtSym=           T ITran=            4
 JobTyp=2 Pass  1:  I=   1 to  22.
 (rs|ai) integrals will be sorted in core.
 SymMOI:  orbitals are not symmetric.
 Spin components of T(2) and E(2):
     alpha-alpha T2 =       0.5291839195D-01 E2=     -0.1707517107D+00
     alpha-beta  T2 =       0.2909868423D+00 E2=     -0.9427461960D+00
     beta-beta   T2 =       0.5083274972D-01 E2=     -0.1572501537D+00
 ANorm=    0.1180990256D+01
 E2 =    -0.1270748060D+01 EUMP2 =    -0.41924001122591D+03
 (S**2,0)=  0.76258D+00           (S**2,1)=  0.75360D+00
 E(PUHF)=      -0.41797336787D+03        E(PMP2)=      -0.41924265905D+03
 Keep R2 and R3 ints in memory in canonical form, NReq=652884060.
 CIDS: In Core Option IDoMem=           1.
 Iterations=  50 Convergence= 0.100D-06
 Produce multiple copies of IABC intergrals
 Iteration Nr.   1
 **********************
 DD1Dir will call FoFMem   1 times, MxPair=      1496
 NAB=   506 NAA=   253 NBB=   231.
 E(PMP3)=      -0.41926660683D+03
 MP4(R+Q)=  0.25684039D-01
 E3=       -0.24947211D-01        EUMP3=      -0.41926495844D+03
 E4(DQ)=   -0.55672042D-02        UMP4(DQ)=   -0.41927052564D+03
 E4(SDQ)=  -0.24268616D-01        UMP4(SDQ)=  -0.41928922705D+03
 DE(Corr)=  -1.2692353     E(Corr)=     -419.23849845    
 NORM(A)=   0.11860547D+01
 Iteration Nr.   2
 **********************
 DD1Dir will call FoFMem   1 times, MxPair=      1496
 NAB=   506 NAA=   253 NBB=   231.
 DE(Corr)=  -1.3115444     E(CORR)=     -419.28080757     Delta=-4.23D-02
 NORM(A)=   0.12033668D+01
 Iteration Nr.   3
 **********************
 DD1Dir will call FoFMem   1 times, MxPair=      1496
 NAB=   506 NAA=   253 NBB=   231.
 DE(Corr)=  -1.3125996     E(CORR)=     -419.28186272     Delta=-1.06D-03
 NORM(A)=   0.12092357D+01
 Iteration Nr.   4
 **********************
 DD1Dir will call FoFMem   1 times, MxPair=      1496
 NAB=   506 NAA=   253 NBB=   231.
 DE(Corr)=  -1.3173622     E(CORR)=     -419.28662538     Delta=-4.76D-03
 NORM(A)=   0.12115751D+01
 Iteration Nr.   5
 **********************
 DD1Dir will call FoFMem   1 times, MxPair=      1496
 NAB=   506 NAA=   253 NBB=   231.
 DE(Corr)=  -1.3181632     E(CORR)=     -419.28742639     Delta=-8.01D-04
 NORM(A)=   0.12128686D+01
 Iteration Nr.   6
 **********************
 DD1Dir will call FoFMem   1 times, MxPair=      1496
 NAB=   506 NAA=   253 NBB=   231.
 DE(Corr)=  -1.3183791     E(CORR)=     -419.28764230     Delta=-2.16D-04
 NORM(A)=   0.12132006D+01
 Iteration Nr.   7
 **********************
 DD1Dir will call FoFMem   1 times, MxPair=      1496
 NAB=   506 NAA=   253 NBB=   231.
 DE(Corr)=  -1.3184296     E(CORR)=     -419.28769281     Delta=-5.05D-05
 NORM(A)=   0.12132720D+01
 Iteration Nr.   8
 **********************
 DD1Dir will call FoFMem   1 times, MxPair=      1496
 NAB=   506 NAA=   253 NBB=   231.
 DE(Corr)=  -1.3184232     E(CORR)=     -419.28768639     Delta= 6.42D-06
 NORM(A)=   0.12133165D+01
 Iteration Nr.   9
 **********************
 DD1Dir will call FoFMem   1 times, MxPair=      1496
 NAB=   506 NAA=   253 NBB=   231.
 DE(Corr)=  -1.3184258     E(CORR)=     -419.28768897     Delta=-2.57D-06
 NORM(A)=   0.12133276D+01
 Iteration Nr.  10
 **********************
 DD1Dir will call FoFMem   1 times, MxPair=      1496
 NAB=   506 NAA=   253 NBB=   231.
 DE(Corr)=  -1.3184320     E(CORR)=     -419.28769521     Delta=-6.24D-06
 NORM(A)=   0.12133351D+01
 Iteration Nr.  11
 **********************
 DD1Dir will call FoFMem   1 times, MxPair=      1496
 NAB=   506 NAA=   253 NBB=   231.
 DE(Corr)=  -1.3184360     E(CORR)=     -419.28769915     Delta=-3.94D-06
 NORM(A)=   0.12133462D+01
 Iteration Nr.  12
 **********************
 DD1Dir will call FoFMem   1 times, MxPair=      1496
 NAB=   506 NAA=   253 NBB=   231.
 DE(Corr)=  -1.3184406     E(CORR)=     -419.28770376     Delta=-4.61D-06
 NORM(A)=   0.12133558D+01
 Iteration Nr.  13
 **********************
 DD1Dir will call FoFMem   1 times, MxPair=      1496
 NAB=   506 NAA=   253 NBB=   231.
 DE(Corr)=  -1.3184423     E(CORR)=     -419.28770545     Delta=-1.69D-06
 NORM(A)=   0.12133650D+01
 Iteration Nr.  14
 **********************
 DD1Dir will call FoFMem   1 times, MxPair=      1496
 NAB=   506 NAA=   253 NBB=   231.
 DE(Corr)=  -1.3184444     E(CORR)=     -419.28770761     Delta=-2.16D-06
 NORM(A)=   0.12133741D+01
 Iteration Nr.  15
 **********************
 DD1Dir will call FoFMem   1 times, MxPair=      1496
 NAB=   506 NAA=   253 NBB=   231.
 DE(Corr)=  -1.3184447     E(CORR)=     -419.28770790     Delta=-2.83D-07
 NORM(A)=   0.12133803D+01
 Iteration Nr.  16
 **********************
 DD1Dir will call FoFMem   1 times, MxPair=      1496
 NAB=   506 NAA=   253 NBB=   231.
 DE(Corr)=  -1.3184449     E(CORR)=     -419.28770811     Delta=-2.18D-07
 NORM(A)=   0.12133854D+01
 Iteration Nr.  17
 **********************
 DD1Dir will call FoFMem   1 times, MxPair=      1496
 NAB=   506 NAA=   253 NBB=   231.
 DE(Corr)=  -1.3184455     E(CORR)=     -419.28770863     Delta=-5.14D-07
 NORM(A)=   0.12133868D+01
 Iteration Nr.  18
 **********************
 DD1Dir will call FoFMem   1 times, MxPair=      1496
 NAB=   506 NAA=   253 NBB=   231.
 DE(Corr)=  -1.3184453     E(CORR)=     -419.28770844     Delta= 1.88D-07
 NORM(A)=   0.12133873D+01
 Iteration Nr.  19
 **********************
 DD1Dir will call FoFMem   1 times, MxPair=      1496
 NAB=   506 NAA=   253 NBB=   231.
 DE(Corr)=  -1.3184453     E(CORR)=     -419.28770844     Delta= 2.64D-09
 NORM(A)=   0.12133874D+01
 Iteration Nr.  20
 **********************
 DD1Dir will call FoFMem   1 times, MxPair=      1496
 NAB=   506 NAA=   253 NBB=   231.
 DE(Corr)=  -1.3184452     E(CORR)=     -419.28770836     Delta= 7.45D-08
 NORM(A)=   0.12133875D+01
 Wavefunction amplitudes converged. E(Corr)=     -419.28770836    
 Largest amplitude= 3.43D-02
 Time for triples=    38032.28 seconds.
 T4(CCSD)= -0.56733302D-01
 T5(CCSD)=  0.35672243D-02
 CCSD(T)= -0.41934087444D+03

 S**2, projected HF & approx projected MPn energies after annihilation of
 unwanted spin states (see manual for definitions):

 spins       (S**2,0) (S**2,1)    PUHF        PMP2        PMP3        PMP4
 annihilated
 s+1         0.74993  0.75003 -417.973368 -419.242659 -419.266607
 s+1,s+2     0.75000  0.75000 -417.973350 -419.242643 -419.266592
 s+1 to s+3  0.75000  0.75000 -417.973350 -419.242643 -419.266592
 s+1 to s+4  0.75000  0.75000 -417.973350 -419.242643 -419.266593
 s+1 to s+5  0.75000  0.75000 -417.973350
 s+1 to s+6  0.75000  0.75000 -417.973350

 Discarding MO integrals.

 **********************************************************************

            Population analysis using the SCF density.

 **********************************************************************

 Orbital symmetries:
 Alpha Orbitals:
       Occupied  (A) (A) (A) (A) (A) (A) (A) (A) (A) (A) (A) (A)
                 (A) (A) (A) (A) (A) (A) (A) (A) (A) (A) (A) (A)
                 (A) (A) (A) (A) (A) (A) (A)
       Virtual   (A) (A) (A) (A) (A) (A) (A) (A) (A) (A) (A) (A)
                 (A) (A) (A) (A) (A) (A) (A) (A) (A) (A) (A) (A)
                 (A) (A) (A) (A) (A) (A) (A) (A) (A) (A) (A) (A)
                 (A) (A) (A) (A) (A) (A) (A) (A) (A) (A) (A) (A)
                 (A) (A) (A) (A) (A) (A) (A) (A) (A) (A) (A) (A)
                 (A) (A) (A) (A) (A) (A) (A) (A) (A) (A) (A) (A)
                 (A) (A) (A) (A) (A) (A) (A) (A) (A) (A) (A) (A)
                 (A) (A) (A) (A) (A) (A) (A) (A) (A) (A) (A) (A)
                 (A) (A) (A) (A) (A) (A) (A) (A) (A) (A) (A) (A)
                 (A) (A) (A) (A) (A) (A) (A) (A) (A) (A) (A) (A)
                 (A) (A) (A) (A) (A) (A) (A) (A) (A) (A) (A) (A)
                 (A) (A) (A) (A) (A) (A) (A) (A) (A) (A) (A) (A)
                 (A) (A) (A) (A) (A) (A) (A) (A) (A) (A) (A) (A)
                 (A) (A) (A) (A) (A) (A) (A) (A) (A) (A) (A) (A)
                 (A) (A) (A) (A) (A) (A) (A) (A) (A) (A) (A) (A)
                 (A) (A) (A) (A) (A) (A) (A) (A) (A) (A) (A) (A)
                 (A) (A)
 Beta  Orbitals:
       Occupied  (A) (A) (A) (A) (A) (A) (A) (A) (A) (A) (A) (A)
                 (A) (A) (A) (A) (A) (A) (A) (A) (A) (A) (A) (A)
                 (A) (A) (A) (A) (A) (A)
       Virtual   (A) (A) (A) (A) (A) (A) (A) (A) (A) (A) (A) (A)
                 (A) (A) (A) (A) (A) (A) (A) (A) (A) (A) (A) (A)
                 (A) (A) (A) (A) (A) (A) (A) (A) (A) (A) (A) (A)
                 (A) (A) (A) (A) (A) (A) (A) (A) (A) (A) (A) (A)
                 (A) (A) (A) (A) (A) (A) (A) (A) (A) (A) (A) (A)
                 (A) (A) (A) (A) (A) (A) (A) (A) (A) (A) (A) (A)
                 (A) (A) (A) (A) (A) (A) (A) (A) (A) (A) (A) (A)
                 (A) (A) (A) (A) (A) (A) (A) (A) (A) (A) (A) (A)
                 (A) (A) (A) (A) (A) (A) (A) (A) (A) (A) (A) (A)
                 (A) (A) (A) (A) (A) (A) (A) (A) (A) (A) (A) (A)
                 (A) (A) (A) (A) (A) (A) (A) (A) (A) (A) (A) (A)
                 (A) (A) (A) (A) (A) (A) (A) (A) (A) (A) (A) (A)
                 (A) (A) (A) (A) (A) (A) (A) (A) (A) (A) (A) (A)
                 (A) (A) (A) (A) (A) (A) (A) (A) (A) (A) (A) (A)
                 (A) (A) (A) (A) (A) (A) (A) (A) (A) (A) (A) (A)
                 (A) (A) (A) (A) (A) (A) (A) (A) (A) (A) (A) (A)
                 (A) (A) (A)
 The electronic state is 2-A.
 Alpha  occ. eigenvalues --  -20.65534 -20.60978 -20.55508 -11.41472 -11.30354
 Alpha  occ. eigenvalues --  -11.27366 -11.26670 -11.23353  -1.47565  -1.41572
 Alpha  occ. eigenvalues --   -1.38139  -1.07481  -1.05501  -0.92001  -0.87633
 Alpha  occ. eigenvalues --   -0.75640  -0.73539  -0.72582  -0.69908  -0.69242
 Alpha  occ. eigenvalues --   -0.65931  -0.63318  -0.58285  -0.57794  -0.55817
 Alpha  occ. eigenvalues --   -0.52133  -0.50817  -0.47782  -0.46312  -0.43048
 Alpha  occ. eigenvalues --   -0.42853
 Alpha virt. eigenvalues --    0.03156   0.03804   0.05603   0.06573   0.07176
 Alpha virt. eigenvalues --    0.07995   0.09116   0.09577   0.11490   0.12173
 Alpha virt. eigenvalues --    0.12968   0.13578   0.14826   0.15390   0.16416
 Alpha virt. eigenvalues --    0.16450   0.16914   0.17605   0.18897   0.19613
 Alpha virt. eigenvalues --    0.20107   0.20833   0.21345   0.22287   0.22826
 Alpha virt. eigenvalues --    0.23284   0.24302   0.26303   0.26707   0.27950
 Alpha virt. eigenvalues --    0.30352   0.31079   0.31406   0.31610   0.33498
 Alpha virt. eigenvalues --    0.34839   0.35151   0.36254   0.37090   0.38512
 Alpha virt. eigenvalues --    0.39548   0.40978   0.41688   0.42074   0.42163
 Alpha virt. eigenvalues --    0.44368   0.45846   0.46553   0.47273   0.48106
 Alpha virt. eigenvalues --    0.51086   0.53054   0.58382   0.59696   0.61354
 Alpha virt. eigenvalues --    0.62925   0.65080   0.66346   0.69223   0.71267
 Alpha virt. eigenvalues --    0.73702   0.76880   0.78126   0.78938   0.83070
 Alpha virt. eigenvalues --    0.85425   0.85682   0.86031   0.87357   0.88724
 Alpha virt. eigenvalues --    0.89838   0.91658   0.94299   0.95134   0.99987
 Alpha virt. eigenvalues --    1.02629   1.04572   1.10051   1.16496   1.18407
 Alpha virt. eigenvalues --    1.22685   1.23779   1.26700   1.27790   1.29058
 Alpha virt. eigenvalues --    1.29331   1.31250   1.37076   1.38702   1.40862
 Alpha virt. eigenvalues --    1.41356   1.44252   1.47055   1.49330   1.49701
 Alpha virt. eigenvalues --    1.53140   1.54111   1.55855   1.58284   1.58964
 Alpha virt. eigenvalues --    1.62050   1.64102   1.68600   1.70151   1.76811
 Alpha virt. eigenvalues --    1.81074   1.81632   1.84500   1.86493   1.88234
 Alpha virt. eigenvalues --    1.90078   1.93117   1.93693   1.97929   1.99914
 Alpha virt. eigenvalues --    2.01276   2.04232   2.06659   2.08536   2.12208
 Alpha virt. eigenvalues --    2.17851   2.19890   2.25861   2.28735   2.30041
 Alpha virt. eigenvalues --    2.33571   2.37893   2.42575   2.47374   2.58077
 Alpha virt. eigenvalues --    2.62921   2.70148   2.72974   2.77005   2.79658
 Alpha virt. eigenvalues --    2.83430   2.86856   2.88128   2.91842   2.93177
 Alpha virt. eigenvalues --    2.96900   2.98446   3.00051   3.04447   3.05870
 Alpha virt. eigenvalues --    3.09738   3.13868   3.14691   3.16571   3.23089
 Alpha virt. eigenvalues --    3.26587   3.29957   3.34288   3.36678   3.40586
 Alpha virt. eigenvalues --    3.41125   3.43185   3.44752   3.46684   3.55666
 Alpha virt. eigenvalues --    3.59361   3.61059   3.68783   3.71443   3.75080
 Alpha virt. eigenvalues --    3.78756   3.90867   4.00171   4.12973   4.14166
 Alpha virt. eigenvalues --    4.23128   4.23660   4.28624   4.42762   4.52440
 Alpha virt. eigenvalues --    4.53792   4.70988   5.48529   5.54482   5.60293
 Alpha virt. eigenvalues --    5.62800   5.72943   5.89270   5.97592   6.17468
 Alpha virt. eigenvalues --    6.47094  24.68684  24.99746  25.02150  25.13785
 Alpha virt. eigenvalues --   26.27507  51.48487  51.59638  51.73724
  Beta  occ. eigenvalues --  -20.61490 -20.60942 -20.55511 -11.41472 -11.30389
  Beta  occ. eigenvalues --  -11.27363 -11.26673 -11.22850  -1.47514  -1.38106
  Beta  occ. eigenvalues --   -1.26454  -1.07481  -1.04688  -0.91423  -0.87161
  Beta  occ. eigenvalues --   -0.75570  -0.73114  -0.69386  -0.67262  -0.65954
  Beta  occ. eigenvalues --   -0.63273  -0.58108  -0.55736  -0.53963  -0.53145
  Beta  occ. eigenvalues --   -0.51131  -0.47920  -0.46327  -0.43060  -0.42866
  Beta virt. eigenvalues --    0.03051   0.03737   0.04974   0.05629   0.07146
  Beta virt. eigenvalues --    0.07902   0.08664   0.09123   0.09589   0.11548
  Beta virt. eigenvalues --    0.12200   0.13027   0.13667   0.14826   0.15444
  Beta virt. eigenvalues --    0.16422   0.16596   0.17222   0.17811   0.18971
  Beta virt. eigenvalues --    0.19643   0.20120   0.20885   0.21388   0.22370
  Beta virt. eigenvalues --    0.22960   0.23370   0.24357   0.26399   0.27556
  Beta virt. eigenvalues --    0.29580   0.30468   0.31168   0.31546   0.31886
  Beta virt. eigenvalues --    0.33901   0.35142   0.35229   0.36433   0.37355
  Beta virt. eigenvalues --    0.39150   0.39619   0.41070   0.41708   0.42178
  Beta virt. eigenvalues --    0.42497   0.44562   0.45874   0.47020   0.47613
  Beta virt. eigenvalues --    0.48782   0.51252   0.54804   0.59078   0.59751
  Beta virt. eigenvalues --    0.61678   0.62950   0.65099   0.66416   0.69904
  Beta virt. eigenvalues --    0.71382   0.73840   0.76922   0.78327   0.79157
  Beta virt. eigenvalues --    0.83247   0.85429   0.85772   0.86781   0.87606
  Beta virt. eigenvalues --    0.88729   0.90011   0.91750   0.95060   0.95272
  Beta virt. eigenvalues --    1.00248   1.02663   1.04604   1.10131   1.16963
  Beta virt. eigenvalues --    1.19029   1.23238   1.24809   1.27105   1.29122
  Beta virt. eigenvalues --    1.29694   1.31360   1.37039   1.38204   1.39248
  Beta virt. eigenvalues --    1.41112   1.41821   1.44639   1.47121   1.49509
  Beta virt. eigenvalues --    1.49732   1.53164   1.54318   1.55833   1.58363
  Beta virt. eigenvalues --    1.60605   1.62758   1.64315   1.69916   1.71645
  Beta virt. eigenvalues --    1.77249   1.81110   1.81974   1.84712   1.86515
  Beta virt. eigenvalues --    1.88289   1.90137   1.93175   1.94179   1.98010
  Beta virt. eigenvalues --    2.01219   2.01606   2.04381   2.06680   2.08656
  Beta virt. eigenvalues --    2.12818   2.17921   2.19986   2.26087   2.28944
  Beta virt. eigenvalues --    2.31264   2.33778   2.37996   2.43017   2.47810
  Beta virt. eigenvalues --    2.58356   2.63310   2.71004   2.75159   2.76934
  Beta virt. eigenvalues --    2.79643   2.83566   2.86953   2.88216   2.92006
  Beta virt. eigenvalues --    2.93266   2.96932   2.99048   3.00103   3.04486
  Beta virt. eigenvalues --    3.06100   3.10577   3.14360   3.16550   3.22905
  Beta virt. eigenvalues --    3.24727   3.26618   3.29990   3.34419   3.36723
  Beta virt. eigenvalues --    3.40608   3.43167   3.46361   3.46752   3.51738
  Beta virt. eigenvalues --    3.57861   3.61025   3.61485   3.68836   3.73946
  Beta virt. eigenvalues --    3.75144   3.78946   3.90876   4.00208   4.12997
  Beta virt. eigenvalues --    4.15784   4.23667   4.24021   4.31262   4.42791
  Beta virt. eigenvalues --    4.52577   4.53813   4.71254   5.51001   5.60309
  Beta virt. eigenvalues --    5.62598   5.66945   5.72953   5.89313   6.00197
  Beta virt. eigenvalues --    6.17489   6.47115  24.68683  24.99743  25.02143
  Beta virt. eigenvalues --   25.14139  26.27507  51.50812  51.59665  51.73725
          Condensed to atoms (all electrons):
               1          2          3          4          5          6
     1  C   26.569979   0.865382 -11.621353  -7.933018  -0.122436   0.049400
     2  H    0.865382   0.407743  -0.397097  -0.086869  -0.004935  -0.003147
     3  C  -11.621353  -0.397097  14.288248   1.906881   0.018766  -0.206164
     4  C   -7.933018  -0.086869   1.906881  11.732855   0.436635   0.127445
     5  O   -0.122436  -0.004935   0.018766   0.436635   8.060279  -0.061028
     6  O    0.049400  -0.003147  -0.206164   0.127445  -0.061028   8.229203
     7  C   -0.281443  -0.004461   0.026012   0.083565  -0.004044   0.239188
     8  C    0.310136   0.003088  -0.036267  -0.229910   0.012478  -0.151764
     9  H   -0.016433  -0.001402   0.026146   0.002171  -0.002362  -0.006906
    10  H   -0.050103  -0.000925   0.008405   0.039132   0.000896  -0.071988
    11  H    0.015531   0.000308  -0.001089  -0.016606   0.000125  -0.005898
    12  H   -0.043561  -0.002991   0.052943   0.008599  -0.000342  -0.007036
    13  H   -0.017023   0.000387   0.012769  -0.008515   0.001069   0.013665
    14  O   -0.000793  -0.000015   0.001795   0.001067  -0.000007  -0.000200
    15  H    0.000653  -0.000006  -0.000995   0.000330  -0.000018   0.000013
               7          8          9         10         11         12
     1  C   -0.281443   0.310136  -0.016433  -0.050103   0.015531  -0.043561
     2  H   -0.004461   0.003088  -0.001402  -0.000925   0.000308  -0.002991
     3  C    0.026012  -0.036267   0.026146   0.008405  -0.001089   0.052943
     4  C    0.083565  -0.229910   0.002171   0.039132  -0.016606   0.008599
     5  O   -0.004044   0.012478  -0.002362   0.000896   0.000125  -0.000342
     6  O    0.239188  -0.151764  -0.006906  -0.071988  -0.005898  -0.007036
     7  C    5.766968  -0.323143   0.417269   0.410723  -0.014454  -0.056112
     8  C   -0.323143   5.776992  -0.041288  -0.022162   0.398016   0.420293
     9  H    0.417269  -0.041288   0.540402  -0.044074   0.003732  -0.003281
    10  H    0.410723  -0.022162  -0.044074   0.541667  -0.012922   0.011951
    11  H   -0.014454   0.398016   0.003732  -0.012922   0.550971  -0.042408
    12  H   -0.056112   0.420293  -0.003281   0.011951  -0.042408   0.581505
    13  H   -0.017616   0.311690  -0.027327   0.013705  -0.044393  -0.044903
    14  O   -0.059551   0.050630   0.005409  -0.004575  -0.002416  -0.002746
    15  H    0.000988   0.016467   0.000073   0.000575  -0.002272   0.001685
              13         14         15
     1  C   -0.017023  -0.000793   0.000653
     2  H    0.000387  -0.000015  -0.000006
     3  C    0.012769   0.001795  -0.000995
     4  C   -0.008515   0.001067   0.000330
     5  O    0.001069  -0.000007  -0.000018
     6  O    0.013665  -0.000200   0.000013
     7  C   -0.017616  -0.059551   0.000988
     8  C    0.311690   0.050630   0.016467
     9  H   -0.027327   0.005409   0.000073
    10  H    0.013705  -0.004575   0.000575
    11  H   -0.044393  -0.002416  -0.002272
    12  H   -0.044903  -0.002746   0.001685
    13  H    0.737861  -0.066004  -0.015392
    14  O   -0.066004   8.032585   0.277326
    15  H   -0.015392   0.277326   0.464085
          Atomic-Atomic Spin Densities.
               1          2          3          4          5          6
     1  C   -0.003574  -0.000095   0.018806  -0.013619   0.000868   0.001668
     2  H   -0.000095   0.000009   0.000176  -0.000147   0.000002   0.000074
     3  C    0.018806   0.000176  -0.008589  -0.013061   0.000580  -0.001584
     4  C   -0.013619  -0.000147  -0.013061   0.031082  -0.001799   0.000042
     5  O    0.000868   0.000002   0.000580  -0.001799  -0.000752  -0.000037
     6  O    0.001668   0.000074  -0.001584   0.000042  -0.000037   0.010963
     7  C   -0.002631  -0.000202   0.013046  -0.017824   0.001139   0.002877
     8  C    0.007577   0.000266  -0.013285   0.010949  -0.000675  -0.005693
     9  H    0.003336   0.000024  -0.004088  -0.000430   0.000145   0.001173
    10  H   -0.003939  -0.000053   0.000149   0.004818  -0.000209  -0.002555
    11  H    0.002268   0.000024  -0.001341  -0.002508   0.000151   0.002538
    12  H   -0.002588  -0.000197   0.000382   0.002617  -0.000091  -0.003426
    13  H   -0.001383   0.000042   0.007981  -0.005337   0.000041  -0.002789
    14  O   -0.001186  -0.000053  -0.001466   0.002589  -0.000002  -0.000731
    15  H    0.000322   0.000008  -0.000124  -0.000254   0.000006   0.000152
               7          8          9         10         11         12
     1  C   -0.002631   0.007577   0.003336  -0.003939   0.002268  -0.002588
     2  H   -0.000202   0.000266   0.000024  -0.000053   0.000024  -0.000197
     3  C    0.013046  -0.013285  -0.004088   0.000149  -0.001341   0.000382
     4  C   -0.017824   0.010949  -0.000430   0.004818  -0.002508   0.002617
     5  O    0.001139  -0.000675   0.000145  -0.000209   0.000151  -0.000091
     6  O    0.002877  -0.005693   0.001173  -0.002555   0.002538  -0.003426
     7  C   -0.022396  -0.002802   0.000180   0.001650  -0.003457   0.003723
     8  C   -0.002802   0.196119  -0.002957   0.003155  -0.007338  -0.007278
     9  H    0.000180  -0.002957  -0.001655   0.002662  -0.001503   0.000388
    10  H    0.001650   0.003155   0.002662  -0.000852   0.002898   0.000575
    11  H   -0.003457  -0.007338  -0.001503   0.002898  -0.019979   0.000920
    12  H    0.003723  -0.007278   0.000388   0.000575   0.000920   0.002250
    13  H    0.014969   0.030894   0.005324  -0.012769   0.019320  -0.009555
    14  O   -0.003569  -0.025155  -0.003537   0.005904  -0.005584   0.007641
    15  H    0.001734  -0.001062   0.000177  -0.000542   0.000954  -0.000626
              13         14         15
     1  C   -0.001383  -0.001186   0.000322
     2  H    0.000042  -0.000053   0.000008
     3  C    0.007981  -0.001466  -0.000124
     4  C   -0.005337   0.002589  -0.000254
     5  O    0.000041  -0.000002   0.000006
     6  O   -0.002789  -0.000731   0.000152
     7  C    0.014969  -0.003569   0.001734
     8  C    0.030894  -0.025155  -0.001062
     9  H    0.005324  -0.003537   0.000177
    10  H   -0.012769   0.005904  -0.000542
    11  H    0.019320  -0.005584   0.000954
    12  H   -0.009555   0.007641  -0.000626
    13  H   -0.112917   0.000905  -0.002492
    14  O    0.000905   0.958739   0.013324
    15  H   -0.002492   0.013324  -0.045462
 Mulliken charges and spin densities:
               1          2
     1  C   -1.724917   0.005829
     2  H    0.224940  -0.000121
     3  C    1.920999  -0.002417
     4  C   -0.063763  -0.002881
     5  O   -0.335077  -0.000632
     6  O   -0.144783   0.002672
     7  C   -0.183891  -0.013561
     8  C   -0.495255   0.182716
     9  H    0.147871  -0.000763
    10  H    0.179694   0.000891
    11  H    0.173773  -0.012636
    12  H    0.126405  -0.005265
    13  H    0.150025  -0.067766
    14  O   -0.232507   0.947819
    15  H    0.256487  -0.033884
 Sum of Mulliken charges =  -0.00000   1.00000
 Mulliken charges and spin densities with hydrogens summed into heavy atoms:
               1          2
     1  C   -1.499977   0.005707
     3  C    1.920999  -0.002417
     4  C   -0.063763  -0.002881
     5  O   -0.335077  -0.000632
     6  O   -0.144783   0.002672
     7  C    0.143674  -0.013433
     8  C   -0.045052   0.097049
    14  O    0.023980   0.913935
 Electronic spatial extent (au):  <R**2>=           1336.0285
 Charge=             -0.0000 electrons
 Dipole moment (field-independent basis, Debye):
    X=             -5.0930    Y=              2.1804    Z=              0.1172  Tot=              5.5413
 Quadrupole moment (field-independent basis, Debye-Ang):
   XX=            -50.6559   YY=            -43.5519   ZZ=            -47.3877
   XY=             12.2792   XZ=             -4.8956   YZ=             -0.1732
 Traceless Quadrupole moment (field-independent basis, Debye-Ang):
   XX=             -3.4574   YY=              3.6466   ZZ=             -0.1892
   XY=             12.2792   XZ=             -4.8956   YZ=             -0.1732
 Octapole moment (field-independent basis, Debye-Ang**2):
  XXX=            -97.1160  YYY=             27.5058  ZZZ=             -0.9785  XYY=             -1.5635
  XXY=            -13.2488  XXZ=              8.8528  XZZ=             -5.2415  YZZ=             -5.3434
  YYZ=             -1.0894  XYZ=              2.4949
 Hexadecapole moment (field-independent basis, Debye-Ang**3):
 XXXX=          -1012.3259 YYYY=           -277.9430 ZZZZ=           -110.7348 XXXY=             94.9217
 XXXZ=            -70.0316 YYYX=             36.3397 YYYZ=             -2.4635 ZZZX=              2.1035
 ZZZY=              1.1003 XXYY=           -268.5337 XXZZ=           -212.9919 YYZZ=            -85.6853
 XXYZ=             -3.8684 YYXZ=              0.0249 ZZXY=             -5.6843
 N-N= 3.435164132911D+02 E-N=-1.669752789055D+03  KE= 4.177060729657D+02
 1\1\GINC-AJ\SP\UCCSD(T)-FC\6-311++G(d,p)\C5H7O3(2)\AAYUSH\03-May-2025\
 0\\# ccsd(t)/6-311++g(d,p) sp\\Title Card Required\\0,2\C,0,1.261733,2
 .249387,-0.059441\H,0,1.186618,3.311787,-0.073939\C,0,1.353351,1.05396
 3,-0.042564\C,0,1.545409,-0.398506,0.007134\O,0,2.596716,-0.882946,0.2
 99789\O,0,0.491056,-1.161047,-0.304314\C,0,-0.794346,-0.572278,-0.5595
 93\C,0,-1.49302,-0.264431,0.743476\H,0,-0.684324,0.319366,-1.179302\H,
 0,-1.331322,-1.327301,-1.130879\H,0,-1.641595,-1.162055,1.343884\H,0,-
 0.967818,0.49463,1.325569\H,0,-2.475074,0.189152,0.507761\O,0,-3.84788
 3,0.395626,-0.135085\H,0,-4.32213,-0.290501,0.364526\\Version=ES64L-G1
 6RevA.03\State=2-A\HF=-417.9692632\MP2=-419.2400112\MP3=-419.2649584\M
 P4D=-419.2962097\MP4DQ=-419.2705256\PUHF=-417.9733679\PMP2-0=-419.2426
 59\PMP3-0=-419.2666068\MP4SDQ=-419.2892271\CCSD=-419.2877084\CCSD(T)=-
 419.3408744\S2=0.762579\S2-1=0.7536\S2A=0.750117\RMSD=1.916e-09\PG=C01
  [X(C5H7O3)]\\@


 IF IT'S NOT TRUE, IT'S WELL INVENTED -- DANTE
 Job cpu time:       0 days 18 hours  7 minutes 59.4 seconds.
 Elapsed time:       0 days  0 hours 45 minutes 37.3 seconds.
 File lengths (MBytes):  RWF=  44733 Int=      0 D2E=      0 Chk=      5 Scr=      1
 Normal termination of Gaussian 16 at Sat May  3 06:47:33 2025.
