 Entering Gaussian System, Link 0=g16
 Initial command:
 /opt/g16/l1.exe "/home/aayush/scratches/g16/Gau-13020.inp" -scrdir="/home/aayush/scratches/g16/"
 Entering Link 1 = /opt/g16/l1.exe PID=     13023.
  
 Copyright (c) 1988,1990,1992,1993,1995,1998,2003,2009,2016,
            Gaussian, Inc.  All Rights Reserved.
  
 This is part of the Gaussian(R) 16 program.  It is based on
 the Gaussian(R) 09 system (copyright 2009, Gaussian, Inc.),
 the Gaussian(R) 03 system (copyright 2003, Gaussian, Inc.),
 the Gaussian(R) 98 system (copyright 1998, Gaussian, Inc.),
 the Gaussian(R) 94 system (copyright 1995, Gaussian, Inc.),
 the Gaussian 92(TM) system (copyright 1992, Gaussian, Inc.),
 the Gaussian 90(TM) system (copyright 1990, Gaussian, Inc.),
 the Gaussian 88(TM) system (copyright 1988, Gaussian, Inc.),
 the Gaussian 86(TM) system (copyright 1986, Carnegie Mellon
 University), and the Gaussian 82(TM) system (copyright 1983,
 Carnegie Mellon University). Gaussian is a federally registered
 trademark of Gaussian, Inc.
  
 This software contains proprietary and confidential information,
 including trade secrets, belonging to Gaussian, Inc.
  
 This software is provided under written license and may be
 used, copied, transmitted, or stored only in accord with that
 written license.
  
 The following legend is applicable only to US Government
 contracts under FAR:
  
                    RESTRICTED RIGHTS LEGEND
  
 Use, reproduction and disclosure by the US Government is
 subject to restrictions as set forth in subparagraphs (a)
 and (c) of the Commercial Computer Software - Restricted
 Rights clause in FAR 52.227-19.
  
 Gaussian, Inc.
 340 Quinnipiac St., Bldg. 40, Wallingford CT 06492
  
  
 ---------------------------------------------------------------
 Warning -- This program may not be used in any manner that
 competes with the business of Gaussian, Inc. or will provide
 assistance to any competitor of Gaussian, Inc.  The licensee
 of this program is prohibited from giving any competitor of
 Gaussian, Inc. access to this program.  By using this program,
 the user acknowledges that Gaussian, Inc. is engaged in the
 business of creating and licensing software in the field of
 computational chemistry and represents and warrants to the
 licensee that it is not a competitor of Gaussian, Inc. and that
 it will not use this program in any manner prohibited above.
 ---------------------------------------------------------------
  

 Cite this work as:
 Gaussian 16, Revision A.03,
 M. J. Frisch, G. W. Trucks, H. B. Schlegel, G. E. Scuseria, 
 M. A. Robb, J. R. Cheeseman, G. Scalmani, V. Barone, 
 G. A. Petersson, H. Nakatsuji, X. Li, M. Caricato, A. V. Marenich, 
 J. Bloino, B. G. Janesko, R. Gomperts, B. Mennucci, H. P. Hratchian, 
 J. V. Ortiz, A. F. Izmaylov, J. L. Sonnenberg, D. Williams-Young, 
 F. Ding, F. Lipparini, F. Egidi, J. Goings, B. Peng, A. Petrone, 
 T. Henderson, D. Ranasinghe, V. G. Zakrzewski, J. Gao, N. Rega, 
 G. Zheng, W. Liang, M. Hada, M. Ehara, K. Toyota, R. Fukuda, 
 J. Hasegawa, M. Ishida, T. Nakajima, Y. Honda, O. Kitao, H. Nakai, 
 T. Vreven, K. Throssell, J. A. Montgomery, Jr., J. E. Peralta, 
 F. Ogliaro, M. J. Bearpark, J. J. Heyd, E. N. Brothers, K. N. Kudin, 
 V. N. Staroverov, T. A. Keith, R. Kobayashi, J. Normand, 
 K. Raghavachari, A. P. Rendell, J. C. Burant, S. S. Iyengar, 
 J. Tomasi, M. Cossi, J. M. Millam, M. Klene, C. Adamo, R. Cammi, 
 J. W. Ochterski, R. L. Martin, K. Morokuma, O. Farkas, 
 J. B. Foresman, and D. J. Fox, Gaussian, Inc., Wallingford CT, 2016.
 
 ******************************************
 Gaussian 16:  ES64L-G16RevA.03 25-Dec-2016
                14-May-2025 
 ******************************************
 %chk=ethyl_propiolate.chk
 %nprocshared=24
 Will use up to   24 processors via shared memory.
 %mem=12GB
 --------------------------
 # ccsd(t)/6-311++g(d,p) sp
 --------------------------
 1/38=1,172=1/1;
 2/12=2,17=6,18=5,40=1/2;
 3/5=4,6=6,7=1111,11=9,25=1,30=1/1,2,3;
 4//1;
 5/5=2,38=5/2;
 8/6=4,9=120000,10=2/1,4;
 9/5=7,14=2/13;
 6/7=2,8=2,9=2,10=2/1;
 99/5=1,9=1/99;
 -------------------
 Title Card Required
 -------------------
 Symbolic Z-matrix:
 Charge =  0 Multiplicity = 2
 C                     1.2618    2.24935  -0.05946 
 H                     1.18669   3.31175  -0.07391 
 C                     1.35341   1.05392  -0.04261 
 C                     1.54549  -0.39862   0.00703 
 O                     2.59686  -0.88288   0.29986 
 O                     0.49145  -1.16123  -0.30483 
 C                    -0.79406  -0.57234  -0.55923 
 C                    -1.49     -0.26465   0.74542 
 H                    -0.68428   0.31935  -1.17894 
 H                    -1.33158  -1.32718  -1.13027 
 H                    -1.63955  -1.16361   1.34367 
 H                    -0.95721   0.48834   1.32856 
 H                    -2.46747   0.19493   0.51753 
 O                    -3.85225   0.39627  -0.13706 
 H                    -4.32336  -0.29121   0.36382 
 
                          Input orientation:                          
 ---------------------------------------------------------------------
 Center     Atomic      Atomic             Coordinates (Angstroms)
 Number     Number       Type             X           Y           Z
 ---------------------------------------------------------------------
      1          6           0        1.261797    2.249351   -0.059455
      2          1           0        1.186688    3.311747   -0.073905
      3          6           0        1.353411    1.053922   -0.042612
      4          6           0        1.545487   -0.398621    0.007025
      5          8           0        2.596858   -0.882884    0.299863
      6          8           0        0.491451   -1.161232   -0.304828
      7          6           0       -0.794062   -0.572341   -0.559232
      8          6           0       -1.489995   -0.264646    0.745420
      9          1           0       -0.684278    0.319350   -1.178935
     10          1           0       -1.331576   -1.327176   -1.130273
     11          1           0       -1.639551   -1.163609    1.343667
     12          1           0       -0.957214    0.488338    1.328560
     13          1           0       -2.467467    0.194933    0.517528
     14          8           0       -3.852249    0.396272   -0.137057
     15          1           0       -4.323365   -0.291208    0.363821
 ---------------------------------------------------------------------
                    Distance matrix (angstroms):
                    1          2          3          4          5
     1  C    0.000000
     2  H    1.065146   0.000000
     3  C    1.199053   2.264188   0.000000
     4  C    2.663955   3.728554   1.466028   0.000000
     5  O    3.423798   4.441082   2.326944   1.194004   0.000000
     6  O    3.505099   4.532573   2.391368   1.337841   2.208137
     7  C    3.526794   4.386918   2.742858   2.413362   3.511811
     8  C    3.813183   4.541642   3.231807   3.126872   4.157296
     9  H    2.960633   3.698114   2.446018   2.625611   3.794478
    10  H    4.545743   5.383045   3.749905   3.230039   4.204198
    11  H    4.694131   5.479594   3.974548   3.537836   4.372127
    12  H    3.154641   3.812461   2.745721   2.965917   3.945871
    13  H    4.296621   4.839129   3.956100   4.088609   5.182321
    14  O    5.439981   5.821930   5.247887   5.457854   6.589243
    15  H    6.150418   6.597998   5.848106   5.880669   6.945765
                    6          7          8          9         10
     6  O    0.000000
     7  C    1.436683   0.000000
     8  C    2.415164   1.510336   0.000000
     9  H    2.082913   1.091420   2.166419   0.000000
    10  H    2.008065   1.088478   2.161548   1.769862   0.000000
    11  H    2.694199   2.164596   1.090138   3.078187   2.498396
    12  H    2.736360   2.171501   1.091280   2.527960   3.079301
    13  H    3.357179   2.132699   1.103902   2.464392   2.514421
    14  O    4.617542   3.235576   2.606880   3.335786   3.211003
    15  H    4.938268   3.658831   2.859075   3.999479   3.500907
                   11         12         13         14         15
    11  H    0.000000
    12  H    1.787384   0.000000
    13  H    1.792648   1.739173   0.000000
    14  O    3.085742   3.246188   1.544875   0.000000
    15  H    2.987313   3.587393   1.924660   0.972347   0.000000
 Stoichiometry    C5H7O3(2)
 Framework group  C1[X(C5H7O3)]
 Deg. of freedom    39
 Full point group                 C1      NOp   1
 Largest Abelian subgroup         C1      NOp   1
 Largest concise Abelian subgroup C1      NOp   1
                         Standard orientation:                         
 ---------------------------------------------------------------------
 Center     Atomic      Atomic             Coordinates (Angstroms)
 Number     Number       Type             X           Y           Z
 ---------------------------------------------------------------------
      1          6           0        1.340203    2.239831   -0.067076
      2          1           0        1.262908    3.302099   -0.079247
      3          6           0        1.434278    1.044559   -0.052812
      4          6           0        1.629400   -0.407686   -0.006465
      5          8           0        2.682316   -0.890394    0.283374
      6          8           0        0.576316   -1.171814   -0.317819
      7          6           0       -0.710879   -0.585032   -0.568563
      8          6           0       -1.404917   -0.281372    0.738043
      9          1           0       -0.604104    0.308122   -1.186683
     10          1           0       -1.247960   -1.339813   -1.140083
     11          1           0       -1.551491   -1.181836    1.334769
     12          1           0       -0.872542    0.471524    1.321668
     13          1           0       -2.383759    0.176673    0.512958
     14          8           0       -3.770208    0.376505   -0.138553
     15          1           0       -4.238958   -0.312936    0.361849
 ---------------------------------------------------------------------
 Rotational constants (GHZ):           3.3231037           0.9988918           0.8186768
 Standard basis: 6-311++G(d,p) (5D, 7F)
 There are   233 symmetry adapted cartesian basis functions of A   symmetry.
 There are   225 symmetry adapted basis functions of A   symmetry.
   225 basis functions,   351 primitive gaussians,   233 cartesian basis functions
    31 alpha electrons       30 beta electrons
       nuclear repulsion energy       343.4594375045 Hartrees.
 NAtoms=   15 NActive=   15 NUniq=   15 SFac= 1.00D+00 NAtFMM=   60 NAOKFM=F Big=F
 Integral buffers will be    131072 words long.
 Raffenetti 2 integral format.
 Two-electron integral symmetry is turned on.
 One-electron integrals computed using PRISM.
 NBasis=   225 RedAO= T EigKep=  1.52D-06  NBF=   225
 NBsUse=   225 1.00D-06 EigRej= -1.00D+00 NBFU=   225
 ExpMin= 3.60D-02 ExpMax= 8.59D+03 ExpMxC= 1.30D+03 IAcc=3 IRadAn=         5 AccDes= 0.00D+00
 Harris functional with IExCor=  205 and IRadAn=       5 diagonalized for initial guess.
 HarFok:  IExCor=  205 AccDes= 0.00D+00 IRadAn=         5 IDoV= 1 UseB2=F ITyADJ=14
 ICtDFT=  3500011 ScaDFX=  1.000000  1.000000  1.000000  1.000000
 FoFCou: FMM=F IPFlag=           0 FMFlag=      100000 FMFlg1=           0
         NFxFlg=           0 DoJE=T BraDBF=F KetDBF=T FulRan=T
         wScrn=  0.000000 ICntrl=       500 IOpCl=  0 I1Cent=   200000004 NGrid=           0
         NMat0=    1 NMatS0=      1 NMatT0=    0 NMatD0=    1 NMtDS0=    0 NMtDT0=    0
 Petite list used in FoFCou.
 Initial guess <Sx>= 0.0000 <Sy>= 0.0000 <Sz>= 0.5000 <S**2>= 0.7500 S= 0.5000
 Requested convergence on RMS density matrix=1.00D-08 within 128 cycles.
 Requested convergence on MAX density matrix=1.00D-06.
 Requested convergence on             energy=1.00D-06.
 No special actions if energy rises.
 Initial convergence to 1.0D-05 achieved.  Increase integral accuracy.
 Restarting incremental Fock formation.
 SCF Done:  E(UHF) =  -417.970164855     A.U. after   36 cycles
            NFock= 36  Conv=0.22D-08     -V/T= 2.0006
 <Sx>= 0.0000 <Sy>= 0.0000 <Sz>= 0.5000 <S**2>= 0.7620 S= 0.5060
 <L.S>=  0.00000000000    
 Annihilation of the first spin contaminant:
 S**2 before annihilation     0.7620,   after     0.7501
 ExpMin= 3.60D-02 ExpMax= 8.59D+03 ExpMxC= 1.30D+03 IAcc=3 IRadAn=         5 AccDes= 0.00D+00
 HarFok:  IExCor=  205 AccDes= 0.00D+00 IRadAn=         5 IDoV=-2 UseB2=F ITyADJ=14
 ICtDFT= 12500011 ScaDFX=  1.000000  1.000000  1.000000  1.000000
 Range of M.O.s used for correlation:     9   225
 NBasis=   225 NAE=    31 NBE=    30 NFC=     8 NFV=     0
 NROrb=    217 NOA=    23 NOB=    22 NVA=   194 NVB=   195

 **** Warning!!: The largest alpha MO coefficient is  0.29378214D+03


 **** Warning!!: The largest beta MO coefficient is  0.30187302D+03

 Semi-Direct transformation.
 ModeAB=           4 MOrb=            23 LenV=    1609175736
 LASXX=    109339976 LTotXX=   109339976 LenRXX=   221407890
 LTotAB=   112067914 MaxLAS=   126581742 LenRXY=           0
 NonZer=   330747866 LenScr=   498067456 LnRSAI=   126581742
 LnScr1=   190640128 LExtra=           0 Total=   1036697216
 MaxDsk=          -1 SrtSym=           T ITran=            4
 JobTyp=1 Pass  1:  I=   1 to  23.
 (rs|ai) integrals will be sorted in core.
 ModeAB=           4 MOrb=            22 LenV=    1609175736
 LASXX=    104936601 LTotXX=   104936601 LenRXX=   190867446
 LTotAB=    85930845 MaxLAS=   121078188 LenRXY=           0
 NonZer=   295804047 LenScr=   445446144 LnRSAI=   121078188
 LnScr1=   182380032 LExtra=           0 Total=    939771810
 MaxDsk=          -1 SrtSym=           T ITran=            4
 JobTyp=2 Pass  1:  I=   1 to  22.
 (rs|ai) integrals will be sorted in core.
 SymMOI:  orbitals are not symmetric.
 Spin components of T(2) and E(2):
     alpha-alpha T2 =       0.5289152363D-01 E2=     -0.1706744095D+00
     alpha-beta  T2 =       0.2908388715D+00 E2=     -0.9424444061D+00
     beta-beta   T2 =       0.5075939781D-01 E2=     -0.1571014317D+00
 ANorm=    0.1180885173D+01
 E2 =    -0.1270220247D+01 EUMP2 =    -0.41924038510199D+03
 (S**2,0)=  0.76205D+00           (S**2,1)=  0.75341D+00
 E(PUHF)=      -0.41797416266D+03        E(PMP2)=      -0.41924295781D+03
 Keep R2 and R3 ints in memory in canonical form, NReq=652884060.
 CIDS: In Core Option IDoMem=           1.
 Iterations=  50 Convergence= 0.100D-06
 Produce multiple copies of IABC intergrals
 Iteration Nr.   1
 **********************
 DD1Dir will call FoFMem   1 times, MxPair=      1496
 NAB=   506 NAA=   253 NBB=   231.
 E(PMP3)=      -0.41926704198D+03
 MP4(R+Q)=  0.25664871D-01
 E3=       -0.25052492D-01        EUMP3=      -0.41926543759D+03
 E4(DQ)=   -0.55690597D-02        UMP4(DQ)=   -0.41927100665D+03
 E4(SDQ)=  -0.24201374D-01        UMP4(SDQ)=  -0.41928963897D+03
 DE(Corr)=  -1.2688292     E(Corr)=     -419.23899401    
 NORM(A)=   0.11859488D+01
 Iteration Nr.   2
 **********************
 DD1Dir will call FoFMem   1 times, MxPair=      1496
 NAB=   506 NAA=   253 NBB=   231.
 DE(Corr)=  -1.3110706     E(CORR)=     -419.28123545     Delta=-4.22D-02
 NORM(A)=   0.12032017D+01
 Iteration Nr.   3
 **********************
 DD1Dir will call FoFMem   1 times, MxPair=      1496
 NAB=   506 NAA=   253 NBB=   231.
 DE(Corr)=  -1.3121104     E(CORR)=     -419.28227521     Delta=-1.04D-03
 NORM(A)=   0.12090043D+01
 Iteration Nr.   4
 **********************
 DD1Dir will call FoFMem   1 times, MxPair=      1496
 NAB=   506 NAA=   253 NBB=   231.
 DE(Corr)=  -1.3168417     E(CORR)=     -419.28700654     Delta=-4.73D-03
 NORM(A)=   0.12112905D+01
 Iteration Nr.   5
 **********************
 DD1Dir will call FoFMem   1 times, MxPair=      1496
 NAB=   506 NAA=   253 NBB=   231.
 DE(Corr)=  -1.3176281     E(CORR)=     -419.28779299     Delta=-7.86D-04
 NORM(A)=   0.12125394D+01
 Iteration Nr.   6
 **********************
 DD1Dir will call FoFMem   1 times, MxPair=      1496
 NAB=   506 NAA=   253 NBB=   231.
 DE(Corr)=  -1.3178368     E(CORR)=     -419.28800164     Delta=-2.09D-04
 NORM(A)=   0.12128561D+01
 Iteration Nr.   7
 **********************
 DD1Dir will call FoFMem   1 times, MxPair=      1496
 NAB=   506 NAA=   253 NBB=   231.
 DE(Corr)=  -1.3178851     E(CORR)=     -419.28804991     Delta=-4.83D-05
 NORM(A)=   0.12129216D+01
 Iteration Nr.   8
 **********************
 DD1Dir will call FoFMem   1 times, MxPair=      1496
 NAB=   506 NAA=   253 NBB=   231.
 DE(Corr)=  -1.3178785     E(CORR)=     -419.28804336     Delta= 6.55D-06
 NORM(A)=   0.12129645D+01
 Iteration Nr.   9
 **********************
 DD1Dir will call FoFMem   1 times, MxPair=      1496
 NAB=   506 NAA=   253 NBB=   231.
 DE(Corr)=  -1.3178810     E(CORR)=     -419.28804584     Delta=-2.48D-06
 NORM(A)=   0.12129749D+01
 Iteration Nr.  10
 **********************
 DD1Dir will call FoFMem   1 times, MxPair=      1496
 NAB=   506 NAA=   253 NBB=   231.
 DE(Corr)=  -1.3178870     E(CORR)=     -419.28805187     Delta=-6.02D-06
 NORM(A)=   0.12129822D+01
 Iteration Nr.  11
 **********************
 DD1Dir will call FoFMem   1 times, MxPair=      1496
 NAB=   506 NAA=   253 NBB=   231.
 DE(Corr)=  -1.3178909     E(CORR)=     -419.28805579     Delta=-3.92D-06
 NORM(A)=   0.12129931D+01
 Iteration Nr.  12
 **********************
 DD1Dir will call FoFMem   1 times, MxPair=      1496
 NAB=   506 NAA=   253 NBB=   231.
 DE(Corr)=  -1.3178954     E(CORR)=     -419.28806029     Delta=-4.49D-06
 NORM(A)=   0.12130026D+01
 Iteration Nr.  13
 **********************
 DD1Dir will call FoFMem   1 times, MxPair=      1496
 NAB=   506 NAA=   253 NBB=   231.
 DE(Corr)=  -1.3178971     E(CORR)=     -419.28806198     Delta=-1.69D-06
 NORM(A)=   0.12130118D+01
 Iteration Nr.  14
 **********************
 DD1Dir will call FoFMem   1 times, MxPair=      1496
 NAB=   506 NAA=   253 NBB=   231.
 DE(Corr)=  -1.3178992     E(CORR)=     -419.28806407     Delta=-2.09D-06
 NORM(A)=   0.12130209D+01
 Iteration Nr.  15
 **********************
 DD1Dir will call FoFMem   1 times, MxPair=      1496
 NAB=   506 NAA=   253 NBB=   231.
 DE(Corr)=  -1.3178994     E(CORR)=     -419.28806425     Delta=-1.76D-07
 NORM(A)=   0.12130271D+01
 Iteration Nr.  16
 **********************
 DD1Dir will call FoFMem   1 times, MxPair=      1496
 NAB=   506 NAA=   253 NBB=   231.
 DE(Corr)=  -1.3178995     E(CORR)=     -419.28806437     Delta=-1.20D-07
 NORM(A)=   0.12130324D+01
 Iteration Nr.  17
 **********************
 DD1Dir will call FoFMem   1 times, MxPair=      1496
 NAB=   506 NAA=   253 NBB=   231.
 DE(Corr)=  -1.3179000     E(CORR)=     -419.28806486     Delta=-4.95D-07
 NORM(A)=   0.12130341D+01
 Iteration Nr.  18
 **********************
 DD1Dir will call FoFMem   1 times, MxPair=      1496
 NAB=   506 NAA=   253 NBB=   231.
 DE(Corr)=  -1.3178999     E(CORR)=     -419.28806472     Delta= 1.41D-07
 NORM(A)=   0.12130349D+01
 Iteration Nr.  19
 **********************
 DD1Dir will call FoFMem   1 times, MxPair=      1496
 NAB=   506 NAA=   253 NBB=   231.
 DE(Corr)=  -1.3178999     E(CORR)=     -419.28806476     Delta=-4.52D-08
 NORM(A)=   0.12130352D+01
 Iteration Nr.  20
 **********************
 DD1Dir will call FoFMem   1 times, MxPair=      1496
 NAB=   506 NAA=   253 NBB=   231.
 DE(Corr)=  -1.3178999     E(CORR)=     -419.28806474     Delta= 2.80D-08
 NORM(A)=   0.12130354D+01
 Wavefunction amplitudes converged. E(Corr)=     -419.28806474    
 Largest amplitude= 3.36D-02
 Time for triples=    35689.20 seconds.
 T4(CCSD)= -0.56633220D-01
 T5(CCSD)=  0.35469480D-02
 CCSD(T)= -0.41934115101D+03

 S**2, projected HF & approx projected MPn energies after annihilation of
 unwanted spin states (see manual for definitions):

 spins       (S**2,0) (S**2,1)    PUHF        PMP2        PMP3        PMP4
 annihilated
 s+1         0.74993  0.75003 -417.974163 -419.242958 -419.267042
 s+1,s+2     0.75000  0.75000 -417.974146 -419.242942 -419.267028
 s+1 to s+3  0.75000  0.75000 -417.974146 -419.242942 -419.267028
 s+1 to s+4  0.75000  0.75000 -417.974146 -419.242942 -419.267027
 s+1 to s+5  0.75000  0.75000 -417.974146
 s+1 to s+6  0.75000  0.75000 -417.974146

 Discarding MO integrals.

 **********************************************************************

            Population analysis using the SCF density.

 **********************************************************************

 Orbital symmetries:
 Alpha Orbitals:
       Occupied  (A) (A) (A) (A) (A) (A) (A) (A) (A) (A) (A) (A)
                 (A) (A) (A) (A) (A) (A) (A) (A) (A) (A) (A) (A)
                 (A) (A) (A) (A) (A) (A) (A)
       Virtual   (A) (A) (A) (A) (A) (A) (A) (A) (A) (A) (A) (A)
                 (A) (A) (A) (A) (A) (A) (A) (A) (A) (A) (A) (A)
                 (A) (A) (A) (A) (A) (A) (A) (A) (A) (A) (A) (A)
                 (A) (A) (A) (A) (A) (A) (A) (A) (A) (A) (A) (A)
                 (A) (A) (A) (A) (A) (A) (A) (A) (A) (A) (A) (A)
                 (A) (A) (A) (A) (A) (A) (A) (A) (A) (A) (A) (A)
                 (A) (A) (A) (A) (A) (A) (A) (A) (A) (A) (A) (A)
                 (A) (A) (A) (A) (A) (A) (A) (A) (A) (A) (A) (A)
                 (A) (A) (A) (A) (A) (A) (A) (A) (A) (A) (A) (A)
                 (A) (A) (A) (A) (A) (A) (A) (A) (A) (A) (A) (A)
                 (A) (A) (A) (A) (A) (A) (A) (A) (A) (A) (A) (A)
                 (A) (A) (A) (A) (A) (A) (A) (A) (A) (A) (A) (A)
                 (A) (A) (A) (A) (A) (A) (A) (A) (A) (A) (A) (A)
                 (A) (A) (A) (A) (A) (A) (A) (A) (A) (A) (A) (A)
                 (A) (A) (A) (A) (A) (A) (A) (A) (A) (A) (A) (A)
                 (A) (A) (A) (A) (A) (A) (A) (A) (A) (A) (A) (A)
                 (A) (A)
 Beta  Orbitals:
       Occupied  (A) (A) (A) (A) (A) (A) (A) (A) (A) (A) (A) (A)
                 (A) (A) (A) (A) (A) (A) (A) (A) (A) (A) (A) (A)
                 (A) (A) (A) (A) (A) (A)
       Virtual   (A) (A) (A) (A) (A) (A) (A) (A) (A) (A) (A) (A)
                 (A) (A) (A) (A) (A) (A) (A) (A) (A) (A) (A) (A)
                 (A) (A) (A) (A) (A) (A) (A) (A) (A) (A) (A) (A)
                 (A) (A) (A) (A) (A) (A) (A) (A) (A) (A) (A) (A)
                 (A) (A) (A) (A) (A) (A) (A) (A) (A) (A) (A) (A)
                 (A) (A) (A) (A) (A) (A) (A) (A) (A) (A) (A) (A)
                 (A) (A) (A) (A) (A) (A) (A) (A) (A) (A) (A) (A)
                 (A) (A) (A) (A) (A) (A) (A) (A) (A) (A) (A) (A)
                 (A) (A) (A) (A) (A) (A) (A) (A) (A) (A) (A) (A)
                 (A) (A) (A) (A) (A) (A) (A) (A) (A) (A) (A) (A)
                 (A) (A) (A) (A) (A) (A) (A) (A) (A) (A) (A) (A)
                 (A) (A) (A) (A) (A) (A) (A) (A) (A) (A) (A) (A)
                 (A) (A) (A) (A) (A) (A) (A) (A) (A) (A) (A) (A)
                 (A) (A) (A) (A) (A) (A) (A) (A) (A) (A) (A) (A)
                 (A) (A) (A) (A) (A) (A) (A) (A) (A) (A) (A) (A)
                 (A) (A) (A) (A) (A) (A) (A) (A) (A) (A) (A) (A)
                 (A) (A) (A)
 The electronic state is 2-A.
 Alpha  occ. eigenvalues --  -20.65563 -20.60975 -20.55504 -11.41469 -11.30348
 Alpha  occ. eigenvalues --  -11.27361 -11.26667 -11.23308  -1.47564  -1.41561
 Alpha  occ. eigenvalues --   -1.38135  -1.07477  -1.05482  -0.91993  -0.87626
 Alpha  occ. eigenvalues --   -0.75634  -0.73486  -0.72511  -0.69931  -0.69244
 Alpha  occ. eigenvalues --   -0.65937  -0.63304  -0.58301  -0.57798  -0.55803
 Alpha  occ. eigenvalues --   -0.52215  -0.50874  -0.47794  -0.46324  -0.43043
 Alpha  occ. eigenvalues --   -0.42850
 Alpha virt. eigenvalues --    0.03155   0.03804   0.05602   0.06568   0.07176
 Alpha virt. eigenvalues --    0.07999   0.09117   0.09576   0.11482   0.12169
 Alpha virt. eigenvalues --    0.12980   0.13587   0.14831   0.15389   0.16418
 Alpha virt. eigenvalues --    0.16463   0.16912   0.17602   0.18899   0.19619
 Alpha virt. eigenvalues --    0.20110   0.20831   0.21341   0.22291   0.22824
 Alpha virt. eigenvalues --    0.23284   0.24290   0.26309   0.26724   0.27913
 Alpha virt. eigenvalues --    0.30338   0.31083   0.31393   0.31592   0.33487
 Alpha virt. eigenvalues --    0.34823   0.35150   0.36275   0.37043   0.38507
 Alpha virt. eigenvalues --    0.39551   0.40972   0.41688   0.42071   0.42167
 Alpha virt. eigenvalues --    0.44362   0.45844   0.46535   0.47268   0.48080
 Alpha virt. eigenvalues --    0.51089   0.52994   0.58409   0.59701   0.61380
 Alpha virt. eigenvalues --    0.62920   0.65099   0.66334   0.69198   0.71267
 Alpha virt. eigenvalues --    0.73682   0.76896   0.78145   0.78957   0.83067
 Alpha virt. eigenvalues --    0.85414   0.85679   0.86011   0.87366   0.88712
 Alpha virt. eigenvalues --    0.89859   0.91657   0.94328   0.95148   0.99976
 Alpha virt. eigenvalues --    1.02630   1.04589   1.10001   1.16340   1.18431
 Alpha virt. eigenvalues --    1.22675   1.23744   1.26668   1.27822   1.29026
 Alpha virt. eigenvalues --    1.29344   1.31233   1.37073   1.38730   1.40873
 Alpha virt. eigenvalues --    1.41375   1.44265   1.47050   1.49328   1.49701
 Alpha virt. eigenvalues --    1.53198   1.54114   1.55872   1.58267   1.59004
 Alpha virt. eigenvalues --    1.61920   1.64070   1.68158   1.70143   1.76813
 Alpha virt. eigenvalues --    1.81092   1.81733   1.84458   1.86499   1.88225
 Alpha virt. eigenvalues --    1.90089   1.93122   1.93722   1.97901   2.00147
 Alpha virt. eigenvalues --    2.01312   2.04189   2.06721   2.08605   2.12203
 Alpha virt. eigenvalues --    2.17921   2.19893   2.25839   2.28731   2.30037
 Alpha virt. eigenvalues --    2.33551   2.37955   2.42669   2.47484   2.58222
 Alpha virt. eigenvalues --    2.63097   2.70448   2.73373   2.77005   2.79653
 Alpha virt. eigenvalues --    2.83485   2.86955   2.88143   2.91869   2.93199
 Alpha virt. eigenvalues --    2.96893   2.98308   2.99969   3.04472   3.05857
 Alpha virt. eigenvalues --    3.09791   3.13653   3.14556   3.16558   3.23067
 Alpha virt. eigenvalues --    3.26543   3.29959   3.34261   3.36681   3.40583
 Alpha virt. eigenvalues --    3.40888   3.43207   3.44732   3.46581   3.54972
 Alpha virt. eigenvalues --    3.59204   3.61123   3.68770   3.71048   3.75078
 Alpha virt. eigenvalues --    3.78733   3.90892   4.00168   4.12961   4.14431
 Alpha virt. eigenvalues --    4.23135   4.23632   4.28227   4.42771   4.52432
 Alpha virt. eigenvalues --    4.53801   4.71035   5.48506   5.53452   5.60332
 Alpha virt. eigenvalues --    5.62804   5.72945   5.89285   5.97479   6.17473
 Alpha virt. eigenvalues --    6.47093  24.68685  24.99741  25.02149  25.13975
 Alpha virt. eigenvalues --   26.27510  51.48386  51.59638  51.73731
  Beta  occ. eigenvalues --  -20.61509 -20.60942 -20.55507 -11.41468 -11.30381
  Beta  occ. eigenvalues --  -11.27359 -11.26670 -11.22830  -1.47517  -1.38105
  Beta  occ. eigenvalues --   -1.26378  -1.07476  -1.04708  -0.91441  -0.87177
  Beta  occ. eigenvalues --   -0.75568  -0.73111  -0.69385  -0.67232  -0.65956
  Beta  occ. eigenvalues --   -0.63261  -0.58138  -0.55726  -0.54026  -0.53142
  Beta  occ. eigenvalues --   -0.51131  -0.47919  -0.46330  -0.43054  -0.42861
  Beta virt. eigenvalues --    0.03057   0.03739   0.04993   0.05629   0.07147
  Beta virt. eigenvalues --    0.07902   0.08668   0.09124   0.09588   0.11536
  Beta virt. eigenvalues --    0.12199   0.13037   0.13678   0.14831   0.15445
  Beta virt. eigenvalues --    0.16423   0.16613   0.17223   0.17809   0.18974
  Beta virt. eigenvalues --    0.19648   0.20123   0.20884   0.21382   0.22373
  Beta virt. eigenvalues --    0.22960   0.23372   0.24344   0.26405   0.27579
  Beta virt. eigenvalues --    0.29567   0.30454   0.31171   0.31536   0.31859
  Beta virt. eigenvalues --    0.33881   0.35130   0.35225   0.36455   0.37303
  Beta virt. eigenvalues --    0.39158   0.39618   0.41068   0.41708   0.42185
  Beta virt. eigenvalues --    0.42510   0.44556   0.45875   0.47022   0.47615
  Beta virt. eigenvalues --    0.48717   0.51258   0.54668   0.59073   0.59751
  Beta virt. eigenvalues --    0.61708   0.62949   0.65119   0.66403   0.69875
  Beta virt. eigenvalues --    0.71385   0.73823   0.76938   0.78344   0.79176
  Beta virt. eigenvalues --    0.83240   0.85418   0.85773   0.86754   0.87595
  Beta virt. eigenvalues --    0.88717   0.90023   0.91747   0.95055   0.95286
  Beta virt. eigenvalues --    1.00223   1.02662   1.04621   1.10080   1.16801
  Beta virt. eigenvalues --    1.19046   1.23224   1.24768   1.27070   1.29097
  Beta virt. eigenvalues --    1.29687   1.31359   1.37034   1.38244   1.39298
  Beta virt. eigenvalues --    1.41113   1.41845   1.44674   1.47118   1.49500
  Beta virt. eigenvalues --    1.49733   1.53223   1.54312   1.55845   1.58354
  Beta virt. eigenvalues --    1.60649   1.62691   1.64310   1.69794   1.71244
  Beta virt. eigenvalues --    1.77245   1.81126   1.82060   1.84661   1.86521
  Beta virt. eigenvalues --    1.88277   1.90147   1.93184   1.94172   1.97983
  Beta virt. eigenvalues --    2.01291   2.01753   2.04350   2.06739   2.08739
  Beta virt. eigenvalues --    2.12764   2.17989   2.19986   2.26083   2.28941
  Beta virt. eigenvalues --    2.31279   2.33747   2.38052   2.43082   2.47924
  Beta virt. eigenvalues --    2.58491   2.63461   2.71081   2.75662   2.76977
  Beta virt. eigenvalues --    2.79655   2.83621   2.87047   2.88244   2.92049
  Beta virt. eigenvalues --    2.93287   2.96933   2.98969   3.00005   3.04509
  Beta virt. eigenvalues --    3.06083   3.10627   3.14360   3.16538   3.22872
  Beta virt. eigenvalues --    3.24461   3.26583   3.29994   3.34406   3.36730
  Beta virt. eigenvalues --    3.40617   3.43197   3.46317   3.46742   3.51545
  Beta virt. eigenvalues --    3.57749   3.60849   3.61307   3.68827   3.73278
  Beta virt. eigenvalues --    3.75127   3.78875   3.90900   4.00203   4.12987
  Beta virt. eigenvalues --    4.16042   4.23639   4.24120   4.30624   4.42798
  Beta virt. eigenvalues --    4.52559   4.53820   4.71286   5.50985   5.60335
  Beta virt. eigenvalues --    5.62570   5.66078   5.72955   5.89326   6.00081
  Beta virt. eigenvalues --    6.17493   6.47112  24.68685  24.99739  25.02142
  Beta virt. eigenvalues --   25.14311  26.27510  51.50716  51.59662  51.73732
          Condensed to atoms (all electrons):
               1          2          3          4          5          6
     1  C   26.541150   0.864975 -11.602230  -7.926948  -0.122684   0.049443
     2  H    0.864975   0.407766  -0.396761  -0.086890  -0.004941  -0.003143
     3  C  -11.602230  -0.396761  14.273253   1.905482   0.018732  -0.206308
     4  C   -7.926948  -0.086890   1.905482  11.728451   0.437116   0.127953
     5  O   -0.122684  -0.004941   0.018732   0.437116   8.060222  -0.061130
     6  O    0.049443  -0.003143  -0.206308   0.127953  -0.061130   8.228988
     7  C   -0.279872  -0.004436   0.026674   0.081931  -0.004113   0.239524
     8  C    0.310873   0.003088  -0.036862  -0.230587   0.012588  -0.152509
     9  H   -0.015696  -0.001399   0.026130   0.001211  -0.002336  -0.006870
    10  H   -0.050843  -0.000930   0.008359   0.039928   0.000896  -0.071947
    11  H    0.015998   0.000310  -0.000785  -0.017469   0.000135  -0.005753
    12  H   -0.044595  -0.003012   0.053702   0.008994  -0.000384  -0.007065
    13  H   -0.017049   0.000392   0.012101  -0.007590   0.001059   0.013552
    14  O   -0.000804  -0.000018   0.001851   0.001011  -0.000006  -0.000153
    15  H    0.000628  -0.000006  -0.000973   0.000324  -0.000018   0.000010
               7          8          9         10         11         12
     1  C   -0.279872   0.310873  -0.015696  -0.050843   0.015998  -0.044595
     2  H   -0.004436   0.003088  -0.001399  -0.000930   0.000310  -0.003012
     3  C    0.026674  -0.036862   0.026130   0.008359  -0.000785   0.053702
     4  C    0.081931  -0.230587   0.001211   0.039928  -0.017469   0.008994
     5  O   -0.004113   0.012588  -0.002336   0.000896   0.000135  -0.000384
     6  O    0.239524  -0.152509  -0.006870  -0.071947  -0.005753  -0.007065
     7  C    5.766187  -0.322500   0.417426   0.410604  -0.014916  -0.056497
     8  C   -0.322500   5.773661  -0.041176  -0.022246   0.398932   0.420490
     9  H    0.417426  -0.041176   0.540025  -0.043920   0.003578  -0.003217
    10  H    0.410604  -0.022246  -0.043920   0.541504  -0.012804   0.011927
    11  H   -0.014916   0.398932   0.003578  -0.012804   0.550401  -0.042360
    12  H   -0.056497   0.420490  -0.003217   0.011927  -0.042360   0.582083
    13  H   -0.016412   0.312514  -0.026953   0.013752  -0.044114  -0.044666
    14  O   -0.059271   0.050070   0.005243  -0.004426  -0.002583  -0.002541
    15  H    0.001100   0.016233   0.000082   0.000488  -0.002160   0.001604
              13         14         15
     1  C   -0.017049  -0.000804   0.000628
     2  H    0.000392  -0.000018  -0.000006
     3  C    0.012101   0.001851  -0.000973
     4  C   -0.007590   0.001011   0.000324
     5  O    0.001059  -0.000006  -0.000018
     6  O    0.013552  -0.000153   0.000010
     7  C   -0.016412  -0.059271   0.001100
     8  C    0.312514   0.050070   0.016233
     9  H   -0.026953   0.005243   0.000082
    10  H    0.013752  -0.004426   0.000488
    11  H   -0.044114  -0.002583  -0.002160
    12  H   -0.044666  -0.002541   0.001604
    13  H    0.732268  -0.061851  -0.015308
    14  O   -0.061851   8.026797   0.277537
    15  H   -0.015308   0.277537   0.464219
          Atomic-Atomic Spin Densities.
               1          2          3          4          5          6
     1  C   -0.001745  -0.000105   0.018392  -0.015161   0.000877   0.001387
     2  H   -0.000105   0.000006   0.000188  -0.000144   0.000001   0.000069
     3  C    0.018392   0.000188  -0.008173  -0.013035   0.000585  -0.001617
     4  C   -0.015161  -0.000144  -0.013035   0.032706  -0.001826   0.000375
     5  O    0.000877   0.000001   0.000585  -0.001826  -0.000724  -0.000049
     6  O    0.001387   0.000069  -0.001617   0.000375  -0.000049   0.010121
     7  C   -0.002113  -0.000188   0.013096  -0.018399   0.001157   0.003160
     8  C    0.007174   0.000254  -0.013253   0.011288  -0.000669  -0.005596
     9  H    0.003124   0.000024  -0.004106  -0.000207   0.000140   0.001153
    10  H   -0.003876  -0.000053   0.000267   0.004658  -0.000204  -0.002462
    11  H    0.002204   0.000025  -0.001382  -0.002410   0.000149   0.002494
    12  H   -0.002490  -0.000189   0.000460   0.002476  -0.000087  -0.003308
    13  H   -0.001051   0.000040   0.007795  -0.005510   0.000041  -0.002691
    14  O   -0.001136  -0.000049  -0.001445   0.002525  -0.000002  -0.000708
    15  H    0.000315   0.000008  -0.000117  -0.000256   0.000007   0.000145
               7          8          9         10         11         12
     1  C   -0.002113   0.007174   0.003124  -0.003876   0.002204  -0.002490
     2  H   -0.000188   0.000254   0.000024  -0.000053   0.000025  -0.000189
     3  C    0.013096  -0.013253  -0.004106   0.000267  -0.001382   0.000460
     4  C   -0.018399   0.011288  -0.000207   0.004658  -0.002410   0.002476
     5  O    0.001157  -0.000669   0.000140  -0.000204   0.000149  -0.000087
     6  O    0.003160  -0.005596   0.001153  -0.002462   0.002494  -0.003308
     7  C   -0.021615  -0.002021   0.000271   0.001231  -0.003153   0.003119
     8  C   -0.002021   0.184405  -0.002947   0.003335  -0.007029  -0.006480
     9  H    0.000271  -0.002947  -0.001513   0.002590  -0.001399   0.000371
    10  H    0.001231   0.003335   0.002590  -0.000925   0.002781   0.000548
    11  H   -0.003153  -0.007029  -0.001399   0.002781  -0.018932   0.000814
    12  H    0.003119  -0.006480   0.000371   0.000548   0.000814   0.002609
    13  H    0.014351   0.029020   0.004933  -0.012147   0.018197  -0.009238
    14  O   -0.003637  -0.023718  -0.003512   0.005790  -0.005477   0.007426
    15  H    0.001763  -0.001171   0.000177  -0.000548   0.000963  -0.000619
              13         14         15
     1  C   -0.001051  -0.001136   0.000315
     2  H    0.000040  -0.000049   0.000008
     3  C    0.007795  -0.001445  -0.000117
     4  C   -0.005510   0.002525  -0.000256
     5  O    0.000041  -0.000002   0.000007
     6  O   -0.002691  -0.000708   0.000145
     7  C    0.014351  -0.003637   0.001763
     8  C    0.029020  -0.023718  -0.001171
     9  H    0.004933  -0.003512   0.000177
    10  H   -0.012147   0.005790  -0.000548
    11  H    0.018197  -0.005477   0.000963
    12  H   -0.009238   0.007426  -0.000619
    13  H   -0.105057   0.000277  -0.002412
    14  O    0.000277   0.962540   0.013430
    15  H   -0.002412   0.013430  -0.045774
 Mulliken charges and spin densities:
               1          2
     1  C   -1.722346   0.005795
     2  H    0.225006  -0.000114
     3  C    1.917637  -0.002347
     4  C   -0.062916  -0.002920
     5  O   -0.335138  -0.000604
     6  O   -0.144593   0.002473
     7  C   -0.185429  -0.012977
     8  C   -0.492568   0.172593
     9  H    0.147873  -0.000901
    10  H    0.179658   0.000986
    11  H    0.173591  -0.012154
    12  H    0.125536  -0.004588
    13  H    0.148304  -0.063454
    14  O   -0.230855   0.952303
    15  H    0.256241  -0.034091
 Sum of Mulliken charges =  -0.00000   1.00000
 Mulliken charges and spin densities with hydrogens summed into heavy atoms:
               1          2
     1  C   -1.497339   0.005681
     3  C    1.917637  -0.002347
     4  C   -0.062916  -0.002920
     5  O   -0.335138  -0.000604
     6  O   -0.144593   0.002473
     7  C    0.142102  -0.012891
     8  C   -0.045137   0.092397
    14  O    0.025386   0.918212
 Electronic spatial extent (au):  <R**2>=           1336.7783
 Charge=              0.0000 electrons
 Dipole moment (field-independent basis, Debye):
    X=             -5.1016    Y=              2.1783    Z=              0.1201  Tot=              5.5485
 Quadrupole moment (field-independent basis, Debye-Ang):
   XX=            -50.6280   YY=            -43.5495   ZZ=            -47.3903
   XY=             12.2790   XZ=             -4.8918   YZ=             -0.1765
 Traceless Quadrupole moment (field-independent basis, Debye-Ang):
   XX=             -3.4388   YY=              3.6398   ZZ=             -0.2010
   XY=             12.2790   XZ=             -4.8918   YZ=             -0.1765
 Octapole moment (field-independent basis, Debye-Ang**2):
  XXX=            -97.3187  YYY=             27.4953  ZZZ=             -0.9904  XYY=             -1.5911
  XXY=            -13.2861  XXZ=              8.8625  XZZ=             -5.2451  YZZ=             -5.3407
  YYZ=             -1.0859  XYZ=              2.4965
 Hexadecapole moment (field-independent basis, Debye-Ang**3):
 XXXX=          -1012.1582 YYYY=           -277.9611 ZZZZ=           -110.9281 XXXY=             95.0856
 XXXZ=            -69.9843 YYYX=             36.3077 YYYZ=             -2.4589 ZZZX=              2.1295
 ZZZY=              1.1087 XXYY=           -268.5938 XXZZ=           -213.0787 YYZZ=            -85.7389
 XXYZ=             -3.9055 YYXZ=              0.0491 ZZXY=             -5.6920
 N-N= 3.434594375045D+02 E-N=-1.669642422530D+03  KE= 4.177071384126D+02
 1\1\GINC-AJ\SP\UCCSD(T)-FC\6-311++G(d,p)\C5H7O3(2)\AAYUSH\14-May-2025\
 0\\# ccsd(t)/6-311++g(d,p) sp\\Title Card Required\\0,2\C,0,1.261797,2
 .249351,-0.059455\H,0,1.186688,3.311747,-0.073905\C,0,1.353411,1.05392
 2,-0.042612\C,0,1.545487,-0.398621,0.007025\O,0,2.596858,-0.882884,0.2
 99863\O,0,0.491451,-1.161232,-0.304828\C,0,-0.794062,-0.572341,-0.5592
 32\C,0,-1.489995,-0.264646,0.74542\H,0,-0.684278,0.31935,-1.178935\H,0
 ,-1.331576,-1.327176,-1.130273\H,0,-1.639551,-1.163609,1.343667\H,0,-0
 .957214,0.488338,1.32856\H,0,-2.467467,0.194933,0.517528\O,0,-3.852249
 ,0.396272,-0.137057\H,0,-4.323365,-0.291208,0.363821\\Version=ES64L-G1
 6RevA.03\State=2-A\HF=-417.9701649\MP2=-419.2403851\MP3=-419.2654376\M
 P4D=-419.2966715\MP4DQ=-419.2710067\PUHF=-417.9741627\PMP2-0=-419.2429
 578\PMP3-0=-419.267042\MP4SDQ=-419.289639\CCSD=-419.2880647\CCSD(T)=-4
 19.341151\S2=0.762045\S2-1=0.753411\S2A=0.750109\RMSD=2.195e-09\PG=C01
  [X(C5H7O3)]\\@


 BLESSED ARE THOSE WHO NOUGHT EXPECT,
 FOR THEY SHALL NOT BE DISAPPOINTED..  WALCOT - ODE TO PITT
 Job cpu time:       0 days 17 hours 27 minutes  2.8 seconds.
 Elapsed time:       0 days  0 hours 43 minutes 49.6 seconds.
 File lengths (MBytes):  RWF=  44733 Int=      0 D2E=      0 Chk=      6 Scr=      1
 Normal termination of Gaussian 16 at Wed May 14 21:49:18 2025.
