 Entering Gaussian System, Link 0=g16
 Initial command:
 /opt/g16/l1.exe "/home/aayush/Research/Gau-6037.inp" -scrdir="/home/aayush/Research/"
 Entering Link 1 = /opt/g16/l1.exe PID=      6040.
  
 Copyright (c) 1988,1990,1992,1993,1995,1998,2003,2009,2016,
            Gaussian, Inc.  All Rights Reserved.
  
 This is part of the Gaussian(R) 16 program.  It is based on
 the Gaussian(R) 09 system (copyright 2009, Gaussian, Inc.),
 the Gaussian(R) 03 system (copyright 2003, Gaussian, Inc.),
 the Gaussian(R) 98 system (copyright 1998, Gaussian, Inc.),
 the Gaussian(R) 94 system (copyright 1995, Gaussian, Inc.),
 the Gaussian 92(TM) system (copyright 1992, Gaussian, Inc.),
 the Gaussian 90(TM) system (copyright 1990, Gaussian, Inc.),
 the Gaussian 88(TM) system (copyright 1988, Gaussian, Inc.),
 the Gaussian 86(TM) system (copyright 1986, Carnegie Mellon
 University), and the Gaussian 82(TM) system (copyright 1983,
 Carnegie Mellon University). Gaussian is a federally registered
 trademark of Gaussian, Inc.
  
 This software contains proprietary and confidential information,
 including trade secrets, belonging to Gaussian, Inc.
  
 This software is provided under written license and may be
 used, copied, transmitted, or stored only in accord with that
 written license.
  
 The following legend is applicable only to US Government
 contracts under FAR:
  
                    RESTRICTED RIGHTS LEGEND
  
 Use, reproduction and disclosure by the US Government is
 subject to restrictions as set forth in subparagraphs (a)
 and (c) of the Commercial Computer Software - Restricted
 Rights clause in FAR 52.227-19.
  
 Gaussian, Inc.
 340 Quinnipiac St., Bldg. 40, Wallingford CT 06492
  
  
 ---------------------------------------------------------------
 Warning -- This program may not be used in any manner that
 competes with the business of Gaussian, Inc. or will provide
 assistance to any competitor of Gaussian, Inc.  The licensee
 of this program is prohibited from giving any competitor of
 Gaussian, Inc. access to this program.  By using this program,
 the user acknowledges that Gaussian, Inc. is engaged in the
 business of creating and licensing software in the field of
 computational chemistry and represents and warrants to the
 licensee that it is not a competitor of Gaussian, Inc. and that
 it will not use this program in any manner prohibited above.
 ---------------------------------------------------------------
  

 Cite this work as:
 Gaussian 16, Revision A.03,
 M. J. Frisch, G. W. Trucks, H. B. Schlegel, G. E. Scuseria, 
 M. A. Robb, J. R. Cheeseman, G. Scalmani, V. Barone, 
 G. A. Petersson, H. Nakatsuji, X. Li, M. Caricato, A. V. Marenich, 
 J. Bloino, B. G. Janesko, R. Gomperts, B. Mennucci, H. P. Hratchian, 
 J. V. Ortiz, A. F. Izmaylov, J. L. Sonnenberg, D. Williams-Young, 
 F. Ding, F. Lipparini, F. Egidi, J. Goings, B. Peng, A. Petrone, 
 T. Henderson, D. Ranasinghe, V. G. Zakrzewski, J. Gao, N. Rega, 
 G. Zheng, W. Liang, M. Hada, M. Ehara, K. Toyota, R. Fukuda, 
 J. Hasegawa, M. Ishida, T. Nakajima, Y. Honda, O. Kitao, H. Nakai, 
 T. Vreven, K. Throssell, J. A. Montgomery, Jr., J. E. Peralta, 
 F. Ogliaro, M. J. Bearpark, J. J. Heyd, E. N. Brothers, K. N. Kudin, 
 V. N. Staroverov, T. A. Keith, R. Kobayashi, J. Normand, 
 K. Raghavachari, A. P. Rendell, J. C. Burant, S. S. Iyengar, 
 J. Tomasi, M. Cossi, J. M. Millam, M. Klene, C. Adamo, R. Cammi, 
 J. W. Ochterski, R. L. Martin, K. Morokuma, O. Farkas, 
 J. B. Foresman, and D. J. Fox, Gaussian, Inc., Wallingford CT, 2016.
 
 ******************************************
 Gaussian 16:  ES64L-G16RevA.03 25-Dec-2016
                 2-Apr-2025 
 ******************************************
 %chk=ethyl_propiolate.chk
 %nprocshared=24
 Will use up to   24 processors via shared memory.
 %mem=12GB
 --------------------------
 # freq 6-311++g(d,p) m062x
 --------------------------
 1/10=4,30=1,38=1/1,3;
 2/12=2,17=6,18=5,40=1/2;
 3/5=4,6=6,7=1111,11=2,25=1,30=1,71=2,74=-55,140=1/1,2,3;
 4//1;
 5/5=2,38=5,98=1/2;
 8/6=4,10=90,11=11/1;
 11/6=1,8=1,9=11,15=111,16=1/1,2,10;
 10/6=1/2;
 6/7=2,8=2,9=2,10=2,28=1/1;
 7/8=1,10=1,25=1/1,2,3,16;
 1/10=4,30=1/3;
 99//99;
 -------------------
 Title Card Required
 -------------------
 Symbolic Z-matrix:
 Charge =  0 Multiplicity = 2
 C                     1.26151   2.2495   -0.05938 
 H                     1.18635   3.31192  -0.07407 
 C                     1.35317   1.05409  -0.04242 
 C                     1.54525  -0.39802   0.0075 
 O                     2.59622  -0.88319   0.29952 
 O                     0.48949  -1.1604   -0.30255 
 C                    -0.79567  -0.57184  -0.56089 
 C                    -1.50485  -0.26332   0.73634 
 H                    -0.68479   0.31966  -1.18053 
 H                    -1.3309   -1.32755  -1.13281 
 H                    -1.65296  -1.15565   1.34434 
 H                    -1.01097   0.51898   1.31449 
 H                    -2.50721   0.16689   0.46706 
 O                    -3.83046   0.39282  -0.12744 
 H                    -4.31634  -0.28806   0.36735 
 

 GradGradGradGradGradGradGradGradGradGradGradGradGradGradGradGradGradGrad
 Berny optimization.
 Initialization pass.
 Trust Radius=3.00D-01 FncErr=1.00D-07 GrdErr=1.00D-07 EigMax=2.50D+02 EigMin=1.00D-04
 Number of steps in this run=      2 maximum allowed number of steps=      2.
 GradGradGradGradGradGradGradGradGradGradGradGradGradGradGradGradGradGrad

                          Input orientation:                          
 ---------------------------------------------------------------------
 Center     Atomic      Atomic             Coordinates (Angstroms)
 Number     Number       Type             X           Y           Z
 ---------------------------------------------------------------------
      1          6           0        1.261513    2.249495   -0.059381
      2          1           0        1.186345    3.311917   -0.074065
      3          6           0        1.353167    1.054093   -0.042417
      4          6           0        1.545246   -0.398017    0.007496
      5          8           0        2.596221   -0.883190    0.299518
      6          8           0        0.489494   -1.160398   -0.302551
      7          6           0       -0.795674   -0.571835   -0.560886
      8          6           0       -1.504854   -0.263321    0.736343
      9          1           0       -0.684792    0.319660   -1.180531
     10          1           0       -1.330895   -1.327552   -1.132814
     11          1           0       -1.652956   -1.155654    1.344340
     12          1           0       -1.010971    0.518977    1.314485
     13          1           0       -2.507211    0.166894    0.467055
     14          8           0       -3.830463    0.392820   -0.127444
     15          1           0       -4.316336   -0.288056    0.367353
 ---------------------------------------------------------------------
                    Distance matrix (angstroms):
                    1          2          3          4          5
     1  C    0.000000
     2  H    1.065179   0.000000
     3  C    1.199031   2.264200   0.000000
     4  C    2.663512   3.728146   1.465609   0.000000
     5  O    3.424028   4.441423   2.327051   1.193825   0.000000
     6  O    3.504642   4.532042   2.391144   1.338643   2.208536
     7  C    3.527524   4.387360   2.744079   2.415197   3.513145
     8  C    3.821022   4.547707   3.241964   3.138865   4.170596
     9  H    2.961308   3.698516   2.447033   2.626697   3.795055
    10  H    4.546219   5.383504   3.750385   3.230562   4.203721
    11  H    4.696765   5.480209   3.980308   3.548191   4.384221
    12  H    3.169603   3.815335   2.777891   3.013859   4.001008
    13  H    4.337931   4.881223   3.993645   4.117369   5.213038
    14  O    5.420341   5.804510   5.226331   5.435244   6.566031
    15  H    6.142774   6.590459   5.840594   5.873647   6.938460
                    6          7          8          9         10
     6  O    0.000000
     7  C    1.436941   0.000000
     8  C    2.421048   1.510272   0.000000
     9  H    2.083355   1.091338   2.164896   0.000000
    10  H    2.007758   1.088426   2.157915   1.770038   0.000000
    11  H    2.702289   2.169254   1.089887   3.080400   2.503910
    12  H    2.772454   2.180193   1.090944   2.524129   3.082417
    13  H    3.366636   2.128789   1.123530   2.461521   2.485291
    14  O    4.594037   3.213779   2.566146   3.318070   3.196606
    15  H    4.930087   3.652016   2.835700   3.994168   3.499130
                   11         12         13         14         15
    11  H    0.000000
    12  H    1.793718   0.000000
    13  H    1.802363   1.755231   0.000000
    14  O    3.050485   3.169323   1.468151   0.000000
    15  H    2.966618   3.531827   1.868115   0.971848   0.000000
 Stoichiometry    C5H7O3(2)
 Framework group  C1[X(C5H7O3)]
 Deg. of freedom    39
 Full point group                 C1      NOp   1
 Largest Abelian subgroup         C1      NOp   1
 Largest concise Abelian subgroup C1      NOp   1
                         Standard orientation:                         
 ---------------------------------------------------------------------
 Center     Atomic      Atomic             Coordinates (Angstroms)
 Number     Number       Type             X           Y           Z
 ---------------------------------------------------------------------
      1          6           0        1.343276    2.238315   -0.067328
      2          1           0        1.267106    3.300681   -0.080890
      3          6           0        1.436059    1.042983   -0.051633
      4          6           0        1.629534   -0.408996   -0.003331
      5          8           0        2.681215   -0.893479    0.287292
      6          8           0        0.574223   -1.172053   -0.313216
      7          6           0       -0.711718   -0.584433   -0.569845
      8          6           0       -1.420053   -0.277869    0.728308
      9          1           0       -0.602207    0.307781   -1.188700
     10          1           0       -1.246733   -1.340080   -1.142057
     11          1           0       -1.566792   -1.170944    1.335546
     12          1           0       -0.926394    0.504314    1.306797
     13          1           0       -2.423045    0.151678    0.460322
     14          8           0       -3.747025    0.376960   -0.132798
     15          1           0       -4.231831   -0.304860    0.361745
 ---------------------------------------------------------------------
 Rotational constants (GHZ):           3.3301572           1.0033174           0.8213605
 Standard basis: 6-311++G(d,p) (5D, 7F)
 There are   233 symmetry adapted cartesian basis functions of A   symmetry.
 There are   225 symmetry adapted basis functions of A   symmetry.
   225 basis functions,   351 primitive gaussians,   233 cartesian basis functions
    31 alpha electrons       30 beta electrons
       nuclear repulsion energy       343.7286204847 Hartrees.
 NAtoms=   15 NActive=   15 NUniq=   15 SFac= 1.00D+00 NAtFMM=   60 NAOKFM=F Big=F
 Integral buffers will be    131072 words long.
 Raffenetti 2 integral format.
 Two-electron integral symmetry is turned on.
 One-electron integrals computed using PRISM.
 NBasis=   225 RedAO= T EigKep=  1.52D-06  NBF=   225
 NBsUse=   225 1.00D-06 EigRej= -1.00D+00 NBFU=   225
 ExpMin= 3.60D-02 ExpMax= 8.59D+03 ExpMxC= 1.30D+03 IAcc=3 IRadAn=         5 AccDes= 0.00D+00
 Harris functional with IExCor= 1009 and IRadAn=       5 diagonalized for initial guess.
 HarFok:  IExCor= 1009 AccDes= 0.00D+00 IRadAn=         5 IDoV= 1 UseB2=F ITyADJ=14
 ICtDFT=  3500011 ScaDFX=  1.000000  1.000000  1.000000  1.000000
 FoFCou: FMM=F IPFlag=           0 FMFlag=      100000 FMFlg1=           0
         NFxFlg=           0 DoJE=T BraDBF=F KetDBF=T FulRan=T
         wScrn=  0.000000 ICntrl=       500 IOpCl=  0 I1Cent=   200000004 NGrid=           0
         NMat0=    1 NMatS0=      1 NMatT0=    0 NMatD0=    1 NMtDS0=    0 NMtDT0=    0
 Petite list used in FoFCou.
 Initial guess <Sx>= 0.0000 <Sy>= 0.0000 <Sz>= 0.5000 <S**2>= 0.7500 S= 0.5000
 Requested convergence on RMS density matrix=1.00D-08 within 128 cycles.
 Requested convergence on MAX density matrix=1.00D-06.
 Requested convergence on             energy=1.00D-06.
 No special actions if energy rises.
 Restarting incremental Fock formation.
 SCF Done:  E(UM062X) =  -420.189195442     A.U. after   22 cycles
            NFock= 22  Conv=0.92D-08     -V/T= 2.0031
 <Sx>= 0.0000 <Sy>= 0.0000 <Sz>= 0.5000 <S**2>= 0.7566 S= 0.5033
 <L.S>=  0.00000000000    
 Annihilation of the first spin contaminant:
 S**2 before annihilation     0.7566,   after     0.7500
 DoSCS=F DFT=T ScalE2(SS,OS)=  1.000000  1.000000
 Range of M.O.s used for correlation:     1   225
 NBasis=   225 NAE=    31 NBE=    30 NFC=     0 NFV=     0
 NROrb=    225 NOA=    31 NOB=    30 NVA=   194 NVB=   195

 **** Warning!!: The largest alpha MO coefficient is  0.31441918D+03


 **** Warning!!: The largest beta MO coefficient is  0.34211928D+03

 Symmetrizing basis deriv contribution to polar:
 IMax=3 JMax=2 DiffMx= 0.00D+00
 G2DrvN: will do    16 centers at a time, making    1 passes.
 Calling FoFCou, ICntrl=  3107 FMM=F I1Cent=   0 AccDes= 0.00D+00.
 End of G2Drv F.D. properties file   721 does not exist.
 End of G2Drv F.D. properties file   722 does not exist.
 End of G2Drv F.D. properties file   788 does not exist.
          IDoAtm=111111111111111
          Differentiating once with respect to electric field.
                with respect to dipole field.
          Differentiating once with respect to nuclear coordinates.
 Keep R1 and R2 ints in memory in canonical form, NReq=671901970.
          There are    48 degrees of freedom in the 1st order CPHF.  IDoFFX=6 NUNeed=     3.
     45 vectors produced by pass  0 Test12= 2.47D-14 2.08D-09 XBig12= 9.41D+01 3.59D+00.
 AX will form    45 AO Fock derivatives at one time.
     45 vectors produced by pass  1 Test12= 2.47D-14 2.08D-09 XBig12= 2.01D+01 7.14D-01.
     45 vectors produced by pass  2 Test12= 2.47D-14 2.08D-09 XBig12= 6.05D-01 1.05D-01.
     45 vectors produced by pass  3 Test12= 2.47D-14 2.08D-09 XBig12= 6.19D-03 9.17D-03.
     45 vectors produced by pass  4 Test12= 2.47D-14 2.08D-09 XBig12= 5.75D-05 8.18D-04.
     45 vectors produced by pass  5 Test12= 2.47D-14 2.08D-09 XBig12= 4.78D-07 1.06D-04.
     45 vectors produced by pass  6 Test12= 2.47D-14 2.08D-09 XBig12= 3.75D-09 8.38D-06.
     19 vectors produced by pass  7 Test12= 2.47D-14 2.08D-09 XBig12= 2.81D-11 5.45D-07.
      3 vectors produced by pass  8 Test12= 2.47D-14 2.08D-09 XBig12= 1.99D-13 4.20D-08.
      2 vectors produced by pass  9 Test12= 2.47D-14 2.08D-09 XBig12= 3.18D-15 9.02D-09.
      1 vectors produced by pass 10 Test12= 2.47D-14 2.08D-09 XBig12= 2.43D-16 3.32D-09.
 InvSVY:  IOpt=1 It=  1 EMax= 1.95D-14
 Solved reduced A of dimension   340 with    48 vectors.
 Isotropic polarizability for W=    0.000000       75.40 Bohr**3.
 End of Minotr F.D. properties file   721 does not exist.
 End of Minotr F.D. properties file   722 does not exist.
 End of Minotr F.D. properties file   788 does not exist.

 **********************************************************************

            Population analysis using the SCF density.

 **********************************************************************

 Orbital symmetries:
 Alpha Orbitals:
       Occupied  (A) (A) (A) (A) (A) (A) (A) (A) (A) (A) (A) (A)
                 (A) (A) (A) (A) (A) (A) (A) (A) (A) (A) (A) (A)
                 (A) (A) (A) (A) (A) (A) (A)
       Virtual   (A) (A) (A) (A) (A) (A) (A) (A) (A) (A) (A) (A)
                 (A) (A) (A) (A) (A) (A) (A) (A) (A) (A) (A) (A)
                 (A) (A) (A) (A) (A) (A) (A) (A) (A) (A) (A) (A)
                 (A) (A) (A) (A) (A) (A) (A) (A) (A) (A) (A) (A)
                 (A) (A) (A) (A) (A) (A) (A) (A) (A) (A) (A) (A)
                 (A) (A) (A) (A) (A) (A) (A) (A) (A) (A) (A) (A)
                 (A) (A) (A) (A) (A) (A) (A) (A) (A) (A) (A) (A)
                 (A) (A) (A) (A) (A) (A) (A) (A) (A) (A) (A) (A)
                 (A) (A) (A) (A) (A) (A) (A) (A) (A) (A) (A) (A)
                 (A) (A) (A) (A) (A) (A) (A) (A) (A) (A) (A) (A)
                 (A) (A) (A) (A) (A) (A) (A) (A) (A) (A) (A) (A)
                 (A) (A) (A) (A) (A) (A) (A) (A) (A) (A) (A) (A)
                 (A) (A) (A) (A) (A) (A) (A) (A) (A) (A) (A) (A)
                 (A) (A) (A) (A) (A) (A) (A) (A) (A) (A) (A) (A)
                 (A) (A) (A) (A) (A) (A) (A) (A) (A) (A) (A) (A)
                 (A) (A) (A) (A) (A) (A) (A) (A) (A) (A) (A) (A)
                 (A) (A)
 Beta  Orbitals:
       Occupied  (A) (A) (A) (A) (A) (A) (A) (A) (A) (A) (A) (A)
                 (A) (A) (A) (A) (A) (A) (A) (A) (A) (A) (A) (A)
                 (A) (A) (A) (A) (A) (A)
       Virtual   (A) (A) (A) (A) (A) (A) (A) (A) (A) (A) (A) (A)
                 (A) (A) (A) (A) (A) (A) (A) (A) (A) (A) (A) (A)
                 (A) (A) (A) (A) (A) (A) (A) (A) (A) (A) (A) (A)
                 (A) (A) (A) (A) (A) (A) (A) (A) (A) (A) (A) (A)
                 (A) (A) (A) (A) (A) (A) (A) (A) (A) (A) (A) (A)
                 (A) (A) (A) (A) (A) (A) (A) (A) (A) (A) (A) (A)
                 (A) (A) (A) (A) (A) (A) (A) (A) (A) (A) (A) (A)
                 (A) (A) (A) (A) (A) (A) (A) (A) (A) (A) (A) (A)
                 (A) (A) (A) (A) (A) (A) (A) (A) (A) (A) (A) (A)
                 (A) (A) (A) (A) (A) (A) (A) (A) (A) (A) (A) (A)
                 (A) (A) (A) (A) (A) (A) (A) (A) (A) (A) (A) (A)
                 (A) (A) (A) (A) (A) (A) (A) (A) (A) (A) (A) (A)
                 (A) (A) (A) (A) (A) (A) (A) (A) (A) (A) (A) (A)
                 (A) (A) (A) (A) (A) (A) (A) (A) (A) (A) (A) (A)
                 (A) (A) (A) (A) (A) (A) (A) (A) (A) (A) (A) (A)
                 (A) (A) (A) (A) (A) (A) (A) (A) (A) (A) (A) (A)
                 (A) (A) (A)
 The electronic state is 2-A.
 Alpha  occ. eigenvalues --  -19.68983 -19.68382 -19.62916 -10.70856 -10.61653
 Alpha  occ. eigenvalues --  -10.57969 -10.57560 -10.55864  -1.25374  -1.16813
 Alpha  occ. eigenvalues --   -1.15345  -0.89635  -0.89347  -0.78138  -0.74063
 Alpha  occ. eigenvalues --   -0.64554  -0.61925  -0.59833  -0.58459  -0.56874
 Alpha  occ. eigenvalues --   -0.54497  -0.53361  -0.49006  -0.48072  -0.44319
 Alpha  occ. eigenvalues --   -0.43371  -0.41355  -0.39452  -0.38752  -0.37295
 Alpha  occ. eigenvalues --   -0.36456
 Alpha virt. eigenvalues --   -0.02268  -0.01442   0.00060   0.01275   0.01997
 Alpha virt. eigenvalues --    0.02395   0.04003   0.04300   0.05302   0.06514
 Alpha virt. eigenvalues --    0.07112   0.07420   0.08247   0.09187   0.10344
 Alpha virt. eigenvalues --    0.10659   0.11135   0.11517   0.12481   0.13534
 Alpha virt. eigenvalues --    0.13815   0.14144   0.14308   0.15174   0.15925
 Alpha virt. eigenvalues --    0.16124   0.17335   0.17979   0.18762   0.19250
 Alpha virt. eigenvalues --    0.20407   0.22006   0.22428   0.23003   0.24488
 Alpha virt. eigenvalues --    0.25067   0.25826   0.27052   0.28012   0.29083
 Alpha virt. eigenvalues --    0.30462   0.31700   0.32078   0.32706   0.33198
 Alpha virt. eigenvalues --    0.34605   0.35257   0.35762   0.37338   0.38129
 Alpha virt. eigenvalues --    0.40227   0.42015   0.45127   0.46572   0.48886
 Alpha virt. eigenvalues --    0.49641   0.52120   0.52458   0.56037   0.57133
 Alpha virt. eigenvalues --    0.59342   0.60645   0.62111   0.63238   0.66911
 Alpha virt. eigenvalues --    0.68077   0.69283   0.69745   0.72012   0.72593
 Alpha virt. eigenvalues --    0.74077   0.74602   0.76722   0.78916   0.82579
 Alpha virt. eigenvalues --    0.86054   0.87051   0.92714   0.99276   1.00027
 Alpha virt. eigenvalues --    1.04783   1.06318   1.06954   1.09589   1.10790
 Alpha virt. eigenvalues --    1.11814   1.13290   1.18013   1.18894   1.20716
 Alpha virt. eigenvalues --    1.21921   1.24578   1.27671   1.28948   1.29096
 Alpha virt. eigenvalues --    1.32420   1.34191   1.36157   1.37847   1.39463
 Alpha virt. eigenvalues --    1.42093   1.43472   1.48515   1.49110   1.54551
 Alpha virt. eigenvalues --    1.57573   1.58285   1.61019   1.62634   1.64314
 Alpha virt. eigenvalues --    1.66245   1.68919   1.69810   1.73967   1.75152
 Alpha virt. eigenvalues --    1.77195   1.79903   1.81264   1.83254   1.86506
 Alpha virt. eigenvalues --    1.91802   1.93872   1.99874   2.01091   2.04155
 Alpha virt. eigenvalues --    2.07350   2.09531   2.13399   2.18957   2.28239
 Alpha virt. eigenvalues --    2.32933   2.38965   2.42536   2.47838   2.50570
 Alpha virt. eigenvalues --    2.52054   2.55824   2.57784   2.60233   2.62795
 Alpha virt. eigenvalues --    2.67273   2.68538   2.69101   2.73056   2.74212
 Alpha virt. eigenvalues --    2.79626   2.81808   2.83576   2.88581   2.90018
 Alpha virt. eigenvalues --    2.94643   2.97789   3.01041   3.03462   3.07122
 Alpha virt. eigenvalues --    3.09056   3.12658   3.14979   3.15487   3.22403
 Alpha virt. eigenvalues --    3.26243   3.27436   3.34059   3.39801   3.40348
 Alpha virt. eigenvalues --    3.44057   3.53722   3.64374   3.75894   3.77330
 Alpha virt. eigenvalues --    3.85862   3.87134   3.94005   4.04135   4.13952
 Alpha virt. eigenvalues --    4.16120   4.30929   5.06414   5.15083   5.16251
 Alpha virt. eigenvalues --    5.18699   5.27934   5.43160   5.53777   5.68962
 Alpha virt. eigenvalues --    5.98205  23.61878  23.91742  23.94623  24.03106
 Alpha virt. eigenvalues --   25.15643  49.93027  49.99272  50.13033
  Beta  occ. eigenvalues --  -19.68348 -19.67524 -19.62913 -10.70856 -10.61662
  Beta  occ. eigenvalues --  -10.57968 -10.57560 -10.55629  -1.25308  -1.16761
  Beta  occ. eigenvalues --   -1.08899  -0.89554  -0.88832  -0.77604  -0.73811
  Beta  occ. eigenvalues --   -0.64438  -0.61831  -0.58542  -0.57220  -0.55178
  Beta  occ. eigenvalues --   -0.53423  -0.49540  -0.47898  -0.46253  -0.42986
  Beta  occ. eigenvalues --   -0.40964  -0.39852  -0.38868  -0.37510  -0.36464
  Beta virt. eigenvalues --   -0.12043  -0.02246  -0.01094   0.00132   0.01330
  Beta virt. eigenvalues --    0.02214   0.02573   0.04028   0.04347   0.05400
  Beta virt. eigenvalues --    0.06650   0.07205   0.07480   0.08357   0.09244
  Beta virt. eigenvalues --    0.10611   0.10839   0.11267   0.11729   0.12554
  Beta virt. eigenvalues --    0.13598   0.13794   0.14239   0.14416   0.15335
  Beta virt. eigenvalues --    0.16122   0.16283   0.17362   0.18104   0.18745
  Beta virt. eigenvalues --    0.19111   0.20653   0.21820   0.22559   0.22968
  Beta virt. eigenvalues --    0.24568   0.25255   0.25686   0.27332   0.28170
  Beta virt. eigenvalues --    0.29489   0.30593   0.31759   0.32137   0.32850
  Beta virt. eigenvalues --    0.33318   0.34670   0.35585   0.35914   0.37605
  Beta virt. eigenvalues --    0.38362   0.40329   0.42852   0.45153   0.47012
  Beta virt. eigenvalues --    0.49133   0.49710   0.52162   0.52499   0.56606
  Beta virt. eigenvalues --    0.57315   0.59521   0.60739   0.62290   0.63349
  Beta virt. eigenvalues --    0.67133   0.68499   0.69302   0.70028   0.72146
  Beta virt. eigenvalues --    0.72631   0.74137   0.74744   0.77212   0.79080
  Beta virt. eigenvalues --    0.82747   0.86082   0.87078   0.92769   0.99776
  Beta virt. eigenvalues --    1.00379   1.05071   1.06750   1.07505   1.09819
  Beta virt. eigenvalues --    1.11682   1.12699   1.16236   1.18333   1.18933
  Beta virt. eigenvalues --    1.20996   1.21995   1.24694   1.27726   1.29084
  Beta virt. eigenvalues --    1.29135   1.32467   1.34294   1.36388   1.38077
  Beta virt. eigenvalues --    1.40293   1.42431   1.43607   1.48558   1.51127
  Beta virt. eigenvalues --    1.54805   1.57697   1.58506   1.61025   1.62647
  Beta virt. eigenvalues --    1.64375   1.66313   1.69121   1.70010   1.73974
  Beta virt. eigenvalues --    1.76174   1.77325   1.79941   1.81305   1.83269
  Beta virt. eigenvalues --    1.86898   1.91842   1.93903   1.99738   2.01106
  Beta virt. eigenvalues --    2.04608   2.08057   2.09591   2.13803   2.18993
  Beta virt. eigenvalues --    2.28412   2.33189   2.39842   2.42721   2.47950
  Beta virt. eigenvalues --    2.50657   2.52232   2.55669   2.58108   2.60445
  Beta virt. eigenvalues --    2.62816   2.67022   2.67882   2.69009   2.73059
  Beta virt. eigenvalues --    2.74469   2.79857   2.81897   2.83517   2.89603
  Beta virt. eigenvalues --    2.93953   2.94618   2.97809   3.01036   3.03467
  Beta virt. eigenvalues --    3.07132   3.09106   3.13603   3.16760   3.19155
  Beta virt. eigenvalues --    3.22868   3.26399   3.28323   3.34072   3.40289
  Beta virt. eigenvalues --    3.41571   3.44474   3.53733   3.64403   3.75909
  Beta virt. eigenvalues --    3.78799   3.86692   3.87184   3.96070   4.04158
  Beta virt. eigenvalues --    4.14182   4.16129   4.31350   5.08310   5.15198
  Beta virt. eigenvalues --    5.16407   5.26040   5.27964   5.43221   5.56403
  Beta virt. eigenvalues --    5.68985   5.98224  23.61878  23.91755  23.94624
  Beta virt. eigenvalues --   24.03254  25.15643  49.92524  49.99236  50.13026
          Condensed to atoms (all electrons):
               1          2          3          4          5          6
     1  C   23.834262   0.820365 -10.125393  -6.844039  -0.160162   0.058078
     2  H    0.820365   0.437952  -0.356569  -0.084205  -0.005386  -0.003582
     3  C  -10.125393  -0.356569  13.145921   1.857237   0.005624  -0.244362
     4  C   -6.844039  -0.084205   1.857237  10.724989   0.485075   0.096902
     5  O   -0.160162  -0.005386   0.005624   0.485075   7.999884  -0.085148
     6  O    0.058078  -0.003582  -0.244362   0.096902  -0.085148   8.197792
     7  C   -0.428370  -0.008087   0.110603   0.213182  -0.009370   0.193462
     8  C    0.353463   0.004107  -0.073875  -0.287323   0.017812  -0.110942
     9  H   -0.033458  -0.000226   0.040345  -0.002985  -0.003609   0.007061
    10  H   -0.066560  -0.001330   0.014157   0.047793   0.001334  -0.072747
    11  H    0.009241   0.000344  -0.001946  -0.008962  -0.000331  -0.004390
    12  H   -0.088727  -0.003923   0.082616   0.025588   0.000571  -0.008104
    13  H   -0.014989   0.000262   0.004541   0.002325   0.001132   0.009574
    14  O    0.001308   0.000047   0.001527  -0.001808   0.000005   0.000594
    15  H    0.000497   0.000002  -0.000968   0.000346  -0.000025   0.000133
               7          8          9         10         11         12
     1  C   -0.428370   0.353463  -0.033458  -0.066560   0.009241  -0.088727
     2  H   -0.008087   0.004107  -0.000226  -0.001330   0.000344  -0.003923
     3  C    0.110603  -0.073875   0.040345   0.014157  -0.001946   0.082616
     4  C    0.213182  -0.287323  -0.002985   0.047793  -0.008962   0.025588
     5  O   -0.009370   0.017812  -0.003609   0.001334  -0.000331   0.000571
     6  O    0.193462  -0.110942   0.007061  -0.072747  -0.004390  -0.008104
     7  C    5.997844  -0.437432   0.381191   0.390562   0.002819  -0.040120
     8  C   -0.437432   5.969227  -0.030821  -0.006161   0.374268   0.400396
     9  H    0.381191  -0.030821   0.540090  -0.041963   0.010305  -0.016939
    10  H    0.390562  -0.006161  -0.041963   0.525454  -0.021949   0.019463
    11  H    0.002819   0.374268   0.010305  -0.021949   0.530503  -0.047654
    12  H   -0.040120   0.400396  -0.016939   0.019463  -0.047654   0.567032
    13  H    0.009527   0.253815  -0.029276   0.009337  -0.038277  -0.043235
    14  O   -0.074224   0.047466   0.003917   0.002166  -0.007477   0.000482
    15  H    0.000640   0.017887  -0.000051   0.001292  -0.003317   0.001725
              13         14         15
     1  C   -0.014989   0.001308   0.000497
     2  H    0.000262   0.000047   0.000002
     3  C    0.004541   0.001527  -0.000968
     4  C    0.002325  -0.001808   0.000346
     5  O    0.001132   0.000005  -0.000025
     6  O    0.009574   0.000594   0.000133
     7  C    0.009527  -0.074224   0.000640
     8  C    0.253815   0.047466   0.017887
     9  H   -0.029276   0.003917  -0.000051
    10  H    0.009337   0.002166   0.001292
    11  H   -0.038277  -0.007477  -0.003317
    12  H   -0.043235   0.000482   0.001725
    13  H    0.671646   0.002118  -0.015942
    14  O    0.002118   8.051327   0.258695
    15  H   -0.015942   0.258695   0.488903
          Atomic-Atomic Spin Densities.
               1          2          3          4          5          6
     1  C    0.031768   0.002065  -0.017936  -0.017637   0.000454   0.007065
     2  H    0.002065   0.000183  -0.001540  -0.000770   0.000016   0.000147
     3  C   -0.017936  -0.001540   0.013626   0.006100   0.000047  -0.002319
     4  C   -0.017637  -0.000770   0.006100   0.013055  -0.000475  -0.003692
     5  O    0.000454   0.000016   0.000047  -0.000475   0.001631  -0.000068
     6  O    0.007065   0.000147  -0.002319  -0.003692  -0.000068   0.021127
     7  C   -0.010683  -0.000414   0.022160  -0.016504   0.001002   0.005502
     8  C    0.011193   0.000422  -0.022243   0.013919  -0.000835  -0.012067
     9  H    0.006442   0.000099  -0.004741  -0.002115   0.000190   0.000316
    10  H   -0.003206  -0.000020  -0.001811   0.006530  -0.000423  -0.003814
    11  H    0.002780   0.000022   0.000448  -0.004310   0.000217   0.002913
    12  H   -0.011606  -0.000346   0.004067   0.008184  -0.000151  -0.005133
    13  H   -0.001958   0.000094   0.004316  -0.001177  -0.000040  -0.002250
    14  O   -0.002740  -0.000112  -0.000366   0.002974  -0.000010  -0.001363
    15  H    0.000444   0.000015  -0.000087  -0.000348   0.000007   0.000288
               7          8          9         10         11         12
     1  C   -0.010683   0.011193   0.006442  -0.003206   0.002780  -0.011606
     2  H   -0.000414   0.000422   0.000099  -0.000020   0.000022  -0.000346
     3  C    0.022160  -0.022243  -0.004741  -0.001811   0.000448   0.004067
     4  C   -0.016504   0.013919  -0.002115   0.006530  -0.004310   0.008184
     5  O    0.001002  -0.000835   0.000190  -0.000423   0.000217  -0.000151
     6  O    0.005502  -0.012067   0.000316  -0.003814   0.002913  -0.005133
     7  C   -0.064261   0.033577   0.005750   0.005131  -0.005578   0.007060
     8  C    0.033577   0.230559  -0.007798   0.001894  -0.007055  -0.011607
     9  H    0.005750  -0.007798  -0.003301   0.001432  -0.001346  -0.000418
    10  H    0.005131   0.001894   0.001432  -0.001615   0.002107   0.001119
    11  H   -0.005578  -0.007055  -0.001346   0.002107  -0.018339   0.001240
    12  H    0.007060  -0.011607  -0.000418   0.001119   0.001240   0.010833
    13  H    0.016073   0.067269   0.007295  -0.013047   0.021756  -0.012290
    14  O    0.001434  -0.060907  -0.003318   0.005430  -0.005068   0.010970
    15  H   -0.000645   0.003150   0.000279  -0.000700   0.000264  -0.001151
              13         14         15
     1  C   -0.001958  -0.002740   0.000444
     2  H    0.000094  -0.000112   0.000015
     3  C    0.004316  -0.000366  -0.000087
     4  C   -0.001177   0.002974  -0.000348
     5  O   -0.000040  -0.000010   0.000007
     6  O   -0.002250  -0.001363   0.000288
     7  C    0.016073   0.001434  -0.000645
     8  C    0.067269  -0.060907   0.003150
     9  H    0.007295  -0.003318   0.000279
    10  H   -0.013047   0.005430  -0.000700
    11  H    0.021756  -0.005068   0.000264
    12  H   -0.012290   0.010970  -0.001151
    13  H   -0.099714  -0.028516   0.000459
    14  O   -0.028516   0.891684   0.012688
    15  H    0.000459   0.012688  -0.031362
 Mulliken charges and spin densities:
               1          2
     1  C   -1.315518  -0.003555
     2  H    0.200230  -0.000137
     3  C    1.540542  -0.000277
     4  C   -0.224115   0.003733
     5  O   -0.247405   0.001561
     6  O   -0.034322   0.006653
     7  C   -0.302228  -0.000395
     8  C   -0.491885   0.239472
     9  H    0.176419  -0.001233
    10  H    0.199151  -0.000993
    11  H    0.206824  -0.009948
    12  H    0.150828   0.000772
    13  H    0.177440  -0.041732
    14  O   -0.286144   0.822781
    15  H    0.250183  -0.016700
 Sum of Mulliken charges =  -0.00000   1.00000
 Mulliken charges and spin densities with hydrogens summed into heavy atoms:
               1          2
     1  C   -1.115288  -0.003692
     3  C    1.540542  -0.000277
     4  C   -0.224115   0.003733
     5  O   -0.247405   0.001561
     6  O   -0.034322   0.006653
     7  C    0.073342  -0.002622
     8  C    0.043206   0.188564
    14  O   -0.035961   0.806081
 APT charges:
               1
     1  C   -0.174314
     2  H    0.230552
     3  C   -0.280547
     4  C    1.564134
     5  O   -0.869032
     6  O   -0.982480
     7  C    0.473253
     8  C    0.251324
     9  H   -0.010381
    10  H   -0.002415
    11  H   -0.022895
    12  H   -0.022163
    13  H   -0.355667
    14  O   -0.113541
    15  H    0.314173
 Sum of APT charges =   0.00000
 APT charges with hydrogens summed into heavy atoms:
               1
     1  C    0.056238
     3  C   -0.280547
     4  C    1.564134
     5  O   -0.869032
     6  O   -0.982480
     7  C    0.460456
     8  C   -0.149401
    14  O    0.200632
 Electronic spatial extent (au):  <R**2>=           1334.9242
 Charge=             -0.0000 electrons
 Dipole moment (field-independent basis, Debye):
    X=             -3.9077    Y=              1.7480    Z=              0.3426  Tot=              4.2946
 Quadrupole moment (field-independent basis, Debye-Ang):
   XX=            -53.4714   YY=            -43.4892   ZZ=            -47.1304
   XY=             11.9528   XZ=             -5.0992   YZ=             -0.1643
 Traceless Quadrupole moment (field-independent basis, Debye-Ang):
   XX=             -5.4411   YY=              4.5411   ZZ=              0.9000
   XY=             11.9528   XZ=             -5.0992   YZ=             -0.1643
 Octapole moment (field-independent basis, Debye-Ang**2):
  XXX=            -70.5444  YYY=             25.5847  ZZZ=             -0.4434  XYY=              0.1024
  XXY=            -15.3241  XXZ=             10.2008  XZZ=             -4.2126  YZZ=             -5.3735
  YYZ=             -0.9786  XYZ=              2.3171
 Hexadecapole moment (field-independent basis, Debye-Ang**3):
 XXXX=          -1093.8841 YYYY=           -283.7127 ZZZZ=           -110.3249 XXXY=             96.0632
 XXXZ=            -71.1512 YYYX=             35.6081 YYYZ=             -2.4531 ZZZX=              1.4750
 ZZZY=              0.8148 XXYY=           -270.6963 XXZZ=           -215.7772 YYZZ=            -85.0965
 XXYZ=             -3.7165 YYXZ=             -0.2290 ZZXY=             -4.8442
 N-N= 3.437286204847D+02 E-N=-1.671786030051D+03  KE= 4.188722358259D+02
  Exact polarizability:  96.408  -4.757  78.663   6.851  -1.814  51.133
 Approx polarizability:  90.761  -8.902  99.795   8.432  -3.217  60.191
                          Isotropic Fermi Contact Couplings
        Atom                 a.u.       MegaHertz       Gauss      10(-4) cm-1
     1  C(13)              0.00004       0.04019       0.01434       0.01341
     2  H(1)              -0.00001      -0.02508      -0.00895      -0.00837
     3  C(13)              0.00014       0.15542       0.05546       0.05184
     4  C(13)             -0.00042      -0.47670      -0.17010      -0.15901
     5  O(17)              0.00038      -0.23247      -0.08295      -0.07754
     6  O(17)              0.01044      -6.32656      -2.25747      -2.11031
     7  C(13)             -0.00347      -3.90592      -1.39373      -1.30287
     8  C(13)              0.08961     100.73467      35.94464      33.60147
     9  H(1)               0.00010       0.43207       0.15417       0.14412
    10  H(1)               0.00019       0.86713       0.30941       0.28924
    11  H(1)              -0.00255     -11.37612      -4.05928      -3.79466
    12  H(1)              -0.00027      -1.22075      -0.43560      -0.40720
    13  H(1)              -0.00648     -28.96463     -10.33530      -9.66156
    14  O(17)              0.13003     -78.82392     -28.12633     -26.29283
    15  H(1)              -0.01396     -62.41228     -22.27025     -20.81849
 --------------------------------------------------------
       Center         ----  Spin Dipole Couplings  ----
                      3XX-RR        3YY-RR        3ZZ-RR
 --------------------------------------------------------
     1   Atom        0.001963     -0.000419     -0.001544
     2   Atom        0.000731      0.000182     -0.000913
     3   Atom        0.002502     -0.000958     -0.001544
     4   Atom        0.003335     -0.001328     -0.002007
     5   Atom       -0.000959     -0.000554      0.001512
     6   Atom        0.024971     -0.018144     -0.006827
     7   Atom        0.002570     -0.005405      0.002835
     8   Atom        0.235954     -0.107362     -0.128592
     9   Atom        0.004398     -0.005801      0.001403
    10   Atom        0.000735     -0.001473      0.000738
    11   Atom       -0.003013      0.008997     -0.005985
    12   Atom        0.003775      0.003483     -0.007258
    13   Atom        0.131841     -0.072371     -0.059469
    14   Atom        1.999511     -1.229744     -0.769766
    15   Atom        0.010799      0.022478     -0.033276
 --------------------------------------------------------
                        XY            XZ            YZ
 --------------------------------------------------------
     1   Atom        0.001632     -0.000369     -0.000320
     2   Atom        0.001199     -0.000092     -0.000134
     3   Atom        0.001393     -0.000573     -0.000359
     4   Atom        0.000140     -0.000141      0.000720
     5   Atom        0.000974      0.004605      0.007294
     6   Atom       -0.029550     -0.037961      0.019380
     7   Atom       -0.003326     -0.004139      0.002210
     8   Atom       -0.134909      0.100869     -0.035535
     9   Atom        0.000305     -0.005451     -0.001445
    10   Atom       -0.005357     -0.003364      0.004902
    11   Atom       -0.002756      0.003311     -0.020581
    12   Atom        0.006794      0.014084      0.014376
    13   Atom       -0.056839      0.082154     -0.019256
    14   Atom       -1.233951      1.787278     -0.600432
    15   Atom        0.076981     -0.041983     -0.104293
 --------------------------------------------------------


 ---------------------------------------------------------------------------------
              Anisotropic Spin Dipole Couplings in Principal Axis System
 ---------------------------------------------------------------------------------

       Atom             a.u.   MegaHertz   Gauss  10(-4) cm-1        Axes

              Baa    -0.0016    -0.219    -0.078    -0.073 -0.0423  0.3079  0.9505
     1 C(13)  Bbb    -0.0012    -0.163    -0.058    -0.054 -0.4639  0.8365 -0.2916
              Bcc     0.0028     0.382     0.136     0.127  0.8849  0.4532 -0.1075
 
              Baa    -0.0009    -0.500    -0.178    -0.167 -0.1301  0.2541  0.9584
     2 H(1)   Bbb    -0.0008    -0.405    -0.145    -0.135 -0.6122  0.7398 -0.2792
              Bcc     0.0017     0.905     0.323     0.302  0.7799  0.6230 -0.0593
 
              Baa    -0.0017    -0.231    -0.082    -0.077 -0.0442  0.4915  0.8697
     3 C(13)  Bbb    -0.0014    -0.184    -0.066    -0.061 -0.3594  0.8045 -0.4729
              Bcc     0.0031     0.414     0.148     0.138  0.9322  0.3335 -0.1410
 
              Baa    -0.0025    -0.331    -0.118    -0.111  0.0335 -0.5360  0.8436
     4 C(13)  Bbb    -0.0009    -0.117    -0.042    -0.039 -0.0101  0.8438  0.5365
              Bcc     0.0033     0.449     0.160     0.150  0.9994  0.0265 -0.0228
 
              Baa    -0.0078     0.564     0.201     0.188 -0.3673 -0.6351  0.6795
     5 O(17)  Bbb    -0.0017     0.124     0.044     0.042  0.8511 -0.5241 -0.0298
              Bcc     0.0095    -0.688    -0.246    -0.230  0.3751  0.5674  0.7331
 
              Baa    -0.0332     2.400     0.856     0.801  0.4265  0.9031 -0.0497
     6 O(17)  Bbb    -0.0320     2.318     0.827     0.773  0.4793 -0.1791  0.8592
              Bcc     0.0652    -4.719    -1.684    -1.574  0.7670 -0.3903 -0.5092
 
              Baa    -0.0067    -0.895    -0.319    -0.299  0.3016  0.9492 -0.0894
     7 C(13)  Bbb    -0.0013    -0.177    -0.063    -0.059  0.6625 -0.1412  0.7356
              Bcc     0.0080     1.072     0.382     0.358  0.6857 -0.2811 -0.6715
 
              Baa    -0.1551   -20.809    -7.425    -6.941 -0.0345  0.5324  0.8458
     8 C(13)  Bbb    -0.1537   -20.625    -7.359    -6.880  0.3953  0.7845 -0.4777
              Bcc     0.3088    41.434    14.785    13.821  0.9179 -0.3179  0.2375
 
              Baa    -0.0062    -3.286    -1.173    -1.096  0.1067  0.9596  0.2603
     9 H(1)   Bbb    -0.0025    -1.324    -0.472    -0.442  0.6052 -0.2704  0.7487
              Bcc     0.0086     4.610     1.645     1.538  0.7889  0.0776 -0.6096
 
              Baa    -0.0065    -3.455    -1.233    -1.153  0.4477  0.8227 -0.3503
    10 H(1)   Bbb    -0.0026    -1.393    -0.497    -0.465  0.6687 -0.0481  0.7419
              Bcc     0.0091     4.849     1.730     1.617  0.5936 -0.5664 -0.5717
 
              Baa    -0.0205   -10.922    -3.897    -3.643 -0.0662  0.5672  0.8209
    11 H(1)   Bbb    -0.0036    -1.908    -0.681    -0.637  0.9862  0.1625 -0.0328
              Bcc     0.0240    12.831     4.578     4.280 -0.1520  0.8074 -0.5701
 
              Baa    -0.0204   -10.885    -3.884    -3.631 -0.3762 -0.3969  0.8372
    12 H(1)   Bbb    -0.0032    -1.687    -0.602    -0.563  0.7125 -0.7016 -0.0125
              Bcc     0.0236    12.572     4.486     4.194  0.5923  0.5918  0.5467
 
              Baa    -0.0906   -48.349   -17.252   -16.127 -0.4048 -0.3861  0.8289
    13 H(1)   Bbb    -0.0861   -45.943   -16.394   -15.325  0.0642  0.8922  0.4470
              Bcc     0.1767    94.292    33.646    31.452  0.9122 -0.2341  0.3364
 
              Baa    -1.6500   119.393    42.602    39.825  0.4940  0.6844 -0.5362
    14 O(17)  Bbb    -1.6422   118.829    42.401    39.637 -0.1324  0.6688  0.7316
              Bcc     3.2922  -238.221   -85.003   -79.462  0.8593 -0.2904  0.4210
 
              Baa    -0.1154   -61.553   -21.964   -20.532 -0.1462  0.6475  0.7479
    15 H(1)   Bbb    -0.0395   -21.086    -7.524    -7.034  0.8435 -0.3134  0.4363
              Bcc     0.1549    82.639    29.488    27.566  0.5169  0.6946 -0.5003
 

 ---------------------------------------------------------------------------------

 Calling FoFJK, ICntrl=    100127 FMM=F ISym2X=0 I1Cent= 0 IOpClX= 1 NMat=1 NMatS=1 NMatT=0.
 Full mass-weighted force constant matrix:
 Low frequencies --- -407.3518  -88.2006  -83.3590  -23.1902  -14.3069   -0.0006
 Low frequencies ---    0.0004    0.0006   12.7554
 ******    3 imaginary frequencies (negative Signs) ****** 
 Diagonal vibrational polarizability:
      121.9629890      67.3499583      99.0297559
 Harmonic frequencies (cm**-1), IR intensities (KM/Mole), Raman scattering
 activities (A**4/AMU), depolarization ratios for plane and unpolarized
 incident light, reduced masses (AMU), force constants (mDyne/A),
 and normal coordinates:
                      1                      2                      3
                      A                      A                      A
 Frequencies --   -407.3517               -85.4276               -78.4026
 Red. masses --      2.0701                 4.3964                 4.4771
 Frc consts  --      0.2024                 0.0189                 0.0162
 IR Inten    --    222.2957                 4.2346                 7.7008
  Atom  AN      X      Y      Z        X      Y      Z        X      Y      Z
     1   6    -0.00   0.00   0.00    -0.07   0.02  -0.01    -0.11   0.00  -0.05
     2   1    -0.00   0.00  -0.00    -0.09   0.02  -0.01    -0.17  -0.00  -0.08
     3   6    -0.00   0.00   0.00    -0.06   0.02  -0.02    -0.05   0.01  -0.02
     4   6    -0.00   0.01   0.01    -0.04   0.02  -0.04     0.04   0.02   0.02
     5   8    -0.01  -0.00  -0.00    -0.02   0.03  -0.09     0.06   0.09   0.08
     6   8    -0.02   0.01   0.03    -0.04   0.01  -0.00     0.10  -0.05  -0.01
     7   6    -0.01  -0.00  -0.03    -0.09  -0.03   0.15     0.07  -0.15  -0.06
     8   6    -0.13   0.01  -0.09     0.01  -0.17   0.24    -0.02  -0.26  -0.08
     9   1     0.00  -0.00  -0.03    -0.19   0.03   0.21     0.03  -0.12  -0.02
    10   1     0.02  -0.01  -0.03    -0.10  -0.00   0.13     0.16  -0.18  -0.11
    11   1    -0.09   0.07   0.01     0.14  -0.22   0.20     0.07  -0.29  -0.10
    12   1    -0.52   0.30  -0.17     0.00  -0.16   0.23    -0.12  -0.21  -0.06
    13   1    -0.44  -0.28  -0.49    -0.06  -0.23   0.38    -0.04  -0.39  -0.11
    14   8     0.20  -0.02   0.10     0.28   0.10  -0.18    -0.09   0.30   0.10
    15   1     0.06   0.05   0.05    -0.03   0.10  -0.48    -0.30   0.44   0.08
                      4                      5                      6
                      A                      A                      A
 Frequencies --     66.2526               102.2543               153.6176
 Red. masses --      6.2313                 3.5376                 1.2039
 Frc consts  --      0.0161                 0.0218                 0.0167
 IR Inten    --      3.2459                 0.1756                90.6085
  Atom  AN      X      Y      Z        X      Y      Z        X      Y      Z
     1   6     0.12   0.04  -0.17     0.27   0.06  -0.06     0.04   0.01   0.03
     2   1     0.21   0.04  -0.25     0.40   0.06  -0.09     0.08   0.01   0.05
     3   6     0.02   0.03  -0.06     0.11   0.04  -0.02    -0.01   0.01   0.01
     4   6    -0.08   0.02   0.04     0.03   0.03  -0.00    -0.01   0.00  -0.01
     5   8    -0.18  -0.03   0.34     0.03  -0.01  -0.07    -0.02   0.01   0.01
     6   8    -0.02   0.08  -0.28    -0.03   0.07   0.11     0.00   0.00  -0.05
     7   6    -0.04   0.12  -0.09    -0.01   0.07   0.06    -0.02  -0.02   0.01
     8   6     0.07  -0.15   0.04    -0.17  -0.18   0.03     0.04   0.01   0.03
     9   1    -0.10   0.24   0.08     0.02   0.18   0.22    -0.06  -0.04  -0.03
    10   1    -0.08   0.22  -0.20     0.07   0.15  -0.13    -0.04  -0.05   0.07
    11   1     0.15  -0.28  -0.13    -0.07  -0.27  -0.07     0.22   0.05   0.13
    12   1     0.13  -0.26   0.14    -0.34  -0.15   0.15    -0.06   0.16  -0.10
    13   1     0.04  -0.10   0.24    -0.22  -0.33  -0.02    -0.05  -0.21   0.01
    14   8     0.11  -0.07   0.14    -0.15  -0.05  -0.04    -0.00  -0.05  -0.06
    15   1     0.10  -0.20  -0.05    -0.28  -0.02  -0.13    -0.27   0.61   0.59
                      7                      8                      9
                      A                      A                      A
 Frequencies --    171.7257               186.9711               260.1024
 Red. masses --      1.2955                 2.5569                 5.0376
 Frc consts  --      0.0225                 0.0527                 0.2008
 IR Inten    --     34.2746                 5.6816                 0.4381
  Atom  AN      X      Y      Z        X      Y      Z        X      Y      Z
     1   6    -0.08  -0.01  -0.04     0.20   0.05   0.08     0.07   0.01  -0.22
     2   1    -0.15  -0.02  -0.08     0.43   0.07   0.17     0.25   0.01  -0.75
     3   6     0.02  -0.00   0.00    -0.11   0.02  -0.05    -0.15  -0.00   0.47
     4   6     0.02  -0.00   0.01    -0.08   0.03  -0.02    -0.06  -0.00   0.15
     5   8     0.01  -0.02  -0.01    -0.04   0.14  -0.01     0.03   0.01  -0.14
     6   8    -0.01   0.02   0.04    -0.02  -0.08   0.03     0.01  -0.01  -0.07
     7   6     0.02   0.07   0.00    -0.04  -0.15  -0.02     0.00  -0.02  -0.04
     8   6    -0.05  -0.04  -0.01    -0.02  -0.02  -0.04     0.03   0.01  -0.03
     9   1     0.09   0.13   0.10    -0.05  -0.20  -0.11    -0.02  -0.03  -0.06
    10   1     0.03   0.14  -0.11    -0.03  -0.21   0.05    -0.01  -0.04  -0.00
    11   1    -0.39  -0.14  -0.24    -0.37  -0.01  -0.12     0.04   0.01  -0.01
    12   1     0.12  -0.33   0.24     0.25  -0.26   0.05     0.05   0.01  -0.04
    13   1     0.12   0.32  -0.06     0.17   0.39  -0.05     0.04   0.02   0.00
    14   8     0.05  -0.02  -0.02     0.06   0.01   0.01     0.01   0.00   0.00
    15   1     0.10   0.31   0.49     0.24  -0.01   0.17     0.03  -0.01   0.01
                     10                     11                     12
                      A                      A                      A
 Frequencies --    349.6456               389.1384               548.3013
 Red. masses --      2.8778                 3.8427                 5.2672
 Frc consts  --      0.2073                 0.3428                 0.9330
 IR Inten    --      1.3994                 7.3915                27.3344
  Atom  AN      X      Y      Z        X      Y      Z        X      Y      Z
     1   6     0.01  -0.06   0.01    -0.03   0.10   0.01     0.02  -0.24   0.01
     2   1     0.17  -0.05   0.05    -0.12   0.09   0.00    -0.10  -0.26  -0.02
     3   6    -0.18  -0.07  -0.06     0.11   0.10   0.01     0.14  -0.20   0.04
     4   6    -0.07  -0.06   0.00    -0.04   0.06   0.04     0.04  -0.04   0.03
     5   8    -0.00   0.10  -0.01    -0.10  -0.13  -0.06     0.19   0.25   0.05
     6   8    -0.05  -0.11   0.11    -0.10   0.09   0.23    -0.11   0.12   0.01
     7   6     0.11   0.19  -0.06    -0.05  -0.07  -0.18    -0.26   0.04  -0.14
     8   6     0.10  -0.00  -0.03     0.14  -0.08  -0.12    -0.06   0.01  -0.03
     9   1     0.40   0.29   0.16    -0.04  -0.13  -0.27    -0.34  -0.02  -0.25
    10   1     0.03   0.43  -0.30     0.07  -0.20  -0.12    -0.14  -0.14  -0.02
    11   1     0.39  -0.10  -0.10     0.47  -0.12  -0.10     0.15  -0.05  -0.06
    12   1    -0.00   0.05  -0.01     0.37  -0.12  -0.26     0.22  -0.10  -0.12
    13   1    -0.01  -0.24   0.12     0.07  -0.11   0.35    -0.12   0.10   0.45
    14   8     0.02  -0.01   0.01     0.06  -0.01   0.03     0.03  -0.01   0.02
    15   1    -0.11   0.05  -0.04    -0.04   0.06   0.04    -0.18   0.08  -0.05
                     13                     14                     15
                      A                      A                      A
 Frequencies --    631.5178               696.0305               734.8079
 Red. masses --      5.6451                 1.2021                 1.3211
 Frc consts  --      1.3264                 0.3431                 0.4203
 IR Inten    --      1.6082               113.2012                36.4510
  Atom  AN      X      Y      Z        X      Y      Z        X      Y      Z
     1   6    -0.02   0.06  -0.01     0.00  -0.04   0.00    -0.14  -0.00  -0.04
     2   1    -0.51   0.02  -0.14     0.01  -0.04   0.00     0.94   0.08   0.28
     3   6     0.43   0.09   0.13     0.01  -0.03  -0.00     0.07   0.01   0.03
     4   6    -0.16  -0.03  -0.07    -0.02   0.01   0.01     0.00  -0.01  -0.01
     5   8    -0.10   0.19  -0.02    -0.01   0.02  -0.01     0.01   0.00   0.01
     6   8    -0.08  -0.28  -0.04    -0.02   0.05   0.01    -0.00  -0.01   0.00
     7   6     0.02  -0.04   0.02    -0.00  -0.00   0.01    -0.01  -0.00  -0.00
     8   6     0.01   0.00   0.01     0.02  -0.06   0.01    -0.00  -0.00   0.00
     9   1     0.31   0.09   0.26    -0.06   0.06   0.09     0.01   0.01   0.02
    10   1    -0.17   0.27  -0.21     0.03   0.02  -0.04    -0.01   0.01  -0.02
    11   1    -0.02   0.07   0.10     0.17   0.01   0.14     0.00   0.01   0.02
    12   1    -0.03   0.07  -0.05    -0.10   0.12  -0.13     0.01   0.01  -0.02
    13   1     0.01  -0.03  -0.09     0.04  -0.14  -0.12    -0.00   0.01   0.01
    14   8    -0.01   0.00  -0.00    -0.03   0.04  -0.04     0.00   0.00   0.00
    15   1     0.04  -0.02   0.01     0.80  -0.23   0.39    -0.00   0.00   0.00
                     16                     17                     18
                      A                      A                      A
 Frequencies --    756.1780               769.5577               776.0730
 Red. masses --      3.3606                 8.9852                 1.3015
 Frc consts  --      1.1322                 3.1352                 0.4619
 IR Inten    --      1.4198                16.4163                46.9696
  Atom  AN      X      Y      Z        X      Y      Z        X      Y      Z
     1   6     0.01   0.17  -0.00    -0.05   0.08   0.10     0.04   0.01  -0.14
     2   1    -0.07   0.18  -0.05     0.16   0.10  -0.29    -0.27  -0.00   0.95
     3   6    -0.10   0.12   0.03     0.07   0.06  -0.31    -0.01   0.00   0.03
     4   6     0.15  -0.10  -0.08    -0.14  -0.06   0.69    -0.01  -0.00   0.06
     5   8     0.16  -0.07   0.08     0.13  -0.02  -0.17     0.01  -0.00  -0.01
     6   8    -0.02  -0.13   0.00     0.02  -0.07  -0.15     0.00  -0.00  -0.01
     7   6    -0.16   0.00  -0.07    -0.06  -0.01  -0.03    -0.00   0.00  -0.00
     8   6    -0.10  -0.01   0.01    -0.04  -0.01  -0.00    -0.00  -0.00   0.00
     9   1     0.03   0.17   0.21     0.01   0.11   0.15    -0.00   0.01   0.01
    10   1    -0.11   0.19  -0.37    -0.04   0.12  -0.21    -0.00   0.01  -0.01
    11   1     0.16   0.11   0.25     0.00   0.09   0.15     0.00   0.01   0.01
    12   1     0.15   0.08  -0.30     0.08   0.05  -0.17     0.00   0.00  -0.01
    13   1    -0.12   0.10   0.39    -0.02   0.08   0.12    -0.00   0.00   0.01
    14   8     0.00   0.01  -0.01     0.00  -0.00   0.00     0.00   0.00  -0.00
    15   1     0.27  -0.06   0.17     0.02   0.00   0.02     0.01  -0.00   0.00
                     19                     20                     21
                      A                      A                      A
 Frequencies --    819.3833               931.9571              1088.6635
 Red. masses --      1.2586                 1.9320                 2.9108
 Frc consts  --      0.4979                 0.9886                 2.0326
 IR Inten    --     21.2944                15.1411                27.5200
  Atom  AN      X      Y      Z        X      Y      Z        X      Y      Z
     1   6     0.01  -0.05  -0.00     0.00  -0.04   0.00    -0.00   0.02  -0.00
     2   1    -0.00  -0.05   0.00     0.00  -0.05   0.00    -0.01   0.02  -0.00
     3   6    -0.01  -0.04   0.00     0.01  -0.02  -0.00     0.00   0.01   0.00
     4   6    -0.01   0.04  -0.01    -0.02   0.07  -0.00    -0.01  -0.05  -0.01
     5   8    -0.04   0.00  -0.01    -0.07  -0.00  -0.02     0.01   0.01   0.01
     6   8     0.03   0.06   0.00     0.11  -0.03  -0.01    -0.02   0.01  -0.04
     7   6     0.02  -0.07   0.02     0.08   0.00  -0.05     0.00   0.03   0.30
     8   6    -0.02  -0.03  -0.01    -0.19   0.06   0.03    -0.05  -0.01  -0.27
     9   1     0.06   0.20   0.41     0.19  -0.12  -0.20    -0.07  -0.02   0.22
    10   1     0.18   0.14  -0.41     0.20  -0.09  -0.04     0.00  -0.01   0.37
    11   1    -0.14   0.26   0.38     0.28  -0.06  -0.00     0.46  -0.11  -0.30
    12   1     0.25   0.08  -0.38    -0.03  -0.05   0.07     0.27  -0.15  -0.36
    13   1     0.08   0.19   0.02    -0.28   0.10   0.74    -0.03   0.09   0.29
    14   8     0.01  -0.01   0.01     0.01   0.00  -0.00     0.02  -0.00   0.01
    15   1    -0.20   0.06  -0.09     0.17  -0.02   0.13     0.01   0.01   0.02
                     22                     23                     24
                      A                      A                      A
 Frequencies --   1113.7062              1175.1148              1255.4558
 Red. masses --      4.8434                 1.9811                 2.8713
 Frc consts  --      3.5395                 1.6118                 2.6664
 IR Inten    --     67.1373                98.7560               373.1215
  Atom  AN      X      Y      Z        X      Y      Z        X      Y      Z
     1   6    -0.01   0.09  -0.00    -0.00   0.02  -0.00     0.00  -0.05   0.00
     2   1    -0.03   0.10  -0.01    -0.02   0.02  -0.01     0.03  -0.06   0.01
     3   6     0.00   0.04   0.00     0.01   0.01   0.00    -0.01  -0.01  -0.00
     4   6    -0.07  -0.27  -0.03    -0.06  -0.09  -0.02     0.14   0.25   0.04
     5   8     0.09   0.04   0.03    -0.03   0.01  -0.01     0.02  -0.03   0.00
     6   8    -0.26   0.14  -0.06     0.10  -0.05   0.04    -0.15  -0.09  -0.03
     7   6     0.32  -0.06  -0.03    -0.02   0.20  -0.02     0.12   0.05  -0.01
     8   6    -0.09  -0.03   0.07    -0.02  -0.12   0.01    -0.03  -0.11  -0.02
     9   1     0.18  -0.21  -0.27    -0.40   0.05  -0.31    -0.03  -0.13  -0.32
    10   1     0.50  -0.26   0.05     0.29  -0.27   0.32    -0.48   0.20   0.35
    11   1    -0.03   0.13   0.34    -0.15   0.15   0.35    -0.06   0.17   0.39
    12   1    -0.03   0.02  -0.03     0.08   0.10  -0.36    -0.02   0.04  -0.22
    13   1     0.01   0.14   0.22     0.16   0.22  -0.10     0.10   0.26   0.09
    14   8     0.01  -0.00   0.00     0.00  -0.00   0.00     0.00  -0.00   0.00
    15   1    -0.02   0.02   0.01    -0.05   0.02  -0.02    -0.05   0.02  -0.02
                     25                     26                     27
                      A                      A                      A
 Frequencies --   1334.3565              1343.2907              1393.7852
 Red. masses --      1.1940                 1.3248                 1.0406
 Frc consts  --      1.2525                 1.4084                 1.1911
 IR Inten    --     17.2736               139.0742                37.1717
  Atom  AN      X      Y      Z        X      Y      Z        X      Y      Z
     1   6     0.00   0.00   0.00    -0.00   0.01  -0.00    -0.00   0.00  -0.00
     2   1    -0.00   0.00   0.00    -0.01   0.01  -0.00    -0.00   0.00  -0.00
     3   6     0.00   0.00   0.00     0.00   0.00  -0.00     0.00   0.00  -0.00
     4   6     0.01   0.01   0.00    -0.04  -0.07  -0.01    -0.01  -0.01  -0.00
     5   8    -0.00   0.00   0.00    -0.00   0.01  -0.00     0.00   0.00   0.00
     6   8    -0.02  -0.02   0.00     0.06   0.07   0.01     0.01   0.01   0.01
     7   6     0.03  -0.01  -0.00    -0.04  -0.01   0.00    -0.01  -0.03  -0.02
     8   6     0.09   0.00  -0.08     0.04  -0.07  -0.04    -0.02  -0.02  -0.00
     9   1    -0.43   0.19   0.21     0.57  -0.18  -0.12    -0.11   0.06   0.10
    10   1     0.15  -0.08  -0.02    -0.51   0.20   0.16    -0.05   0.02  -0.05
    11   1    -0.35   0.14   0.02    -0.25   0.11   0.14     0.51  -0.10   0.00
    12   1    -0.44   0.13   0.22    -0.28   0.14  -0.04    -0.43   0.12   0.18
    13   1    -0.08  -0.01   0.52     0.03   0.10   0.29     0.32   0.58  -0.13
    14   8    -0.00   0.00  -0.00    -0.00   0.00  -0.00     0.01  -0.00   0.01
    15   1     0.02   0.01   0.03     0.01   0.00   0.01    -0.08   0.03  -0.04
                     28                     29                     30
                      A                      A                      A
 Frequencies --   1420.4899              1479.1186              1519.2822
 Red. masses --      1.3383                 1.1172                 1.0926
 Frc consts  --      1.5910                 1.4401                 1.4859
 IR Inten    --     23.3813                12.0820                24.2185
  Atom  AN      X      Y      Z        X      Y      Z        X      Y      Z
     1   6     0.00  -0.01   0.00    -0.00  -0.00   0.00     0.00  -0.01   0.00
     2   1     0.00  -0.02   0.00     0.00  -0.00  -0.00     0.00  -0.01   0.00
     3   6    -0.00  -0.00  -0.00     0.00   0.00  -0.00    -0.00  -0.00  -0.00
     4   6     0.03   0.06   0.00    -0.00   0.00  -0.00     0.01   0.03   0.00
     5   8     0.01  -0.01   0.00     0.00  -0.00   0.00     0.00  -0.00   0.00
     6   8    -0.05  -0.02  -0.03     0.00  -0.00  -0.00    -0.02  -0.01  -0.01
     7   6    -0.09   0.04   0.08    -0.05   0.02   0.03    -0.03   0.01  -0.07
     8   6     0.05  -0.03   0.01     0.00   0.00  -0.08    -0.00  -0.00  -0.00
     9   1     0.43  -0.25  -0.25     0.10  -0.10  -0.13     0.44   0.30   0.46
    10   1     0.60  -0.17  -0.30     0.14   0.00  -0.12     0.11  -0.49   0.49
    11   1    -0.11  -0.10  -0.14     0.18   0.37   0.52     0.03   0.03   0.05
    12   1    -0.22   0.23  -0.10    -0.01  -0.43   0.52     0.00  -0.04   0.04
    13   1     0.11   0.14   0.06    -0.00  -0.12  -0.11    -0.01   0.01  -0.03
    14   8    -0.00  -0.00  -0.00     0.00  -0.00   0.00    -0.00   0.00  -0.00
    15   1    -0.01   0.01  -0.00     0.01  -0.00   0.00    -0.00  -0.00  -0.00
                     31                     32                     33
                      A                      A                      A
 Frequencies --   1866.3440              2126.6940              2251.6202
 Red. masses --     12.7709                 1.1178                 5.7239
 Frc consts  --     26.2092                 2.9787                17.0975
 IR Inten    --    610.5872              1284.8036                54.1513
  Atom  AN      X      Y      Z        X      Y      Z        X      Y      Z
     1   6    -0.00   0.05  -0.00     0.00  -0.00   0.00     0.03  -0.38   0.00
     2   1     0.02   0.07   0.01     0.00  -0.01  -0.00     0.05  -0.75   0.01
     3   6    -0.01  -0.03  -0.00    -0.00   0.00  -0.00    -0.04   0.53  -0.01
     4   6     0.71  -0.34   0.19     0.01  -0.00   0.00     0.01  -0.08   0.00
     5   8    -0.47   0.23  -0.13    -0.01   0.00  -0.00    -0.00   0.00  -0.00
     6   8    -0.04   0.01  -0.01    -0.00  -0.00   0.00    -0.00  -0.00  -0.00
     7   6    -0.03  -0.01  -0.00    -0.01   0.00  -0.01     0.00  -0.00  -0.00
     8   6     0.02  -0.01   0.00    -0.08   0.04  -0.01     0.00  -0.00   0.00
     9   1     0.09  -0.02   0.00     0.00   0.02   0.00    -0.01  -0.00   0.00
    10   1    -0.00  -0.04  -0.01    -0.01  -0.01   0.00    -0.00   0.00  -0.00
    11   1     0.03  -0.00   0.02    -0.08   0.04  -0.04     0.00  -0.00   0.00
    12   1     0.00  -0.01   0.03    -0.08   0.03  -0.03     0.00   0.00   0.00
    13   1    -0.11   0.08  -0.03     0.86  -0.46   0.14    -0.03   0.02  -0.00
    14   8    -0.01   0.00  -0.00     0.02  -0.00   0.01    -0.00   0.00  -0.00
    15   1    -0.01   0.01  -0.00    -0.01  -0.01  -0.00     0.00  -0.00   0.00
                     34                     35                     36
                      A                      A                      A
 Frequencies --   3100.4148              3109.6527              3157.0550
 Red. masses --      1.0594                 1.0599                 1.1050
 Frc consts  --      5.9999                 6.0384                 6.4889
 IR Inten    --      0.0290                18.4969                 2.5506
  Atom  AN      X      Y      Z        X      Y      Z        X      Y      Z
     1   6    -0.00  -0.00  -0.00    -0.00  -0.00  -0.00    -0.00   0.00  -0.00
     2   1    -0.00  -0.00  -0.00    -0.00  -0.00  -0.00    -0.00  -0.00  -0.00
     3   6    -0.00  -0.00   0.00    -0.00   0.00  -0.00     0.00   0.00  -0.00
     4   6    -0.00  -0.00  -0.00    -0.00  -0.00  -0.00     0.00  -0.00   0.00
     5   8     0.00  -0.00   0.00     0.00  -0.00   0.00    -0.00   0.00  -0.00
     6   8     0.00  -0.00   0.00     0.00  -0.00   0.00    -0.00   0.00   0.00
     7   6     0.01  -0.02   0.04     0.01  -0.02   0.05    -0.03  -0.07  -0.01
     8   6    -0.02   0.00  -0.05     0.02   0.00   0.04     0.02   0.05  -0.00
     9   1     0.06   0.44  -0.30     0.08   0.56  -0.38     0.04   0.31  -0.22
    10   1    -0.16  -0.24  -0.17    -0.18  -0.26  -0.18     0.36   0.51   0.38
    11   1    -0.08  -0.43   0.28     0.06   0.32  -0.21    -0.05  -0.36   0.24
    12   1     0.26   0.41   0.29    -0.23  -0.36  -0.26    -0.16  -0.24  -0.18
    13   1     0.00  -0.01  -0.00    -0.02   0.01   0.01     0.01   0.01   0.00
    14   8     0.00  -0.00   0.00    -0.00   0.00  -0.00     0.00  -0.00   0.00
    15   1    -0.00  -0.00   0.00     0.00   0.00   0.00    -0.00  -0.00  -0.00
                     37                     38                     39
                      A                      A                      A
 Frequencies --   3178.6042              3488.2878              3787.5592
 Red. masses --      1.1072                 1.1699                 1.0671
 Frc consts  --      6.5908                 8.3872                 9.0196
 IR Inten    --     12.7260                59.8831                50.7791
  Atom  AN      X      Y      Z        X      Y      Z        X      Y      Z
     1   6    -0.00   0.00   0.00     0.01  -0.12   0.00     0.00   0.00  -0.00
     2   1     0.00  -0.00  -0.00    -0.07   0.99  -0.01     0.00  -0.00   0.00
     3   6    -0.00  -0.00   0.00    -0.00   0.03  -0.00     0.00   0.00  -0.00
     4   6     0.00  -0.00  -0.00    -0.00  -0.00  -0.00    -0.00  -0.00  -0.00
     5   8    -0.00   0.00  -0.00     0.00   0.00   0.00     0.00  -0.00   0.00
     6   8    -0.00   0.00   0.00     0.00  -0.00   0.00     0.00   0.00  -0.00
     7   6    -0.02  -0.05  -0.01    -0.00  -0.00   0.00    -0.00  -0.00   0.00
     8   6    -0.03  -0.07   0.00    -0.00   0.00  -0.00    -0.00   0.00  -0.00
     9   1     0.04   0.24  -0.17    -0.00   0.00  -0.00     0.00   0.00  -0.00
    10   1     0.23   0.33   0.25     0.00   0.00   0.00    -0.00  -0.00  -0.00
    11   1     0.08   0.50  -0.34     0.00   0.00  -0.00     0.00  -0.00   0.00
    12   1     0.25   0.39   0.30    -0.00   0.00   0.00     0.00  -0.00   0.00
    13   1    -0.01  -0.01  -0.00     0.00  -0.00   0.00     0.01  -0.01   0.00
    14   8    -0.00   0.00  -0.00    -0.00  -0.00   0.00    -0.03  -0.04   0.03
    15   1     0.00  -0.00   0.00     0.00   0.00  -0.00     0.50   0.70  -0.51

 -------------------
 - Thermochemistry -
 -------------------
 Temperature   298.150 Kelvin.  Pressure   1.00000 Atm.
 Atom     1 has atomic number  6 and mass  12.00000
 Atom     2 has atomic number  1 and mass   1.00783
 Atom     3 has atomic number  6 and mass  12.00000
 Atom     4 has atomic number  6 and mass  12.00000
 Atom     5 has atomic number  8 and mass  15.99491
 Atom     6 has atomic number  8 and mass  15.99491
 Atom     7 has atomic number  6 and mass  12.00000
 Atom     8 has atomic number  6 and mass  12.00000
 Atom     9 has atomic number  1 and mass   1.00783
 Atom    10 has atomic number  1 and mass   1.00783
 Atom    11 has atomic number  1 and mass   1.00783
 Atom    12 has atomic number  1 and mass   1.00783
 Atom    13 has atomic number  1 and mass   1.00783
 Atom    14 has atomic number  8 and mass  15.99491
 Atom    15 has atomic number  1 and mass   1.00783
 Molecular mass:   115.03952 amu.
 Principal axes and moments of inertia in atomic units:
                           1         2         3
     Eigenvalues --   541.938741798.773902197.25832
           X            0.99972   0.02202  -0.00857
           Y           -0.02203   0.99976  -0.00090
           Z            0.00855   0.00109   0.99996
 This molecule is an asymmetric top.
 Rotational symmetry number  1.
 Warning -- assumption of classical behavior for rotation
           may cause significant error
 Rotational temperatures (Kelvin)      0.15982     0.04815     0.03942
 Rotational constants (GHZ):           3.33016     1.00332     0.82136
    3 imaginary frequencies ignored.
 Zero-point vibrational energy     284310.5 (Joules/Mol)
                                   67.95185 (Kcal/Mol)
 Warning -- explicit consideration of   9 degrees of freedom as
           vibrations may cause significant error
 Vibrational temperatures:     95.32   147.12   221.02   247.08   269.01
          (Kelvin)            374.23   503.06   559.88   788.88   908.61
                             1001.43  1057.22  1087.97  1107.22  1116.60
                             1178.91  1340.88  1566.34  1602.37  1690.73
                             1806.32  1919.84  1932.70  2005.35  2043.77
                             2128.12  2185.91  2685.25  3059.84  3239.58
                             4460.81  4474.10  4542.30  4573.30  5018.87
                             5449.45
 
 Zero-point correction=                           0.108288 (Hartree/Particle)
 Thermal correction to Energy=                    0.116692
 Thermal correction to Enthalpy=                  0.117636
 Thermal correction to Gibbs Free Energy=         0.073768
 Sum of electronic and zero-point Energies=           -419.3397297
 Sum of electronic and thermal Energies=              -420.072503
 Sum of electronic and thermal Enthalpies=            -420.071559
 Sum of electronic and thermal Free Energies=         -420.115427
 
                     E (Thermal)             CV                S
                      KCal/Mol        Cal/Mol-Kelvin    Cal/Mol-Kelvin
 Total                   73.225             28.835             92.328
 Electronic               0.000              0.000              1.377
 Translational            0.889              2.981             40.136
 Rotational               0.889              2.981             29.150
 Vibrational             71.448             22.873             21.664
 Vibration     1          0.598              1.970              4.262
 Vibration     2          0.604              1.947              3.411
 Vibration     3          0.619              1.899              2.627
 Vibration     4          0.626              1.877              2.417
 Vibration     5          0.632              1.858              2.258
 Vibration     6          0.668              1.746              1.661
 Vibration     7          0.727              1.576              1.168
 Vibration     8          0.757              1.493              1.003
 Vibration     9          0.904              1.143              0.548
                       Q            Log10(Q)             Ln(Q)
 Total Bot       0.117219D-33        -33.931002        -78.129021
 Total V=0       0.755181D+16         15.878051         36.560564
 Vib (Bot)       0.230671D-47        -47.637006       -109.688261
 Vib (Bot)    1  0.311451D+01          0.493390          1.136072
 Vib (Bot)    2  0.200615D+01          0.302363          0.696215
 Vib (Bot)    3  0.131856D+01          0.120101          0.276543
 Vib (Bot)    4  0.117287D+01          0.069249          0.159453
 Vib (Bot)    5  0.107160D+01          0.030034          0.069156
 Vib (Bot)    6  0.746713D+00         -0.126847         -0.292075
 Vib (Bot)    7  0.527797D+00         -0.277533         -0.639044
 Vib (Bot)    8  0.461639D+00         -0.335697         -0.772972
 Vib (Bot)    9  0.286682D+00         -0.542600         -1.249382
 Vib (V=0)       0.148610D+03          2.172047          5.001323
 Vib (V=0)    1  0.365439D+01          0.562815          1.295930
 Vib (V=0)    2  0.256752D+01          0.409513          0.942939
 Vib (V=0)    3  0.191018D+01          0.281075          0.647198
 Vib (V=0)    4  0.177500D+01          0.249198          0.573800
 Vib (V=0)    5  0.168251D+01          0.225958          0.520288
 Vib (V=0)    6  0.139865D+01          0.145710          0.335511
 Vib (V=0)    7  0.122703D+01          0.088854          0.204595
 Vib (V=0)    8  0.118052D+01          0.072074          0.165957
 Vib (V=0)    9  0.107636D+01          0.031956          0.073581
 Electronic      0.200000D+01          0.301030          0.693147
 Translational   0.484981D+08          7.685724         17.697035
 Rotational      0.523901D+06          5.719250         13.169059
 ***** Axes restored to original set *****
 -------------------------------------------------------------------
 Center     Atomic                   Forces (Hartrees/Bohr)
 Number     Number              X              Y              Z
 -------------------------------------------------------------------
      1        6           0.000108015    0.000023658   -0.000034071
      2        1          -0.000001346    0.000069742   -0.000010002
      3        6           0.000093044   -0.000361670   -0.000044304
      4        6          -0.000244982    0.000044628   -0.000244387
      5        8           0.000500939    0.000033390    0.000218483
      6        8           0.000838047   -0.000283251   -0.000918894
      7        6           0.000657649   -0.000214170    0.000516179
      8        6           0.004927595   -0.000513225    0.002831903
      9        1           0.000026211   -0.000162932    0.000147374
     10        1           0.000053122    0.000104720    0.000062300
     11        1           0.000523916   -0.000156979   -0.000014228
     12        1           0.001445779   -0.000973457    0.000338442
     13        1           0.001233416    0.000820177    0.001511007
     14        8          -0.009967046    0.001612369   -0.004238842
     15        1          -0.000194360   -0.000042999   -0.000120960
 -------------------------------------------------------------------
 Cartesian Forces:  Max     0.009967046 RMS     0.001905994

 GradGradGradGradGradGradGradGradGradGradGradGradGradGradGradGradGradGrad
 Berny optimization.
 Search for a local minimum.
 Step number   1 out of a maximum of    2
 All quantities printed in internal units (Hartrees-Bohrs-Radians)
 Second derivative matrix not updated -- analytic derivatives used.
 ITU=  0
     Eigenvalues ---   -0.02884  -0.00177  -0.00125   0.00091   0.00134
     Eigenvalues ---    0.00153   0.00231   0.00457   0.01556   0.02065
     Eigenvalues ---    0.02715   0.03029   0.03232   0.05681   0.06206
     Eigenvalues ---    0.07605   0.07901   0.08581   0.08952   0.09288
     Eigenvalues ---    0.10741   0.13673   0.15792   0.17254   0.22770
     Eigenvalues ---    0.24572   0.27889   0.32580   0.50318   0.61630
     Eigenvalues ---    0.63858   0.72419   0.79241   0.84523   0.86052
     Eigenvalues ---    0.94546   0.95184   1.78166   2.70608
 Eigenvalue     1 is  -2.88D-02 should be greater than     0.000000 Eigenvector:
                          X14       X13       Z13       X12       Z14
   1                    0.65777  -0.42977  -0.30408  -0.29561   0.23498
                          X15       X11       Y12       Z12       X8
   1                    0.22092  -0.12585   0.12432  -0.08463  -0.08122
 Eigenvalue     2 is  -1.77D-03 should be greater than     0.000000 Eigenvector:
                          Z14       Z13       X14       Z15       Y14
   1                    0.39731  -0.34005  -0.32144   0.26632   0.25527
                          Z8        Z11       X10       Z5        Z12
   1                   -0.23609  -0.21644   0.20931   0.20904  -0.20847
 Eigenvalue     3 is  -1.25D-03 should be greater than     0.000000 Eigenvector:
                          Y15       Y14       Z15       Y13       Y11
   1                    0.41065   0.40238  -0.31395  -0.30076  -0.28316
                          Y8        Y12       X2        X14       Y10
   1                   -0.24971  -0.23969  -0.20295   0.15427  -0.15423
 Quadratic step=6.444D-01 exceeds max=3.000D-01 adjusted using Lamda=-8.071D-03.
 Angle between NR and scaled steps=  38.99 degrees.
 Angle between quadratic step and forces=  33.01 degrees.
 Linear search not attempted -- first point.
 B after Tr=    -0.008921    0.003672   -0.004403
         Rot=    1.000000    0.000056    0.000712    0.000419 Ang=   0.09 deg.
 Variable       Old X    -DE/DX   Delta X   Delta X   Delta X     New X
                                 (Linear)    (Quad)   (Total)
    X1        2.38391   0.00011   0.00000   0.00960   0.00439   2.38830
    Y1        4.25093   0.00002   0.00000  -0.00462  -0.00296   4.24797
    Z1       -0.11221  -0.00003   0.00000   0.00252   0.00106  -0.11116
    X2        2.24187  -0.00000   0.00000  -0.00152  -0.00501   2.23686
    Y2        6.25862   0.00007   0.00000  -0.00502  -0.00325   6.25537
    Z2       -0.13996  -0.00001   0.00000   0.00121  -0.00070  -0.14066
    X3        2.55712   0.00009   0.00000   0.01624   0.00909   2.56621
    Y3        1.99195  -0.00036   0.00000  -0.00439  -0.00288   1.98907
    Z3       -0.08016  -0.00004   0.00000   0.00175   0.00080  -0.07936
    X4        2.92009  -0.00024   0.00000   0.02681   0.01724   2.93733
    Y4       -0.75214   0.00004   0.00000  -0.00421  -0.00301  -0.75515
    Z4        0.01417  -0.00024   0.00000  -0.00557  -0.00569   0.00847
    X5        4.90615   0.00050   0.00000   0.03272   0.02160   4.92774
    Y5       -1.66899   0.00003   0.00000   0.00552   0.00512  -1.66387
    Z5        0.56601   0.00022   0.00000  -0.00572  -0.00291   0.56310
    X6        0.92501   0.00084   0.00000   0.03757   0.02764   0.95265
    Y6       -2.19283  -0.00028   0.00000  -0.00903  -0.00623  -2.19907
    Z6       -0.57174  -0.00092   0.00000  -0.01709  -0.01987  -0.59161
    X7       -1.50361   0.00066   0.00000   0.03095   0.02260  -1.48101
    Y7       -1.08061  -0.00021   0.00000  -0.01277  -0.00798  -1.08859
    Z7       -1.05992   0.00052   0.00000   0.01988   0.01350  -1.04642
    X8       -2.84376   0.00493   0.00000   0.02586   0.01451  -2.82925
    Y8       -0.49760  -0.00051   0.00000  -0.00517   0.00102  -0.49658
    Z8        1.39149   0.00283   0.00000   0.02023   0.01187   1.40335
    X9       -1.29407   0.00003   0.00000   0.01128   0.00601  -1.28806
    Y9        0.60407  -0.00016   0.00000  -0.01164  -0.00714   0.59693
    Z9       -2.23088   0.00015   0.00000   0.01608   0.00979  -2.22109
   X10       -2.51503   0.00005   0.00000   0.02120   0.01320  -2.50183
   Y10       -2.50871   0.00010   0.00000  -0.00763  -0.00210  -2.51081
   Z10       -2.14071   0.00006   0.00000   0.01796   0.01029  -2.13042
   X11       -3.12363   0.00052   0.00000   0.04262   0.02821  -3.09542
   Y11       -2.18387  -0.00016   0.00000  -0.00955  -0.00301  -2.18688
   Z11        2.54043  -0.00001   0.00000   0.02070   0.01215   2.55258
   X12       -1.91046   0.00145   0.00000   0.03678   0.02511  -1.88535
   Y12        0.98072  -0.00097   0.00000  -0.01548  -0.00995   0.97077
   Z12        2.48402   0.00034   0.00000   0.01928   0.01210   2.49612
   X13       -4.73794   0.00123   0.00000   0.10939   0.09939  -4.63856
   Y13        0.31538   0.00082   0.00000  -0.03335  -0.02569   0.28970
   Z13        0.88261   0.00151   0.00000   0.04587   0.03484   0.91745
   X14       -7.23853  -0.00997   0.00000  -0.23019  -0.23800  -7.47652
   Y14        0.74232   0.00161   0.00000   0.06638   0.07628   0.81860
   Z14       -0.24083  -0.00424   0.00000  -0.05775  -0.07288  -0.31371
   X15       -8.15669  -0.00019   0.00000  -0.03559  -0.04598  -8.20267
   Y15       -0.54435  -0.00004   0.00000  -0.01884  -0.00821  -0.55256
   Z15        0.69420  -0.00012   0.00000   0.01168  -0.00433   0.68986
         Item               Value     Threshold  Converged?
 Maximum Force            0.009967     0.000450     NO 
 RMS     Force            0.001906     0.000300     NO 
 Maximum Displacement     0.237999     0.001800     NO 
 RMS     Displacement     0.044052     0.001200     NO 
 Predicted change in Energy=-4.154194D-03
 GradGradGradGradGradGradGradGradGradGradGradGradGradGradGradGradGradGrad


 ----------------------------------------------------------------------

 Electric dipole moment (input orientation):
 (Debye = 10**-18 statcoulomb cm , SI units = C m)
                  (au)            (Debye)         (10**-30 SI)
   Tot        0.168961D+01      0.429455D+01      0.143251D+02
   x         -0.153690D+01     -0.390641D+01     -0.130304D+02
   y          0.689265D+00      0.175194D+01      0.584384D+01
   z          0.132765D+00      0.337455D+00      0.112563D+01

 Dipole polarizability, Alpha (input orientation).
 (esu units = cm**3 , SI units = C**2 m**2 J**-1)
 Alpha(0;0):
               (au)            (10**-24 esu)      (10**-40 SI)
   iso        0.754014D+02      0.111733D+02      0.124320D+02
   aniso      0.421881D+02      0.625163D+01      0.695588D+01
   xx         0.963868D+02      0.142831D+02      0.158920D+02
   yx        -0.476474D+01     -0.706062D+00     -0.785600D+00
   yy         0.786687D+02      0.116575D+02      0.129707D+02
   zx         0.689348D+01      0.102151D+01      0.113658D+01
   zy        -0.185201D+01     -0.274440D+00     -0.305355D+00
   zz         0.511488D+02      0.757947D+01      0.843330D+01

 ----------------------------------------------------------------------

 Dipole orientation:
     6          1.91556475          4.46097382         -0.44312957
     1          2.54796988          6.12133574          0.50292271
     6          1.20787786          2.59705024         -1.51969624
     6          0.43412494          0.36275824         -2.96189090
     8          1.08315587          0.04553996         -5.09910352
     8         -1.05907856         -1.30301457         -1.78088633
     6         -1.68604564         -0.99879135          0.84359377
     6          0.43229490         -1.96684391          2.49308509
     1         -2.12277967          0.97572819          1.24824020
     1         -3.39600504         -2.11361047          1.09609197
     1          0.83208282         -3.95792149          2.15004165
     1          2.15202578         -0.84121025          2.33305815
     1         -0.19199329         -1.72337399          4.50773521
     8         -1.64932792         -1.76431003          6.86820425
     1         -1.45528692         -3.54977995          7.25196965

 Electric dipole moment (dipole orientation):
 (Debye = 10**-18 statcoulomb cm , SI units = C m)
                  (au)            (Debye)         (10**-30 SI)
   Tot        0.168961D+01      0.429455D+01      0.143251D+02
   x          0.000000D+00      0.000000D+00      0.000000D+00
   y          0.000000D+00      0.000000D+00      0.000000D+00
   z          0.168961D+01      0.429455D+01      0.143251D+02

 Dipole polarizability, Alpha (dipole orientation).
 (esu units = cm**3 , SI units = C**2 m**2 J**-1)
 Alpha(0;0):
               (au)            (10**-24 esu)      (10**-40 SI)
   iso        0.754014D+02      0.111733D+02      0.124320D+02
   aniso      0.421881D+02      0.625163D+01      0.695588D+01
   xx         0.578572D+02      0.857355D+01      0.953936D+01
   yx         0.104667D+02      0.155101D+01      0.172573D+01
   yy         0.727563D+02      0.107814D+02      0.119959D+02
   zx        -0.109966D+02     -0.162952D+01     -0.181309D+01
   zy         0.126347D+01      0.187227D+00      0.208318D+00
   zz         0.955909D+02      0.141651D+02      0.157608D+02

 ----------------------------------------------------------------------
 1\1\GINC-AJ\Freq\UM062X\6-311++G(d,p)\C5H7O3(2)\AAYUSH\02-Apr-2025\0\\
 # freq 6-311++g(d,p) m062x\\Title Card Required\\0,2\C,1.261513,2.2494
 95,-0.059381\H,1.186345,3.311917,-0.074065\C,1.353167,1.054093,-0.0424
 17\C,1.545246,-0.398017,0.007496\O,2.596221,-0.88319,0.299518\O,0.4894
 94,-1.160398,-0.302551\C,-0.795674,-0.571835,-0.560886\C,-1.504854,-0.
 263321,0.736343\H,-0.684792,0.31966,-1.180531\H,-1.330895,-1.327552,-1
 .132814\H,-1.652956,-1.155654,1.34434\H,-1.010971,0.518977,1.314485\H,
 -2.507211,0.166894,0.467055\O,-3.830463,0.39282,-0.127444\H,-4.316336,
 -0.288056,0.367353\\Version=ES64L-G16RevA.03\State=2-A\HF=-420.1891954
 \S2=0.756627\S2-1=0.\S2A=0.750027\RMSD=9.151e-09\RMSF=1.906e-03\ZeroPo
 int=0.1082882\Thermal=0.116692\Dipole=-1.536899,0.6892654,0.132765\Dip
 oleDeriv=-0.1688274,0.0101446,-0.0031414,-0.0063417,-0.2290164,0.00755
 66,0.0039088,-0.0006073,-0.125098,0.2239729,-0.0036165,0.004632,0.0164
 141,0.2675512,-0.0001354,0.0028978,-0.0033376,0.2001321,-0.1551434,-0.
 0339125,-0.0106791,-0.063443,-0.5818961,-0.0042228,-0.0144808,0.007132
 ,-0.104602,2.4019799,0.0293793,0.3954634,0.5009652,1.7649626,0.0422074
 ,0.5468962,-0.0135252,0.5254597,-1.3626615,0.2668832,-0.1909656,0.3162
 828,-0.8272516,0.0842547,-0.2755687,0.0762686,-0.4171826,-1.8673891,-0
 .1687902,-0.1949191,-0.5330824,-0.6801211,-0.1171215,-0.2309352,-0.088
 0603,-0.3999299,0.8737424,-0.0106085,-0.0234554,-0.2155923,0.2476993,-
 0.0084986,-0.2054451,0.0677681,0.2983164,0.6721043,-0.1273064,0.171379
 5,-0.2887442,0.1152601,-0.1123735,0.2475201,-0.0999199,-0.0333914,-0.0
 263586,-0.0152882,0.046964,0.0416577,-0.0124084,0.0746999,0.043858,0.0
 56022,0.0076239,-0.0261705,-0.0281318,-0.0236824,-0.0396386,-0.0095967
 ,-0.0789333,-0.0089107,-0.0445771,0.0285212,-0.0411435,0.012374,-0.003
 5094,-0.0119274,-0.0350348,0.0831872,0.0235358,0.0423993,0.0074922,-0.
 0694482,-0.0319825,-0.0739911,0.0528787,-0.0132584,-0.0315921,-0.02025
 43,-0.0461802,0.0162183,-1.1101048,0.1983331,-0.2554957,0.3125819,0.04
 69001,0.0908262,-0.4120738,0.096668,-0.0037972,0.215793,-0.0335099,0.1
 072905,-0.0868978,-0.2812576,-0.1178475,0.2873136,-0.131273,-0.2751578
 ,0.4396545,-0.0639674,0.0541099,0.0048871,0.2274679,0.0879929,0.011738
 3,0.0812225,0.2753952\Polar=96.386847,-4.7647445,78.6686993,6.8934751,
 -1.8520111,51.1487993\Quadrupole=-4.0221145,3.359402,0.6627126,8.88985
 29,-3.8042046,-0.1135802\PG=C01 [X(C5H7O3)]\NImag=3\\0.06503587,-0.113
 43148,1.55459161,-0.00023406,-0.02137077,0.06098616,-0.02868486,0.0277
 0602,0.00056127,0.01843356,0.02847391,-0.42156216,0.00554386,-0.028152
 28,0.41205587,0.00058623,0.00546671,-0.02974146,-0.00002939,-0.0055068
 6,0.01786440,-0.03798896,0.08547993,0.00010679,0.00462570,-0.00038646,
 -0.00095660,0.12165018,0.08381790,-1.13330773,0.01521226,-0.00050622,0
 .00978688,-0.00019171,-0.10594471,1.44723572,0.00008097,0.01614931,-0.
 03422908,-0.00099789,-0.00004913,0.00778131,0.01472053,-0.02101753,0.0
 6475335,0.00268927,0.00240898,-0.00023849,0.00600507,-0.00013425,-0.00
 009511,-0.06524731,-0.00284439,0.00421340,0.90168521,0.00184575,0.0087
 8236,0.00098080,0.00189971,-0.00114110,0.00042140,0.01006897,-0.239165
 16,0.00271935,-0.18592281,0.64269941,-0.00060224,0.00058583,0.00327851
 ,0.00016332,-0.00004862,0.00581277,0.00335709,-0.00082792,-0.07435232,
 0.19279499,-0.04904402,0.25681398,0.00137686,-0.00180764,0.00032035,0.
 00019148,0.00003696,0.00043024,-0.01783980,0.04539720,-0.01173143,-0.6
 1619647,0.26159662,-0.14921294,0.73816416,-0.00038502,-0.00387314,-0.0
 0018907,-0.00181905,0.00050510,-0.00049456,0.04970613,-0.03807811,0.01
 364929,0.27091366,-0.22973548,0.07495720,-0.29359870,0.23723202,0.0004
 4236,-0.00051142,0.00013908,0.00035017,0.00001443,-0.00100384,-0.01157
 770,0.01238280,0.02026941,-0.14877949,0.07242100,-0.11804570,0.1964333
 2,-0.08120751,0.08625686,0.00062750,-0.00233044,-0.00016336,-0.0005740
 3,0.00046813,0.00026319,-0.00089973,-0.01746981,-0.00710620,-0.1901311
 2,-0.09865170,-0.03743542,-0.10825300,-0.02162812,-0.03622061,0.547559
 29,0.00179683,-0.00421658,0.00029485,0.00107467,0.00035992,0.00037354,
 -0.03117184,-0.04131053,-0.00880711,-0.07039119,-0.19706337,-0.0226934
 8,-0.00547276,0.03529088,-0.00120940,0.03562535,0.32743471,0.00022912,
 -0.00039517,0.00009597,0.00000590,0.00007001,-0.00079194,-0.00528628,-
 0.00509880,0.01596201,-0.04025611,-0.03186526,-0.06135230,-0.03422691,
 -0.00514170,0.00684923,0.11818256,0.02160161,0.09457946,-0.00220607,0.
 00293124,-0.00055386,0.00001706,-0.00024854,-0.00017728,-0.00013743,0.
 00124997,0.00037096,-0.04920682,-0.00774719,-0.01267070,0.01036740,-0.
 00139618,0.00204571,-0.16588213,0.04361384,-0.02376854,0.46820357,0.00
 002868,-0.00059862,0.00005935,-0.00006322,-0.00000239,-0.00005656,-0.0
 0518510,-0.00458230,-0.00249619,-0.00940008,0.02173014,-0.00177630,-0.
 00988760,-0.00200624,-0.00273584,0.06128512,-0.12089210,0.01466316,0.0
 8353746,0.61966985,-0.00133467,0.00005859,-0.00098972,-0.00005793,0.00
 007431,0.00002011,-0.00023557,-0.00078822,0.00084313,-0.01107135,0.000
 26552,-0.01369092,-0.00078453,-0.00130101,0.00607269,-0.02730958,0.011
 53392,-0.06256402,0.01963295,-0.00165553,0.55335138,0.00022492,0.00007
 499,0.00014417,-0.00003765,-0.00018944,0.00007634,-0.00072228,-0.00036
 528,-0.00018806,-0.00061776,0.00242582,0.00407866,-0.00025107,-0.00032
 690,-0.00143434,-0.03498833,0.01528409,0.02421198,-0.08955093,0.000471
 35,0.05322356,0.45994676,-0.00015605,0.00019623,-0.00010087,0.00002033
 ,0.00005953,0.00004298,-0.00027604,0.00001288,-0.00024681,-0.00028963,
 -0.00040808,0.00016682,0.00002565,0.00013052,0.00034243,0.01589240,-0.
 00333772,-0.01049246,0.00181995,-0.08937913,-0.02286429,0.04453608,0.5
 7568884,0.00045957,-0.00033646,-0.00031212,-0.00006735,-0.00010900,0.0
 0007299,0.00072035,0.00051712,-0.00065757,0.00064802,0.00271633,0.0020
 8828,-0.00102008,-0.00019749,-0.00090062,-0.00186738,-0.00206682,0.009
 46251,0.05960708,-0.02550225,-0.19503912,0.01481044,-0.01225194,0.5217
 7424,-0.00042346,-0.00055827,-0.00020430,-0.00000530,-0.00006138,-0.00
 002626,-0.00197447,-0.00169448,-0.00059033,0.00612982,0.00670139,0.000
 08347,-0.00223263,-0.00103683,-0.00007458,-0.01225955,0.03160457,-0.02
 260989,-0.05538433,-0.03578309,0.02201129,-0.00051489,-0.01385716,0.00
 911933,0.06679058,-0.00111833,-0.00032455,-0.00065852,-0.00011372,-0.0
 0005496,-0.00006471,-0.00151883,-0.00032769,-0.00040623,-0.00346090,-0
 .00127420,-0.00094913,0.00086918,0.00011508,-0.00003277,0.00940015,-0.
 01127507,0.00738602,-0.02608006,-0.22999590,0.12370074,0.00061696,0.00
 885664,-0.00539981,0.02456541,0.24925331,0.00047114,-0.00006985,0.0001
 7495,-0.00002887,-0.00010884,0.00003362,-0.00083279,-0.00041052,-0.000
 34929,0.00161500,0.00321800,0.00075140,-0.00049815,-0.00069194,-0.0000
 9885,-0.00535938,0.00366167,-0.00200005,0.01798561,0.12071434,-0.13629
 946,0.00523212,0.02385947,-0.01587874,-0.01934560,-0.13441325,0.144782
 87,0.00006173,-0.00033266,-0.00002461,-0.00003727,0.00002630,-0.000000
 66,0.00005981,-0.00039929,0.00015271,0.00039406,0.00532547,-0.00211103
 ,-0.00313534,-0.00048957,-0.00031706,-0.03369187,-0.02014369,-0.018149
 70,-0.10574797,-0.09079986,-0.06504575,0.01014608,0.01257515,0.0095585
 5,-0.00008713,-0.00330481,-0.00119004,0.13243734,-0.00039834,0.0003008
 7,-0.00016997,-0.00001928,0.00005907,-0.00001020,-0.00002096,-0.000084
 53,-0.00019487,0.00065871,-0.00221681,0.00115841,0.00171441,0.00036184
 ,0.00004707,0.01590331,0.01216913,0.01016282,-0.10263182,-0.19393407,-
 0.10348035,-0.00235963,-0.00293986,-0.00229016,-0.01193634,-0.01604210
 ,-0.01391215,0.09776859,0.20040350,0.00034508,-0.00000400,0.00022315,0
 .00001952,-0.00002181,-0.00000652,0.00002818,0.00031891,-0.00003453,0.
 00167386,0.00176194,0.00009171,-0.00073310,-0.00011420,-0.00006394,-0.
 00785399,-0.00284868,-0.00172708,-0.06795173,-0.09883800,-0.12502454,-
 0.01297019,-0.02193970,-0.01619254,0.00966324,0.01238489,0.01135164,0.
 07482581,0.10921105,0.13374328,-0.00020109,0.00014185,0.00006344,0.000
 00652,0.00004657,-0.00001296,-0.00005024,-0.00006916,0.00007747,-0.000
 05585,-0.00084148,0.00004822,-0.00014069,0.00024890,-0.00007286,0.0016
 6169,-0.00034465,-0.00122066,-0.00306954,-0.01390747,0.00992655,-0.044
 73763,-0.03105199,0.01953137,-0.00096114,0.00119347,0.00282864,0.00033
 860,0.00051650,-0.00066827,0.04687019,-0.00014271,0.00014851,0.0000822
 0,0.00005102,0.00003418,-0.00001388,-0.00014159,-0.00009962,0.00016326
 ,0.00023462,-0.00049800,0.00025436,-0.00016405,0.00022443,-0.00014670,
 -0.00134044,0.00057930,-0.00000502,0.00211771,0.00793827,-0.00568979,-
 0.03373962,-0.23824676,0.12578085,0.00143331,0.00044607,-0.00185285,-0
 .00042299,0.00076329,0.00055780,0.03398488,0.25200187,-0.00008400,0.00
 007585,0.00014819,0.00002693,0.00000404,-0.00002850,-0.00016783,-0.000
 22222,0.00004671,0.00008762,-0.00009376,-0.00004161,0.00012847,0.00004
 414,-0.00000580,-0.00125232,-0.00073390,0.00240623,0.00234170,0.026079
 20,-0.01730908,0.02190391,0.12353459,-0.13160378,0.00296241,-0.0024530
 4,-0.00394484,-0.00063759,0.00006424,0.00095715,-0.02456498,-0.1359767
 2,0.14235815,-0.00047791,-0.00005251,0.00013636,0.00010669,-0.00001291
 ,-0.00004776,-0.00124907,-0.00073273,0.00097158,0.00031930,0.00063119,
 0.00016808,-0.00021299,-0.00015984,-0.00006301,0.00175415,-0.00100314,
 -0.00146777,0.00836571,0.01408133,0.01013868,-0.09898869,-0.09795086,-
 0.06711190,0.00028357,-0.00039507,-0.00095818,-0.00136788,0.00070181,0
 .00353795,-0.00144970,-0.00045515,-0.00121344,0.10787443,-0.00037961,-
 0.00018853,0.00031907,-0.00006062,-0.00003636,0.00000616,-0.00061944,-
 0.00034507,0.00043468,-0.00001519,-0.00011279,-0.00081524,0.00037869,-
 0.00019371,0.00025750,0.00003996,0.00055422,0.00061283,-0.00246368,-0.
 00392560,-0.00324466,-0.09520218,-0.18701052,-0.10219071,0.00066356,0.
 00037839,0.00008963,0.00059394,0.00118401,-0.00060412,-0.01182948,-0.0
 1529816,-0.01419688,0.10210036,0.19903790,-0.00026732,0.00028640,0.000
 17038,0.00005462,0.00009720,0.00000050,0.00018072,0.00010600,-0.000095
 06,-0.00010623,-0.00221918,-0.00017006,0.00032616,0.00055851,0.0000071
 8,0.00063136,0.00224180,0.00219240,-0.01683552,-0.02050155,-0.01526250
 ,-0.06251492,-0.10233376,-0.12372870,-0.00048550,0.00025856,0.00095830
 ,0.00371228,-0.00050698,-0.00399547,0.00923701,0.01266758,0.01086559,0
 .06970709,0.11352803,0.13291687,-0.00010350,-0.00041156,0.00019758,-0.
 00008826,0.00029544,-0.00005574,-0.00044552,-0.00096146,0.00006794,0.0
 0803471,0.00501988,0.00234427,-0.00360033,-0.00006911,-0.00129370,-0.0
 0862930,-0.00136435,0.00643862,-0.01905356,0.00653261,-0.01391438,-0.1
 3255681,0.03919883,-0.02547999,-0.00004841,-0.00064780,0.00040525,0.00
 015884,0.00068528,0.00050638,-0.00221512,-0.00123854,0.00011987,-0.020
 02739,0.01083213,-0.00406188,0.12614840,0.00007541,-0.00001853,-0.0000
 1483,-0.00007377,-0.00006736,0.00002854,0.00004029,0.00021498,0.000099
 01,-0.00170509,-0.00127200,-0.00098085,0.00088376,-0.00006606,0.000385
 81,0.00244297,0.00143435,-0.00172473,0.00639628,-0.00370156,0.00359629
 ,0.05692503,-0.05933935,0.01778701,-0.00017467,0.00029784,0.00002884,-
 0.00008659,-0.00031274,-0.00008749,0.02173221,-0.00824961,0.00399264,-
 0.01637103,0.00515391,-0.00473838,-0.04637551,0.06395137,-0.00012182,-
 0.00001230,0.00006645,-0.00000559,0.00011137,-0.00000220,-0.00014153,-
 0.00020832,0.00002983,0.00114098,-0.00016669,-0.00063792,-0.00025099,0
 .00009537,0.00025321,0.00397312,-0.00190279,-0.00264469,0.01805795,-0.
 00751491,0.00422177,-0.01747012,0.00967097,-0.04157588,-0.00021642,0.0
 0065139,0.00058768,-0.00080170,-0.00019718,0.00077563,-0.01623959,0.00
 441329,-0.00412768,-0.01585658,0.00728856,-0.00390619,0.00922671,-0.01
 088952,0.03846037,0.00000786,0.00011104,-0.00008396,0.00004543,-0.0000
 7785,0.00003017,0.00013808,0.00030319,-0.00001809,-0.00221475,-0.00151
 646,-0.00069580,0.00099364,0.00008429,0.00037155,0.00188011,0.00049120
 ,-0.00179660,0.00457148,-0.00116511,0.00373208,-0.06517214,0.02990002,
 -0.01981796,0.00041300,-0.00001217,-0.00011668,0.00051622,-0.00057937,
 -0.00049670,0.00318016,-0.00041362,0.00054405,0.00442968,-0.00396681,0
 .00021420,0.05442642,-0.01720550,0.01510839,0.13470525,-0.00003155,0.0
 0007059,0.00003066,0.00006521,0.00000590,-0.00001345,-0.00004251,0.000
 05710,0.00000932,0.00025039,-0.00021009,0.00013348,-0.00013686,0.00012
 919,-0.00007813,-0.00009833,0.00042692,0.00064087,-0.00194008,-0.00027
 330,-0.00137310,0.01400983,-0.00619379,0.00618482,0.00021513,-0.000060
 97,-0.00009053,-0.00045993,0.00038795,0.00045135,-0.00000334,0.0003222
 4,-0.00034365,-0.00054852,0.00121076,0.00053590,-0.01527259,0.00138211
 ,-0.00323034,0.17365411,0.25856574,0.00002410,0.00009835,0.00000020,0.
 00001372,-0.00007749,-0.00002654,0.00009556,0.00027602,0.00005203,-0.0
 0180694,-0.00129478,-0.00062408,0.00091506,0.00005929,0.00032577,0.001
 66562,0.00074389,-0.00037135,0.00183221,-0.00090078,0.00155603,-0.0303
 1211,0.01525447,-0.00776349,-0.00028568,0.00006047,0.00001978,-0.00018
 173,0.00026780,0.00008883,0.00095501,-0.00045677,0.00014940,0.00274189
 ,-0.00188340,-0.00001543,0.03018452,-0.00651744,0.00698142,-0.12547952
 ,-0.19081555,0.13867035,0.00006183,0.00007050,-0.00002733,-0.00000416,
 -0.00008421,0.00001559,0.00008105,0.00021927,-0.00002358,-0.00158737,-
 0.00083515,-0.00030998,0.00076877,-0.00004366,0.00019024,0.00182633,0.
 00040107,-0.00028570,-0.00128644,0.00025497,0.00108864,-0.00217958,-0.
 00038668,0.00090994,0.00027433,0.00000653,-0.00020806,-0.00004524,-0.0
 0000288,0.00007396,0.00082384,0.00023717,-0.00019479,0.00064008,-0.000
 07163,0.00020792,-0.00200017,-0.00650380,0.00359718,-0.13792045,-0.169
 66095,0.11963828,0.14054718,0.00000461,-0.00000035,-0.00001903,-0.0000
 0881,-0.00000213,0.00001260,0.00001215,-0.00000681,-0.00000635,-0.0003
 0282,-0.00011483,-0.00012053,0.00016512,-0.00003634,0.00007075,0.00046
 143,-0.00015407,-0.00041419,0.00084108,-0.00004705,0.00116758,-0.00216
 107,0.00191058,-0.00264149,-0.00008115,0.00000809,-0.00002203,0.000149
 95,-0.00009954,-0.00022794,0.00018318,-0.00006601,0.00022548,0.0001670
 7,-0.00040844,0.00001990,0.00377676,0.00059263,0.00189110,-0.17960695,
 -0.25582035,0.18518592,0.17639944,0.25424463,0.00000555,-0.00002106,-0
 .00001065,-0.00000843,0.00000653,0.00001529,-0.00001093,-0.00004788,-0
 .00001993,0.00017984,0.00017938,0.00007827,-0.00009548,-0.00002633,-0.
 00005470,-0.00014761,-0.00018911,-0.00009637,0.00008347,0.00046187,0.0
 0011425,0.00120855,-0.00264189,0.00025454,-0.00000117,-0.00006460,-0.0
 0008903,0.00021051,-0.00014952,-0.00018675,0.00011160,0.00022239,0.000
 12988,-0.00068301,0.00039854,0.00006219,-0.00468544,-0.00096491,0.0015
 1820,0.12850488,0.18795835,-0.13904292,-0.12467233,-0.18512176,0.13732
 772\\-0.00010802,-0.00002366,0.00003407,0.00000135,-0.00006974,0.00001
 000,-0.00009304,0.00036167,0.00004430,0.00024498,-0.00004463,0.0002443
 9,-0.00050094,-0.00003339,-0.00021848,-0.00083805,0.00028325,0.0009188
 9,-0.00065765,0.00021417,-0.00051618,-0.00492759,0.00051323,-0.0028319
 0,-0.00002621,0.00016293,-0.00014737,-0.00005312,-0.00010472,-0.000062
 30,-0.00052392,0.00015698,0.00001423,-0.00144578,0.00097346,-0.0003384
 4,-0.00123342,-0.00082018,-0.00151101,0.00996705,-0.00161237,0.0042388
 4,0.00019436,0.00004300,0.00012096\\\@


 WOE UNTO THEM THAT CALL EVIL GOOD, AND GOOD EVIL      
 Job cpu time:       0 days  1 hours 19 minutes  3.8 seconds.
 Elapsed time:       0 days  0 hours  3 minutes 18.0 seconds.
 File lengths (MBytes):  RWF=    153 Int=      0 D2E=      0 Chk=      6 Scr=      1
 Normal termination of Gaussian 16 at Wed Apr  2 08:17:42 2025.
