 Entering Gaussian System, Link 0=g16
 Initial command:
 /opt/g16/l1.exe "/home/aayush/Research/ts10_irc_points/Gau-9326.inp" -scrdir="/home/aayush/Research/ts10_irc_points/"
 Entering Link 1 = /opt/g16/l1.exe PID=      9329.
  
 Copyright (c) 1988,1990,1992,1993,1995,1998,2003,2009,2016,
            Gaussian, Inc.  All Rights Reserved.
  
 This is part of the Gaussian(R) 16 program.  It is based on
 the Gaussian(R) 09 system (copyright 2009, Gaussian, Inc.),
 the Gaussian(R) 03 system (copyright 2003, Gaussian, Inc.),
 the Gaussian(R) 98 system (copyright 1998, Gaussian, Inc.),
 the Gaussian(R) 94 system (copyright 1995, Gaussian, Inc.),
 the Gaussian 92(TM) system (copyright 1992, Gaussian, Inc.),
 the Gaussian 90(TM) system (copyright 1990, Gaussian, Inc.),
 the Gaussian 88(TM) system (copyright 1988, Gaussian, Inc.),
 the Gaussian 86(TM) system (copyright 1986, Carnegie Mellon
 University), and the Gaussian 82(TM) system (copyright 1983,
 Carnegie Mellon University). Gaussian is a federally registered
 trademark of Gaussian, Inc.
  
 This software contains proprietary and confidential information,
 including trade secrets, belonging to Gaussian, Inc.
  
 This software is provided under written license and may be
 used, copied, transmitted, or stored only in accord with that
 written license.
  
 The following legend is applicable only to US Government
 contracts under FAR:
  
                    RESTRICTED RIGHTS LEGEND
  
 Use, reproduction and disclosure by the US Government is
 subject to restrictions as set forth in subparagraphs (a)
 and (c) of the Commercial Computer Software - Restricted
 Rights clause in FAR 52.227-19.
  
 Gaussian, Inc.
 340 Quinnipiac St., Bldg. 40, Wallingford CT 06492
  
  
 ---------------------------------------------------------------
 Warning -- This program may not be used in any manner that
 competes with the business of Gaussian, Inc. or will provide
 assistance to any competitor of Gaussian, Inc.  The licensee
 of this program is prohibited from giving any competitor of
 Gaussian, Inc. access to this program.  By using this program,
 the user acknowledges that Gaussian, Inc. is engaged in the
 business of creating and licensing software in the field of
 computational chemistry and represents and warrants to the
 licensee that it is not a competitor of Gaussian, Inc. and that
 it will not use this program in any manner prohibited above.
 ---------------------------------------------------------------
  

 Cite this work as:
 Gaussian 16, Revision A.03,
 M. J. Frisch, G. W. Trucks, H. B. Schlegel, G. E. Scuseria, 
 M. A. Robb, J. R. Cheeseman, G. Scalmani, V. Barone, 
 G. A. Petersson, H. Nakatsuji, X. Li, M. Caricato, A. V. Marenich, 
 J. Bloino, B. G. Janesko, R. Gomperts, B. Mennucci, H. P. Hratchian, 
 J. V. Ortiz, A. F. Izmaylov, J. L. Sonnenberg, D. Williams-Young, 
 F. Ding, F. Lipparini, F. Egidi, J. Goings, B. Peng, A. Petrone, 
 T. Henderson, D. Ranasinghe, V. G. Zakrzewski, J. Gao, N. Rega, 
 G. Zheng, W. Liang, M. Hada, M. Ehara, K. Toyota, R. Fukuda, 
 J. Hasegawa, M. Ishida, T. Nakajima, Y. Honda, O. Kitao, H. Nakai, 
 T. Vreven, K. Throssell, J. A. Montgomery, Jr., J. E. Peralta, 
 F. Ogliaro, M. J. Bearpark, J. J. Heyd, E. N. Brothers, K. N. Kudin, 
 V. N. Staroverov, T. A. Keith, R. Kobayashi, J. Normand, 
 K. Raghavachari, A. P. Rendell, J. C. Burant, S. S. Iyengar, 
 J. Tomasi, M. Cossi, J. M. Millam, M. Klene, C. Adamo, R. Cammi, 
 J. W. Ochterski, R. L. Martin, K. Morokuma, O. Farkas, 
 J. B. Foresman, and D. J. Fox, Gaussian, Inc., Wallingford CT, 2016.
 
 ******************************************
 Gaussian 16:  ES64L-G16RevA.03 25-Dec-2016
                 2-Apr-2025 
 ******************************************
 %chk=ethyl_propiolate.chk
 %nprocshared=24
 Will use up to   24 processors via shared memory.
 %mem=12GB
 --------------------------
 # freq 6-311++g(d,p) m062x
 --------------------------
 1/10=4,30=1,38=1/1,3;
 2/12=2,17=6,18=5,40=1/2;
 3/5=4,6=6,7=1111,11=2,25=1,30=1,71=2,74=-55,140=1/1,2,3;
 4//1;
 5/5=2,38=5,98=1/2;
 8/6=4,10=90,11=11/1;
 11/6=1,8=1,9=11,15=111,16=1/1,2,10;
 10/6=1/2;
 6/7=2,8=2,9=2,10=2,28=1/1;
 7/8=1,10=1,25=1/1,2,3,16;
 1/10=4,30=1/3;
 99//99;
 -------------------
 Title Card Required
 -------------------
 Symbolic Z-matrix:
 Charge =  0 Multiplicity = 2
 C                     1.26124   2.24953  -0.05928 
 H                     1.18593   3.31216  -0.07441 
 C                     1.35293   1.05414  -0.04227 
 C                     1.5463   -0.39641   0.00819 
 O                     2.59544  -0.88361   0.29912 
 O                     0.48682  -1.16026  -0.30028 
 C                    -0.80074  -0.56983  -0.56424 
 C                    -1.50633  -0.26627   0.73129 
 H                    -0.68657   0.32134  -1.1823 
 H                    -1.33293  -1.32768  -1.13505 
 H                    -1.70926  -1.14374   1.34138 
 H                    -1.10509   0.57256   1.29638 
 H                    -2.82484   0.20617   0.29888 
 O                    -3.79321   0.38511  -0.11127 
 H                    -4.31266  -0.27605   0.36182 
 

 GradGradGradGradGradGradGradGradGradGradGradGradGradGradGradGradGradGrad
 Berny optimization.
 Initialization pass.
 Trust Radius=3.00D-01 FncErr=1.00D-07 GrdErr=1.00D-07 EigMax=2.50D+02 EigMin=1.00D-04
 Number of steps in this run=      2 maximum allowed number of steps=      2.
 GradGradGradGradGradGradGradGradGradGradGradGradGradGradGradGradGradGrad

                          Input orientation:                          
 ---------------------------------------------------------------------
 Center     Atomic      Atomic             Coordinates (Angstroms)
 Number     Number       Type             X           Y           Z
 ---------------------------------------------------------------------
      1          6           0        1.261243    2.249531   -0.059283
      2          1           0        1.185929    3.312162   -0.074407
      3          6           0        1.352927    1.054144   -0.042269
      4          6           0        1.546296   -0.396407    0.008187
      5          8           0        2.595437   -0.883609    0.299119
      6          8           0        0.486824   -1.160258   -0.300276
      7          6           0       -0.800743   -0.569825   -0.564237
      8          6           0       -1.506328   -0.266274    0.731288
      9          1           0       -0.686571    0.321340   -1.182304
     10          1           0       -1.332926   -1.327679   -1.135049
     11          1           0       -1.709257   -1.143736    1.341382
     12          1           0       -1.105090    0.572559    1.296383
     13          1           0       -2.824837    0.206170    0.298882
     14          8           0       -3.793209    0.385111   -0.111271
     15          1           0       -4.312658   -0.276045    0.361817
 ---------------------------------------------------------------------
                    Distance matrix (angstroms):
                    1          2          3          4          5
     1  C    0.000000
     2  H    1.065404   0.000000
     3  C    1.199019   2.264413   0.000000
     4  C    2.662104   3.726952   1.464253   0.000000
     5  O    3.424192   4.441928   2.327072   1.192772   0.000000
     6  O    3.504920   4.532362   2.391710   1.342050   2.209538
     7  C    3.529240   4.388237   2.747366   2.422052   3.518222
     8  C    3.822790   4.550011   3.243028   3.139797   4.170413
     9  H    2.961938   3.698474   2.448721   2.630233   3.797116
    10  H    4.547902   5.384953   3.752473   3.234838   4.205481
    11  H    4.722287   5.499235   4.015238   3.596461   4.436707
    12  H    3.201499   3.825344   2.840028   3.102933   4.099861
    13  H    4.582538   5.086529   4.276582   4.422036   5.528742
    14  O    5.387601   5.775881   5.189902   5.397718   6.526321
    15  H    6.133859   6.580272   5.833656   5.870850   6.935044
                    6          7          8          9         10
     6  O    0.000000
     7  C    1.440873   0.000000
     8  C    2.415779   1.506114   0.000000
     9  H    2.085656   1.090512   2.163129   0.000000
    10  H    2.009071   1.087836   2.154034   1.771799   0.000000
    11  H    2.741913   2.187728   1.087812   3.092139   2.511607
    12  H    2.843618   2.204444   1.088102   2.526293   3.094297
    13  H    3.632246   2.333259   1.465825   2.603720   2.575781
    14  O    4.554401   3.173631   2.522703   3.286697   3.167769
    15  H    4.924960   3.643821   2.830564   3.986187   3.496476
                   11         12         13         14         15
    11  H    0.000000
    12  H    1.820085   0.000000
    13  H    2.038031   2.021578   0.000000
    14  O    2.964866   3.040166   1.066766   0.000000
    15  H    2.913783   3.447033   1.565281   0.964763   0.000000
 Stoichiometry    C5H7O3(2)
 Framework group  C1[X(C5H7O3)]
 Deg. of freedom    39
 Full point group                 C1      NOp   1
 Largest Abelian subgroup         C1      NOp   1
 Largest concise Abelian subgroup C1      NOp   1
                         Standard orientation:                         
 ---------------------------------------------------------------------
 Center     Atomic      Atomic             Coordinates (Angstroms)
 Number     Number       Type             X           Y           Z
 ---------------------------------------------------------------------
      1          6           0        1.348692    2.236195   -0.068161
      2          1           0        1.273233    3.298803   -0.084152
      3          6           0        1.440540    1.040834   -0.050171
      4          6           0        1.634101   -0.409649    0.001487
      5          8           0        2.683250   -0.896471    0.293026
      6          8           0        0.574800   -1.173895   -0.306584
      7          6           0       -0.712795   -0.583853   -0.571285
      8          6           0       -1.418691   -0.279364    0.723851
      9          1           0       -0.598619    0.306832   -1.190041
     10          1           0       -1.244754   -1.342239   -1.141600
     11          1           0       -1.621624   -1.156366    1.334605
     12          1           0       -1.017687    0.559977    1.288357
     13          1           0       -2.737176    0.192549    0.290793
     14          8           0       -3.705488    0.371026   -0.119704
     15          1           0       -4.224943   -0.289824    0.353806
 ---------------------------------------------------------------------
 Rotational constants (GHZ):           3.3377218           1.0088012           0.8246880
 Standard basis: 6-311++G(d,p) (5D, 7F)
 There are   233 symmetry adapted cartesian basis functions of A   symmetry.
 There are   225 symmetry adapted basis functions of A   symmetry.
   225 basis functions,   351 primitive gaussians,   233 cartesian basis functions
    31 alpha electrons       30 beta electrons
       nuclear repulsion energy       344.0542613836 Hartrees.
 NAtoms=   15 NActive=   15 NUniq=   15 SFac= 1.00D+00 NAtFMM=   60 NAOKFM=F Big=F
 Integral buffers will be    131072 words long.
 Raffenetti 2 integral format.
 Two-electron integral symmetry is turned on.
 One-electron integrals computed using PRISM.
 NBasis=   225 RedAO= T EigKep=  1.51D-06  NBF=   225
 NBsUse=   225 1.00D-06 EigRej= -1.00D+00 NBFU=   225
 ExpMin= 3.60D-02 ExpMax= 8.59D+03 ExpMxC= 1.30D+03 IAcc=3 IRadAn=         5 AccDes= 0.00D+00
 Harris functional with IExCor= 1009 and IRadAn=       5 diagonalized for initial guess.
 HarFok:  IExCor= 1009 AccDes= 0.00D+00 IRadAn=         5 IDoV= 1 UseB2=F ITyADJ=14
 ICtDFT=  3500011 ScaDFX=  1.000000  1.000000  1.000000  1.000000
 FoFCou: FMM=F IPFlag=           0 FMFlag=      100000 FMFlg1=           0
         NFxFlg=           0 DoJE=T BraDBF=F KetDBF=T FulRan=T
         wScrn=  0.000000 ICntrl=       500 IOpCl=  0 I1Cent=   200000004 NGrid=           0
         NMat0=    1 NMatS0=      1 NMatT0=    0 NMatD0=    1 NMtDS0=    0 NMtDT0=    0
 Petite list used in FoFCou.
 Initial guess <Sx>= 0.0000 <Sy>= 0.0000 <Sz>= 0.5000 <S**2>= 0.7500 S= 0.5000
 Requested convergence on RMS density matrix=1.00D-08 within 128 cycles.
 Requested convergence on MAX density matrix=1.00D-06.
 Requested convergence on             energy=1.00D-06.
 No special actions if energy rises.
 SCF Done:  E(UM062X) =  -420.201323457     A.U. after   18 cycles
            NFock= 18  Conv=0.78D-08     -V/T= 2.0033
 <Sx>= 0.0000 <Sy>= 0.0000 <Sz>= 0.5000 <S**2>= 0.7578 S= 0.5039
 <L.S>=  0.00000000000    
 Annihilation of the first spin contaminant:
 S**2 before annihilation     0.7578,   after     0.7500
 DoSCS=F DFT=T ScalE2(SS,OS)=  1.000000  1.000000
 Range of M.O.s used for correlation:     1   225
 NBasis=   225 NAE=    31 NBE=    30 NFC=     0 NFV=     0
 NROrb=    225 NOA=    31 NOB=    30 NVA=   194 NVB=   195

 **** Warning!!: The largest alpha MO coefficient is  0.31967343D+03


 **** Warning!!: The largest beta MO coefficient is  0.31111356D+03

 Symmetrizing basis deriv contribution to polar:
 IMax=3 JMax=2 DiffMx= 0.00D+00
 G2DrvN: will do    16 centers at a time, making    1 passes.
 Calling FoFCou, ICntrl=  3107 FMM=F I1Cent=   0 AccDes= 0.00D+00.
 End of G2Drv F.D. properties file   721 does not exist.
 End of G2Drv F.D. properties file   722 does not exist.
 End of G2Drv F.D. properties file   788 does not exist.
          IDoAtm=111111111111111
          Differentiating once with respect to electric field.
                with respect to dipole field.
          Differentiating once with respect to nuclear coordinates.
 Keep R1 and R2 ints in memory in canonical form, NReq=671901977.
          There are    48 degrees of freedom in the 1st order CPHF.  IDoFFX=6 NUNeed=     3.
     45 vectors produced by pass  0 Test12= 2.47D-14 2.08D-09 XBig12= 9.41D+01 3.48D+00.
 AX will form    45 AO Fock derivatives at one time.
     45 vectors produced by pass  1 Test12= 2.47D-14 2.08D-09 XBig12= 2.03D+01 8.19D-01.
     45 vectors produced by pass  2 Test12= 2.47D-14 2.08D-09 XBig12= 6.33D-01 7.65D-02.
     45 vectors produced by pass  3 Test12= 2.47D-14 2.08D-09 XBig12= 6.85D-03 9.40D-03.
     45 vectors produced by pass  4 Test12= 2.47D-14 2.08D-09 XBig12= 7.58D-05 1.20D-03.
     45 vectors produced by pass  5 Test12= 2.47D-14 2.08D-09 XBig12= 7.20D-07 1.28D-04.
     45 vectors produced by pass  6 Test12= 2.47D-14 2.08D-09 XBig12= 5.67D-09 6.86D-06.
     23 vectors produced by pass  7 Test12= 2.47D-14 2.08D-09 XBig12= 2.95D-11 5.38D-07.
      3 vectors produced by pass  8 Test12= 2.47D-14 2.08D-09 XBig12= 2.36D-13 4.51D-08.
      3 vectors produced by pass  9 Test12= 2.47D-14 2.08D-09 XBig12= 4.01D-15 1.04D-08.
 InvSVY:  IOpt=1 It=  1 EMax= 1.07D-14
 Solved reduced A of dimension   344 with    48 vectors.
 Isotropic polarizability for W=    0.000000       73.20 Bohr**3.
 End of Minotr F.D. properties file   721 does not exist.
 End of Minotr F.D. properties file   722 does not exist.
 End of Minotr F.D. properties file   788 does not exist.

 **********************************************************************

            Population analysis using the SCF density.

 **********************************************************************

 Orbital symmetries:
 Alpha Orbitals:
       Occupied  (A) (A) (A) (A) (A) (A) (A) (A) (A) (A) (A) (A)
                 (A) (A) (A) (A) (A) (A) (A) (A) (A) (A) (A) (A)
                 (A) (A) (A) (A) (A) (A) (A)
       Virtual   (A) (A) (A) (A) (A) (A) (A) (A) (A) (A) (A) (A)
                 (A) (A) (A) (A) (A) (A) (A) (A) (A) (A) (A) (A)
                 (A) (A) (A) (A) (A) (A) (A) (A) (A) (A) (A) (A)
                 (A) (A) (A) (A) (A) (A) (A) (A) (A) (A) (A) (A)
                 (A) (A) (A) (A) (A) (A) (A) (A) (A) (A) (A) (A)
                 (A) (A) (A) (A) (A) (A) (A) (A) (A) (A) (A) (A)
                 (A) (A) (A) (A) (A) (A) (A) (A) (A) (A) (A) (A)
                 (A) (A) (A) (A) (A) (A) (A) (A) (A) (A) (A) (A)
                 (A) (A) (A) (A) (A) (A) (A) (A) (A) (A) (A) (A)
                 (A) (A) (A) (A) (A) (A) (A) (A) (A) (A) (A) (A)
                 (A) (A) (A) (A) (A) (A) (A) (A) (A) (A) (A) (A)
                 (A) (A) (A) (A) (A) (A) (A) (A) (A) (A) (A) (A)
                 (A) (A) (A) (A) (A) (A) (A) (A) (A) (A) (A) (A)
                 (A) (A) (A) (A) (A) (A) (A) (A) (A) (A) (A) (A)
                 (A) (A) (A) (A) (A) (A) (A) (A) (A) (A) (A) (A)
                 (A) (A) (A) (A) (A) (A) (A) (A) (A) (A) (A) (A)
                 (A) (A)
 Beta  Orbitals:
       Occupied  (A) (A) (A) (A) (A) (A) (A) (A) (A) (A) (A) (A)
                 (A) (A) (A) (A) (A) (A) (A) (A) (A) (A) (A) (A)
                 (A) (A) (A) (A) (A) (A)
       Virtual   (A) (A) (A) (A) (A) (A) (A) (A) (A) (A) (A) (A)
                 (A) (A) (A) (A) (A) (A) (A) (A) (A) (A) (A) (A)
                 (A) (A) (A) (A) (A) (A) (A) (A) (A) (A) (A) (A)
                 (A) (A) (A) (A) (A) (A) (A) (A) (A) (A) (A) (A)
                 (A) (A) (A) (A) (A) (A) (A) (A) (A) (A) (A) (A)
                 (A) (A) (A) (A) (A) (A) (A) (A) (A) (A) (A) (A)
                 (A) (A) (A) (A) (A) (A) (A) (A) (A) (A) (A) (A)
                 (A) (A) (A) (A) (A) (A) (A) (A) (A) (A) (A) (A)
                 (A) (A) (A) (A) (A) (A) (A) (A) (A) (A) (A) (A)
                 (A) (A) (A) (A) (A) (A) (A) (A) (A) (A) (A) (A)
                 (A) (A) (A) (A) (A) (A) (A) (A) (A) (A) (A) (A)
                 (A) (A) (A) (A) (A) (A) (A) (A) (A) (A) (A) (A)
                 (A) (A) (A) (A) (A) (A) (A) (A) (A) (A) (A) (A)
                 (A) (A) (A) (A) (A) (A) (A) (A) (A) (A) (A) (A)
                 (A) (A) (A) (A) (A) (A) (A) (A) (A) (A) (A) (A)
                 (A) (A) (A) (A) (A) (A) (A) (A) (A) (A) (A) (A)
                 (A) (A) (A)
 The electronic state is 2-A.
 Alpha  occ. eigenvalues --  -19.69515 -19.63791 -19.63410 -10.71662 -10.62924
 Alpha  occ. eigenvalues --  -10.59166 -10.58668 -10.58212  -1.26310  -1.17763
 Alpha  occ. eigenvalues --   -1.13296  -0.90649  -0.90162  -0.78754  -0.74800
 Alpha  occ. eigenvalues --   -0.65701  -0.62624  -0.61054  -0.59670  -0.57676
 Alpha  occ. eigenvalues --   -0.55023  -0.50796  -0.49933  -0.49595  -0.44672
 Alpha  occ. eigenvalues --   -0.41262  -0.40414  -0.40129  -0.38517  -0.37294
 Alpha  occ. eigenvalues --   -0.33360
 Alpha virt. eigenvalues --   -0.02987  -0.01134  -0.00075   0.01064   0.01906
 Alpha virt. eigenvalues --    0.02396   0.03620   0.04064   0.05001   0.06645
 Alpha virt. eigenvalues --    0.06776   0.07222   0.07877   0.08922   0.10269
 Alpha virt. eigenvalues --    0.10547   0.10962   0.11424   0.12263   0.13249
 Alpha virt. eigenvalues --    0.13420   0.13789   0.14030   0.15012   0.15628
 Alpha virt. eigenvalues --    0.16016   0.16846   0.17548   0.18231   0.19442
 Alpha virt. eigenvalues --    0.20141   0.21435   0.22536   0.23727   0.23946
 Alpha virt. eigenvalues --    0.25159   0.26110   0.26620   0.28578   0.29223
 Alpha virt. eigenvalues --    0.29970   0.31270   0.31713   0.32352   0.32721
 Alpha virt. eigenvalues --    0.34255   0.34981   0.35285   0.37022   0.37651
 Alpha virt. eigenvalues --    0.39595   0.41422   0.44224   0.45857   0.48875
 Alpha virt. eigenvalues --    0.50133   0.51616   0.52002   0.56249   0.56970
 Alpha virt. eigenvalues --    0.59201   0.59663   0.61253   0.62876   0.65586
 Alpha virt. eigenvalues --    0.65949   0.68658   0.69216   0.70129   0.71848
 Alpha virt. eigenvalues --    0.73278   0.73674   0.74916   0.78043   0.81468
 Alpha virt. eigenvalues --    0.85452   0.86100   0.92319   0.97742   1.00369
 Alpha virt. eigenvalues --    1.04414   1.05942   1.07750   1.09104   1.11127
 Alpha virt. eigenvalues --    1.12783   1.14061   1.17118   1.18165   1.19687
 Alpha virt. eigenvalues --    1.21039   1.24023   1.26575   1.27801   1.28299
 Alpha virt. eigenvalues --    1.30634   1.32601   1.33636   1.35470   1.38712
 Alpha virt. eigenvalues --    1.41574   1.43237   1.46920   1.50817   1.54196
 Alpha virt. eigenvalues --    1.56154   1.56967   1.60920   1.61645   1.62729
 Alpha virt. eigenvalues --    1.64761   1.65193   1.67710   1.68180   1.73657
 Alpha virt. eigenvalues --    1.75910   1.78299   1.79160   1.80203   1.82460
 Alpha virt. eigenvalues --    1.89184   1.92293   1.94310   1.98175   2.01483
 Alpha virt. eigenvalues --    2.06594   2.10542   2.11974   2.16176   2.20275
 Alpha virt. eigenvalues --    2.27190   2.36428   2.41477   2.46563   2.50137
 Alpha virt. eigenvalues --    2.51472   2.53657   2.57495   2.58925   2.60875
 Alpha virt. eigenvalues --    2.66780   2.68204   2.70127   2.72120   2.75185
 Alpha virt. eigenvalues --    2.76557   2.81380   2.82443   2.87847   2.93014
 Alpha virt. eigenvalues --    2.96909   2.99538   3.02526   3.06236   3.07642
 Alpha virt. eigenvalues --    3.09988   3.11758   3.18932   3.20833   3.24715
 Alpha virt. eigenvalues --    3.25823   3.32709   3.34395   3.39011   3.41709
 Alpha virt. eigenvalues --    3.44218   3.53039   3.63767   3.74922   3.77557
 Alpha virt. eigenvalues --    3.79077   3.86616   4.02957   4.04520   4.11372
 Alpha virt. eigenvalues --    4.15341   4.25681   5.10977   5.13638   5.15588
 Alpha virt. eigenvalues --    5.27113   5.41488   5.50829   5.67482   5.74700
 Alpha virt. eigenvalues --    5.96916  23.61200  23.90864  23.91477  23.93977
 Alpha virt. eigenvalues --   25.15003  49.97991  50.00498  50.12180
  Beta  occ. eigenvalues --  -19.69383 -19.63778 -19.62854 -10.71664 -10.62953
  Beta  occ. eigenvalues --  -10.58667 -10.58513 -10.58212  -1.26049  -1.17560
  Beta  occ. eigenvalues --   -1.11151  -0.90248  -0.88975  -0.77523  -0.73991
  Beta  occ. eigenvalues --   -0.65218  -0.62442  -0.59424  -0.58368  -0.56829
  Beta  occ. eigenvalues --   -0.54495  -0.50085  -0.49057  -0.46769  -0.44258
  Beta  occ. eigenvalues --   -0.40818  -0.39887  -0.39245  -0.38367  -0.37196
  Beta virt. eigenvalues --   -0.10146  -0.02937  -0.00988   0.00019   0.01119
  Beta virt. eigenvalues --    0.02006   0.02774   0.03694   0.04140   0.05076
  Beta virt. eigenvalues --    0.06676   0.06736   0.07103   0.07968   0.08945
  Beta virt. eigenvalues --    0.10174   0.10599   0.11139   0.11562   0.12287
  Beta virt. eigenvalues --    0.13110   0.13301   0.13829   0.14115   0.15010
  Beta virt. eigenvalues --    0.15618   0.16183   0.16886   0.17626   0.18365
  Beta virt. eigenvalues --    0.19773   0.20432   0.21615   0.22564   0.23705
  Beta virt. eigenvalues --    0.24373   0.25463   0.26485   0.26602   0.29006
  Beta virt. eigenvalues --    0.29404   0.30254   0.31331   0.31839   0.32419
  Beta virt. eigenvalues --    0.32922   0.34311   0.35448   0.35706   0.37362
  Beta virt. eigenvalues --    0.37975   0.39776   0.42738   0.44325   0.46358
  Beta virt. eigenvalues --    0.49107   0.50550   0.51685   0.52102   0.56775
  Beta virt. eigenvalues --    0.57870   0.59702   0.60004   0.61475   0.63077
  Beta virt. eigenvalues --    0.66391   0.66978   0.68721   0.69780   0.70998
  Beta virt. eigenvalues --    0.71932   0.73494   0.74133   0.76153   0.78476
  Beta virt. eigenvalues --    0.81813   0.85520   0.86159   0.92359   0.98927
  Beta virt. eigenvalues --    1.01604   1.05309   1.06456   1.07930   1.09483
  Beta virt. eigenvalues --    1.11554   1.13371   1.15092   1.17399   1.18238
  Beta virt. eigenvalues --    1.19885   1.21231   1.24412   1.26889   1.28187
  Beta virt. eigenvalues --    1.28480   1.30808   1.32869   1.33958   1.35701
  Beta virt. eigenvalues --    1.38959   1.41864   1.43299   1.47549   1.52044
  Beta virt. eigenvalues --    1.55302   1.56523   1.58309   1.61691   1.62087
  Beta virt. eigenvalues --    1.63660   1.65371   1.65715   1.68079   1.68826
  Beta virt. eigenvalues --    1.73952   1.76122   1.78759   1.79479   1.80829
  Beta virt. eigenvalues --    1.82799   1.89410   1.92464   1.94653   1.99144
  Beta virt. eigenvalues --    2.01757   2.07071   2.11651   2.13346   2.16931
  Beta virt. eigenvalues --    2.21410   2.28643   2.39525   2.42048   2.46895
  Beta virt. eigenvalues --    2.51005   2.51324   2.54395   2.58403   2.59737
  Beta virt. eigenvalues --    2.62370   2.66806   2.68430   2.69544   2.72128
  Beta virt. eigenvalues --    2.76080   2.76986   2.81755   2.82526   2.88249
  Beta virt. eigenvalues --    2.93205   2.96981   2.99631   3.02565   3.06286
  Beta virt. eigenvalues --    3.07766   3.10984   3.13156   3.19457   3.21565
  Beta virt. eigenvalues --    3.24987   3.26660   3.32974   3.35216   3.39213
  Beta virt. eigenvalues --    3.42348   3.46461   3.53078   3.63821   3.75047
  Beta virt. eigenvalues --    3.79423   3.80477   3.86903   4.03116   4.06152
  Beta virt. eigenvalues --    4.12414   4.15369   4.26838   5.11915   5.14035
  Beta virt. eigenvalues --    5.15617   5.27179   5.41717   5.52281   5.67587
  Beta virt. eigenvalues --    5.76485   5.97014  23.61199  23.90941  23.92478
  Beta virt. eigenvalues --   23.94177  25.15003  49.97824  49.99889  50.12156
          Condensed to atoms (all electrons):
               1          2          3          4          5          6
     1  C   24.544246   0.827518 -10.539200  -7.128108  -0.153706   0.051475
     2  H    0.827518   0.436044  -0.364384  -0.083743  -0.005412  -0.003536
     3  C  -10.539200  -0.364384  13.537928   1.857371   0.011581  -0.244179
     4  C   -7.128108  -0.083743   1.857371  11.027147   0.469749   0.090100
     5  O   -0.153706  -0.005412   0.011581   0.469749   7.990921  -0.082299
     6  O    0.051475  -0.003536  -0.244179   0.090100  -0.082299   8.214978
     7  C   -0.464077  -0.009157   0.106142   0.272787  -0.009169   0.181401
     8  C    0.388677   0.005339  -0.057051  -0.352427   0.018046  -0.101406
     9  H   -0.062968   0.000082   0.037229   0.029805  -0.004191   0.006613
    10  H   -0.052961  -0.001456   0.023259   0.023060   0.001922  -0.075291
    11  H   -0.003869   0.000528  -0.008995   0.013137  -0.000869   0.001077
    12  H   -0.036535  -0.004039   0.076382  -0.025583   0.002070  -0.009315
    13  H   -0.028561  -0.000318   0.007604   0.016938   0.000357  -0.002378
    14  O    0.006160   0.000149   0.002388  -0.008985   0.000022   0.001087
    15  H    0.001175   0.000015  -0.001098  -0.000071  -0.000016   0.000549
               7          8          9         10         11         12
     1  C   -0.464077   0.388677  -0.062968  -0.052961  -0.003869  -0.036535
     2  H   -0.009157   0.005339   0.000082  -0.001456   0.000528  -0.004039
     3  C    0.106142  -0.057051   0.037229   0.023259  -0.008995   0.076382
     4  C    0.272787  -0.352427   0.029805   0.023060   0.013137  -0.025583
     5  O   -0.009169   0.018046  -0.004191   0.001922  -0.000869   0.002070
     6  O    0.181401  -0.101406   0.006613  -0.075291   0.001077  -0.009315
     7  C    5.932918  -0.395915   0.405597   0.367842   0.032865  -0.061452
     8  C   -0.395915   6.250754  -0.059564   0.013986   0.327167   0.392838
     9  H    0.405597  -0.059564   0.531593  -0.047524   0.014125  -0.026847
    10  H    0.367842   0.013986  -0.047524   0.529885  -0.032081   0.028404
    11  H    0.032865   0.327167   0.014125  -0.032081   0.534719  -0.070882
    12  H   -0.061452   0.392838  -0.026847   0.028404  -0.070882   0.571792
    13  H    0.019649   0.003907  -0.014083   0.006918  -0.008705  -0.013638
    14  O   -0.072285   0.048430   0.001483   0.004352  -0.013062  -0.004089
    15  H   -0.007895   0.025481  -0.001061   0.003528  -0.009079   0.003411
              13         14         15
     1  C   -0.028561   0.006160   0.001175
     2  H   -0.000318   0.000149   0.000015
     3  C    0.007604   0.002388  -0.001098
     4  C    0.016938  -0.008985  -0.000071
     5  O    0.000357   0.000022  -0.000016
     6  O   -0.002378   0.001087   0.000549
     7  C    0.019649  -0.072285  -0.007895
     8  C    0.003907   0.048430   0.025481
     9  H   -0.014083   0.001483  -0.001061
    10  H    0.006918   0.004352   0.003528
    11  H   -0.008705  -0.013062  -0.009079
    12  H   -0.013638  -0.004089   0.003411
    13  H    0.501996   0.228959  -0.023332
    14  O    0.228959   8.003281   0.283887
    15  H   -0.023332   0.283887   0.476246
          Atomic-Atomic Spin Densities.
               1          2          3          4          5          6
     1  C    0.216197   0.008566  -0.174600  -0.054480   0.000763   0.026225
     2  H    0.008566   0.000686  -0.007478  -0.001754   0.000020   0.000444
     3  C   -0.174600  -0.007478   0.137613   0.044498   0.000301  -0.003128
     4  C   -0.054480  -0.001754   0.044498   0.013485  -0.001186  -0.021388
     5  O    0.000763   0.000020   0.000301  -0.001186   0.007309  -0.000238
     6  O    0.026225   0.000444  -0.003128  -0.021388  -0.000238   0.097887
     7  C   -0.043532  -0.001276   0.022287   0.018621  -0.000675  -0.031188
     8  C    0.035857   0.001334  -0.030965  -0.002853  -0.000744  -0.020714
     9  H    0.005958   0.000008  -0.000921  -0.004671   0.000118  -0.001024
    10  H   -0.003194  -0.000035  -0.001519   0.004920  -0.000307  -0.006595
    11  H   -0.001078  -0.000031   0.000871   0.000315   0.000043   0.000367
    12  H   -0.032026  -0.000833   0.017852   0.016123  -0.000084  -0.009698
    13  H   -0.005187  -0.000068   0.003598   0.001796  -0.000002  -0.002424
    14  O   -0.002112  -0.000108   0.000613   0.001494  -0.000011  -0.001497
    15  H    0.000774   0.000028  -0.000421  -0.000377   0.000005   0.000432
               7          8          9         10         11         12
     1  C   -0.043532   0.035857   0.005958  -0.003194  -0.001078  -0.032026
     2  H   -0.001276   0.001334   0.000008  -0.000035  -0.000031  -0.000833
     3  C    0.022287  -0.030965  -0.000921  -0.001519   0.000871   0.017852
     4  C    0.018621  -0.002853  -0.004671   0.004920   0.000315   0.016123
     5  O   -0.000675  -0.000744   0.000118  -0.000307   0.000043  -0.000084
     6  O   -0.031188  -0.020714  -0.001024  -0.006595   0.000367  -0.009698
     7  C   -0.014818  -0.021210   0.001342   0.016414  -0.004221   0.026029
     8  C   -0.021210   1.013453  -0.000781  -0.012173  -0.007923  -0.046552
     9  H    0.001342  -0.000781  -0.000488   0.001183  -0.001402   0.000584
    10  H    0.016414  -0.012173   0.001183   0.000467   0.002842   0.000572
    11  H   -0.004221  -0.007923  -0.001402   0.002842  -0.038396   0.007923
    12  H    0.026029  -0.046552   0.000584   0.000572   0.007923  -0.009122
    13  H    0.014342   0.020194   0.003725  -0.006298   0.015324   0.002382
    14  O    0.003114  -0.101743  -0.001260   0.003998  -0.002877   0.007422
    15  H   -0.000540   0.009014   0.000074  -0.000501  -0.000018  -0.001462
              13         14         15
     1  C   -0.005187  -0.002112   0.000774
     2  H   -0.000068  -0.000108   0.000028
     3  C    0.003598   0.000613  -0.000421
     4  C    0.001796   0.001494  -0.000377
     5  O   -0.000002  -0.000011   0.000005
     6  O   -0.002424  -0.001497   0.000432
     7  C    0.014342   0.003114  -0.000540
     8  C    0.020194  -0.101743   0.009014
     9  H    0.003725  -0.001260   0.000074
    10  H   -0.006298   0.003998  -0.000501
    11  H    0.015324  -0.002877  -0.000018
    12  H    0.002382   0.007422  -0.001462
    13  H   -0.134620   0.037817  -0.001511
    14  O    0.037817   0.298678   0.000919
    15  H   -0.001511   0.000919  -0.005424
 Mulliken charges and spin densities:
               1          2
     1  C   -1.349266  -0.021871
     2  H    0.202369  -0.000497
     3  C    1.555022   0.008600
     4  C   -0.201178   0.014541
     5  O   -0.239007   0.005313
     6  O   -0.028873   0.027461
     7  C   -0.299250  -0.015312
     8  C   -0.508261   0.834194
     9  H    0.189711   0.002444
    10  H    0.206157  -0.000227
    11  H    0.223924  -0.028260
    12  H    0.177483  -0.020892
    13  H    0.304687  -0.050933
    14  O   -0.481776   0.244448
    15  H    0.248260   0.000991
 Sum of Mulliken charges =  -0.00000   1.00000
 Mulliken charges and spin densities with hydrogens summed into heavy atoms:
               1          2
     1  C   -1.146897  -0.022368
     3  C    1.555022   0.008600
     4  C   -0.201178   0.014541
     5  O   -0.239007   0.005313
     6  O   -0.028873   0.027461
     7  C    0.096617  -0.013095
     8  C   -0.106855   0.785042
    14  O    0.071171   0.194506
 APT charges:
               1
     1  C   -0.162074
     2  H    0.232962
     3  C   -0.291113
     4  C    1.550036
     5  O   -0.854944
     6  O   -0.964506
     7  C    0.461793
     8  C    0.140928
     9  H    0.003485
    10  H    0.014000
    11  H    0.012201
    12  H    0.028197
    13  H    0.090475
    14  O   -0.522140
    15  H    0.260700
 Sum of APT charges =  -0.00000
 APT charges with hydrogens summed into heavy atoms:
               1
     1  C    0.070888
     3  C   -0.291113
     4  C    1.550036
     5  O   -0.854944
     6  O   -0.964506
     7  C    0.479278
     8  C    0.181327
    14  O   -0.170965
 Electronic spatial extent (au):  <R**2>=           1338.6343
 Charge=             -0.0000 electrons
 Dipole moment (field-independent basis, Debye):
    X=             -2.2265    Y=              1.4668    Z=              0.7135  Tot=              2.7601
 Quadrupole moment (field-independent basis, Debye-Ang):
   XX=            -61.3872   YY=            -43.1751   ZZ=            -46.8213
   XY=             13.2499   XZ=             -6.3602   YZ=              0.0007
 Traceless Quadrupole moment (field-independent basis, Debye-Ang):
   XX=            -10.9260   YY=              7.2861   ZZ=              3.6399
   XY=             13.2499   XZ=             -6.3602   YZ=              0.0007
 Octapole moment (field-independent basis, Debye-Ang**2):
  XXX=            -29.2161  YYY=             25.7354  ZZZ=              0.0239  XYY=              1.8484
  XXY=            -20.5464  XXZ=             14.3505  XZZ=             -3.6988  YZZ=             -5.6498
  YYZ=             -0.7985  XYZ=              1.6927
 Hexadecapole moment (field-independent basis, Debye-Ang**3):
 XXXX=          -1270.2680 YYYY=           -280.3915 ZZZZ=           -107.9283 XXXY=            118.3093
 XXXZ=            -86.9463 YYYX=             38.8933 YYYZ=             -2.4200 ZZZX=             -0.1031
 ZZZY=              0.9110 XXYY=           -275.3225 XXZZ=           -218.9377 YYZZ=            -84.1058
 XXYZ=             -1.0564 YYXZ=             -1.4245 ZZXY=             -3.7942
 N-N= 3.440542613836D+02 E-N=-1.672133136189D+03  KE= 4.188256486188D+02
  Exact polarizability:  90.342  -3.754  78.302   4.915  -1.505  50.942
 Approx polarizability:  90.461  -9.137  99.585   7.333  -2.858  60.140
                          Isotropic Fermi Contact Couplings
        Atom                 a.u.       MegaHertz       Gauss      10(-4) cm-1
     1  C(13)              0.00001       0.00900       0.00321       0.00300
     2  H(1)              -0.00001      -0.04884      -0.01743      -0.01629
     3  C(13)              0.00036       0.40465       0.14439       0.13498
     4  C(13)             -0.00165      -1.85900      -0.66334      -0.62009
     5  O(17)              0.00165      -1.00152      -0.35737      -0.33407
     6  O(17)              0.05000     -30.30827     -10.81475     -10.10975
     7  C(13)             -0.00660      -7.41743      -2.64673      -2.47419
     8  C(13)              0.22871     257.11206      91.74398      85.76335
     9  H(1)               0.00069       3.10233       1.10699       1.03483
    10  H(1)               0.00163       7.30614       2.60701       2.43707
    11  H(1)              -0.00936     -41.84332     -14.93074     -13.95743
    12  H(1)              -0.00800     -35.75559     -12.75848     -11.92678
    13  H(1)              -0.02659    -118.86103     -42.41257     -39.64777
    14  O(17)              0.07836     -47.49968     -16.94907     -15.84419
    15  H(1)              -0.00351     -15.70566      -5.60417      -5.23884
 --------------------------------------------------------
       Center         ----  Spin Dipole Couplings  ----
                      3XX-RR        3YY-RR        3ZZ-RR
 --------------------------------------------------------
     1   Atom        0.002650      0.000337     -0.002986
     2   Atom        0.000291      0.001011     -0.001302
     3   Atom        0.003607     -0.000793     -0.002815
     4   Atom        0.007119     -0.002446     -0.004672
     5   Atom       -0.004372      0.000733      0.003639
     6   Atom        0.104122     -0.058863     -0.045260
     7   Atom       -0.007013     -0.007139      0.014152
     8   Atom        0.679200     -0.324779     -0.354421
     9   Atom       -0.000464     -0.010090      0.010554
    10   Atom       -0.005934     -0.003849      0.009782
    11   Atom       -0.009678      0.025714     -0.016036
    12   Atom       -0.005538      0.027396     -0.021858
    13   Atom        0.175455     -0.097378     -0.078077
    14   Atom        0.713768     -0.426014     -0.287753
    15   Atom        0.017479      0.000350     -0.017829
 --------------------------------------------------------
                        XY            XZ            YZ
 --------------------------------------------------------
     1   Atom        0.003289     -0.000886     -0.000998
     2   Atom        0.001750     -0.000328     -0.000449
     3   Atom        0.003842     -0.001829     -0.001194
     4   Atom        0.002115     -0.000138      0.002883
     5   Atom        0.007075      0.018108      0.026658
     6   Atom       -0.116707     -0.126971      0.065041
     7   Atom       -0.000460     -0.007157      0.002939
     8   Atom       -0.382981      0.340918     -0.116377
     9   Atom        0.001327     -0.009725     -0.004985
    10   Atom       -0.004993     -0.003341      0.011050
    11   Atom        0.010370     -0.004337     -0.058366
    12   Atom        0.016043      0.031484      0.046378
    13   Atom       -0.073166      0.108179     -0.026384
    14   Atom       -0.450889      0.613437     -0.206640
    15   Atom        0.028735     -0.014403     -0.032113
 --------------------------------------------------------


 ---------------------------------------------------------------------------------
              Anisotropic Spin Dipole Couplings in Principal Axis System
 ---------------------------------------------------------------------------------

       Atom             a.u.   MegaHertz   Gauss  10(-4) cm-1        Axes

              Baa    -0.0033    -0.438    -0.156    -0.146 -0.0086  0.2745  0.9616
     1 C(13)  Bbb    -0.0019    -0.258    -0.092    -0.086 -0.5973  0.7698 -0.2251
              Bcc     0.0052     0.696     0.248     0.232  0.8020  0.5762 -0.1573
 
              Baa    -0.0014    -0.740    -0.264    -0.247  0.0021  0.1825  0.9832
     2 H(1)   Bbb    -0.0011    -0.604    -0.216    -0.201  0.7811 -0.6143  0.1123
              Bcc     0.0025     1.344     0.479     0.448  0.6244  0.7677 -0.1438
 
              Baa    -0.0034    -0.452    -0.161    -0.151  0.0368  0.3744  0.9266
     3 C(13)  Bbb    -0.0030    -0.400    -0.143    -0.134 -0.5410  0.7870 -0.2965
              Bcc     0.0064     0.853     0.304     0.284  0.8402  0.4904 -0.2315
 
              Baa    -0.0068    -0.909    -0.325    -0.303  0.0968 -0.5839  0.8061
     4 C(13)  Bbb    -0.0008    -0.108    -0.039    -0.036 -0.1985  0.7823  0.5905
              Bcc     0.0076     1.018     0.363     0.339  0.9753  0.2172  0.0401
 
              Baa    -0.0276     1.995     0.712     0.666 -0.3835 -0.5805  0.7183
     5 O(17)  Bbb    -0.0093     0.676     0.241     0.225  0.8292 -0.5589 -0.0090
              Bcc     0.0369    -2.671    -0.953    -0.891  0.4066  0.5921  0.6957
 
              Baa    -0.1200     8.685     3.099     2.897  0.5660  0.7719  0.2897
     6 O(17)  Bbb    -0.1170     8.468     3.022     2.825  0.2289 -0.4847  0.8442
              Bcc     0.2371   -17.153    -6.121    -5.722  0.7920 -0.4115 -0.4510
 
              Baa    -0.0093    -1.248    -0.445    -0.416  0.9238 -0.2247  0.3100
     7 C(13)  Bbb    -0.0074    -0.994    -0.355    -0.331  0.2513  0.9667 -0.0483
              Bcc     0.0167     2.242     0.800     0.748 -0.2889  0.1226  0.9495
 
              Baa    -0.4573   -61.369   -21.898   -20.470 -0.1416  0.3899  0.9099
     8 C(13)  Bbb    -0.4538   -60.899   -21.730   -20.314  0.3871  0.8678 -0.3116
              Bcc     0.9111   122.267    43.628    40.784  0.9111 -0.3081  0.2738
 
              Baa    -0.0113    -6.053    -2.160    -2.019  0.1288  0.9530  0.2742
     9 H(1)   Bbb    -0.0058    -3.089    -1.102    -1.030  0.8643 -0.2435  0.4401
              Bcc     0.0171     9.142     3.262     3.049 -0.4861 -0.1803  0.8551
 
              Baa    -0.0116    -6.201    -2.213    -2.068  0.5042  0.7969 -0.3327
    10 H(1)   Bbb    -0.0056    -2.977    -1.062    -0.993  0.8330 -0.3471  0.4308
              Bcc     0.0172     9.178     3.275     3.062 -0.2278  0.4944  0.8389
 
              Baa    -0.0573   -30.559   -10.904   -10.193 -0.0520  0.5788  0.8138
    11 H(1)   Bbb    -0.0111    -5.920    -2.113    -1.975  0.9889 -0.0839  0.1228
              Bcc     0.0684    36.479    13.017    12.168  0.1393  0.8111 -0.5680
 
              Baa    -0.0577   -30.770   -10.980   -10.264 -0.3880 -0.3837  0.8380
    12 H(1)   Bbb    -0.0103    -5.516    -1.968    -1.840  0.8350 -0.5312  0.1434
              Bcc     0.0680    36.287    12.948    12.104  0.3902  0.7554  0.5265
 
              Baa    -0.1181   -63.003   -22.481   -21.015 -0.3840 -0.2115  0.8988
    13 H(1)   Bbb    -0.1155   -61.643   -21.996   -20.562  0.1345  0.9502  0.2810
              Bcc     0.2336   124.646    44.477    41.577  0.9135 -0.2287  0.3364
 
              Baa    -0.5864    42.432    15.141    14.154  0.4815  0.7313 -0.4831
    14 O(17)  Bbb    -0.5736    41.503    14.809    13.844 -0.1543  0.6133  0.7746
              Bcc     1.1600   -83.934   -29.950   -27.998  0.8627 -0.2985  0.4082
 
              Baa    -0.0429   -22.870    -8.161    -7.629 -0.1271  0.6447  0.7538
    15 H(1)   Bbb    -0.0102    -5.422    -1.935    -1.809  0.7335 -0.4505  0.5089
              Bcc     0.0530    28.292    10.095     9.437  0.6677  0.6176 -0.4156
 

 ---------------------------------------------------------------------------------

 Calling FoFJK, ICntrl=    100127 FMM=F ISym2X=0 I1Cent= 0 IOpClX= 1 NMat=1 NMatS=1 NMatT=0.
 Full mass-weighted force constant matrix:
 Low frequencies --- -201.8117  -74.1240  -35.8801  -12.5437   -0.0001    0.0006
 Low frequencies ---    0.0006   16.0612   52.3598
 ******    2 imaginary frequencies (negative Signs) ****** 
 Diagonal vibrational polarizability:
       55.4929146      57.0715681      91.9166741
 Harmonic frequencies (cm**-1), IR intensities (KM/Mole), Raman scattering
 activities (A**4/AMU), depolarization ratios for plane and unpolarized
 incident light, reduced masses (AMU), force constants (mDyne/A),
 and normal coordinates:
                      1                      2                      3
                      A                      A                      A
 Frequencies --   -201.7575               -63.4120                48.4478
 Red. masses --      3.2564                 3.8965                 6.9329
 Frc consts  --      0.0781                 0.0092                 0.0096
 IR Inten    --     14.3091                 3.7218                 4.8264
  Atom  AN      X      Y      Z        X      Y      Z        X      Y      Z
     1   6    -0.00   0.01  -0.00    -0.14   0.01  -0.05     0.12   0.03  -0.17
     2   1     0.00   0.01  -0.01    -0.21   0.00  -0.07     0.17   0.03  -0.26
     3   6    -0.01   0.01  -0.00    -0.08   0.01  -0.03     0.05   0.02  -0.05
     4   6    -0.03   0.01   0.01     0.00   0.02   0.00    -0.03   0.02   0.06
     5   8    -0.03  -0.00  -0.01     0.03   0.09   0.01    -0.13  -0.01   0.38
     6   8    -0.06   0.02   0.08     0.05  -0.04   0.01     0.04   0.05  -0.24
     7   6    -0.02   0.01  -0.06     0.01  -0.13   0.03     0.03   0.08  -0.19
     8   6    -0.24   0.04  -0.15    -0.02  -0.29   0.04     0.05  -0.15  -0.13
     9   1     0.04   0.01  -0.06    -0.05  -0.06   0.11     0.04   0.17  -0.05
    10   1     0.04   0.01  -0.12     0.07  -0.11  -0.05     0.05   0.15  -0.31
    11   1    -0.02  -0.02  -0.13    -0.29  -0.36  -0.16     0.08  -0.26  -0.28
    12   1    -0.07  -0.07  -0.08     0.12  -0.49   0.25     0.07  -0.25   0.01
    13   1     0.70  -0.19   0.16     0.05   0.22  -0.01    -0.08  -0.03   0.16
    14   8     0.26  -0.05   0.08     0.11   0.26  -0.01    -0.09  -0.02   0.25
    15   1     0.41  -0.13   0.18     0.05   0.28  -0.05    -0.06  -0.05   0.24
                      4                      5                      6
                      A                      A                      A
 Frequencies --     87.8444               121.5828               177.5730
 Red. masses --      3.2563                 5.9096                 3.4704
 Frc consts  --      0.0148                 0.0515                 0.0645
 IR Inten    --      0.2175                 1.8599                 2.1537
  Atom  AN      X      Y      Z        X      Y      Z        X      Y      Z
     1   6     0.22   0.05  -0.08    -0.07   0.00  -0.03     0.29   0.07   0.11
     2   1     0.34   0.06  -0.11    -0.07   0.00  -0.04     0.59   0.10   0.22
     3   6     0.09   0.04  -0.04    -0.06   0.00  -0.02    -0.12   0.04  -0.05
     4   6     0.00   0.03  -0.01    -0.10  -0.00  -0.03    -0.10   0.04  -0.03
     5   8    -0.01  -0.02  -0.06    -0.15  -0.04   0.10    -0.06   0.15   0.01
     6   8    -0.05   0.08   0.07    -0.06   0.03  -0.24    -0.01  -0.08  -0.03
     7   6    -0.04   0.11   0.10    -0.10   0.08   0.11    -0.07  -0.21  -0.01
     8   6    -0.14  -0.18   0.11     0.19   0.03   0.28     0.02  -0.02  -0.01
     9   1    -0.02   0.25   0.30    -0.24   0.11   0.13    -0.17  -0.30  -0.17
    10   1     0.01   0.23  -0.11    -0.26   0.13   0.19    -0.07  -0.33   0.16
    11   1    -0.23  -0.32  -0.12     0.25   0.02   0.29     0.05   0.08   0.14
    12   1    -0.14  -0.34   0.35     0.24   0.04   0.23     0.06   0.07  -0.17
    13   1    -0.06  -0.07  -0.02     0.18  -0.02   0.08     0.01  -0.01  -0.01
    14   8    -0.03  -0.08  -0.08     0.30  -0.09  -0.14     0.02   0.00  -0.01
    15   1    -0.06  -0.10  -0.13     0.21  -0.10  -0.25    -0.02   0.11   0.10
                      7                      8                      9
                      A                      A                      A
 Frequencies --    200.1408               257.9127               334.2489
 Red. masses --      1.0743                 5.0087                 3.2512
 Frc consts  --      0.0254                 0.1963                 0.2140
 IR Inten    --    103.6103                 0.5398                 8.1047
  Atom  AN      X      Y      Z        X      Y      Z        X      Y      Z
     1   6    -0.01  -0.00   0.00     0.07   0.01  -0.23    -0.02   0.06  -0.01
     2   1    -0.03  -0.00   0.00     0.24   0.01  -0.76    -0.20   0.05  -0.06
     3   6     0.01   0.00   0.01    -0.14   0.00   0.47     0.21   0.08   0.06
     4   6     0.00   0.00   0.00    -0.06   0.00   0.15     0.09   0.06   0.00
     5   8    -0.00  -0.01  -0.00     0.03   0.01  -0.14     0.00  -0.12   0.02
     6   8     0.00   0.01  -0.01     0.01  -0.00  -0.07     0.05   0.14  -0.10
     7   6     0.00   0.01   0.00    -0.00  -0.01  -0.03    -0.12  -0.18   0.04
     8   6    -0.00  -0.01   0.01     0.03  -0.01  -0.02    -0.13  -0.03   0.02
     9   1     0.00   0.02   0.02    -0.02  -0.02  -0.05    -0.43  -0.29  -0.17
    10   1    -0.00   0.02  -0.01    -0.00  -0.03  -0.01    -0.01  -0.45   0.28
    11   1     0.00  -0.02  -0.01     0.07   0.00   0.01     0.02   0.09   0.24
    12   1    -0.01  -0.01   0.02    -0.01   0.03  -0.05    -0.22   0.16  -0.18
    13   1     0.04  -0.09  -0.11    -0.00  -0.01   0.01     0.04  -0.11   0.01
    14   8     0.01  -0.04  -0.04     0.01   0.00   0.00    -0.02   0.03  -0.00
    15   1    -0.17   0.65   0.72    -0.00   0.01  -0.01    -0.06   0.02  -0.05
                     10                     11                     12
                      A                      A                      A
 Frequencies --    401.7077               408.1214               559.0308
 Red. masses --      4.3662                 1.1513                 4.3375
 Frc consts  --      0.4151                 0.1130                 0.7987
 IR Inten    --     10.7371                10.2955                28.0587
  Atom  AN      X      Y      Z        X      Y      Z        X      Y      Z
     1   6    -0.03   0.12   0.01    -0.01   0.00  -0.00     0.02  -0.21   0.01
     2   1    -0.11   0.11  -0.00     0.00   0.00   0.01    -0.10  -0.23  -0.02
     3   6     0.09   0.12   0.02    -0.01   0.00  -0.02     0.13  -0.17   0.03
     4   6    -0.06   0.07   0.04    -0.01   0.00   0.00     0.02  -0.03   0.02
     5   8    -0.13  -0.14  -0.07    -0.01   0.00  -0.01     0.15   0.22   0.03
     6   8    -0.11   0.08   0.22    -0.01  -0.00   0.04    -0.12   0.11   0.02
     7   6    -0.03  -0.06  -0.16     0.01   0.02  -0.02    -0.23   0.04  -0.12
     8   6     0.26  -0.08  -0.06     0.01  -0.08  -0.00     0.02   0.00  -0.00
     9   1    -0.03  -0.13  -0.25     0.04   0.06   0.05    -0.33  -0.02  -0.23
    10   1     0.03  -0.18  -0.07     0.04   0.06  -0.09    -0.16  -0.12   0.03
    11   1     0.17  -0.12  -0.16     0.60  -0.09   0.19     0.10  -0.07  -0.07
    12   1     0.63  -0.28  -0.02    -0.40   0.25  -0.21     0.38  -0.18   0.03
    13   1    -0.16   0.13   0.08    -0.07  -0.36   0.11    -0.15  -0.07   0.34
    14   8     0.04  -0.03  -0.00     0.03   0.04   0.01     0.03  -0.02  -0.01
    15   1    -0.03   0.02  -0.01    -0.30   0.15  -0.20    -0.30   0.13  -0.15
                     13                     14                     15
                      A                      A                      A
 Frequencies --    629.2801               640.3365               738.2491
 Red. masses --      3.9077                 1.3130                 1.3168
 Frc consts  --      0.9117                 0.3172                 0.4228
 IR Inten    --      3.2664                66.4467                34.0864
  Atom  AN      X      Y      Z        X      Y      Z        X      Y      Z
     1   6    -0.01   0.03  -0.00     0.00  -0.05   0.00    -0.14  -0.00  -0.04
     2   1    -0.39   0.00  -0.10     0.08  -0.04   0.03     0.94   0.08   0.29
     3   6     0.35   0.05   0.10    -0.05  -0.04  -0.02     0.07   0.01   0.03
     4   6    -0.12  -0.02  -0.04     0.01   0.01   0.02     0.00  -0.01  -0.01
     5   8    -0.07   0.16  -0.01     0.02  -0.00   0.00     0.01   0.00   0.01
     6   8    -0.08  -0.21  -0.02    -0.02   0.08   0.02    -0.00  -0.01   0.00
     7   6    -0.00  -0.03   0.01    -0.03   0.01  -0.02    -0.01  -0.00  -0.00
     8   6     0.01  -0.03   0.01     0.03  -0.07   0.01    -0.00  -0.00  -0.00
     9   1     0.22   0.09   0.22    -0.10   0.03  -0.02     0.01   0.01   0.02
    10   1    -0.13   0.22  -0.20     0.03  -0.03  -0.01    -0.01   0.01  -0.02
    11   1     0.15   0.04   0.15     0.33  -0.05   0.12    -0.01   0.01   0.01
    12   1    -0.15   0.15  -0.14    -0.21   0.14  -0.13     0.01   0.01  -0.02
    13   1     0.09   0.21  -0.26     0.13   0.37  -0.39    -0.01   0.02   0.03
    14   8    -0.02   0.01  -0.01    -0.04   0.02  -0.02     0.00  -0.00  -0.00
    15   1     0.34  -0.14   0.19     0.55  -0.22   0.30    -0.01   0.01  -0.00
                     16                     17                     18
                      A                      A                      A
 Frequencies --    764.0410               767.9149               779.3742
 Red. masses --      4.4147                 5.7060                 1.2876
 Frc consts  --      1.5184                 1.9825                 0.4608
 IR Inten    --      5.2394                23.9842                40.7527
  Atom  AN      X      Y      Z        X      Y      Z        X      Y      Z
     1   6    -0.02  -0.16   0.02    -0.03   0.14   0.06     0.04   0.01  -0.14
     2   1     0.09  -0.17   0.05     0.06   0.15  -0.10    -0.29   0.00   0.94
     3   6     0.12  -0.11  -0.10     0.01   0.10  -0.22    -0.02   0.00   0.04
     4   6    -0.20   0.10   0.26    -0.03  -0.09   0.48    -0.01  -0.00   0.04
     5   8    -0.14   0.07  -0.13     0.17  -0.05  -0.09     0.01  -0.00  -0.01
     6   8     0.05   0.11  -0.05    -0.01  -0.10  -0.11    -0.00  -0.00  -0.01
     7   6     0.19  -0.02   0.07    -0.14   0.01  -0.05    -0.01   0.00  -0.00
     8   6     0.04   0.01  -0.02    -0.03  -0.01   0.00    -0.00   0.00   0.00
     9   1     0.02  -0.16  -0.17    -0.02   0.17   0.20    -0.00   0.00   0.00
    10   1     0.17  -0.18   0.29    -0.12   0.18  -0.29    -0.01   0.00  -0.00
    11   1    -0.24  -0.06  -0.22     0.04   0.11   0.21     0.00   0.00   0.00
    12   1    -0.24  -0.02   0.21     0.18   0.06  -0.24     0.01  -0.00  -0.00
    13   1     0.08  -0.38  -0.31    -0.10   0.32   0.30     0.00  -0.00  -0.00
    14   8     0.01   0.01   0.02     0.01  -0.02  -0.01    -0.00   0.00  -0.00
    15   1    -0.08  -0.00  -0.08     0.01   0.03   0.05     0.00  -0.00   0.00
                     19                     20                     21
                      A                      A                      A
 Frequencies --    806.6974               830.1933               878.5493
 Red. masses --      1.2821                 1.0877                 1.4018
 Frc consts  --      0.4916                 0.4417                 0.6375
 IR Inten    --     16.3720                78.9873                 5.4218
  Atom  AN      X      Y      Z        X      Y      Z        X      Y      Z
     1   6    -0.01   0.06   0.00     0.00  -0.01   0.00    -0.00  -0.02   0.00
     2   1     0.02   0.06  -0.02    -0.02  -0.01   0.01     0.01  -0.03   0.00
     3   6     0.01   0.04  -0.01     0.01  -0.00   0.00     0.01  -0.02  -0.00
     4   6     0.01  -0.04   0.02    -0.02   0.00  -0.01    -0.02   0.03   0.00
     5   8     0.04  -0.01   0.01    -0.02   0.00  -0.01    -0.04   0.00  -0.01
     6   8    -0.02  -0.07  -0.01     0.01  -0.01   0.00     0.05  -0.00  -0.02
     7   6    -0.02   0.06  -0.02     0.02   0.03   0.01     0.06  -0.02   0.00
     8   6     0.00   0.04   0.02    -0.00  -0.01  -0.03    -0.11   0.04   0.04
     9   1    -0.05  -0.20  -0.39    -0.00  -0.09  -0.16     0.10  -0.04  -0.02
    10   1    -0.16  -0.14   0.36    -0.02  -0.07   0.18     0.09  -0.02  -0.02
    11   1     0.27  -0.29  -0.34    -0.00  -0.10  -0.16     0.67  -0.13   0.10
    12   1    -0.19  -0.13   0.40    -0.41   0.11   0.08     0.50  -0.26   0.11
    13   1     0.12  -0.21  -0.24    -0.25   0.59   0.53     0.11   0.15   0.32
    14   8    -0.02   0.02   0.00     0.03  -0.03  -0.01    -0.06   0.01  -0.04
    15   1     0.06  -0.05   0.00    -0.01   0.06   0.06     0.03  -0.01   0.05
                     22                     23                     24
                      A                      A                      A
 Frequencies --   1059.3712              1086.7052              1169.0131
 Red. masses --      3.4413                 7.0423                 1.9141
 Frc consts  --      2.2755                 4.8999                 1.5412
 IR Inten    --      7.4666                80.7205               113.6686
  Atom  AN      X      Y      Z        X      Y      Z        X      Y      Z
     1   6    -0.00   0.03  -0.00     0.01  -0.11   0.00    -0.00   0.03  -0.00
     2   1    -0.01   0.03  -0.00     0.02  -0.12   0.01    -0.02   0.04  -0.01
     3   6    -0.00   0.01   0.00     0.00  -0.05  -0.00     0.01   0.01   0.00
     4   6    -0.01  -0.08  -0.01     0.04   0.28   0.02    -0.08  -0.13  -0.02
     5   8     0.04   0.01   0.01    -0.14  -0.04  -0.04    -0.02   0.02  -0.01
     6   8    -0.09   0.04  -0.04     0.37  -0.17   0.08     0.08  -0.03   0.03
     7   6     0.00   0.01   0.33    -0.39   0.13   0.06     0.01   0.19  -0.01
     8   6     0.07  -0.04  -0.28     0.05   0.02  -0.12    -0.04  -0.09   0.01
     9   1    -0.15   0.03   0.34    -0.21   0.21   0.23    -0.33   0.02  -0.32
    10   1    -0.11   0.04   0.41    -0.37   0.18   0.01     0.39  -0.30   0.31
    11   1     0.32  -0.11  -0.30     0.17  -0.14  -0.33    -0.17   0.16   0.32
    12   1     0.35  -0.15  -0.33     0.04  -0.03  -0.08     0.28   0.01  -0.36
    13   1     0.05  -0.03   0.05    -0.00  -0.09  -0.15     0.01  -0.02  -0.03
    14   8    -0.02   0.00  -0.01     0.01   0.00   0.01    -0.00   0.00   0.00
    15   1    -0.00  -0.00   0.00     0.04  -0.02   0.01     0.00  -0.00   0.00
                     25                     26                     27
                      A                      A                      A
 Frequencies --   1250.4197              1337.4493              1395.5116
 Red. masses --      2.8736                 1.1879                 1.3202
 Frc consts  --      2.6472                 1.2519                 1.5147
 IR Inten    --    370.3523                89.8232                36.5950
  Atom  AN      X      Y      Z        X      Y      Z        X      Y      Z
     1   6     0.00  -0.06   0.00    -0.00   0.01  -0.00     0.00  -0.01   0.00
     2   1     0.04  -0.06   0.01    -0.00   0.01  -0.00     0.01  -0.02   0.00
     3   6    -0.01  -0.02  -0.00    -0.00   0.00  -0.00    -0.00  -0.00  -0.00
     4   6     0.14   0.26   0.04    -0.03  -0.05  -0.01     0.04   0.07   0.01
     5   8     0.01  -0.03   0.00     0.00   0.00   0.00     0.01  -0.01   0.00
     6   8    -0.14  -0.11  -0.03     0.05   0.06   0.00    -0.06  -0.03  -0.04
     7   6     0.12   0.09  -0.01    -0.04   0.01   0.01    -0.07   0.04   0.08
     8   6    -0.03  -0.10  -0.01    -0.02  -0.05   0.01    -0.01   0.01   0.03
     9   1    -0.14  -0.11  -0.35     0.72  -0.28  -0.24     0.40  -0.23  -0.23
    10   1    -0.42   0.16   0.39    -0.45   0.19   0.14     0.65  -0.20  -0.27
    11   1    -0.16   0.20   0.38    -0.06   0.02   0.09     0.01  -0.15  -0.21
    12   1     0.19  -0.02  -0.28     0.10   0.02  -0.19     0.08   0.10  -0.19
    13   1     0.02   0.00   0.04    -0.01   0.01  -0.06    -0.10   0.09  -0.16
    14   8    -0.00   0.00  -0.00     0.00  -0.00   0.00     0.02  -0.01   0.01
    15   1    -0.00   0.00   0.00    -0.02   0.00  -0.02    -0.07   0.03  -0.04
                     28                     29                     30
                      A                      A                      A
 Frequencies --   1466.2336              1489.9195              1514.7441
 Red. masses --      1.1599                 1.1862                 1.0929
 Frc consts  --      1.4692                 1.5514                 1.4775
 IR Inten    --      6.5220                18.8223                19.2658
  Atom  AN      X      Y      Z        X      Y      Z        X      Y      Z
     1   6     0.00  -0.00   0.00    -0.00  -0.00  -0.00     0.00  -0.01   0.00
     2   1     0.00  -0.00  -0.00     0.00  -0.00  -0.00     0.00  -0.01   0.00
     3   6    -0.00   0.00  -0.00    -0.00   0.00  -0.00    -0.00  -0.00  -0.00
     4   6     0.00   0.01  -0.00     0.00   0.01   0.00     0.01   0.02   0.00
     5   8     0.00  -0.00   0.00     0.00  -0.00   0.00     0.00  -0.00   0.00
     6   8    -0.01  -0.00  -0.01    -0.01  -0.00  -0.01    -0.02  -0.01  -0.01
     7   6    -0.05   0.02   0.02    -0.03   0.01   0.01    -0.02   0.01  -0.08
     8   6     0.02  -0.01  -0.10     0.06  -0.02  -0.00    -0.01   0.00   0.01
     9   1     0.19  -0.07  -0.05     0.17  -0.05  -0.03     0.39   0.32   0.48
    10   1     0.17  -0.08  -0.05     0.13  -0.08  -0.02     0.06  -0.47   0.52
    11   1     0.09   0.40   0.53    -0.16   0.05   0.03     0.00  -0.02  -0.02
    12   1    -0.18  -0.33   0.54    -0.09   0.03   0.03     0.01   0.02  -0.03
    13   1    -0.01   0.08  -0.09     0.08  -0.50   0.60     0.00   0.04  -0.04
    14   8     0.01  -0.01   0.01    -0.05   0.04  -0.06     0.00  -0.00   0.00
    15   1    -0.07   0.03  -0.04     0.43  -0.16   0.26    -0.03   0.01  -0.02
                     31                     32                     33
                      A                      A                      A
 Frequencies --   1757.5670              1870.6914              2252.2327
 Red. masses --      1.1164                13.0152                 5.7225
 Frc consts  --      2.0318                26.8352                17.1025
 IR Inten    --     22.7288               514.8874                58.0514
  Atom  AN      X      Y      Z        X      Y      Z        X      Y      Z
     1   6     0.00  -0.00   0.00    -0.00   0.05  -0.00     0.03  -0.38   0.01
     2   1    -0.00  -0.00   0.00     0.02   0.08   0.01     0.05  -0.75   0.01
     3   6     0.00   0.00   0.00    -0.01  -0.03  -0.00    -0.04   0.53  -0.01
     4   6    -0.00   0.00  -0.00     0.72  -0.35   0.20     0.01  -0.08   0.00
     5   8     0.00  -0.00   0.00    -0.48   0.24  -0.13    -0.00   0.00  -0.00
     6   8    -0.00  -0.00   0.00    -0.03   0.02  -0.01    -0.00  -0.00  -0.00
     7   6    -0.02   0.01   0.00    -0.03  -0.01  -0.00     0.00  -0.00  -0.00
     8   6     0.06  -0.02   0.01     0.01  -0.00  -0.00    -0.00   0.00   0.00
     9   1     0.02  -0.01  -0.02     0.08  -0.01   0.00    -0.01  -0.00   0.00
    10   1     0.04  -0.01  -0.03    -0.01  -0.04  -0.01    -0.00   0.00  -0.00
    11   1    -0.09  -0.01  -0.02    -0.01   0.00   0.00     0.00  -0.00  -0.00
    12   1    -0.09   0.09  -0.02    -0.02   0.00   0.01    -0.00   0.00   0.00
    13   1     0.88   0.22   0.14     0.04   0.01   0.02    -0.00  -0.00  -0.00
    14   8    -0.06  -0.01  -0.01    -0.00  -0.00  -0.00    -0.00   0.00   0.00
    15   1    -0.30   0.08  -0.14    -0.01   0.01  -0.01     0.00  -0.00   0.00
                     34                     35                     36
                      A                      A                      A
 Frequencies --   3111.8441              3122.2166              3170.5565
 Red. masses --      1.0599                 1.0532                 1.1070
 Frc consts  --      6.0470                 6.0488                 6.5564
 IR Inten    --      5.2337                 6.1755                 2.9479
  Atom  AN      X      Y      Z        X      Y      Z        X      Y      Z
     1   6    -0.00  -0.00  -0.00     0.00   0.00   0.00    -0.00   0.00  -0.00
     2   1    -0.00  -0.00  -0.00     0.00   0.00   0.00    -0.00  -0.00  -0.00
     3   6    -0.00   0.00   0.00    -0.00  -0.00   0.00    -0.00   0.00  -0.00
     4   6    -0.00  -0.00  -0.00     0.00   0.00   0.00     0.00  -0.00   0.00
     5   8     0.00  -0.00   0.00    -0.00  -0.00  -0.00    -0.00   0.00  -0.00
     6   8     0.00  -0.00   0.00    -0.00   0.00   0.00    -0.00   0.00   0.00
     7   6     0.01  -0.02   0.06    -0.01   0.01  -0.02    -0.04  -0.08  -0.01
     8   6    -0.00   0.00  -0.03    -0.01  -0.00  -0.06     0.01   0.02  -0.00
     9   1     0.09   0.63  -0.43    -0.04  -0.30   0.20     0.06   0.40  -0.28
    10   1    -0.23  -0.34  -0.24     0.10   0.15   0.10     0.40   0.59   0.44
    11   1    -0.06  -0.25   0.17    -0.13  -0.51   0.35    -0.03  -0.14   0.09
    12   1     0.10   0.23   0.14     0.23   0.51   0.33    -0.06  -0.11  -0.07
    13   1    -0.01   0.00  -0.00    -0.01   0.00  -0.01     0.00   0.00  -0.00
    14   8     0.00  -0.00   0.00     0.00  -0.00   0.00     0.00  -0.00   0.00
    15   1    -0.00   0.00  -0.00     0.00   0.00  -0.00    -0.00  -0.00  -0.00
                     37                     38                     39
                      A                      A                      A
 Frequencies --   3213.8879              3486.4762              3871.9836
 Red. masses --      1.1128                 1.1703                 1.0657
 Frc consts  --      6.7720                 8.3815                 9.4138
 IR Inten    --      3.2421                61.7426                62.3721
  Atom  AN      X      Y      Z        X      Y      Z        X      Y      Z
     1   6    -0.00   0.00   0.00     0.01  -0.12   0.00     0.00   0.00   0.00
     2   1     0.00  -0.00   0.00    -0.07   0.99  -0.01     0.00  -0.00   0.00
     3   6    -0.00  -0.00   0.00    -0.00   0.04  -0.00     0.00   0.00   0.00
     4   6     0.00  -0.00  -0.00    -0.00  -0.00  -0.00    -0.00  -0.00  -0.00
     5   8    -0.00   0.00  -0.00     0.00   0.00   0.00     0.00  -0.00   0.00
     6   8    -0.00   0.00  -0.00     0.00  -0.00   0.00     0.00   0.00  -0.00
     7   6    -0.01  -0.02  -0.00    -0.00  -0.00   0.00    -0.00  -0.00   0.00
     8   6    -0.03  -0.09   0.00    -0.00  -0.00   0.00    -0.00   0.00  -0.00
     9   1     0.02   0.11  -0.08    -0.00   0.00  -0.00     0.00   0.00  -0.00
    10   1     0.09   0.13   0.10     0.00   0.00   0.00    -0.00   0.00  -0.00
    11   1     0.13   0.55  -0.39     0.00   0.00  -0.00     0.00   0.00  -0.00
    12   1     0.25   0.53   0.36    -0.00  -0.00   0.00     0.00  -0.00  -0.00
    13   1    -0.01  -0.01  -0.00    -0.00   0.00   0.00     0.01  -0.02   0.02
    14   8     0.00   0.00  -0.00     0.00  -0.00   0.00    -0.04  -0.04   0.03
    15   1     0.00  -0.00   0.00     0.00   0.00  -0.00     0.55   0.68  -0.48

 -------------------
 - Thermochemistry -
 -------------------
 Temperature   298.150 Kelvin.  Pressure   1.00000 Atm.
 Atom     1 has atomic number  6 and mass  12.00000
 Atom     2 has atomic number  1 and mass   1.00783
 Atom     3 has atomic number  6 and mass  12.00000
 Atom     4 has atomic number  6 and mass  12.00000
 Atom     5 has atomic number  8 and mass  15.99491
 Atom     6 has atomic number  8 and mass  15.99491
 Atom     7 has atomic number  6 and mass  12.00000
 Atom     8 has atomic number  6 and mass  12.00000
 Atom     9 has atomic number  1 and mass   1.00783
 Atom    10 has atomic number  1 and mass   1.00783
 Atom    11 has atomic number  1 and mass   1.00783
 Atom    12 has atomic number  1 and mass   1.00783
 Atom    13 has atomic number  1 and mass   1.00783
 Atom    14 has atomic number  8 and mass  15.99491
 Atom    15 has atomic number  1 and mass   1.00783
 Molecular mass:   115.03952 amu.
 Principal axes and moments of inertia in atomic units:
                           1         2         3
     Eigenvalues --   540.710501788.995872188.39269
           X            0.99974   0.02138  -0.00820
           Y           -0.02138   0.99977  -0.00026
           Z            0.00819   0.00043   0.99997
 This molecule is an asymmetric top.
 Rotational symmetry number  1.
 Warning -- assumption of classical behavior for rotation
           may cause significant error
 Rotational temperatures (Kelvin)      0.16019     0.04841     0.03958
 Rotational constants (GHZ):           3.33772     1.00880     0.82469
    2 imaginary frequencies ignored.
 Zero-point vibrational energy     281469.8 (Joules/Mol)
                                   67.27289 (Kcal/Mol)
 Warning -- explicit consideration of  10 degrees of freedom as
           vibrations may cause significant error
 Vibrational temperatures:     69.71   126.39   174.93   255.49   287.96
          (Kelvin)            371.08   480.91   577.97   587.20   804.32
                              905.39   921.30  1062.18  1099.28  1104.86
                             1121.35  1160.66  1194.46  1264.04  1524.20
                             1563.53  1681.95  1799.08  1924.29  2007.83
                             2109.58  2143.66  2179.38  2528.75  2691.51
                             3240.46  4477.25  4492.17  4561.72  4624.07
                             5016.26  5570.92
 
 Zero-point correction=                           0.107206 (Hartree/Particle)
 Thermal correction to Energy=                    0.116107
 Thermal correction to Enthalpy=                  0.117051
 Thermal correction to Gibbs Free Energy=         0.072045
 Sum of electronic and zero-point Energies=           -419.3505925
 Sum of electronic and thermal Energies=              -420.085217
 Sum of electronic and thermal Enthalpies=            -420.084272
 Sum of electronic and thermal Free Energies=         -420.129278
 
                     E (Thermal)             CV                S
                      KCal/Mol        Cal/Mol-Kelvin    Cal/Mol-Kelvin
 Total                   72.858             31.017             94.723
 Electronic               0.000              0.000              1.377
 Translational            0.889              2.981             40.136
 Rotational               0.889              2.981             29.139
 Vibrational             71.081             25.056             24.072
 Vibration     1          0.595              1.978              4.880
 Vibration     2          0.601              1.958              3.708
 Vibration     3          0.609              1.931              3.075
 Vibration     4          0.628              1.870              2.354
 Vibration     5          0.638              1.840              2.132
 Vibration     6          0.667              1.749              1.676
 Vibration     7          0.716              1.607              1.239
 Vibration     8          0.767              1.466              0.956
 Vibration     9          0.773              1.453              0.933
 Vibration    10          0.915              1.120              0.526
                       Q            Log10(Q)             Ln(Q)
 Total Bot       0.727189D-33        -33.138353        -76.303877
 Total V=0       0.148942D+17         16.173018         37.239751
 Vib (Bot)       0.143945D-46        -46.841803       -107.857237
 Vib (Bot)    1  0.426755D+01          0.630178          1.451039
 Vib (Bot)    2  0.234143D+01          0.369480          0.850760
 Vib (Bot)    3  0.168019D+01          0.225358          0.518905
 Vib (Bot)    4  0.113203D+01          0.053857          0.124011
 Vib (Bot)    5  0.996220D+00         -0.001645         -0.003787
 Vib (Bot)    6  0.753861D+00         -0.122709         -0.282548
 Vib (Bot)    7  0.557536D+00         -0.253727         -0.584229
 Vib (Bot)    8  0.443141D+00         -0.353458         -0.813868
 Vib (Bot)    9  0.434112D+00         -0.362399         -0.834454
 Vib (Bot)   10  0.278283D+00         -0.555513         -1.279116
 Vib (V=0)       0.294828D+03          2.469569          5.686392
 Vib (V=0)    1  0.479674D+01          0.680946          1.567936
 Vib (V=0)    2  0.289422D+01          0.461531          1.062715
 Vib (V=0)    3  0.225301D+01          0.352762          0.812265
 Vib (V=0)    4  0.173753D+01          0.239933          0.552466
 Vib (V=0)    5  0.161465D+01          0.208080          0.479121
 Vib (V=0)    6  0.140460D+01          0.147553          0.339754
 Vib (V=0)    7  0.124890D+01          0.096526          0.222260
 Vib (V=0)    8  0.116811D+01          0.067484          0.155389
 Vib (V=0)    9  0.116216D+01          0.065265          0.150278
 Vib (V=0)   10  0.107223D+01          0.030286          0.069736
 Electronic      0.200000D+01          0.301030          0.693147
 Translational   0.484981D+08          7.685724         17.697035
 Rotational      0.520829D+06          5.716695         13.163177
 ***** Axes restored to original set *****
 -------------------------------------------------------------------
 Center     Atomic                   Forces (Hartrees/Bohr)
 Number     Number              X              Y              Z
 -------------------------------------------------------------------
      1        6          -0.000074924    0.000061210    0.000016410
      2        1          -0.000012074    0.000076909   -0.000034452
      3        6          -0.000134421   -0.000333791    0.000089466
      4        6           0.000490045    0.001192097    0.000281649
      5        8          -0.000169640   -0.000349453   -0.000133404
      6        8          -0.000870722   -0.000736779    0.000761000
      7        6          -0.004680692    0.001958009   -0.001549577
      8        6           0.030508730   -0.010876285    0.007297722
      9        1          -0.000056188   -0.000029675   -0.000015715
     10        1          -0.000066286    0.000047079   -0.000132926
     11        1          -0.004470905    0.000662853   -0.000411892
     12        1          -0.004928447    0.002873621   -0.000899405
     13        1          -0.032020085    0.009590334   -0.013386873
     14        8           0.018392523   -0.005745021    0.009872843
     15        1          -0.001906913    0.001608891   -0.001754848
 -------------------------------------------------------------------
 Cartesian Forces:  Max     0.032020085 RMS     0.008114376

 GradGradGradGradGradGradGradGradGradGradGradGradGradGradGradGradGradGrad
 Berny optimization.
 Search for a local minimum.
 Step number   1 out of a maximum of    2
 All quantities printed in internal units (Hartrees-Bohrs-Radians)
 Second derivative matrix not updated -- analytic derivatives used.
 ITU=  0
     Eigenvalues ---   -0.00576  -0.00065   0.00063   0.00116   0.00200
     Eigenvalues ---    0.00401   0.00458   0.00867   0.01528   0.01746
     Eigenvalues ---    0.02049   0.02877   0.03412   0.03727   0.06230
     Eigenvalues ---    0.07053   0.08496   0.08651   0.08897   0.09535
     Eigenvalues ---    0.12559   0.13454   0.16020   0.16690   0.22540
     Eigenvalues ---    0.24757   0.27765   0.32135   0.42123   0.53978
     Eigenvalues ---    0.62701   0.70769   0.79986   0.83250   0.85611
     Eigenvalues ---    0.95926   1.00664   1.79009   2.70736
 Eigenvalue     1 is  -5.76D-03 should be greater than     0.000000 Eigenvector:
                          X13       X15       X8        X14       Z13
   1                    0.69394   0.35559  -0.31353   0.26015   0.18603
                          Y13       Z8        Z6        Z11       Z15
   1                   -0.18301  -0.15222   0.14844  -0.11920   0.11767
 Eigenvalue     2 is  -6.46D-04 should be greater than     0.000000 Eigenvector:
                          Y12       Y14       Y15       Y11       Y13
   1                    0.41413  -0.33131  -0.31374   0.28978  -0.27058
                          X2        X11       Y8        Z12       X1
   1                    0.25169   0.25044   0.24996  -0.20217   0.17741
 Quadratic step=7.593D+00 exceeds max=3.000D-01 adjusted using Lamda=-1.265D-01.
 Angle between NR and scaled steps=  44.97 degrees.
 Angle between quadratic step and forces=  24.66 degrees.
 Linear search not attempted -- first point.
 B after Tr=     0.011723   -0.004002    0.001321
         Rot=    0.999999   -0.000526   -0.000823   -0.000512 Ang=  -0.13 deg.
 Variable       Old X    -DE/DX   Delta X   Delta X   Delta X     New X
                                 (Linear)    (Quad)   (Total)
    X1        2.38340  -0.00007   0.00000  -0.00962  -0.00245   2.38096
    Y1        4.25100   0.00006   0.00000   0.00134  -0.00011   4.25089
    Z1       -0.11203   0.00002   0.00000  -0.00372  -0.00182  -0.11385
    X2        2.24108  -0.00001   0.00000  -0.00259   0.00247   2.24356
    Y2        6.25908   0.00008   0.00000   0.00191   0.00035   6.25943
    Z2       -0.14061  -0.00003   0.00000  -0.00418   0.00005  -0.14056
    X3        2.55666  -0.00013   0.00000  -0.01421  -0.00466   2.55200
    Y3        1.99204  -0.00033   0.00000   0.00079  -0.00053   1.99152
    Z3       -0.07988   0.00009   0.00000   0.00088   0.00011  -0.07977
    X4        2.92208   0.00049   0.00000  -0.01235   0.00016   2.92224
    Y4       -0.74910   0.00119   0.00000   0.00065  -0.00038  -0.74948
    Z4        0.01547   0.00028   0.00000   0.00179  -0.00246   0.01301
    X5        4.90467  -0.00017   0.00000  -0.01701  -0.00263   4.90204
    Y5       -1.66978  -0.00035   0.00000   0.00058   0.00098  -1.66879
    Z5        0.56525  -0.00013   0.00000   0.01647   0.00799   0.57324
    X6        0.91996  -0.00087   0.00000   0.00174   0.01474   0.93470
    Y6       -2.19257  -0.00074   0.00000  -0.00717  -0.00960  -2.20217
    Z6       -0.56744   0.00076   0.00000  -0.02382  -0.02633  -0.59377
    X7       -1.51318  -0.00468   0.00000  -0.00340   0.00766  -1.50552
    Y7       -1.07681   0.00196   0.00000   0.00245  -0.00198  -1.07879
    Z7       -1.06625  -0.00155   0.00000  -0.00432  -0.00163  -1.06789
    X8       -2.84655   0.03051   0.00000   0.15783   0.17248  -2.67407
    Y8       -0.50318  -0.01088   0.00000  -0.04946  -0.05772  -0.56091
    Z8        1.38193   0.00730   0.00000   0.04561   0.05078   1.43271
    X9       -1.29743  -0.00006   0.00000  -0.00877  -0.00136  -1.29879
    Y9        0.60724  -0.00003   0.00000   0.00551   0.00252   0.60976
    Z9       -2.23423  -0.00002   0.00000  -0.00012   0.00400  -2.23024
   X10       -2.51887  -0.00007   0.00000  -0.01380  -0.00303  -2.52190
   Y10       -2.50895   0.00005   0.00000   0.00482   0.00048  -2.50847
   Z10       -2.14493  -0.00013   0.00000   0.00182   0.00467  -2.14026
   X11       -3.23003  -0.00447   0.00000  -0.02622  -0.00807  -3.23810
   Y11       -2.16135   0.00066   0.00000  -0.01026  -0.02028  -2.18162
   Z11        2.53484  -0.00041   0.00000   0.00954   0.01393   2.54877
   X12       -2.08832  -0.00493   0.00000  -0.01407   0.00056  -2.08776
   Y12        1.08198   0.00287   0.00000   0.03435   0.02561   1.10759
   Z12        2.44981  -0.00090   0.00000   0.00547   0.01142   2.46123
   X13       -5.33817  -0.03202   0.00000  -0.20527  -0.19322  -5.53138
   Y13        0.38960   0.00959   0.00000   0.07651   0.06631   0.45591
   Z13        0.56481  -0.01339   0.00000  -0.08208  -0.07115   0.49366
   X14       -7.16813   0.01839   0.00000   0.01689   0.02755  -7.14058
   Y14        0.72775  -0.00575   0.00000  -0.00242  -0.01354   0.71421
   Z14       -0.21027   0.00987   0.00000   0.00514   0.01900  -0.19127
   X15       -8.14974  -0.00191   0.00000  -0.02355  -0.01021  -8.15995
   Y15       -0.52165   0.00161   0.00000   0.02097   0.00789  -0.51376
   Z15        0.68374  -0.00175   0.00000  -0.02279  -0.00854   0.67519
         Item               Value     Threshold  Converged?
 Maximum Force            0.032020     0.000450     NO 
 RMS     Force            0.008114     0.000300     NO 
 Maximum Displacement     0.193216     0.001800     NO 
 RMS     Displacement     0.043891     0.001200     NO 
 Predicted change in Energy=-1.348340D-02
 GradGradGradGradGradGradGradGradGradGradGradGradGradGradGradGradGradGrad


 ----------------------------------------------------------------------

 Electric dipole moment (input orientation):
 (Debye = 10**-18 statcoulomb cm , SI units = C m)
                  (au)            (Debye)         (10**-30 SI)
   Tot        0.108591D+01      0.276010D+01      0.920670D+01
   x         -0.875852D+00     -0.222619D+01     -0.742578D+01
   y          0.576983D+00      0.146654D+01      0.489186D+01
   z          0.281365D+00      0.715159D+00      0.238551D+01

 Dipole polarizability, Alpha (input orientation).
 (esu units = cm**3 , SI units = C**2 m**2 J**-1)
 Alpha(0;0):
               (au)            (10**-24 esu)      (10**-40 SI)
   iso        0.731953D+02      0.108464D+02      0.120683D+02
   aniso      0.366672D+02      0.543351D+01      0.604560D+01
   xx         0.903430D+02      0.133874D+02      0.148955D+02
   yx        -0.376006D+01     -0.557184D+00     -0.619951D+00
   yy         0.783051D+02      0.116036D+02      0.129108D+02
   zx         0.490365D+01      0.726646D+00      0.808503D+00
   zy        -0.148290D+01     -0.219744D+00     -0.244498D+00
   zz         0.509377D+02      0.754819D+01      0.839849D+01

 ----------------------------------------------------------------------

 Dipole orientation:
     6          2.50850529          4.16858474          0.30732149
     1          3.10014802          5.69315370          1.48167772
     6          1.84930642          2.45802594         -1.02435818
     6          1.16983297          0.40521994         -2.75085562
     8          2.25814108          0.07366482         -4.69667809
     8         -0.75930754         -1.08632044         -2.05403112
     6         -1.95787730         -0.78386436          0.37205487
     6         -0.43246794         -2.09350183          2.38662738
     1         -2.22244844          1.21661585          0.79020848
     1         -3.80142453         -1.66404130          0.14275899
     1         -0.25230235         -4.12297621          2.11361078
     1          1.33485138         -1.17309242          2.89401781
     1         -1.99193036         -1.81478771          4.65892652
     8         -3.38645525         -1.76348730          6.11374733
     1         -3.56508047         -3.54187546          6.47327072

 Electric dipole moment (dipole orientation):
 (Debye = 10**-18 statcoulomb cm , SI units = C m)
                  (au)            (Debye)         (10**-30 SI)
   Tot        0.108591D+01      0.276010D+01      0.920670D+01
   x          0.000000D+00      0.000000D+00      0.000000D+00
   y          0.000000D+00      0.000000D+00      0.000000D+00
   z          0.108591D+01      0.276010D+01      0.920670D+01

 Dipole polarizability, Alpha (dipole orientation).
 (esu units = cm**3 , SI units = C**2 m**2 J**-1)
 Alpha(0;0):
               (au)            (10**-24 esu)      (10**-40 SI)
   iso        0.731953D+02      0.108464D+02      0.120683D+02
   aniso      0.366672D+02      0.543351D+01      0.604560D+01
   xx         0.650854D+02      0.964467D+01      0.107311D+02
   yx         0.112906D+02      0.167309D+01      0.186157D+01
   yy         0.694365D+02      0.102894D+02      0.114485D+02
   zx        -0.136878D+02     -0.202832D+01     -0.225681D+01
   zy         0.479029D+01      0.709848D+00      0.789813D+00
   zz         0.850639D+02      0.126052D+02      0.140251D+02

 ----------------------------------------------------------------------
 1\1\GINC-AJ\Freq\UM062X\6-311++G(d,p)\C5H7O3(2)\AAYUSH\02-Apr-2025\0\\
 # freq 6-311++g(d,p) m062x\\Title Card Required\\0,2\C,1.261243,2.2495
 31,-0.059283\H,1.185929,3.312162,-0.074407\C,1.352927,1.054144,-0.0422
 69\C,1.546296,-0.396407,0.008187\O,2.595437,-0.883609,0.299119\O,0.486
 824,-1.160258,-0.300276\C,-0.800743,-0.569825,-0.564237\C,-1.506328,-0
 .266274,0.731288\H,-0.686571,0.32134,-1.182304\H,-1.332926,-1.327679,-
 1.135049\H,-1.709257,-1.143736,1.341382\H,-1.10509,0.572559,1.296383\H
 ,-2.824837,0.20617,0.298882\O,-3.793209,0.385111,-0.111271\H,-4.312658
 ,-0.276045,0.361817\\Version=ES64L-G16RevA.03\State=2-A\HF=-420.201323
 5\S2=0.757848\S2-1=0.\S2A=0.750042\RMSD=7.795e-09\RMSF=8.114e-03\ZeroP
 oint=0.1072062\Thermal=0.1161069\Dipole=-0.875852,0.5769828,0.2813653\
 DipoleDeriv=-0.1582009,0.013704,-0.0032915,-0.004979,-0.2105571,0.0071
 965,0.0014091,-0.0025956,-0.1174655,0.2237798,-0.0045678,0.0050985,0.0
 14724,0.27489,-0.0009974,0.0037763,-0.0031519,0.2002166,-0.1624656,-0.
 0414865,-0.0087287,-0.0632085,-0.6032362,0.0003316,-0.0168287,0.008846
 4,-0.1076366,2.3669515,0.0354465,0.3699545,0.5109895,1.7693703,0.02347
 53,0.5524181,-0.0137904,0.5137866,-1.3394711,0.264655,-0.1763109,0.300
 811,-0.821037,0.0836842,-0.2764349,0.0761619,-0.4043231,-1.8192978,-0.
 1824864,-0.158521,-0.5354672,-0.6663231,-0.1105197,-0.2205721,-0.08455
 16,-0.4078985,0.8357788,-0.0222086,-0.0106258,-0.208521,0.2220392,-0.0
 116023,-0.177975,0.0508692,0.3275607,0.3551614,-0.0715173,0.1122653,-0
 .0439685,0.0896924,-0.0427656,0.1706853,-0.0610875,-0.0220697,-0.00820
 21,-0.014532,0.0469414,0.0406096,-0.0014065,0.0684458,0.0357985,0.0509
 798,0.0200626,-0.0049827,-0.0238927,-0.0184955,-0.0412704,0.0057409,-0
 .0716238,-0.0126929,-0.033616,0.0412423,0.0274393,0.0180076,-0.0163185
 ,-0.0413745,-0.0071643,0.0621565,0.0490108,0.0243218,0.0163289,0.04883
 07,-0.0469405,-0.0494822,0.0119751,0.0107765,-0.0268047,0.0123043,-0.0
 371315,0.0249844,-0.0302089,0.0432296,-0.1099575,0.0184753,0.169634,0.
 0661671,-0.1613196,0.0681436,0.1319996,-0.6759013,0.0327687,0.0266135,
 0.0181991,-0.4353847,-0.1546177,0.0670645,-0.1574488,-0.4551329,0.3407
 889,-0.0001797,-0.0091415,0.0230055,0.2029657,0.1074742,-0.0266437,0.1
 140507,0.2383446\Polar=90.3429898,-3.7600622,78.3051409,4.9036502,-1.4
 829046,50.9376857\Quadrupole=-8.1224153,5.4142571,2.7081582,9.8566183,
 -4.7185005,0.0012775\PG=C01 [X(C5H7O3)]\NImag=2\\0.06537691,-0.1136358
 1,1.55457641,-0.00020348,-0.02157715,0.06139272,-0.02897985,0.02777871
 ,0.00056524,0.01860667,0.02846424,-0.42117395,0.00567865,-0.02813224,0
 .41155468,0.00059530,0.00563523,-0.03000361,-0.00004110,-0.00565651,0.
 01801584,-0.03809204,0.08572426,0.00012593,0.00472826,-0.00036721,-0.0
 0095890,0.12129393,0.08396108,-1.13334301,0.01531720,-0.00058278,0.009
 96078,-0.00020701,-0.10698148,1.44943036,0.00011001,0.01614067,-0.0343
 3602,-0.00099633,-0.00004514,0.00788091,0.01500150,-0.02124344,0.06450
 057,0.00258963,0.00261979,-0.00016446,0.00597770,-0.00012396,-0.000100
 86,-0.06524963,-0.00217579,0.00412200,0.89803725,0.00175176,0.00816789
 ,0.00101427,0.00191180,-0.00124598,0.00040678,0.01056567,-0.24112404,0
 .00305105,-0.19293434,0.64439866,-0.00058633,0.00064559,0.00319427,0.0
 0014732,-0.00004682,0.00581594,0.00331092,-0.00053603,-0.07415106,0.19
 114432,-0.05126339,0.25481576,0.00136478,-0.00210510,0.00029029,0.0002
 0028,0.00001690,0.00042647,-0.01781375,0.04562280,-0.01169362,-0.61885
 685,0.26531504,-0.14936706,0.74030050,-0.00033680,-0.00362742,-0.00018
 647,-0.00182168,0.00054007,-0.00048867,0.04983603,-0.03841437,0.013613
 39,0.27371116,-0.23172108,0.07561790,-0.29710889,0.23960332,0.00043033
 ,-0.00057109,0.00014361,0.00035453,0.00001005,-0.00100353,-0.01159189,
 0.01236376,0.02033839,-0.14917240,0.07351570,-0.11770195,0.19624515,-0
 .08212035,0.08600825,0.00062321,-0.00227372,-0.00021404,-0.00055607,0.
 00048814,0.00026976,-0.00096806,-0.01781691,-0.00706012,-0.18301328,-0
 .09594058,-0.03553542,-0.10814016,-0.02059040,-0.03572841,0.52691477,0
 .00176375,-0.00406201,0.00027838,0.00107814,0.00038571,0.00036769,-0.0
 3135002,-0.04138440,-0.00871341,-0.06855323,-0.19479873,-0.02163172,-0
 .00534633,0.03488670,-0.00132311,0.03801938,0.32219741,0.00014455,-0.0
 0022454,0.00016687,0.00002476,0.00007718,-0.00080308,-0.00535036,-0.00
 508482,0.01590661,-0.03993211,-0.03250004,-0.06082072,-0.03324774,-0.0
 0476302,0.00720220,0.11853679,0.02043213,0.09109878,-0.00202736,0.0026
 2761,-0.00055373,-0.00000354,-0.00025889,-0.00016456,-0.00014888,0.001
 18319,0.00013297,-0.04665152,-0.00465419,-0.01068343,0.00928718,-0.002
 09454,0.00127172,-0.15658802,0.03888113,-0.01984511,0.43421125,-0.0000
 6663,-0.00045533,0.00004424,-0.00005407,0.00000851,-0.00005425,-0.0051
 3269,-0.00456927,-0.00243223,-0.00913944,0.02049087,-0.00272492,-0.009
 50704,-0.00165790,-0.00235466,0.05754490,-0.11630539,0.01403947,0.0967
 3497,0.61716024,-0.00124458,-0.00009696,-0.00099962,-0.00007886,0.0000
 6889,0.00002967,-0.00018663,-0.00078565,0.00082012,-0.00871675,0.00139
 348,-0.01257160,-0.00150912,-0.00107402,0.00551383,-0.03737233,0.01495
 143,-0.05906665,0.01905141,-0.00437148,0.54597412,0.00006055,0.0000176
 3,0.00025898,-0.00005852,-0.00009464,0.00003854,-0.00076072,-0.0004576
 2,-0.00014814,0.00039976,0.00225329,0.00367835,-0.00066026,-0.00020063
 ,-0.00137252,-0.03716914,0.01682902,0.02354039,-0.07795406,-0.00655964
 ,0.04860509,0.23063247,-0.00011429,0.00016121,-0.00008035,0.00000310,0
 .00000508,0.00005959,-0.00021480,0.00028904,-0.00025191,-0.00135151,-0
 .00105755,-0.00011958,0.00053912,0.00011619,0.00046851,0.01778901,-0.0
 0313394,-0.01067183,-0.00403421,-0.09262184,-0.01936061,0.12306511,0.5
 5064710,0.00038275,-0.00029586,-0.00025118,-0.00008024,-0.00008767,0.0
 0007030,0.00056999,0.00044498,-0.00057261,-0.00026297,0.00206453,0.001
 06724,-0.00039528,-0.00042943,-0.00046133,0.00884771,-0.00585423,0.007
 05140,0.06521848,-0.02611725,-0.19105956,-0.05711987,0.01750604,0.4828
 7774,-0.00040724,-0.00053807,-0.00019659,0.00000087,-0.00006905,-0.000
 02327,-0.00197224,-0.00164817,-0.00054657,0.00586715,0.00640728,-0.000
 10325,-0.00209294,-0.00101778,-0.00002058,-0.01207588,0.03148006,-0.02
 255746,-0.05439631,-0.03674587,0.02285002,-0.00123944,-0.01344034,0.00
 924953,0.06658710,-0.00107156,-0.00039511,-0.00062781,-0.00012320,-0.0
 0005921,-0.00007341,-0.00148166,-0.00032037,-0.00038406,-0.00313602,-0
 .00090915,-0.00076036,0.00072075,0.00007098,-0.00008497,0.00862794,-0.
 01126925,0.00744893,-0.02729787,-0.23186136,0.12400441,0.00059703,0.00
 911150,-0.00478462,0.02544288,0.25049739,0.00044601,-0.00006545,0.0001
 5649,-0.00002499,-0.00010849,0.00004009,-0.00080924,-0.00039709,-0.000
 34365,0.00155606,0.00308170,0.00064338,-0.00043121,-0.00068393,-0.0000
 6962,-0.00530877,0.00419707,-0.00179045,0.01822741,0.12116542,-0.13730
 172,0.00653462,0.02363229,-0.01543022,-0.02045376,-0.13523954,0.145558
 28,0.00005258,-0.00030033,-0.00002215,-0.00003504,0.00002161,-0.000001
 09,0.00008116,-0.00036468,0.00018130,0.00010943,0.00504242,-0.00226445
 ,-0.00297698,-0.00045395,-0.00024235,-0.03323963,-0.01996218,-0.018486
 92,-0.10414165,-0.09200719,-0.06405644,0.00929508,0.01302205,0.0088420
 7,-0.00011580,-0.00315580,-0.00117002,0.13164144,-0.00037943,0.0003154
 1,-0.00016162,-0.00001900,0.00005728,-0.00001085,-0.00008243,-0.000099
 58,-0.00018018,0.00052605,-0.00223456,0.00117630,0.00174268,0.00032411
 ,0.00003838,0.01628694,0.01181212,0.01004367,-0.10369120,-0.19535919,-
 0.10389902,-0.00123399,-0.00325739,-0.00297492,-0.01156109,-0.01562756
 ,-0.01386117,0.09802937,0.20204086,0.00034941,-0.00001346,0.00021537,0
 .00001966,-0.00002443,-0.00000337,0.00004084,0.00032236,-0.00003933,0.
 00159085,0.00182091,0.00020886,-0.00074495,-0.00012340,-0.00010683,-0.
 00842911,-0.00313692,-0.00164225,-0.06772153,-0.09910163,-0.12616313,-
 0.01129467,-0.02305916,-0.01544437,0.00960792,0.01232229,0.01166075,0.
 07436025,0.11046168,0.13447976,-0.00015929,0.00015803,0.00002180,0.000
 01732,0.00001598,-0.00000909,-0.00002326,-0.00001267,0.00003159,-0.000
 70944,-0.00110973,-0.00030512,0.00026152,0.00018453,0.00013219,0.00360
 624,-0.00041761,-0.00196992,-0.00116256,-0.01233200,0.01268464,-0.0361
 0786,-0.03811890,0.02594256,-0.00084037,0.00159360,0.00227939,0.000395
 02,0.00049578,-0.00030635,0.03524851,-0.00012971,0.00014891,0.00008645
 ,0.00004437,0.00003942,-0.00001634,-0.00015061,-0.00010198,0.00016170,
 0.00024765,-0.00047539,0.00021565,-0.00014302,0.00020219,-0.00012353,-
 0.00116188,0.00034980,0.00009405,0.00331659,0.00807221,-0.00597309,-0.
 05476805,-0.24104391,0.12638531,0.00131681,0.00037509,-0.00182632,-0.0
 0050601,0.00066968,0.00059734,0.05404990,0.24732220,-0.00010622,0.0001
 2830,0.00015366,0.00003588,-0.00000015,-0.00003013,-0.00018094,-0.0001
 6533,0.00006367,-0.00040146,-0.00059801,-0.00031796,0.00034870,0.00008
 064,0.00011252,0.00013089,-0.00070409,0.00173447,0.00385649,0.02500026
 ,-0.01362974,0.03799610,0.12513681,-0.13815994,0.00287936,-0.00226887,
 -0.00388878,-0.00070948,0.00006106,0.00100302,-0.03980748,-0.13535710,
 0.14345623,-0.00036915,0.00001815,0.00007475,0.00009180,-0.00005020,-0
 .00002831,-0.00096741,-0.00049059,0.00085221,-0.00062787,0.00000877,-0
 .00015148,0.00018807,-0.00012045,0.00008670,0.00280487,-0.00159413,-0.
 00259842,0.00829158,0.01355509,0.01282844,-0.07324785,-0.10200932,-0.0
 5599157,0.00025732,-0.00043295,-0.00078332,-0.00148742,0.00015857,0.00
 290558,0.00346791,-0.00291638,-0.00317631,0.06725407,-0.00027676,-0.00
 028668,0.00023111,-0.00007568,-0.00003147,0.00001732,-0.00036410,-0.00
 040490,0.00028001,0.00071831,0.00075979,-0.00035048,0.00000694,-0.0002
 7892,0.00007450,-0.00149308,0.00079074,0.00131424,-0.00352163,-0.00148
 420,-0.00487385,-0.08495689,-0.21615931,-0.10910509,0.00061720,0.00031
 602,-0.00012493,0.00074510,0.00137204,-0.00012145,-0.01021016,-0.01298
 583,-0.01324608,0.09705714,0.22824788,-0.00028130,0.00035045,0.0001492
 7,0.00007320,0.00008880,0.00000594,0.00005817,0.00009112,-0.00004497,-
 0.00071516,-0.00250937,-0.00033851,0.00050445,0.00054781,0.00010928,0.
 00207862,0.00162912,0.00110432,-0.01341658,-0.02127746,-0.01068505,-0.
 04514057,-0.11657152,-0.12609612,-0.00063160,0.00036521,0.00105983,0.0
 0344396,-0.00064503,-0.00393140,0.00623629,0.01395396,0.01089618,0.049
 97407,0.12528170,0.12906595,0.00001258,0.00002462,0.00000945,-0.000001
 97,-0.00000563,-0.00001170,-0.00005222,-0.00005109,0.00005286,0.000161
 84,0.00030963,0.00023709,-0.00011088,0.00000429,-0.00007886,0.00061826
 ,-0.00101817,0.00069997,-0.01265761,0.00547848,0.00154658,0.07045470,-
 0.02321163,0.02106717,0.00022669,-0.00013129,-0.00035492,0.00047992,-0
 .00036409,-0.00077300,-0.00624798,0.00082355,-0.00139278,-0.00798354,0
 .00234128,-0.00335652,0.08617755,0.00011609,-0.00020416,-0.00002313,-0
 .00012006,-0.00000074,0.00002126,-0.00001791,-0.00016002,0.00000559,0.
 00071113,0.00101644,0.00004785,-0.00026467,-0.00026205,-0.00003664,-0.
 00109987,-0.00008556,0.00002889,0.00407009,-0.00100813,-0.00126947,-0.
 01120957,0.00028881,-0.00157243,-0.00065473,0.00012731,0.00054801,0.00
 034469,-0.00034048,-0.00023236,0.00533844,-0.00346550,0.00253184,-0.00
 336544,-0.00054833,-0.00190655,0.01427771,0.03826050,-0.00004691,-0.00
 004443,-0.00002443,0.00001067,0.00004951,0.00002941,-0.00002371,-0.000
 16871,-0.00011232,0.00106275,0.00071264,0.00033554,-0.00051434,-0.0000
 0862,-0.00011761,0.00044454,-0.00118067,-0.00112003,0.00270258,-0.0009
 3404,0.00100730,0.02981699,-0.00802980,0.00459930,0.00069557,0.0001872
 7,-0.00059715,0.00051900,-0.00073683,-0.00063366,-0.00554540,0.0025665
 7,-0.00197258,-0.00529898,0.00060487,-0.00174066,0.01328795,-0.0113857
 7,0.04393149,-0.00008429,-0.00014595,0.00000791,0.00003041,0.00014402,
 0.00000751,-0.00010267,-0.00030194,-0.00002173,0.00282647,0.00148751,0
 .00065110,-0.00138972,0.00004883,-0.00041387,-0.00383833,-0.00002941,0
 .00097968,0.00489655,-0.00196975,-0.00441118,-0.08258686,0.02848444,-0
 .02636609,-0.00001690,-0.00012485,0.00041829,0.00007285,0.00001705,0.0
 0025499,0.00209103,-0.00062539,0.00092835,0.00226799,-0.00085025,0.001
 10559,-0.11112014,0.01691481,-0.05418731,0.36024477,-0.00005078,0.0001
 6916,0.00002489,0.00011636,-0.00003038,-0.00001572,-0.00000522,0.00022
 312,0.00000589,-0.00068868,-0.00105036,-0.00012845,0.00027976,0.000246
 85,0.00005781,0.00101721,0.00069365,0.00016156,-0.00181097,-0.00038776
 ,0.00011669,0.02082418,-0.00507944,0.00726885,0.00050334,-0.00005013,-
 0.00030729,-0.00063763,0.00038886,0.00046780,-0.00017842,0.00095542,-0
 .00087256,0.00002752,0.00106079,0.00049718,-0.00910786,-0.03505191,0.0
 1540572,0.15827483,0.29246420,0.00000977,0.00002457,0.00004434,0.00000
 399,-0.00002515,-0.00005268,0.00001506,0.00013693,0.00011016,-0.000471
 53,-0.00055373,-0.00032659,0.00030854,0.00004836,0.00012635,-0.0001670
 8,0.00094762,0.00089338,0.00175098,-0.00129381,-0.00144836,-0.03857410
 ,0.01335644,-0.00893916,-0.00068665,-0.00002940,0.00036153,-0.00056930
 ,0.00076271,0.00054699,0.00103924,-0.00114336,0.00047754,0.00202329,-0
 .00034201,0.00043639,-0.01590375,0.01929998,-0.04781167,-0.05989844,-0
 .21002172,0.19422145,0.00003899,0.00003017,0.00000011,-0.00001830,-0.0
 0004907,0.00000129,0.00004755,0.00011665,-0.00001794,-0.00086064,-0.00
 041435,-0.00017256,0.00043923,-0.00003973,0.00010028,0.00102123,0.0002
 1961,0.00006191,-0.00095507,0.00020088,0.00000971,-0.00105783,-0.00040
 783,0.00009575,0.00021798,-0.00002702,-0.00012558,-0.00013096,0.000074
 80,0.00014010,0.00016321,0.00060218,-0.00040111,0.00005964,0.00026258,
 0.00006738,-0.01995719,-0.02504070,0.01707660,-0.17329118,-0.16856363,
 0.11111998,0.19428334,0.00000484,0.00000869,-0.00001865,-0.00000377,-0
 .00000979,0.00001488,0.00002217,0.00001864,-0.00000794,-0.00043112,-0.
 00021681,-0.00014154,0.00023108,-0.00002866,0.00008567,0.00060292,-0.0
 0007685,-0.00039588,0.00054994,-0.00002146,0.00116924,-0.00410524,0.00
 173445,-0.00244821,-0.00009249,-0.00000616,-0.00001028,0.00018253,-0.0
 0006159,-0.00017959,0.00054323,-0.00006230,0.00027327,0.00015421,-0.00
 036762,0.00010457,0.01063020,0.00143382,0.00296229,-0.20132394,-0.2545
 5208,0.17883259,0.19303546,0.25220771,0.00000068,-0.00003589,-0.000001
 74,-0.00001373,0.00002128,0.00000831,-0.00002075,-0.00008827,-0.000020
 46,0.00046173,0.00036350,0.00014741,-0.00022028,-0.00003018,-0.0000935
 4,-0.00049304,-0.00025930,0.00008515,0.00017289,0.00041233,-0.00041960
 ,0.00318080,-0.00201492,0.00074850,-0.00006267,-0.00007506,-0.00005876
 ,0.00017561,-0.00007418,-0.00015041,-0.00042434,0.00037869,0.00010184,
 -0.00071665,0.00036014,0.00000957,-0.01502956,-0.00605707,0.00422709,0
 .14094520,0.18733936,-0.13863965,-0.12795591,-0.18024043,0.13405630\\0
 .00007492,-0.00006121,-0.00001641,0.00001207,-0.00007691,0.00003445,0.
 00013442,0.00033379,-0.00008947,-0.00049004,-0.00119210,-0.00028165,0.
 00016964,0.00034945,0.00013340,0.00087072,0.00073678,-0.00076100,0.004
 68069,-0.00195801,0.00154958,-0.03050873,0.01087628,-0.00729772,0.0000
 5619,0.00002968,0.00001572,0.00006629,-0.00004708,0.00013293,0.0044709
 0,-0.00066285,0.00041189,0.00492845,-0.00287362,0.00089940,0.03202009,
 -0.00959033,0.01338687,-0.01839252,0.00574502,-0.00987284,0.00190691,-
 0.00160889,0.00175485\\\@


 WERE I TO AWAIT PERFECTION, MY BOOK WOULD NEVER BE FINISHED.
                                    -- HISTORY OF CHINESE WRITING

                                       TAI T'UNG, 13TH CENTURY
 Job cpu time:       0 days  0 hours 55 minutes 58.1 seconds.
 Elapsed time:       0 days  0 hours  2 minutes 20.0 seconds.
 File lengths (MBytes):  RWF=    153 Int=      0 D2E=      0 Chk=      6 Scr=      1
 Normal termination of Gaussian 16 at Wed Apr  2 01:40:28 2025.
