 Entering Gaussian System, Link 0=g16
 Initial command:
 /opt/g16/l1.exe "/home/aayush/scratches/g16/Gau-26270.inp" -scrdir="/home/aayush/scratches/g16/"
 Entering Link 1 = /opt/g16/l1.exe PID=     26273.
  
 Copyright (c) 1988,1990,1992,1993,1995,1998,2003,2009,2016,
            Gaussian, Inc.  All Rights Reserved.
  
 This is part of the Gaussian(R) 16 program.  It is based on
 the Gaussian(R) 09 system (copyright 2009, Gaussian, Inc.),
 the Gaussian(R) 03 system (copyright 2003, Gaussian, Inc.),
 the Gaussian(R) 98 system (copyright 1998, Gaussian, Inc.),
 the Gaussian(R) 94 system (copyright 1995, Gaussian, Inc.),
 the Gaussian 92(TM) system (copyright 1992, Gaussian, Inc.),
 the Gaussian 90(TM) system (copyright 1990, Gaussian, Inc.),
 the Gaussian 88(TM) system (copyright 1988, Gaussian, Inc.),
 the Gaussian 86(TM) system (copyright 1986, Carnegie Mellon
 University), and the Gaussian 82(TM) system (copyright 1983,
 Carnegie Mellon University). Gaussian is a federally registered
 trademark of Gaussian, Inc.
  
 This software contains proprietary and confidential information,
 including trade secrets, belonging to Gaussian, Inc.
  
 This software is provided under written license and may be
 used, copied, transmitted, or stored only in accord with that
 written license.
  
 The following legend is applicable only to US Government
 contracts under FAR:
  
                    RESTRICTED RIGHTS LEGEND
  
 Use, reproduction and disclosure by the US Government is
 subject to restrictions as set forth in subparagraphs (a)
 and (c) of the Commercial Computer Software - Restricted
 Rights clause in FAR 52.227-19.
  
 Gaussian, Inc.
 340 Quinnipiac St., Bldg. 40, Wallingford CT 06492
  
  
 ---------------------------------------------------------------
 Warning -- This program may not be used in any manner that
 competes with the business of Gaussian, Inc. or will provide
 assistance to any competitor of Gaussian, Inc.  The licensee
 of this program is prohibited from giving any competitor of
 Gaussian, Inc. access to this program.  By using this program,
 the user acknowledges that Gaussian, Inc. is engaged in the
 business of creating and licensing software in the field of
 computational chemistry and represents and warrants to the
 licensee that it is not a competitor of Gaussian, Inc. and that
 it will not use this program in any manner prohibited above.
 ---------------------------------------------------------------
  

 Cite this work as:
 Gaussian 16, Revision A.03,
 M. J. Frisch, G. W. Trucks, H. B. Schlegel, G. E. Scuseria, 
 M. A. Robb, J. R. Cheeseman, G. Scalmani, V. Barone, 
 G. A. Petersson, H. Nakatsuji, X. Li, M. Caricato, A. V. Marenich, 
 J. Bloino, B. G. Janesko, R. Gomperts, B. Mennucci, H. P. Hratchian, 
 J. V. Ortiz, A. F. Izmaylov, J. L. Sonnenberg, D. Williams-Young, 
 F. Ding, F. Lipparini, F. Egidi, J. Goings, B. Peng, A. Petrone, 
 T. Henderson, D. Ranasinghe, V. G. Zakrzewski, J. Gao, N. Rega, 
 G. Zheng, W. Liang, M. Hada, M. Ehara, K. Toyota, R. Fukuda, 
 J. Hasegawa, M. Ishida, T. Nakajima, Y. Honda, O. Kitao, H. Nakai, 
 T. Vreven, K. Throssell, J. A. Montgomery, Jr., J. E. Peralta, 
 F. Ogliaro, M. J. Bearpark, J. J. Heyd, E. N. Brothers, K. N. Kudin, 
 V. N. Staroverov, T. A. Keith, R. Kobayashi, J. Normand, 
 K. Raghavachari, A. P. Rendell, J. C. Burant, S. S. Iyengar, 
 J. Tomasi, M. Cossi, J. M. Millam, M. Klene, C. Adamo, R. Cammi, 
 J. W. Ochterski, R. L. Martin, K. Morokuma, O. Farkas, 
 J. B. Foresman, and D. J. Fox, Gaussian, Inc., Wallingford CT, 2016.
 
 ******************************************
 Gaussian 16:  ES64L-G16RevA.03 25-Dec-2016
                14-May-2025 
 ******************************************
 %chk=ethyl_propiolate.chk
 %nprocshared=24
 Will use up to   24 processors via shared memory.
 %mem=12GB
 --------------------------
 # ccsd(t)/6-311++g(d,p) sp
 --------------------------
 1/38=1,172=1/1;
 2/12=2,17=6,18=5,40=1/2;
 3/5=4,6=6,7=1111,11=9,25=1,30=1/1,2,3;
 4//1;
 5/5=2,38=5/2;
 8/6=4,9=120000,10=2/1,4;
 9/5=7,14=2/13;
 6/7=2,8=2,9=2,10=2/1;
 99/5=1,9=1/99;
 -------------------
 Title Card Required
 -------------------
 Symbolic Z-matrix:
 Charge =  0 Multiplicity = 2
 C                    -2.04013  -1.11819  -0.85785 
 H                    -2.70003  -1.85001  -1.26316 
 C                    -1.26602  -0.324    -0.3815 
 C                    -0.55281   0.89472   0.04436 
 O                    -1.1565    1.78009   0.57294 
 O                     0.74448   0.98384  -0.21902 
 C                     1.51496  -0.09081  -0.78877 
 C                     2.60545  -0.47888   0.18612 
 H                     0.87002  -0.93853  -1.02013 
 H                     1.92857   0.30427  -1.71799 
 H                     3.21927   0.38779   0.43491 
 H                     2.16557  -0.87955   1.09924 
 H                     3.24432  -1.24287  -0.26164 
 O                    -0.26828  -1.5547    1.06361 
 H                    -1.04403  -1.67091   1.63578 
 
                          Input orientation:                          
 ---------------------------------------------------------------------
 Center     Atomic      Atomic             Coordinates (Angstroms)
 Number     Number       Type             X           Y           Z
 ---------------------------------------------------------------------
      1          6           0       -2.040129   -1.118187   -0.857852
      2          1           0       -2.700030   -1.850010   -1.263163
      3          6           0       -1.266017   -0.323996   -0.381497
      4          6           0       -0.552811    0.894715    0.044363
      5          8           0       -1.156495    1.780094    0.572937
      6          8           0        0.744476    0.983844   -0.219018
      7          6           0        1.514962   -0.090806   -0.788766
      8          6           0        2.605447   -0.478880    0.186119
      9          1           0        0.870017   -0.938530   -1.020130
     10          1           0        1.928570    0.304267   -1.717994
     11          1           0        3.219270    0.387789    0.434912
     12          1           0        2.165574   -0.879554    1.099242
     13          1           0        3.244318   -1.242865   -0.261643
     14          8           0       -0.268278   -1.554699    1.063608
     15          1           0       -1.044027   -1.670909    1.635781
 ---------------------------------------------------------------------
                    Distance matrix (angstroms):
                    1          2          3          4          5
     1  C    0.000000
     2  H    1.065510   0.000000
     3  C    1.207022   2.272102   0.000000
     4  C    2.660429   3.722054   1.474882   0.000000
     5  O    3.350821   4.351025   2.313036   1.194873   0.000000
     6  O    3.546924   4.581003   2.403940   1.326751   2.207917
     7  C    3.701210   4.591950   2.820300   2.437425   3.534287
     8  C    4.804161   5.668201   3.915918   3.446948   4.405088
     9  H    2.920199   3.692573   2.312606   2.553110   3.746402
    10  H    4.302766   5.125594   3.519421   3.100288   4.116316
    11  H    5.621430   6.552047   4.614213   3.825977   4.594005
    12  H    4.644900   5.495166   3.778498   3.413271   4.287991
    13  H    5.319435   6.058625   4.604542   4.368189   5.403884
    14  O    2.649907   3.378534   2.144398   2.668229   3.485761
    15  H    2.741519   3.343396   2.435747   3.058812   3.612715
                    6          7          8          9         10
     6  O    0.000000
     7  C    1.439838   0.000000
     8  C    2.401439   1.513327   0.000000
     9  H    2.086399   1.090009   2.162876   0.000000
    10  H    2.027519   1.091155   2.167286   1.775413   0.000000
    11  H    2.628214   2.152001   1.090776   3.065169   2.511551
    12  H    2.688788   2.147090   1.089872   2.484690   3.065032
    13  H    3.348023   2.143775   1.091934   2.511021   2.499154
    14  O    3.019106   2.958753   3.191499   2.453027   4.002400
    15  H    3.699559   3.863105   4.103793   3.354669   4.897495
                   11         12         13         14         15
    11  H    0.000000
    12  H    1.777011   0.000000
    13  H    1.773372   1.774173   0.000000
    14  O    4.041226   2.526010   3.767209   0.000000
    15  H    4.884263   3.348978   4.708858   0.970914   0.000000
 Stoichiometry    C5H7O3(2)
 Framework group  C1[X(C5H7O3)]
 Deg. of freedom    39
 Full point group                 C1      NOp   1
 Largest Abelian subgroup         C1      NOp   1
 Largest concise Abelian subgroup C1      NOp   1
                         Standard orientation:                         
 ---------------------------------------------------------------------
 Center     Atomic      Atomic             Coordinates (Angstroms)
 Number     Number       Type             X           Y           Z
 ---------------------------------------------------------------------
      1          6           0       -2.100511   -1.071107   -0.853184
      2          1           0       -2.758131   -1.801226   -1.265220
      3          6           0       -1.328692   -0.278920   -0.369822
      4          6           0       -0.620531    0.938068    0.069180
      5          8           0       -1.226739    1.812514    0.612849
      6          8           0        0.674864    1.038518   -0.199392
      7          6           0        1.448775   -0.023621   -0.787656
      8          6           0        2.546432   -0.418512    0.176383
      9          1           0        0.807671   -0.871921   -1.027429
     10          1           0        1.855356    0.386598   -1.713416
     11          1           0        3.156391    0.448307    0.433998
     12          1           0        2.113538   -0.834268    1.086093
     13          1           0        3.187520   -1.172476   -0.284991
     14          8           0       -0.316447   -1.523340    1.053281
     15          1           0       -1.088601   -1.651992    1.627650
 ---------------------------------------------------------------------
 Rotational constants (GHZ):           2.5837755           1.6598734           1.2785289
 Standard basis: 6-311++G(d,p) (5D, 7F)
 There are   233 symmetry adapted cartesian basis functions of A   symmetry.
 There are   225 symmetry adapted basis functions of A   symmetry.
   225 basis functions,   351 primitive gaussians,   233 cartesian basis functions
    31 alpha electrons       30 beta electrons
       nuclear repulsion energy       364.1434887930 Hartrees.
 NAtoms=   15 NActive=   15 NUniq=   15 SFac= 1.00D+00 NAtFMM=   60 NAOKFM=F Big=F
 Integral buffers will be    131072 words long.
 Raffenetti 2 integral format.
 Two-electron integral symmetry is turned on.
 One-electron integrals computed using PRISM.
 NBasis=   225 RedAO= T EigKep=  1.85D-06  NBF=   225
 NBsUse=   225 1.00D-06 EigRej= -1.00D+00 NBFU=   225
 ExpMin= 3.60D-02 ExpMax= 8.59D+03 ExpMxC= 1.30D+03 IAcc=3 IRadAn=         5 AccDes= 0.00D+00
 Harris functional with IExCor=  205 and IRadAn=       5 diagonalized for initial guess.
 HarFok:  IExCor=  205 AccDes= 0.00D+00 IRadAn=         5 IDoV= 1 UseB2=F ITyADJ=14
 ICtDFT=  3500011 ScaDFX=  1.000000  1.000000  1.000000  1.000000
 FoFCou: FMM=F IPFlag=           0 FMFlag=      100000 FMFlg1=           0
         NFxFlg=           0 DoJE=T BraDBF=F KetDBF=T FulRan=T
         wScrn=  0.000000 ICntrl=       500 IOpCl=  0 I1Cent=   200000004 NGrid=           0
         NMat0=    1 NMatS0=      1 NMatT0=    0 NMatD0=    1 NMtDS0=    0 NMtDT0=    0
 Petite list used in FoFCou.
 Initial guess <Sx>= 0.0000 <Sy>= 0.0000 <Sz>= 0.5000 <S**2>= 0.7500 S= 0.5000
 Requested convergence on RMS density matrix=1.00D-08 within 128 cycles.
 Requested convergence on MAX density matrix=1.00D-06.
 Requested convergence on             energy=1.00D-06.
 No special actions if energy rises.
 Restarting incremental Fock formation.
 Initial convergence to 1.0D-05 achieved.  Increase integral accuracy.
 SCF Done:  E(UHF) =  -417.974734913     A.U. after   40 cycles
            NFock= 40  Conv=0.70D-08     -V/T= 2.0006
 <Sx>= 0.0000 <Sy>= 0.0000 <Sz>= 0.5000 <S**2>= 0.9185 S= 0.5810
 <L.S>=  0.00000000000    
 Annihilation of the first spin contaminant:
 S**2 before annihilation     0.9185,   after     0.7670
 ExpMin= 3.60D-02 ExpMax= 8.59D+03 ExpMxC= 1.30D+03 IAcc=3 IRadAn=         5 AccDes= 0.00D+00
 HarFok:  IExCor=  205 AccDes= 0.00D+00 IRadAn=         5 IDoV=-2 UseB2=F ITyADJ=14
 ICtDFT= 12500011 ScaDFX=  1.000000  1.000000  1.000000  1.000000
 Range of M.O.s used for correlation:     9   225
 NBasis=   225 NAE=    31 NBE=    30 NFC=     8 NFV=     0
 NROrb=    217 NOA=    23 NOB=    22 NVA=   194 NVB=   195

 **** Warning!!: The largest alpha MO coefficient is  0.24406639D+03


 **** Warning!!: The largest beta MO coefficient is  0.20613628D+03

 Semi-Direct transformation.
 ModeAB=           4 MOrb=            23 LenV=    1609170901
 LASXX=    109339976 LTotXX=   109339976 LenRXX=   221407890
 LTotAB=   112067914 MaxLAS=   131667571 LenRXY=           0
 NonZer=   330747866 LenScr=   498067456 LnRSAI=   131667571
 LnScr1=   198276096 LExtra=           0 Total=   1049419013
 MaxDsk=          -1 SrtSym=           T ITran=            4
 JobTyp=1 Pass  1:  I=   1 to  23.
 (rs|ai) integrals will be sorted in core.
 ModeAB=           4 MOrb=            22 LenV=    1609170901
 LASXX=    104936601 LTotXX=   104936601 LenRXX=   190867446
 LTotAB=    85930845 MaxLAS=   125942894 LenRXY=           0
 NonZer=   295804047 LenScr=   445446144 LnRSAI=   125942894
 LnScr1=   189697024 LExtra=           0 Total=    951953508
 MaxDsk=          -1 SrtSym=           T ITran=            4
 JobTyp=2 Pass  1:  I=   1 to  22.
 (rs|ai) integrals will be sorted in core.
 SymMOI:  orbitals are not symmetric.
 Spin components of T(2) and E(2):
     alpha-alpha T2 =       0.5266317502D-01 E2=     -0.1704206477D+00
     alpha-beta  T2 =       0.2848748604D+00 E2=     -0.9341708490D+00
     beta-beta   T2 =       0.5000295019D-01 E2=     -0.1567124828D+00
 ANorm=    0.1177939296D+01
 E2 =    -0.1261303979D+01 EUMP2 =    -0.41923603889211D+03
 (S**2,0)=  0.91853D+00           (S**2,1)=  0.87136D+00
 E(PUHF)=      -0.41798871239D+03        E(PMP2)=      -0.41924816998D+03
 Keep R2 and R3 ints in memory in canonical form, NReq=652884060.
 CIDS: In Core Option IDoMem=           1.
 Iterations=  50 Convergence= 0.100D-06
 Produce multiple copies of IABC intergrals
 Iteration Nr.   1
 **********************
 DD1Dir will call FoFMem   1 times, MxPair=      1496
 NAB=   506 NAA=   253 NBB=   231.
 E(PMP3)=      -0.41927322160D+03
 MP4(R+Q)=  0.25056620D-01
 E3=       -0.28283803D-01        EUMP3=      -0.41926432269D+03
 E4(DQ)=   -0.56032652D-02        UMP4(DQ)=   -0.41926992596D+03
 E4(SDQ)=  -0.26009883D-01        UMP4(SDQ)=  -0.41929033258D+03
 DE(Corr)=  -1.2640710     E(Corr)=     -419.23880595    
 NORM(A)=   0.11861310D+01
 Iteration Nr.   2
 **********************
 DD1Dir will call FoFMem   1 times, MxPair=      1496
 NAB=   506 NAA=   253 NBB=   231.
 DE(Corr)=  -1.3072547     E(CORR)=     -419.28198959     Delta=-4.32D-02
 NORM(A)=   0.12063862D+01
 Iteration Nr.   3
 **********************
 DD1Dir will call FoFMem   1 times, MxPair=      1496
 NAB=   506 NAA=   253 NBB=   231.
 DE(Corr)=  -1.3097067     E(CORR)=     -419.28444162     Delta=-2.45D-03
 NORM(A)=   0.12167607D+01
 Iteration Nr.   4
 **********************
 DD1Dir will call FoFMem   1 times, MxPair=      1496
 NAB=   506 NAA=   253 NBB=   231.
 DE(Corr)=  -1.3163035     E(CORR)=     -419.29103844     Delta=-6.60D-03
 NORM(A)=   0.12232104D+01
 Iteration Nr.   5
 **********************
 DD1Dir will call FoFMem   1 times, MxPair=      1496
 NAB=   506 NAA=   253 NBB=   231.
 DE(Corr)=  -1.3180680     E(CORR)=     -419.29280295     Delta=-1.76D-03
 NORM(A)=   0.12266984D+01
 Iteration Nr.   6
 **********************
 DD1Dir will call FoFMem   1 times, MxPair=      1496
 NAB=   506 NAA=   253 NBB=   231.
 DE(Corr)=  -1.3186337     E(CORR)=     -419.29336863     Delta=-5.66D-04
 NORM(A)=   0.12273732D+01
 Iteration Nr.   7
 **********************
 DD1Dir will call FoFMem   1 times, MxPair=      1496
 NAB=   506 NAA=   253 NBB=   231.
 DE(Corr)=  -1.3187250     E(CORR)=     -419.29345988     Delta=-9.12D-05
 NORM(A)=   0.12274778D+01
 Iteration Nr.   8
 **********************
 DD1Dir will call FoFMem   1 times, MxPair=      1496
 NAB=   506 NAA=   253 NBB=   231.
 DE(Corr)=  -1.3187098     E(CORR)=     -419.29344468     Delta= 1.52D-05
 NORM(A)=   0.12275108D+01
 Iteration Nr.   9
 **********************
 DD1Dir will call FoFMem   1 times, MxPair=      1496
 NAB=   506 NAA=   253 NBB=   231.
 DE(Corr)=  -1.3187181     E(CORR)=     -419.29345297     Delta=-8.28D-06
 NORM(A)=   0.12274933D+01
 Iteration Nr.  10
 **********************
 DD1Dir will call FoFMem   1 times, MxPair=      1496
 NAB=   506 NAA=   253 NBB=   231.
 DE(Corr)=  -1.3187118     E(CORR)=     -419.29344669     Delta= 6.27D-06
 NORM(A)=   0.12274760D+01
 Iteration Nr.  11
 **********************
 DD1Dir will call FoFMem   1 times, MxPair=      1496
 NAB=   506 NAA=   253 NBB=   231.
 DE(Corr)=  -1.3187213     E(CORR)=     -419.29345624     Delta=-9.55D-06
 NORM(A)=   0.12274820D+01
 Iteration Nr.  12
 **********************
 DD1Dir will call FoFMem   1 times, MxPair=      1496
 NAB=   506 NAA=   253 NBB=   231.
 DE(Corr)=  -1.3187194     E(CORR)=     -419.29345429     Delta= 1.95D-06
 NORM(A)=   0.12275156D+01
 Iteration Nr.  13
 **********************
 DD1Dir will call FoFMem   1 times, MxPair=      1496
 NAB=   506 NAA=   253 NBB=   231.
 DE(Corr)=  -1.3187288     E(CORR)=     -419.29346376     Delta=-9.47D-06
 NORM(A)=   0.12275773D+01
 Iteration Nr.  14
 **********************
 DD1Dir will call FoFMem   1 times, MxPair=      1496
 NAB=   506 NAA=   253 NBB=   231.
 DE(Corr)=  -1.3187380     E(CORR)=     -419.29347290     Delta=-9.14D-06
 NORM(A)=   0.12276386D+01
 Iteration Nr.  15
 **********************
 DD1Dir will call FoFMem   1 times, MxPair=      1496
 NAB=   506 NAA=   253 NBB=   231.
 DE(Corr)=  -1.3187459     E(CORR)=     -419.29348084     Delta=-7.95D-06
 NORM(A)=   0.12276772D+01
 Iteration Nr.  16
 **********************
 DD1Dir will call FoFMem   1 times, MxPair=      1496
 NAB=   506 NAA=   253 NBB=   231.
 DE(Corr)=  -1.3187528     E(CORR)=     -419.29348775     Delta=-6.90D-06
 NORM(A)=   0.12276883D+01
 Iteration Nr.  17
 **********************
 DD1Dir will call FoFMem   1 times, MxPair=      1496
 NAB=   506 NAA=   253 NBB=   231.
 DE(Corr)=  -1.3187524     E(CORR)=     -419.29348727     Delta= 4.73D-07
 NORM(A)=   0.12276871D+01
 Iteration Nr.  18
 **********************
 DD1Dir will call FoFMem   1 times, MxPair=      1496
 NAB=   506 NAA=   253 NBB=   231.
 DE(Corr)=  -1.3187522     E(CORR)=     -419.29348708     Delta= 1.90D-07
 NORM(A)=   0.12276821D+01
 Iteration Nr.  19
 **********************
 DD1Dir will call FoFMem   1 times, MxPair=      1496
 NAB=   506 NAA=   253 NBB=   231.
 DE(Corr)=  -1.3187504     E(CORR)=     -419.29348527     Delta= 1.82D-06
 NORM(A)=   0.12276777D+01
 Iteration Nr.  20
 **********************
 DD1Dir will call FoFMem   1 times, MxPair=      1496
 NAB=   506 NAA=   253 NBB=   231.
 DE(Corr)=  -1.3187494     E(CORR)=     -419.29348436     Delta= 9.05D-07
 NORM(A)=   0.12276746D+01
 Iteration Nr.  21
 **********************
 DD1Dir will call FoFMem   1 times, MxPair=      1496
 NAB=   506 NAA=   253 NBB=   231.
 DE(Corr)=  -1.3187487     E(CORR)=     -419.29348358     Delta= 7.81D-07
 NORM(A)=   0.12276737D+01
 Iteration Nr.  22
 **********************
 DD1Dir will call FoFMem   1 times, MxPair=      1496
 NAB=   506 NAA=   253 NBB=   231.
 DE(Corr)=  -1.3187485     E(CORR)=     -419.29348337     Delta= 2.07D-07
 NORM(A)=   0.12276742D+01
 Iteration Nr.  23
 **********************
 DD1Dir will call FoFMem   1 times, MxPair=      1496
 NAB=   506 NAA=   253 NBB=   231.
 DE(Corr)=  -1.3187486     E(CORR)=     -419.29348353     Delta=-1.55D-07
 NORM(A)=   0.12276760D+01
 Iteration Nr.  24
 **********************
 DD1Dir will call FoFMem   1 times, MxPair=      1496
 NAB=   506 NAA=   253 NBB=   231.
 DE(Corr)=  -1.3187489     E(CORR)=     -419.29348377     Delta=-2.40D-07
 NORM(A)=   0.12276787D+01
 Iteration Nr.  25
 **********************
 DD1Dir will call FoFMem   1 times, MxPair=      1496
 NAB=   506 NAA=   253 NBB=   231.
 DE(Corr)=  -1.3187494     E(CORR)=     -419.29348433     Delta=-5.60D-07
 NORM(A)=   0.12276811D+01
 Iteration Nr.  26
 **********************
 DD1Dir will call FoFMem   1 times, MxPair=      1496
 NAB=   506 NAA=   253 NBB=   231.
 DE(Corr)=  -1.3187496     E(CORR)=     -419.29348456     Delta=-2.28D-07
 NORM(A)=   0.12276827D+01
 Iteration Nr.  27
 **********************
 DD1Dir will call FoFMem   1 times, MxPair=      1496
 NAB=   506 NAA=   253 NBB=   231.
 DE(Corr)=  -1.3187499     E(CORR)=     -419.29348478     Delta=-2.19D-07
 NORM(A)=   0.12276828D+01
 Iteration Nr.  28
 **********************
 DD1Dir will call FoFMem   1 times, MxPair=      1496
 NAB=   506 NAA=   253 NBB=   231.
 DE(Corr)=  -1.3187497     E(CORR)=     -419.29348463     Delta= 1.49D-07
 NORM(A)=   0.12276822D+01
 Iteration Nr.  29
 **********************
 DD1Dir will call FoFMem   1 times, MxPair=      1496
 NAB=   506 NAA=   253 NBB=   231.
 DE(Corr)=  -1.3187495     E(CORR)=     -419.29348442     Delta= 2.10D-07
 NORM(A)=   0.12276816D+01
 Iteration Nr.  30
 **********************
 DD1Dir will call FoFMem   1 times, MxPair=      1496
 NAB=   506 NAA=   253 NBB=   231.
 DE(Corr)=  -1.3187494     E(CORR)=     -419.29348429     Delta= 1.23D-07
 NORM(A)=   0.12276811D+01
 Iteration Nr.  31
 **********************
 DD1Dir will call FoFMem   1 times, MxPair=      1496
 NAB=   506 NAA=   253 NBB=   231.
 DE(Corr)=  -1.3187493     E(CORR)=     -419.29348417     Delta= 1.24D-07
 NORM(A)=   0.12276810D+01
 Iteration Nr.  32
 **********************
 DD1Dir will call FoFMem   1 times, MxPair=      1496
 NAB=   506 NAA=   253 NBB=   231.
 DE(Corr)=  -1.3187492     E(CORR)=     -419.29348416     Delta= 1.01D-08
 NORM(A)=   0.12276810D+01
 Wavefunction amplitudes converged. E(Corr)=     -419.29348416    
 Largest amplitude= 5.22D-02
 Time for triples=    35254.54 seconds.
 T4(CCSD)= -0.57816495D-01
 T5(CCSD)=  0.39238238D-02
 CCSD(T)= -0.41934737683D+03

 S**2, projected HF & approx projected MPn energies after annihilation of
 unwanted spin states (see manual for definitions):

 spins       (S**2,0) (S**2,1)    PUHF        PMP2        PMP3        PMP4
 annihilated
 s+1         0.73997  0.74638 -417.988712 -419.248170 -419.273222
 s+1,s+2     0.75014  0.74997 -417.987960 -419.247463 -419.272575
 s+1 to s+3  0.75000  0.75000 -417.987972 -419.247472 -419.272578
 s+1 to s+4  0.75000  0.75000 -417.987972 -419.247472 -419.272578
 s+1 to s+5  0.75000  0.75000 -417.987972
 s+1 to s+6  0.75000  0.75000 -417.987972

 Discarding MO integrals.

 **********************************************************************

            Population analysis using the SCF density.

 **********************************************************************

 Orbital symmetries:
 Alpha Orbitals:
       Occupied  (A) (A) (A) (A) (A) (A) (A) (A) (A) (A) (A) (A)
                 (A) (A) (A) (A) (A) (A) (A) (A) (A) (A) (A) (A)
                 (A) (A) (A) (A) (A) (A) (A)
       Virtual   (A) (A) (A) (A) (A) (A) (A) (A) (A) (A) (A) (A)
                 (A) (A) (A) (A) (A) (A) (A) (A) (A) (A) (A) (A)
                 (A) (A) (A) (A) (A) (A) (A) (A) (A) (A) (A) (A)
                 (A) (A) (A) (A) (A) (A) (A) (A) (A) (A) (A) (A)
                 (A) (A) (A) (A) (A) (A) (A) (A) (A) (A) (A) (A)
                 (A) (A) (A) (A) (A) (A) (A) (A) (A) (A) (A) (A)
                 (A) (A) (A) (A) (A) (A) (A) (A) (A) (A) (A) (A)
                 (A) (A) (A) (A) (A) (A) (A) (A) (A) (A) (A) (A)
                 (A) (A) (A) (A) (A) (A) (A) (A) (A) (A) (A) (A)
                 (A) (A) (A) (A) (A) (A) (A) (A) (A) (A) (A) (A)
                 (A) (A) (A) (A) (A) (A) (A) (A) (A) (A) (A) (A)
                 (A) (A) (A) (A) (A) (A) (A) (A) (A) (A) (A) (A)
                 (A) (A) (A) (A) (A) (A) (A) (A) (A) (A) (A) (A)
                 (A) (A) (A) (A) (A) (A) (A) (A) (A) (A) (A) (A)
                 (A) (A) (A) (A) (A) (A) (A) (A) (A) (A) (A) (A)
                 (A) (A) (A) (A) (A) (A) (A) (A) (A) (A) (A) (A)
                 (A) (A)
 Beta  Orbitals:
       Occupied  (A) (A) (A) (A) (A) (A) (A) (A) (A) (A) (A) (A)
                 (A) (A) (A) (A) (A) (A) (A) (A) (A) (A) (A) (A)
                 (A) (A) (A) (A) (A) (A)
       Virtual   (A) (A) (A) (A) (A) (A) (A) (A) (A) (A) (A) (A)
                 (A) (A) (A) (A) (A) (A) (A) (A) (A) (A) (A) (A)
                 (A) (A) (A) (A) (A) (A) (A) (A) (A) (A) (A) (A)
                 (A) (A) (A) (A) (A) (A) (A) (A) (A) (A) (A) (A)
                 (A) (A) (A) (A) (A) (A) (A) (A) (A) (A) (A) (A)
                 (A) (A) (A) (A) (A) (A) (A) (A) (A) (A) (A) (A)
                 (A) (A) (A) (A) (A) (A) (A) (A) (A) (A) (A) (A)
                 (A) (A) (A) (A) (A) (A) (A) (A) (A) (A) (A) (A)
                 (A) (A) (A) (A) (A) (A) (A) (A) (A) (A) (A) (A)
                 (A) (A) (A) (A) (A) (A) (A) (A) (A) (A) (A) (A)
                 (A) (A) (A) (A) (A) (A) (A) (A) (A) (A) (A) (A)
                 (A) (A) (A) (A) (A) (A) (A) (A) (A) (A) (A) (A)
                 (A) (A) (A) (A) (A) (A) (A) (A) (A) (A) (A) (A)
                 (A) (A) (A) (A) (A) (A) (A) (A) (A) (A) (A) (A)
                 (A) (A) (A) (A) (A) (A) (A) (A) (A) (A) (A) (A)
                 (A) (A) (A) (A) (A) (A) (A) (A) (A) (A) (A) (A)
                 (A) (A) (A)
 The electronic state is 2-A.
 Alpha  occ. eigenvalues --  -20.64122 -20.60631 -20.54895 -11.41413 -11.29852
 Alpha  occ. eigenvalues --  -11.27730 -11.26793 -11.22366  -1.47286  -1.39921
 Alpha  occ. eigenvalues --   -1.37498  -1.07992  -1.04624  -0.90726  -0.87462
 Alpha  occ. eigenvalues --   -0.76067  -0.73318  -0.71059  -0.67832  -0.67485
 Alpha  occ. eigenvalues --   -0.66223  -0.61290  -0.57117  -0.56776  -0.55668
 Alpha  occ. eigenvalues --   -0.52946  -0.50582  -0.47427  -0.45238  -0.43317
 Alpha  occ. eigenvalues --   -0.42711
 Alpha virt. eigenvalues --    0.03202   0.04608   0.05320   0.06596   0.06890
 Alpha virt. eigenvalues --    0.08584   0.09236   0.10248   0.10708   0.12528
 Alpha virt. eigenvalues --    0.12809   0.13050   0.14327   0.15704   0.16196
 Alpha virt. eigenvalues --    0.17190   0.17521   0.18459   0.18576   0.19388
 Alpha virt. eigenvalues --    0.20068   0.20323   0.20865   0.21888   0.22592
 Alpha virt. eigenvalues --    0.23827   0.24808   0.27148   0.28912   0.29230
 Alpha virt. eigenvalues --    0.29640   0.30244   0.30799   0.32315   0.33756
 Alpha virt. eigenvalues --    0.35474   0.36848   0.37226   0.38376   0.39739
 Alpha virt. eigenvalues --    0.40104   0.41428   0.42246   0.42437   0.43219
 Alpha virt. eigenvalues --    0.43839   0.45887   0.46672   0.47655   0.50493
 Alpha virt. eigenvalues --    0.51528   0.52848   0.58264   0.61660   0.63689
 Alpha virt. eigenvalues --    0.64038   0.65369   0.66588   0.71353   0.73098
 Alpha virt. eigenvalues --    0.73423   0.76876   0.80902   0.83012   0.84410
 Alpha virt. eigenvalues --    0.85869   0.86122   0.87217   0.87739   0.89028
 Alpha virt. eigenvalues --    0.90919   0.91769   0.93854   0.94634   0.96366
 Alpha virt. eigenvalues --    0.99959   1.02898   1.07596   1.12355   1.16545
 Alpha virt. eigenvalues --    1.18155   1.23621   1.26656   1.28502   1.30234
 Alpha virt. eigenvalues --    1.34274   1.37533   1.40863   1.43010   1.44094
 Alpha virt. eigenvalues --    1.46578   1.47888   1.48907   1.50505   1.51697
 Alpha virt. eigenvalues --    1.52473   1.56908   1.59025   1.63065   1.64197
 Alpha virt. eigenvalues --    1.64667   1.68656   1.72925   1.74377   1.76486
 Alpha virt. eigenvalues --    1.81273   1.83598   1.84757   1.85487   1.87956
 Alpha virt. eigenvalues --    1.89279   1.92652   1.95980   1.97035   2.00410
 Alpha virt. eigenvalues --    2.03401   2.05946   2.08453   2.11704   2.15813
 Alpha virt. eigenvalues --    2.16357   2.22330   2.25752   2.28719   2.31891
 Alpha virt. eigenvalues --    2.34352   2.40298   2.42620   2.49293   2.61379
 Alpha virt. eigenvalues --    2.63288   2.69893   2.77509   2.81555   2.83423
 Alpha virt. eigenvalues --    2.83646   2.86605   2.90158   2.93128   2.94949
 Alpha virt. eigenvalues --    2.96110   2.98087   3.01784   3.04881   3.05301
 Alpha virt. eigenvalues --    3.12424   3.13133   3.15183   3.20552   3.22300
 Alpha virt. eigenvalues --    3.24566   3.26304   3.32305   3.35550   3.38181
 Alpha virt. eigenvalues --    3.39496   3.43410   3.45261   3.47709   3.50020
 Alpha virt. eigenvalues --    3.61376   3.63807   3.68736   3.72021   3.75896
 Alpha virt. eigenvalues --    3.79084   3.91673   3.98980   4.14670   4.20782
 Alpha virt. eigenvalues --    4.21813   4.24835   4.28344   4.41678   4.53296
 Alpha virt. eigenvalues --    4.57665   4.68358   5.51929   5.55285   5.62314
 Alpha virt. eigenvalues --    5.66178   5.73708   5.88837   6.04240   6.19153
 Alpha virt. eigenvalues --    6.48452  24.68457  25.00890  25.01580  25.14391
 Alpha virt. eigenvalues --   26.20209  51.51811  51.60246  51.74732
  Beta  occ. eigenvalues --  -20.60578 -20.60133 -20.55362 -11.41093 -11.29870
  Beta  occ. eigenvalues --  -11.28208 -11.26056 -11.22363  -1.47401  -1.38186
  Beta  occ. eigenvalues --   -1.25316  -1.07510  -1.04560  -0.90054  -0.86961
  Beta  occ. eigenvalues --   -0.75762  -0.72689  -0.69901  -0.67098  -0.64574
  Beta  occ. eigenvalues --   -0.61860  -0.56998  -0.56522  -0.53829  -0.51663
  Beta  occ. eigenvalues --   -0.50563  -0.48653  -0.46247  -0.44037  -0.42566
  Beta virt. eigenvalues --    0.03241   0.04035   0.04792   0.06547   0.06818
  Beta virt. eigenvalues --    0.07937   0.08388   0.09454   0.10966   0.11514
  Beta virt. eigenvalues --    0.12358   0.13051   0.13509   0.14784   0.15915
  Beta virt. eigenvalues --    0.16671   0.17281   0.17776   0.18580   0.18658
  Beta virt. eigenvalues --    0.19655   0.20145   0.20400   0.21009   0.22299
  Beta virt. eigenvalues --    0.22876   0.23935   0.24939   0.27000   0.29319
  Beta virt. eigenvalues --    0.29422   0.29875   0.30854   0.32238   0.32420
  Beta virt. eigenvalues --    0.34032   0.35956   0.36967   0.37460   0.38549
  Beta virt. eigenvalues --    0.39912   0.40202   0.41283   0.42376   0.42905
  Beta virt. eigenvalues --    0.43367   0.44423   0.45973   0.47282   0.47698
  Beta virt. eigenvalues --    0.51022   0.51408   0.52915   0.58283   0.61928
  Beta virt. eigenvalues --    0.63759   0.64251   0.65680   0.66640   0.72265
  Beta virt. eigenvalues --    0.73455   0.75943   0.78680   0.81596   0.82994
  Beta virt. eigenvalues --    0.84212   0.85394   0.86167   0.87158   0.87695
  Beta virt. eigenvalues --    0.89339   0.90440   0.91749   0.93502   0.94729
  Beta virt. eigenvalues --    0.96521   1.00422   1.02925   1.07817   1.13014
  Beta virt. eigenvalues --    1.16708   1.18668   1.25333   1.27195   1.30321
  Beta virt. eigenvalues --    1.31812   1.35630   1.38888   1.41098   1.43647
  Beta virt. eigenvalues --    1.44211   1.47272   1.48228   1.48879   1.51443
  Beta virt. eigenvalues --    1.52187   1.55892   1.57483   1.59865   1.63730
  Beta virt. eigenvalues --    1.64611   1.65413   1.70565   1.73788   1.75330
  Beta virt. eigenvalues --    1.77028   1.81483   1.83659   1.84825   1.85448
  Beta virt. eigenvalues --    1.87631   1.89059   1.92651   1.95997   1.97028
  Beta virt. eigenvalues --    2.00338   2.03458   2.05926   2.08613   2.11630
  Beta virt. eigenvalues --    2.16363   2.16585   2.22737   2.25815   2.29139
  Beta virt. eigenvalues --    2.32057   2.35742   2.40382   2.42717   2.49378
  Beta virt. eigenvalues --    2.61440   2.63297   2.70110   2.77465   2.81361
  Beta virt. eigenvalues --    2.83448   2.83678   2.86618   2.90560   2.93189
  Beta virt. eigenvalues --    2.94953   2.96112   2.98597   3.01856   3.05211
  Beta virt. eigenvalues --    3.06252   3.13500   3.16190   3.18344   3.22592
  Beta virt. eigenvalues --    3.25112   3.26367   3.28770   3.33851   3.37068
  Beta virt. eigenvalues --    3.39168   3.42502   3.43880   3.47329   3.49343
  Beta virt. eigenvalues --    3.53361   3.61726   3.64853   3.68824   3.72369
  Beta virt. eigenvalues --    3.75979   3.78347   3.92338   3.98780   4.14361
  Beta virt. eigenvalues --    4.21334   4.22001   4.24866   4.30901   4.41603
  Beta virt. eigenvalues --    4.53174   4.57691   4.68374   5.54155   5.61606
  Beta virt. eigenvalues --    5.64557   5.68815   5.73703   5.88835   6.06724
  Beta virt. eigenvalues --    6.19012   6.48410  24.68412  25.01123  25.01570
  Beta virt. eigenvalues --   25.14396  26.20401  51.53938  51.60391  51.74507
          Condensed to atoms (all electrons):
               1          2          3          4          5          6
     1  C   27.992135   0.655529 -11.669756  -8.866017  -0.191398  -0.065832
     2  H    0.655529   0.406571  -0.248295  -0.041769  -0.003455  -0.002789
     3  C  -11.669756  -0.248295  15.085627   1.496265  -0.014262  -0.094681
     4  C   -8.866017  -0.041769   1.496265  12.472889   0.537412   0.081741
     5  O   -0.191398  -0.003455  -0.014262   0.537412   8.067122  -0.048893
     6  O   -0.065832  -0.002789  -0.094681   0.081741  -0.048893   8.225557
     7  C   -0.282409  -0.001299  -0.020587   0.209143  -0.001920   0.272587
     8  C   -0.022923  -0.000316   0.069159  -0.046533   0.005189  -0.174847
     9  H    0.076973  -0.000508   0.004809  -0.082306   0.000140  -0.039971
    10  H   -0.032457   0.000681  -0.036875   0.059613  -0.000131  -0.056740
    11  H    0.009846   0.000176   0.000769  -0.005129   0.001074  -0.017480
    12  H   -0.010411   0.000171  -0.015793   0.021387  -0.000410   0.002275
    13  H   -0.017921  -0.000191   0.002150   0.007213  -0.000012   0.023154
    14  O   -0.106381   0.001112   0.110924  -0.101548  -0.010276   0.007906
    15  H    0.061984  -0.000582  -0.003658  -0.013000  -0.002475  -0.001536
               7          8          9         10         11         12
     1  C   -0.282409  -0.022923   0.076973  -0.032457   0.009846  -0.010411
     2  H   -0.001299  -0.000316  -0.000508   0.000681   0.000176   0.000171
     3  C   -0.020587   0.069159   0.004809  -0.036875   0.000769  -0.015793
     4  C    0.209143  -0.046533  -0.082306   0.059613  -0.005129   0.021387
     5  O   -0.001920   0.005189   0.000140  -0.000131   0.001074  -0.000410
     6  O    0.272587  -0.174847  -0.039971  -0.056740  -0.017480   0.002275
     7  C    5.509345  -0.047577   0.420608   0.425702  -0.036315  -0.074913
     8  C   -0.047577   5.469290  -0.027404  -0.045728   0.416368   0.427526
     9  H    0.420608  -0.027404   0.516096  -0.029706  -0.003801   0.001875
    10  H    0.425702  -0.045728  -0.029706   0.532275  -0.000530   0.002265
    11  H   -0.036315   0.416368  -0.003801  -0.000530   0.548105  -0.036983
    12  H   -0.074913   0.427526   0.001875   0.002265  -0.036983   0.561334
    13  H   -0.031553   0.397063  -0.011725   0.004377  -0.035914  -0.033013
    14  O   -0.010320  -0.009941  -0.011842   0.005438  -0.001231   0.004092
    15  H    0.002060  -0.003403  -0.003084   0.000029  -0.000037  -0.000998
              13         14         15
     1  C   -0.017921  -0.106381   0.061984
     2  H   -0.000191   0.001112  -0.000582
     3  C    0.002150   0.110924  -0.003658
     4  C    0.007213  -0.101548  -0.013000
     5  O   -0.000012  -0.010276  -0.002475
     6  O    0.023154   0.007906  -0.001536
     7  C   -0.031553  -0.010320   0.002060
     8  C    0.397063  -0.009941  -0.003403
     9  H   -0.011725  -0.011842  -0.003084
    10  H    0.004377   0.005438   0.000029
    11  H   -0.035914  -0.001231  -0.000037
    12  H   -0.033013   0.004092  -0.000998
    13  H    0.568099  -0.000240   0.000387
    14  O   -0.000240   8.055431   0.249787
    15  H    0.000387   0.249787   0.456264
          Atomic-Atomic Spin Densities.
               1          2          3          4          5          6
     1  C   -0.941387  -0.102079   1.220439   0.793421   0.021922  -0.021571
     2  H   -0.102079  -0.055105   0.077435   0.022822   0.000151  -0.000498
     3  C    1.220439   0.077435  -1.725955  -0.355680   0.019428   0.016195
     4  C    0.793421   0.022822  -0.355680  -0.350232  -0.009368  -0.027164
     5  O    0.021922   0.000151   0.019428  -0.009368  -0.129385  -0.000948
     6  O   -0.021571  -0.000498   0.016195  -0.027164  -0.000948   0.032202
     7  C    0.070047   0.001275  -0.020502  -0.039566  -0.000027  -0.004416
     8  C   -0.038447  -0.000469   0.006415   0.029887  -0.000218   0.001663
     9  H   -0.038735  -0.000983   0.024042   0.017671   0.000901   0.001198
    10  H   -0.001090  -0.000031  -0.001374   0.003385  -0.000076  -0.000777
    11  H    0.000992   0.000017   0.000896  -0.002498  -0.000003   0.000009
    12  H    0.000800  -0.000022   0.001933  -0.002597   0.000015   0.000056
    13  H   -0.001385  -0.000006  -0.000428   0.002196  -0.000016   0.000074
    14  O   -0.232438  -0.002704   0.060208   0.120225   0.000723   0.000838
    15  H    0.056824   0.000804  -0.039028  -0.022611  -0.000062   0.000356
               7          8          9         10         11         12
     1  C    0.070047  -0.038447  -0.038735  -0.001090   0.000992   0.000800
     2  H    0.001275  -0.000469  -0.000983  -0.000031   0.000017  -0.000022
     3  C   -0.020502   0.006415   0.024042  -0.001374   0.000896   0.001933
     4  C   -0.039566   0.029887   0.017671   0.003385  -0.002498  -0.002597
     5  O   -0.000027  -0.000218   0.000901  -0.000076  -0.000003   0.000015
     6  O   -0.004416   0.001663   0.001198  -0.000777   0.000009   0.000056
     7  C   -0.001619  -0.005450   0.000312   0.000911  -0.000496  -0.001939
     8  C   -0.005450   0.006780   0.000872  -0.002130   0.000874   0.001621
     9  H    0.000312   0.000872   0.002023  -0.000502  -0.000036   0.000609
    10  H    0.000911  -0.002130  -0.000502   0.003625   0.000236   0.000390
    11  H   -0.000496   0.000874  -0.000036   0.000236  -0.000730  -0.000057
    12  H   -0.001939   0.001621   0.000609   0.000390  -0.000057  -0.000657
    13  H    0.001712  -0.001678  -0.000344  -0.000437   0.000332  -0.000145
    14  O    0.005699  -0.003990  -0.007871  -0.000806   0.000492   0.001764
    15  H   -0.000442  -0.000129   0.000790   0.000039  -0.000107   0.000016
              13         14         15
     1  C   -0.001385  -0.232438   0.056824
     2  H   -0.000006  -0.002704   0.000804
     3  C   -0.000428   0.060208  -0.039028
     4  C    0.002196   0.120225  -0.022611
     5  O   -0.000016   0.000723  -0.000062
     6  O    0.000074   0.000838   0.000356
     7  C    0.001712   0.005699  -0.000442
     8  C   -0.001678  -0.003990  -0.000129
     9  H   -0.000344  -0.007871   0.000790
    10  H   -0.000437  -0.000806   0.000039
    11  H    0.000332   0.000492  -0.000107
    12  H   -0.000145   0.001764   0.000016
    13  H    0.000000  -0.000452   0.000092
    14  O   -0.000452   0.987533   0.011137
    15  H    0.000092   0.011137  -0.043762
 Mulliken charges and spin densities:
               1          2
     1  C   -1.530963   0.787313
     2  H    0.234964  -0.059393
     3  C    1.334203  -0.715977
     4  C    0.270639   0.179890
     5  O   -0.337707  -0.096962
     6  O   -0.110452  -0.002783
     7  C   -0.332551   0.005501
     8  C   -0.405921  -0.004399
     9  H    0.189846  -0.000054
    10  H    0.171786   0.001363
    11  H    0.161082  -0.000079
    12  H    0.151596   0.001788
    13  H    0.128126  -0.000483
    14  O   -0.182910   0.940359
    15  H    0.258262  -0.036083
 Sum of Mulliken charges =  -0.00000   1.00000
 Mulliken charges and spin densities with hydrogens summed into heavy atoms:
               1          2
     1  C   -1.295999   0.727920
     3  C    1.334203  -0.715977
     4  C    0.270639   0.179890
     5  O   -0.337707  -0.096962
     6  O   -0.110452  -0.002783
     7  C    0.029081   0.006809
     8  C    0.034882  -0.003173
    14  O    0.075352   0.904276
 Electronic spatial extent (au):  <R**2>=           1003.1845
 Charge=             -0.0000 electrons
 Dipole moment (field-independent basis, Debye):
    X=              0.1481    Y=             -4.5876    Z=             -1.3612  Tot=              4.7876
 Quadrupole moment (field-independent basis, Debye-Ang):
   XX=            -42.0530   YY=            -52.5776   ZZ=            -43.4896
   XY=              8.3060   XZ=              0.2070   YZ=             -2.7952
 Traceless Quadrupole moment (field-independent basis, Debye-Ang):
   XX=              3.9871   YY=             -6.5375   ZZ=              2.5504
   XY=              8.3060   XZ=              0.2070   YZ=             -2.7952
 Octapole moment (field-independent basis, Debye-Ang**2):
  XXX=             -1.7756  YYY=            -15.2914  ZZZ=             11.5709  XYY=             -4.2539
  XXY=            -20.7308  XXZ=             -6.6361  XZZ=             -4.1614  YZZ=             -8.3571
  YYZ=             -3.0396  XYZ=              1.6117
 Hexadecapole moment (field-independent basis, Debye-Ang**3):
 XXXX=           -713.6031 YYYY=           -400.6563 ZZZZ=           -168.2980 XXXY=             49.3565
 XXXZ=             10.2453 YYYX=             32.3774 YYYZ=            -12.9468 ZZZX=            -15.2918
 ZZZY=            -18.4603 XXYY=           -165.8960 XXZZ=           -139.0916 YYZZ=            -79.1064
 XXYZ=              8.1068 YYXZ=              8.2299 ZZXY=             17.7824
 N-N= 3.641434887930D+02 E-N=-1.711310944649D+03  KE= 4.177242989324D+02
 1\1\GINC-AJ\SP\UCCSD(T)-FC\6-311++G(d,p)\C5H7O3(2)\AAYUSH\14-May-2025\
 0\\# ccsd(t)/6-311++g(d,p) sp\\Title Card Required\\0,2\C,0,-2.040129,
 -1.118187,-0.857852\H,0,-2.70003,-1.85001,-1.263163\C,0,-1.266017,-0.3
 23996,-0.381497\C,0,-0.552811,0.894715,0.044363\O,0,-1.156495,1.780094
 ,0.572937\O,0,0.744476,0.983844,-0.219018\C,0,1.514962,-0.090806,-0.78
 8766\C,0,2.605447,-0.47888,0.186119\H,0,0.870017,-0.93853,-1.02013\H,0
 ,1.92857,0.304267,-1.717994\H,0,3.21927,0.387789,0.434912\H,0,2.165574
 ,-0.879554,1.099242\H,0,3.244318,-1.242865,-0.261643\O,0,-0.268278,-1.
 554699,1.063608\H,0,-1.044027,-1.670909,1.635781\\Version=ES64L-G16Rev
 A.03\State=2-A\HF=-417.9747349\MP2=-419.2360389\MP3=-419.2643227\MP4D=
 -419.2949826\MP4DQ=-419.269926\PUHF=-417.9887124\PMP2-0=-419.24817\PMP
 3-0=-419.2732216\MP4SDQ=-419.2903326\CCSD=-419.2934842\CCSD(T)=-419.34
 73768\S2=0.918532\S2-1=0.871356\S2A=0.767049\RMSD=7.002e-09\PG=C01 [X(
 C5H7O3)]\\@


 A leading authority is anyone who has guessed right more than once.
 -- Frank A. Clark
 Job cpu time:       0 days 21 hours 27 minutes 39.2 seconds.
 Elapsed time:       0 days  0 hours 53 minutes 48.8 seconds.
 File lengths (MBytes):  RWF=  44733 Int=      0 D2E=      0 Chk=      6 Scr=      1
 Normal termination of Gaussian 16 at Wed May 14 05:34:13 2025.
