 Entering Gaussian System, Link 0=g16
 Initial command:
 /opt/g16/l1.exe "/home/aayush/scratches/g16/Gau-25868.inp" -scrdir="/home/aayush/scratches/g16/"
 Entering Link 1 = /opt/g16/l1.exe PID=     25871.
  
 Copyright (c) 1988,1990,1992,1993,1995,1998,2003,2009,2016,
            Gaussian, Inc.  All Rights Reserved.
  
 This is part of the Gaussian(R) 16 program.  It is based on
 the Gaussian(R) 09 system (copyright 2009, Gaussian, Inc.),
 the Gaussian(R) 03 system (copyright 2003, Gaussian, Inc.),
 the Gaussian(R) 98 system (copyright 1998, Gaussian, Inc.),
 the Gaussian(R) 94 system (copyright 1995, Gaussian, Inc.),
 the Gaussian 92(TM) system (copyright 1992, Gaussian, Inc.),
 the Gaussian 90(TM) system (copyright 1990, Gaussian, Inc.),
 the Gaussian 88(TM) system (copyright 1988, Gaussian, Inc.),
 the Gaussian 86(TM) system (copyright 1986, Carnegie Mellon
 University), and the Gaussian 82(TM) system (copyright 1983,
 Carnegie Mellon University). Gaussian is a federally registered
 trademark of Gaussian, Inc.
  
 This software contains proprietary and confidential information,
 including trade secrets, belonging to Gaussian, Inc.
  
 This software is provided under written license and may be
 used, copied, transmitted, or stored only in accord with that
 written license.
  
 The following legend is applicable only to US Government
 contracts under FAR:
  
                    RESTRICTED RIGHTS LEGEND
  
 Use, reproduction and disclosure by the US Government is
 subject to restrictions as set forth in subparagraphs (a)
 and (c) of the Commercial Computer Software - Restricted
 Rights clause in FAR 52.227-19.
  
 Gaussian, Inc.
 340 Quinnipiac St., Bldg. 40, Wallingford CT 06492
  
  
 ---------------------------------------------------------------
 Warning -- This program may not be used in any manner that
 competes with the business of Gaussian, Inc. or will provide
 assistance to any competitor of Gaussian, Inc.  The licensee
 of this program is prohibited from giving any competitor of
 Gaussian, Inc. access to this program.  By using this program,
 the user acknowledges that Gaussian, Inc. is engaged in the
 business of creating and licensing software in the field of
 computational chemistry and represents and warrants to the
 licensee that it is not a competitor of Gaussian, Inc. and that
 it will not use this program in any manner prohibited above.
 ---------------------------------------------------------------
  

 Cite this work as:
 Gaussian 16, Revision A.03,
 M. J. Frisch, G. W. Trucks, H. B. Schlegel, G. E. Scuseria, 
 M. A. Robb, J. R. Cheeseman, G. Scalmani, V. Barone, 
 G. A. Petersson, H. Nakatsuji, X. Li, M. Caricato, A. V. Marenich, 
 J. Bloino, B. G. Janesko, R. Gomperts, B. Mennucci, H. P. Hratchian, 
 J. V. Ortiz, A. F. Izmaylov, J. L. Sonnenberg, D. Williams-Young, 
 F. Ding, F. Lipparini, F. Egidi, J. Goings, B. Peng, A. Petrone, 
 T. Henderson, D. Ranasinghe, V. G. Zakrzewski, J. Gao, N. Rega, 
 G. Zheng, W. Liang, M. Hada, M. Ehara, K. Toyota, R. Fukuda, 
 J. Hasegawa, M. Ishida, T. Nakajima, Y. Honda, O. Kitao, H. Nakai, 
 T. Vreven, K. Throssell, J. A. Montgomery, Jr., J. E. Peralta, 
 F. Ogliaro, M. J. Bearpark, J. J. Heyd, E. N. Brothers, K. N. Kudin, 
 V. N. Staroverov, T. A. Keith, R. Kobayashi, J. Normand, 
 K. Raghavachari, A. P. Rendell, J. C. Burant, S. S. Iyengar, 
 J. Tomasi, M. Cossi, J. M. Millam, M. Klene, C. Adamo, R. Cammi, 
 J. W. Ochterski, R. L. Martin, K. Morokuma, O. Farkas, 
 J. B. Foresman, and D. J. Fox, Gaussian, Inc., Wallingford CT, 2016.
 
 ******************************************
 Gaussian 16:  ES64L-G16RevA.03 25-Dec-2016
                14-May-2025 
 ******************************************
 %chk=ethyl_propiolate.chk
 %nprocshared=24
 Will use up to   24 processors via shared memory.
 %mem=12GB
 --------------------------
 # ccsd(t)/6-311++g(d,p) sp
 --------------------------
 1/38=1,172=1/1;
 2/12=2,17=6,18=5,40=1/2;
 3/5=4,6=6,7=1111,11=9,25=1,30=1/1,2,3;
 4//1;
 5/5=2,38=5/2;
 8/6=4,9=120000,10=2/1,4;
 9/5=7,14=2/13;
 6/7=2,8=2,9=2,10=2/1;
 99/5=1,9=1/99;
 -------------------
 Title Card Required
 -------------------
 Symbolic Z-matrix:
 Charge =  0 Multiplicity = 2
 C                    -2.04262  -1.09676  -0.86321 
 H                    -2.70923  -1.8098   -1.29329 
 C                    -1.18491  -0.44446  -0.23317 
 C                    -0.54668   0.88409   0.05649 
 O                    -1.1634    1.77338   0.55993 
 O                     0.74413   0.98673  -0.22519 
 C                     1.51963  -0.08931  -0.79029 
 C                     2.60568  -0.47878   0.18765 
 H                     0.88057  -0.93934  -1.02657 
 H                     1.93459   0.30941  -1.71719 
 H                     3.21975   0.38711   0.43876 
 H                     2.1589   -0.88222   1.09598 
 H                     3.24496  -1.24221  -0.26064 
 O                    -0.32819  -1.4741    0.97117 
 H                    -1.04724  -1.64444   1.59464 
 
                          Input orientation:                          
 ---------------------------------------------------------------------
 Center     Atomic      Atomic             Coordinates (Angstroms)
 Number     Number       Type             X           Y           Z
 ---------------------------------------------------------------------
      1          6           0       -2.042619   -1.096761   -0.863211
      2          1           0       -2.709232   -1.809795   -1.293286
      3          6           0       -1.184907   -0.444458   -0.233173
      4          6           0       -0.546683    0.884091    0.056488
      5          8           0       -1.163400    1.773382    0.559930
      6          8           0        0.744131    0.986731   -0.225190
      7          6           0        1.519626   -0.089310   -0.790293
      8          6           0        2.605676   -0.478781    0.187649
      9          1           0        0.880565   -0.939343   -1.026567
     10          1           0        1.934588    0.309413   -1.717193
     11          1           0        3.219751    0.387113    0.438760
     12          1           0        2.158905   -0.882218    1.095976
     13          1           0        3.244956   -1.242211   -0.260642
     14          8           0       -0.328186   -1.474096    0.971167
     15          1           0       -1.047242   -1.644435    1.594637
 ---------------------------------------------------------------------
                    Distance matrix (angstroms):
                    1          2          3          4          5
     1  C    0.000000
     2  H    1.066656   0.000000
     3  C    1.248246   2.304680   0.000000
     4  C    2.647158   3.708845   1.502090   0.000000
     5  O    3.322059   4.320088   2.355481   1.193580   0.000000
     6  O    3.537511   4.570241   2.401989   1.325171   2.207693
     7  C    3.702683   4.593072   2.784064   2.436017   3.534311
     8  C    4.805502   5.675651   3.814025   3.436858   4.406446
     9  H    2.931974   3.703440   2.267280   2.556356   3.748819
    10  H    4.304043   5.122090   3.535801   3.103692   4.114125
    11  H    5.620458   6.555854   4.532551   3.818265   4.598743
    12  H    4.640824   5.501612   3.624824   3.394199   4.286871
    13  H    5.323786   6.069667   4.501205   4.358699   5.403771
    14  O    2.539017   3.303002   1.801266   2.538784   3.378285
    15  H    2.707718   3.336114   2.190841   3.001650   3.572896
                    6          7          8          9         10
     6  O    0.000000
     7  C    1.441734   0.000000
     8  C    2.404893   1.512469   0.000000
     9  H    2.090593   1.089395   2.159270   0.000000
    10  H    2.025345   1.091017   2.167956   1.774069   0.000000
    11  H    2.632312   2.151273   1.090833   3.062427   2.511138
    12  H    2.690731   2.143686   1.089690   2.478428   3.063368
    13  H    3.350159   2.141606   1.092002   2.503740   2.499228
    14  O    2.938844   2.904270   3.195637   2.395408   3.940600
    15  H    3.666582   3.833421   4.084382   3.329310   4.865907
                   11         12         13         14         15
    11  H    0.000000
    12  H    1.780036   0.000000
    13  H    1.773272   1.774687   0.000000
    14  O    4.041709   2.559593   3.786617   0.000000
    15  H    4.865231   3.333019   4.693273   0.966836   0.000000
 Stoichiometry    C5H7O3(2)
 Framework group  C1[X(C5H7O3)]
 Deg. of freedom    39
 Full point group                 C1      NOp   1
 Largest Abelian subgroup         C1      NOp   1
 Largest concise Abelian subgroup C1      NOp   1
                         Standard orientation:                         
 ---------------------------------------------------------------------
 Center     Atomic      Atomic             Coordinates (Angstroms)
 Number     Number       Type             X           Y           Z
 ---------------------------------------------------------------------
      1          6           0       -2.107327   -1.049951   -0.847572
      2          1           0       -2.776475   -1.766079   -1.268472
      3          6           0       -1.248824   -0.392162   -0.224352
      4          6           0       -0.602571    0.936907    0.044364
      5          8           0       -1.215846    1.840065    0.526891
      6          8           0        0.690751    1.024723   -0.230746
      7          6           0        1.461797   -0.067478   -0.770359
      8          6           0        2.538624   -0.446345    0.221844
      9          1           0        0.817937   -0.917114   -0.994732
     10          1           0        1.885652    0.310585   -1.701881
     11          1           0        3.157523    0.419613    0.460588
     12          1           0        2.083046   -0.829239    1.134677
     13          1           0        3.175047   -1.222790   -0.207770
     14          8           0       -0.407543   -1.405098    1.004781
     15          1           0       -1.131829   -1.558330    1.626634
 ---------------------------------------------------------------------
 Rotational constants (GHZ):           2.6974944           1.6907465           1.2959638
 Standard basis: 6-311++G(d,p) (5D, 7F)
 There are   233 symmetry adapted cartesian basis functions of A   symmetry.
 There are   225 symmetry adapted basis functions of A   symmetry.
   225 basis functions,   351 primitive gaussians,   233 cartesian basis functions
    31 alpha electrons       30 beta electrons
       nuclear repulsion energy       367.8690503746 Hartrees.
 NAtoms=   15 NActive=   15 NUniq=   15 SFac= 1.00D+00 NAtFMM=   60 NAOKFM=F Big=F
 Integral buffers will be    131072 words long.
 Raffenetti 2 integral format.
 Two-electron integral symmetry is turned on.
 One-electron integrals computed using PRISM.
 NBasis=   225 RedAO= T EigKep=  6.54D-06  NBF=   225
 NBsUse=   225 1.00D-06 EigRej= -1.00D+00 NBFU=   225
 ExpMin= 3.60D-02 ExpMax= 8.59D+03 ExpMxC= 1.30D+03 IAcc=3 IRadAn=         5 AccDes= 0.00D+00
 Harris functional with IExCor=  205 and IRadAn=       5 diagonalized for initial guess.
 HarFok:  IExCor=  205 AccDes= 0.00D+00 IRadAn=         5 IDoV= 1 UseB2=F ITyADJ=14
 ICtDFT=  3500011 ScaDFX=  1.000000  1.000000  1.000000  1.000000
 FoFCou: FMM=F IPFlag=           0 FMFlag=      100000 FMFlg1=           0
         NFxFlg=           0 DoJE=T BraDBF=F KetDBF=T FulRan=T
         wScrn=  0.000000 ICntrl=       500 IOpCl=  0 I1Cent=   200000004 NGrid=           0
         NMat0=    1 NMatS0=      1 NMatT0=    0 NMatD0=    1 NMtDS0=    0 NMtDT0=    0
 Petite list used in FoFCou.
 Initial guess <Sx>= 0.0000 <Sy>= 0.0000 <Sz>= 0.5000 <S**2>= 0.7500 S= 0.5000
 Requested convergence on RMS density matrix=1.00D-08 within 128 cycles.
 Requested convergence on MAX density matrix=1.00D-06.
 Requested convergence on             energy=1.00D-06.
 No special actions if energy rises.
 Initial convergence to 1.0D-05 achieved.  Increase integral accuracy.
 SCF Done:  E(UHF) =  -417.968420506     A.U. after   29 cycles
            NFock= 29  Conv=0.79D-08     -V/T= 2.0009
 <Sx>= 0.0000 <Sy>= 0.0000 <Sz>= 0.5000 <S**2>= 1.0854 S= 0.6556
 <L.S>=  0.00000000000    
 Annihilation of the first spin contaminant:
 S**2 before annihilation     1.0854,   after     0.8295
 ExpMin= 3.60D-02 ExpMax= 8.59D+03 ExpMxC= 1.30D+03 IAcc=3 IRadAn=         5 AccDes= 0.00D+00
 HarFok:  IExCor=  205 AccDes= 0.00D+00 IRadAn=         5 IDoV=-2 UseB2=F ITyADJ=14
 ICtDFT= 12500011 ScaDFX=  1.000000  1.000000  1.000000  1.000000
 Range of M.O.s used for correlation:     9   225
 NBasis=   225 NAE=    31 NBE=    30 NFC=     8 NFV=     0
 NROrb=    217 NOA=    23 NOB=    22 NVA=   194 NVB=   195

 **** Warning!!: The largest alpha MO coefficient is  0.13089089D+03


 **** Warning!!: The largest beta MO coefficient is  0.10279360D+03

 Semi-Direct transformation.
 ModeAB=           4 MOrb=            23 LenV=    1609170357
 LASXX=    109339976 LTotXX=   109339976 LenRXX=   221407890
 LTotAB=   112067914 MaxLAS=   131797337 LenRXY=           0
 NonZer=   330747866 LenScr=   498067456 LnRSAI=   131797337
 LnScr1=   198471680 LExtra=           0 Total=   1049744363
 MaxDsk=          -1 SrtSym=           T ITran=            4
 JobTyp=1 Pass  1:  I=   1 to  23.
 (rs|ai) integrals will be sorted in core.
 ModeAB=           4 MOrb=            22 LenV=    1609170357
 LASXX=    104936601 LTotXX=   104936601 LenRXX=   190867446
 LTotAB=    85930845 MaxLAS=   126067018 LenRXY=           0
 NonZer=   295804047 LenScr=   445446144 LnRSAI=   126067018
 LnScr1=   189858816 LExtra=           0 Total=    952239424
 MaxDsk=          -1 SrtSym=           T ITran=            4
 JobTyp=2 Pass  1:  I=   1 to  22.
 (rs|ai) integrals will be sorted in core.
 SymMOI:  orbitals are not symmetric.
 Spin components of T(2) and E(2):
     alpha-alpha T2 =       0.5242769665D-01 E2=     -0.1709707467D+00
     alpha-beta  T2 =       0.2812398830D+00 E2=     -0.9324915486D+00
     beta-beta   T2 =       0.5055381716D-01 E2=     -0.1603965463D+00
 ANorm=    0.1176529386D+01
 E2 =    -0.1263858842D+01 EUMP2 =    -0.41923227934748D+03
 (S**2,0)=  0.10854D+01           (S**2,1)=  0.99070D+00
 E(PUHF)=      -0.41799734569D+03        E(PMP2)=      -0.41925762214D+03
 Keep R2 and R3 ints in memory in canonical form, NReq=652884060.
 CIDS: In Core Option IDoMem=           1.
 Iterations=  50 Convergence= 0.100D-06
 Produce multiple copies of IABC intergrals
 Iteration Nr.   1
 **********************
 DD1Dir will call FoFMem   1 times, MxPair=      1496
 NAB=   506 NAA=   253 NBB=   231.
 E(PMP3)=      -0.41928027289D+03
 MP4(R+Q)=  0.24667304D-01
 E3=       -0.28490214D-01        EUMP3=      -0.41926076956D+03
 E4(DQ)=   -0.63601809D-02        UMP4(DQ)=   -0.41926712974D+03
 E4(SDQ)=  -0.29307267D-01        UMP4(SDQ)=  -0.41929007683D+03
 DE(Corr)=  -1.2674563     E(Corr)=     -419.23587680    
 NORM(A)=   0.11872369D+01
 Iteration Nr.   2
 **********************
 DD1Dir will call FoFMem   1 times, MxPair=      1496
 NAB=   506 NAA=   253 NBB=   231.
 DE(Corr)=  -1.3129069     E(CORR)=     -419.28132742     Delta=-4.55D-02
 NORM(A)=   0.12109017D+01
 Iteration Nr.   3
 **********************
 DD1Dir will call FoFMem   1 times, MxPair=      1496
 NAB=   506 NAA=   253 NBB=   231.
 DE(Corr)=  -1.3169169     E(CORR)=     -419.28533738     Delta=-4.01D-03
 NORM(A)=   0.12263577D+01
 Iteration Nr.   4
 **********************
 DD1Dir will call FoFMem   1 times, MxPair=      1496
 NAB=   506 NAA=   253 NBB=   231.
 DE(Corr)=  -1.3258523     E(CORR)=     -419.29427282     Delta=-8.94D-03
 NORM(A)=   0.12365353D+01
 Iteration Nr.   5
 **********************
 DD1Dir will call FoFMem   1 times, MxPair=      1496
 NAB=   506 NAA=   253 NBB=   231.
 DE(Corr)=  -1.3286067     E(CORR)=     -419.29702725     Delta=-2.75D-03
 NORM(A)=   0.12410532D+01
 Iteration Nr.   6
 **********************
 DD1Dir will call FoFMem   1 times, MxPair=      1496
 NAB=   506 NAA=   253 NBB=   231.
 DE(Corr)=  -1.3293904     E(CORR)=     -419.29781089     Delta=-7.84D-04
 NORM(A)=   0.12417510D+01
 Iteration Nr.   7
 **********************
 DD1Dir will call FoFMem   1 times, MxPair=      1496
 NAB=   506 NAA=   253 NBB=   231.
 DE(Corr)=  -1.3294999     E(CORR)=     -419.29792042     Delta=-1.10D-04
 NORM(A)=   0.12418940D+01
 Iteration Nr.   8
 **********************
 DD1Dir will call FoFMem   1 times, MxPair=      1496
 NAB=   506 NAA=   253 NBB=   231.
 DE(Corr)=  -1.3294791     E(CORR)=     -419.29789960     Delta= 2.08D-05
 NORM(A)=   0.12419343D+01
 Iteration Nr.   9
 **********************
 DD1Dir will call FoFMem   1 times, MxPair=      1496
 NAB=   506 NAA=   253 NBB=   231.
 DE(Corr)=  -1.3294986     E(CORR)=     -419.29791907     Delta=-1.95D-05
 NORM(A)=   0.12419291D+01
 Iteration Nr.  10
 **********************
 DD1Dir will call FoFMem   1 times, MxPair=      1496
 NAB=   506 NAA=   253 NBB=   231.
 DE(Corr)=  -1.3294888     E(CORR)=     -419.29790926     Delta= 9.81D-06
 NORM(A)=   0.12419377D+01
 Iteration Nr.  11
 **********************
 DD1Dir will call FoFMem   1 times, MxPair=      1496
 NAB=   506 NAA=   253 NBB=   231.
 DE(Corr)=  -1.3295055     E(CORR)=     -419.29792604     Delta=-1.68D-05
 NORM(A)=   0.12419744D+01
 Iteration Nr.  12
 **********************
 DD1Dir will call FoFMem   1 times, MxPair=      1496
 NAB=   506 NAA=   253 NBB=   231.
 DE(Corr)=  -1.3295095     E(CORR)=     -419.29793001     Delta=-3.97D-06
 NORM(A)=   0.12420257D+01
 Iteration Nr.  13
 **********************
 DD1Dir will call FoFMem   1 times, MxPair=      1496
 NAB=   506 NAA=   253 NBB=   231.
 DE(Corr)=  -1.3295209     E(CORR)=     -419.29794139     Delta=-1.14D-05
 NORM(A)=   0.12420697D+01
 Iteration Nr.  14
 **********************
 DD1Dir will call FoFMem   1 times, MxPair=      1496
 NAB=   506 NAA=   253 NBB=   231.
 DE(Corr)=  -1.3295297     E(CORR)=     -419.29795021     Delta=-8.81D-06
 NORM(A)=   0.12420975D+01
 Iteration Nr.  15
 **********************
 DD1Dir will call FoFMem   1 times, MxPair=      1496
 NAB=   506 NAA=   253 NBB=   231.
 DE(Corr)=  -1.3295340     E(CORR)=     -419.29795453     Delta=-4.33D-06
 NORM(A)=   0.12421131D+01
 Iteration Nr.  16
 **********************
 DD1Dir will call FoFMem   1 times, MxPair=      1496
 NAB=   506 NAA=   253 NBB=   231.
 DE(Corr)=  -1.3295376     E(CORR)=     -419.29795811     Delta=-3.58D-06
 NORM(A)=   0.12421196D+01
 Iteration Nr.  17
 **********************
 DD1Dir will call FoFMem   1 times, MxPair=      1496
 NAB=   506 NAA=   253 NBB=   231.
 DE(Corr)=  -1.3295385     E(CORR)=     -419.29795899     Delta=-8.77D-07
 NORM(A)=   0.12421222D+01
 Iteration Nr.  18
 **********************
 DD1Dir will call FoFMem   1 times, MxPair=      1496
 NAB=   506 NAA=   253 NBB=   231.
 DE(Corr)=  -1.3295390     E(CORR)=     -419.29795952     Delta=-5.33D-07
 NORM(A)=   0.12421227D+01
 Iteration Nr.  19
 **********************
 DD1Dir will call FoFMem   1 times, MxPair=      1496
 NAB=   506 NAA=   253 NBB=   231.
 DE(Corr)=  -1.3295390     E(CORR)=     -419.29795953     Delta=-9.02D-09
 NORM(A)=   0.12421230D+01
 Wavefunction amplitudes converged. E(Corr)=     -419.29795953    
 Largest amplitude= 6.96D-02
 Time for triples=    34755.04 seconds.
 T4(CCSD)= -0.60122767D-01
 T5(CCSD)=  0.43997956D-02
 CCSD(T)= -0.41935368250D+03

 S**2, projected HF & approx projected MPn energies after annihilation of
 unwanted spin states (see manual for definitions):

 spins       (S**2,0) (S**2,1)    PUHF        PMP2        PMP3        PMP4
 annihilated
 s+1         0.70319  0.73212 -417.997346 -419.257622 -419.280273
 s+1,s+2     0.75101  0.74983 -417.994234 -419.254651 -419.277494
 s+1 to s+3  0.74999  0.75001 -417.994314 -419.254708 -419.277517
 s+1 to s+4  0.75000  0.75000 -417.994313 -419.254708 -419.277517
 s+1 to s+5  0.75000  0.75000 -417.994313
 s+1 to s+6  0.75000  0.75000 -417.994313

 Discarding MO integrals.

 **********************************************************************

            Population analysis using the SCF density.

 **********************************************************************

 Orbital symmetries:
 Alpha Orbitals:
       Occupied  (A) (A) (A) (A) (A) (A) (A) (A) (A) (A) (A) (A)
                 (A) (A) (A) (A) (A) (A) (A) (A) (A) (A) (A) (A)
                 (A) (A) (A) (A) (A) (A) (A)
       Virtual   (A) (A) (A) (A) (A) (A) (A) (A) (A) (A) (A) (A)
                 (A) (A) (A) (A) (A) (A) (A) (A) (A) (A) (A) (A)
                 (A) (A) (A) (A) (A) (A) (A) (A) (A) (A) (A) (A)
                 (A) (A) (A) (A) (A) (A) (A) (A) (A) (A) (A) (A)
                 (A) (A) (A) (A) (A) (A) (A) (A) (A) (A) (A) (A)
                 (A) (A) (A) (A) (A) (A) (A) (A) (A) (A) (A) (A)
                 (A) (A) (A) (A) (A) (A) (A) (A) (A) (A) (A) (A)
                 (A) (A) (A) (A) (A) (A) (A) (A) (A) (A) (A) (A)
                 (A) (A) (A) (A) (A) (A) (A) (A) (A) (A) (A) (A)
                 (A) (A) (A) (A) (A) (A) (A) (A) (A) (A) (A) (A)
                 (A) (A) (A) (A) (A) (A) (A) (A) (A) (A) (A) (A)
                 (A) (A) (A) (A) (A) (A) (A) (A) (A) (A) (A) (A)
                 (A) (A) (A) (A) (A) (A) (A) (A) (A) (A) (A) (A)
                 (A) (A) (A) (A) (A) (A) (A) (A) (A) (A) (A) (A)
                 (A) (A) (A) (A) (A) (A) (A) (A) (A) (A) (A) (A)
                 (A) (A) (A) (A) (A) (A) (A) (A) (A) (A) (A) (A)
                 (A) (A)
 Beta  Orbitals:
       Occupied  (A) (A) (A) (A) (A) (A) (A) (A) (A) (A) (A) (A)
                 (A) (A) (A) (A) (A) (A) (A) (A) (A) (A) (A) (A)
                 (A) (A) (A) (A) (A) (A)
       Virtual   (A) (A) (A) (A) (A) (A) (A) (A) (A) (A) (A) (A)
                 (A) (A) (A) (A) (A) (A) (A) (A) (A) (A) (A) (A)
                 (A) (A) (A) (A) (A) (A) (A) (A) (A) (A) (A) (A)
                 (A) (A) (A) (A) (A) (A) (A) (A) (A) (A) (A) (A)
                 (A) (A) (A) (A) (A) (A) (A) (A) (A) (A) (A) (A)
                 (A) (A) (A) (A) (A) (A) (A) (A) (A) (A) (A) (A)
                 (A) (A) (A) (A) (A) (A) (A) (A) (A) (A) (A) (A)
                 (A) (A) (A) (A) (A) (A) (A) (A) (A) (A) (A) (A)
                 (A) (A) (A) (A) (A) (A) (A) (A) (A) (A) (A) (A)
                 (A) (A) (A) (A) (A) (A) (A) (A) (A) (A) (A) (A)
                 (A) (A) (A) (A) (A) (A) (A) (A) (A) (A) (A) (A)
                 (A) (A) (A) (A) (A) (A) (A) (A) (A) (A) (A) (A)
                 (A) (A) (A) (A) (A) (A) (A) (A) (A) (A) (A) (A)
                 (A) (A) (A) (A) (A) (A) (A) (A) (A) (A) (A) (A)
                 (A) (A) (A) (A) (A) (A) (A) (A) (A) (A) (A) (A)
                 (A) (A) (A) (A) (A) (A) (A) (A) (A) (A) (A) (A)
                 (A) (A) (A)
 The electronic state is 2-A.
 Alpha  occ. eigenvalues --  -20.61789 -20.60659 -20.55063 -11.41282 -11.30070
 Alpha  occ. eigenvalues --  -11.29841 -11.29150 -11.22165  -1.47391  -1.37638
 Alpha  occ. eigenvalues --   -1.37571  -1.09131  -1.04585  -0.90899  -0.87529
 Alpha  occ. eigenvalues --   -0.76593  -0.73364  -0.70840  -0.67257  -0.65844
 Alpha  occ. eigenvalues --   -0.64694  -0.60869  -0.56945  -0.55312  -0.54941
 Alpha  occ. eigenvalues --   -0.52505  -0.50540  -0.47758  -0.44895  -0.44515
 Alpha  occ. eigenvalues --   -0.42733
 Alpha virt. eigenvalues --    0.03197   0.04612   0.05448   0.06586   0.06922
 Alpha virt. eigenvalues --    0.08621   0.09418   0.10420   0.11035   0.12363
 Alpha virt. eigenvalues --    0.12761   0.12970   0.14058   0.15651   0.16295
 Alpha virt. eigenvalues --    0.17051   0.17338   0.18507   0.18616   0.19381
 Alpha virt. eigenvalues --    0.20083   0.20629   0.20769   0.20975   0.22361
 Alpha virt. eigenvalues --    0.24000   0.25084   0.25355   0.27402   0.30089
 Alpha virt. eigenvalues --    0.30629   0.30941   0.31428   0.32403   0.33338
 Alpha virt. eigenvalues --    0.35901   0.37039   0.37628   0.39325   0.40468
 Alpha virt. eigenvalues --    0.40810   0.41370   0.42539   0.42668   0.43704
 Alpha virt. eigenvalues --    0.44799   0.45975   0.46781   0.47963   0.51349
 Alpha virt. eigenvalues --    0.51509   0.52923   0.58436   0.59514   0.62137
 Alpha virt. eigenvalues --    0.64219   0.64660   0.66626   0.70329   0.72356
 Alpha virt. eigenvalues --    0.73682   0.75825   0.79592   0.80964   0.82902
 Alpha virt. eigenvalues --    0.84880   0.86092   0.87387   0.88047   0.89349
 Alpha virt. eigenvalues --    0.89924   0.92648   0.93914   0.95365   0.95632
 Alpha virt. eigenvalues --    0.97836   1.02255   1.07152   1.07665   1.14550
 Alpha virt. eigenvalues --    1.17339   1.23455   1.24069   1.26664   1.34134
 Alpha virt. eigenvalues --    1.37457   1.38733   1.41422   1.42546   1.45815
 Alpha virt. eigenvalues --    1.46371   1.49843   1.50149   1.50968   1.51502
 Alpha virt. eigenvalues --    1.53316   1.59876   1.60845   1.64852   1.65657
 Alpha virt. eigenvalues --    1.69095   1.70731   1.74150   1.75593   1.78790
 Alpha virt. eigenvalues --    1.81088   1.83406   1.84375   1.85020   1.87491
 Alpha virt. eigenvalues --    1.89152   1.93340   1.95793   1.97389   2.00180
 Alpha virt. eigenvalues --    2.02391   2.04785   2.07950   2.11390   2.15363
 Alpha virt. eigenvalues --    2.17687   2.20140   2.26312   2.31162   2.32261
 Alpha virt. eigenvalues --    2.37301   2.40363   2.42662   2.49308   2.55658
 Alpha virt. eigenvalues --    2.61352   2.63398   2.71002   2.81112   2.83375
 Alpha virt. eigenvalues --    2.83591   2.86084   2.88062   2.92069   2.95002
 Alpha virt. eigenvalues --    2.95465   2.97295   3.01758   3.03318   3.05829
 Alpha virt. eigenvalues --    3.09462   3.12888   3.13845   3.17198   3.23485
 Alpha virt. eigenvalues --    3.25079   3.27519   3.33094   3.35599   3.37512
 Alpha virt. eigenvalues --    3.42624   3.47631   3.48370   3.50090   3.52552
 Alpha virt. eigenvalues --    3.62133   3.68885   3.70682   3.73493   3.79811
 Alpha virt. eigenvalues --    3.81603   3.90156   3.96346   4.13747   4.21606
 Alpha virt. eigenvalues --    4.22366   4.24863   4.31231   4.41182   4.49293
 Alpha virt. eigenvalues --    4.57111   4.68207   5.56670   5.60586   5.63090
 Alpha virt. eigenvalues --    5.66556   5.73302   5.88678   6.08066   6.18580
 Alpha virt. eigenvalues --    6.48072  24.64924  24.99461  25.02033  25.14607
 Alpha virt. eigenvalues --   25.90588  51.56665  51.60907  51.73456
  Beta  occ. eigenvalues --  -20.60599 -20.58894 -20.55503 -11.40898 -11.32280
  Beta  occ. eigenvalues --  -11.29871 -11.26286 -11.22163  -1.47479  -1.38254
  Beta  occ. eigenvalues --   -1.28363  -1.07117  -1.04474  -0.89598  -0.86269
  Beta  occ. eigenvalues --   -0.75780  -0.72364  -0.70343  -0.66893  -0.64435
  Beta  occ. eigenvalues --   -0.62611  -0.57032  -0.56154  -0.53829  -0.51219
  Beta  occ. eigenvalues --   -0.50627  -0.49384  -0.47273  -0.45687  -0.42780
  Beta virt. eigenvalues --    0.03216   0.03596   0.04691   0.06317   0.06771
  Beta virt. eigenvalues --    0.07208   0.08250   0.09872   0.11078   0.11569
  Beta virt. eigenvalues --    0.12508   0.12945   0.13772   0.14875   0.16068
  Beta virt. eigenvalues --    0.16750   0.17345   0.17866   0.18645   0.18870
  Beta virt. eigenvalues --    0.19461   0.20215   0.20777   0.21120   0.22168
  Beta virt. eigenvalues --    0.22660   0.24212   0.25016   0.25455   0.26976
  Beta virt. eigenvalues --    0.29975   0.30802   0.30956   0.32457   0.33498
  Beta virt. eigenvalues --    0.34475   0.36006   0.37189   0.37926   0.39514
  Beta virt. eigenvalues --    0.40463   0.40824   0.41464   0.42587   0.43051
  Beta virt. eigenvalues --    0.44456   0.45182   0.45986   0.47333   0.47962
  Beta virt. eigenvalues --    0.51078   0.52149   0.53162   0.58464   0.60459
  Beta virt. eigenvalues --    0.62635   0.64239   0.64717   0.66719   0.72090
  Beta virt. eigenvalues --    0.73199   0.75497   0.77744   0.80500   0.82582
  Beta virt. eigenvalues --    0.83629   0.84120   0.86137   0.87167   0.87947
  Beta virt. eigenvalues --    0.89702   0.90430   0.92506   0.93298   0.94749
  Beta virt. eigenvalues --    0.95735   0.97742   1.02741   1.07763   1.08348
  Beta virt. eigenvalues --    1.14397   1.17746   1.23977   1.24521   1.26577
  Beta virt. eigenvalues --    1.35399   1.37978   1.40737   1.42752   1.44149
  Beta virt. eigenvalues --    1.45812   1.48136   1.49989   1.51473   1.52655
  Beta virt. eigenvalues --    1.54644   1.54785   1.59936   1.62374   1.65417
  Beta virt. eigenvalues --    1.66360   1.70848   1.71697   1.75167   1.76236
  Beta virt. eigenvalues --    1.79349   1.81525   1.83105   1.84402   1.84923
  Beta virt. eigenvalues --    1.87214   1.88886   1.93298   1.95899   1.97550
  Beta virt. eigenvalues --    2.00189   2.02460   2.04781   2.08117   2.11506
  Beta virt. eigenvalues --    2.15532   2.18351   2.20240   2.26228   2.32037
  Beta virt. eigenvalues --    2.32428   2.38085   2.40486   2.42851   2.49392
  Beta virt. eigenvalues --    2.55389   2.61549   2.63401   2.70956   2.81665
  Beta virt. eigenvalues --    2.83460   2.83593   2.86077   2.88216   2.92294
  Beta virt. eigenvalues --    2.95448   2.95498   2.97655   3.01851   3.04208
  Beta virt. eigenvalues --    3.06093   3.11513   3.14161   3.14889   3.21458
  Beta virt. eigenvalues --    3.23072   3.24918   3.27440   3.33290   3.34711
  Beta virt. eigenvalues --    3.41979   3.43744   3.48095   3.50645   3.51900
  Beta virt. eigenvalues --    3.56583   3.62283   3.68803   3.70642   3.74287
  Beta virt. eigenvalues --    3.79235   3.83460   3.91358   3.96151   4.13403
  Beta virt. eigenvalues --    4.21641   4.22626   4.24858   4.33304   4.41086
  Beta virt. eigenvalues --    4.49022   4.57134   4.68219   5.58088   5.62721
  Beta virt. eigenvalues --    5.65914   5.68926   5.73746   5.88680   6.09820
  Beta virt. eigenvalues --    6.18450   6.48039  24.64779  24.99717  25.02032
  Beta virt. eigenvalues --   25.14610  25.91096  51.57731  51.61478  51.73247
          Condensed to atoms (all electrons):
               1          2          3          4          5          6
     1  C    9.819472   0.439244  -1.901474  -1.570342  -0.121596  -0.043644
     2  H    0.439244   0.404100  -0.099211   0.005661  -0.001761  -0.001321
     3  C   -1.901474  -0.099211   8.011909  -0.241865  -0.045695  -0.104253
     4  C   -1.570342   0.005661  -0.241865   7.169305   0.512526   0.066462
     5  O   -0.121596  -0.001761  -0.045695   0.512526   8.055905  -0.059686
     6  O   -0.043644  -0.001321  -0.104253   0.066462  -0.059686   8.221588
     7  C   -0.306760   0.000461  -0.096394   0.290246  -0.002963   0.276090
     8  C    0.024747  -0.000483   0.107270  -0.114498   0.007223  -0.189540
     9  H    0.074655  -0.002347   0.014356  -0.100243  -0.001850  -0.036418
    10  H   -0.004699   0.001598  -0.052152   0.040845   0.000388  -0.052554
    11  H    0.002455  -0.000050  -0.002921   0.005311   0.001128  -0.019935
    12  H   -0.003857   0.000332  -0.024870   0.017725  -0.000418   0.003997
    13  H    0.001431   0.000219  -0.001152  -0.006605  -0.000184   0.022243
    14  O   -0.267791  -0.001070   0.269541  -0.150517  -0.005751   0.029092
    15  H    0.037304  -0.000524   0.019802  -0.002905  -0.002523  -0.001913
               7          8          9         10         11         12
     1  C   -0.306760   0.024747   0.074655  -0.004699   0.002455  -0.003857
     2  H    0.000461  -0.000483  -0.002347   0.001598  -0.000050   0.000332
     3  C   -0.096394   0.107270   0.014356  -0.052152  -0.002921  -0.024870
     4  C    0.290246  -0.114498  -0.100243   0.040845   0.005311   0.017725
     5  O   -0.002963   0.007223  -0.001850   0.000388   0.001128  -0.000418
     6  O    0.276090  -0.189540  -0.036418  -0.052554  -0.019935   0.003997
     7  C    5.561567  -0.092560   0.408664   0.435983  -0.033399  -0.070589
     8  C   -0.092560   5.520274  -0.028841  -0.049881   0.413574   0.426400
     9  H    0.408664  -0.028841   0.532547  -0.034229  -0.003137   0.001635
    10  H    0.435983  -0.049881  -0.034229   0.528525  -0.000365   0.003728
    11  H   -0.033399   0.413574  -0.003137  -0.000365   0.553599  -0.037086
    12  H   -0.070589   0.426400   0.001635   0.003728  -0.037086   0.549012
    13  H   -0.023350   0.387447  -0.012952   0.003881  -0.038516  -0.031207
    14  O   -0.035120   0.006792  -0.010602   0.004792  -0.001177   0.000332
    15  H   -0.004115  -0.002573  -0.002235  -0.000452   0.000190  -0.001045
              13         14         15
     1  C    0.001431  -0.267791   0.037304
     2  H    0.000219  -0.001070  -0.000524
     3  C   -0.001152   0.269541   0.019802
     4  C   -0.006605  -0.150517  -0.002905
     5  O   -0.000184  -0.005751  -0.002523
     6  O    0.022243   0.029092  -0.001913
     7  C   -0.023350  -0.035120  -0.004115
     8  C    0.387447   0.006792  -0.002573
     9  H   -0.012952  -0.010602  -0.002235
    10  H    0.003881   0.004792  -0.000452
    11  H   -0.038516  -0.001177   0.000190
    12  H   -0.031207   0.000332  -0.001045
    13  H    0.575949   0.000543   0.000335
    14  O    0.000543   8.144907   0.238718
    15  H    0.000335   0.238718   0.456939
          Atomic-Atomic Spin Densities.
               1          2          3          4          5          6
     1  C    2.233057   0.019289  -0.507976  -0.064334   0.004202  -0.019356
     2  H    0.019289  -0.083068  -0.032381  -0.002930  -0.000162  -0.000479
     3  C   -0.507976  -0.032381  -0.783046   0.093895   0.018039   0.015796
     4  C   -0.064334  -0.002930   0.093895   0.106373   0.007390  -0.033261
     5  O    0.004202  -0.000162   0.018039   0.007390  -0.118758  -0.000915
     6  O   -0.019356  -0.000479   0.015796  -0.033261  -0.000915   0.036567
     7  C    0.073235   0.001234  -0.010986  -0.059727   0.000254  -0.001867
     8  C   -0.037744  -0.000396  -0.006767   0.048441  -0.001018   0.000085
     9  H   -0.019998  -0.000644   0.023679   0.014701   0.001004  -0.000966
    10  H    0.010525   0.000327  -0.005259  -0.004789  -0.000196   0.000003
    11  H   -0.000556  -0.000015   0.002346  -0.002557   0.000040   0.000105
    12  H    0.001339   0.000064   0.000322  -0.001534  -0.000094   0.000406
    13  H    0.000459   0.000025  -0.000801   0.000605   0.000005   0.000047
    14  O   -0.259783  -0.004367   0.142414   0.088294   0.001184   0.001258
    15  H    0.038911   0.000366  -0.029359  -0.013818   0.000098   0.000422
               7          8          9         10         11         12
     1  C    0.073235  -0.037744  -0.019998   0.010525  -0.000556   0.001339
     2  H    0.001234  -0.000396  -0.000644   0.000327  -0.000015   0.000064
     3  C   -0.010986  -0.006767   0.023679  -0.005259   0.002346   0.000322
     4  C   -0.059727   0.048441   0.014701  -0.004789  -0.002557  -0.001534
     5  O    0.000254  -0.001018   0.001004  -0.000196   0.000040  -0.000094
     6  O   -0.001867   0.000085  -0.000966   0.000003   0.000105   0.000406
     7  C   -0.033526   0.016743   0.010936   0.001750  -0.001541  -0.002254
     8  C    0.016743  -0.010818  -0.007167  -0.002548   0.002377   0.001827
     9  H    0.010936  -0.007167  -0.004889   0.000255  -0.000088   0.000555
    10  H    0.001750  -0.002548   0.000255   0.001481   0.000334  -0.000151
    11  H   -0.001541   0.002377  -0.000088   0.000334  -0.001593  -0.000049
    12  H   -0.002254   0.001827   0.000555  -0.000151  -0.000049  -0.000733
    13  H    0.001414  -0.001859  -0.000195  -0.000106   0.000412  -0.000070
    14  O    0.008477  -0.006886  -0.013200  -0.000972   0.000420   0.001273
    15  H   -0.001013   0.000267   0.001192  -0.000009  -0.000070  -0.000127
              13         14         15
     1  C    0.000459  -0.259783   0.038911
     2  H    0.000025  -0.004367   0.000366
     3  C   -0.000801   0.142414  -0.029359
     4  C    0.000605   0.088294  -0.013818
     5  O    0.000005   0.001184   0.000098
     6  O    0.000047   0.001258   0.000422
     7  C    0.001414   0.008477  -0.001013
     8  C   -0.001859  -0.006886   0.000267
     9  H   -0.000195  -0.013200   0.001192
    10  H   -0.000106  -0.000972  -0.000009
    11  H    0.000412   0.000420  -0.000070
    12  H   -0.000070   0.001273  -0.000127
    13  H    0.000083  -0.000119   0.000048
    14  O   -0.000119   0.678851   0.009301
    15  H    0.000048   0.009301  -0.029845
 Mulliken charges and spin densities:
               1          2
     1  C   -0.179146   1.471270
     2  H    0.255151  -0.103137
     3  C    0.147108  -1.080084
     4  C    0.078892   0.176750
     5  O   -0.334741  -0.088927
     6  O   -0.110208  -0.002155
     7  C   -0.307761   0.003130
     8  C   -0.415352  -0.005465
     9  H    0.200999   0.005177
    10  H    0.174592   0.000645
    11  H    0.160329  -0.000435
    12  H    0.165911   0.000775
    13  H    0.121918  -0.000053
    14  O   -0.222688   0.646145
    15  H    0.264996  -0.023636
 Sum of Mulliken charges =  -0.00000   1.00000
 Mulliken charges and spin densities with hydrogens summed into heavy atoms:
               1          2
     1  C    0.076004   1.368134
     3  C    0.147108  -1.080084
     4  C    0.078892   0.176750
     5  O   -0.334741  -0.088927
     6  O   -0.110208  -0.002155
     7  C    0.067830   0.008952
     8  C    0.032807  -0.005178
    14  O    0.042308   0.622508
 Electronic spatial extent (au):  <R**2>=            986.0688
 Charge=             -0.0000 electrons
 Dipole moment (field-independent basis, Debye):
    X=             -0.2545    Y=             -4.3469    Z=             -1.7556  Tot=              4.6949
 Quadrupole moment (field-independent basis, Debye-Ang):
   XX=            -41.1855   YY=            -53.7272   ZZ=            -43.6205
   XY=              8.0498   XZ=              0.4909   YZ=             -1.5894
 Traceless Quadrupole moment (field-independent basis, Debye-Ang):
   XX=              4.9922   YY=             -7.5495   ZZ=              2.5572
   XY=              8.0498   XZ=              0.4909   YZ=             -1.5894
 Octapole moment (field-independent basis, Debye-Ang**2):
  XXX=             -4.4070  YYY=            -13.9747  ZZZ=              9.4931  XYY=             -2.9530
  XXY=            -20.3437  XXZ=             -7.0746  XZZ=             -5.2989  YZZ=             -6.2980
  YYZ=             -3.8116  XYZ=              1.3378
 Hexadecapole moment (field-independent basis, Debye-Ang**3):
 XXXX=           -704.6088 YYYY=           -397.4684 ZZZZ=           -159.8764 XXXY=             48.2587
 XXXZ=             11.3179 YYYX=             30.4624 YYYZ=             -8.9311 ZZZX=            -14.8879
 ZZZY=            -15.1506 XXYY=           -166.4849 XXZZ=           -135.4583 YYZZ=            -78.5690
 XXYZ=              8.3869 YYXZ=              7.7744 ZZXY=             16.7338
 N-N= 3.678690503746D+02 E-N=-1.718595796703D+03  KE= 4.176091009074D+02
 1\1\GINC-AJ\SP\UCCSD(T)-FC\6-311++G(d,p)\C5H7O3(2)\AAYUSH\14-May-2025\
 0\\# ccsd(t)/6-311++g(d,p) sp\\Title Card Required\\0,2\C,0,-2.042619,
 -1.096761,-0.863211\H,0,-2.709232,-1.809795,-1.293286\C,0,-1.184907,-0
 .444458,-0.233173\C,0,-0.546683,0.884091,0.056488\O,0,-1.1634,1.773382
 ,0.55993\O,0,0.744131,0.986731,-0.22519\C,0,1.519626,-0.08931,-0.79029
 3\C,0,2.605676,-0.478781,0.187649\H,0,0.880565,-0.939343,-1.026567\H,0
 ,1.934588,0.309413,-1.717193\H,0,3.219751,0.387113,0.43876\H,0,2.15890
 5,-0.882218,1.095976\H,0,3.244956,-1.242211,-0.260642\O,0,-0.328186,-1
 .474096,0.971167\H,0,-1.047242,-1.644435,1.594637\\Version=ES64L-G16Re
 vA.03\State=2-A\HF=-417.9684205\MP2=-419.2322793\MP3=-419.2607696\MP4D
 =-419.291797\MP4DQ=-419.2671297\PUHF=-417.9973457\PMP2-0=-419.2576221\
 PMP3-0=-419.2802729\MP4SDQ=-419.2900768\CCSD=-419.2979595\CCSD(T)=-419
 .3536825\S2=1.085357\S2-1=0.990695\S2A=0.829476\RMSD=7.877e-09\PG=C01 
 [X(C5H7O3)]\\@


 K N O W I N G  IS A BARRIER WHICH PREVENTS LEARNING

                     -- TEACHING OF THE BENE GESSERIT
 Job cpu time:       0 days 16 hours 40 minutes 38.0 seconds.
 Elapsed time:       0 days  0 hours 41 minutes 51.1 seconds.
 File lengths (MBytes):  RWF=  44733 Int=      0 D2E=      0 Chk=      6 Scr=      1
 Normal termination of Gaussian 16 at Wed May 14 04:35:13 2025.
