 Entering Gaussian System, Link 0=g16
 Initial command:
 /opt/g16/l1.exe "/home/loki/Research/Transition_states/Addition/ts1_irc_points/Gau-152735.inp" -scrdir="/home/loki/Research/Transition_states/Addition/ts1_irc_points/"
 Entering Link 1 = /opt/g16/l1.exe PID=    152738.
  
 Copyright (c) 1988,1990,1992,1993,1995,1998,2003,2009,2016,
            Gaussian, Inc.  All Rights Reserved.
  
 This is part of the Gaussian(R) 16 program.  It is based on
 the Gaussian(R) 09 system (copyright 2009, Gaussian, Inc.),
 the Gaussian(R) 03 system (copyright 2003, Gaussian, Inc.),
 the Gaussian(R) 98 system (copyright 1998, Gaussian, Inc.),
 the Gaussian(R) 94 system (copyright 1995, Gaussian, Inc.),
 the Gaussian 92(TM) system (copyright 1992, Gaussian, Inc.),
 the Gaussian 90(TM) system (copyright 1990, Gaussian, Inc.),
 the Gaussian 88(TM) system (copyright 1988, Gaussian, Inc.),
 the Gaussian 86(TM) system (copyright 1986, Carnegie Mellon
 University), and the Gaussian 82(TM) system (copyright 1983,
 Carnegie Mellon University). Gaussian is a federally registered
 trademark of Gaussian, Inc.
  
 This software contains proprietary and confidential information,
 including trade secrets, belonging to Gaussian, Inc.
  
 This software is provided under written license and may be
 used, copied, transmitted, or stored only in accord with that
 written license.
  
 The following legend is applicable only to US Government
 contracts under FAR:
  
                    RESTRICTED RIGHTS LEGEND
  
 Use, reproduction and disclosure by the US Government is
 subject to restrictions as set forth in subparagraphs (a)
 and (c) of the Commercial Computer Software - Restricted
 Rights clause in FAR 52.227-19.
  
 Gaussian, Inc.
 340 Quinnipiac St., Bldg. 40, Wallingford CT 06492
  
  
 ---------------------------------------------------------------
 Warning -- This program may not be used in any manner that
 competes with the business of Gaussian, Inc. or will provide
 assistance to any competitor of Gaussian, Inc.  The licensee
 of this program is prohibited from giving any competitor of
 Gaussian, Inc. access to this program.  By using this program,
 the user acknowledges that Gaussian, Inc. is engaged in the
 business of creating and licensing software in the field of
 computational chemistry and represents and warrants to the
 licensee that it is not a competitor of Gaussian, Inc. and that
 it will not use this program in any manner prohibited above.
 ---------------------------------------------------------------
  

 Cite this work as:
 Gaussian 16, Revision A.03,
 M. J. Frisch, G. W. Trucks, H. B. Schlegel, G. E. Scuseria, 
 M. A. Robb, J. R. Cheeseman, G. Scalmani, V. Barone, 
 G. A. Petersson, H. Nakatsuji, X. Li, M. Caricato, A. V. Marenich, 
 J. Bloino, B. G. Janesko, R. Gomperts, B. Mennucci, H. P. Hratchian, 
 J. V. Ortiz, A. F. Izmaylov, J. L. Sonnenberg, D. Williams-Young, 
 F. Ding, F. Lipparini, F. Egidi, J. Goings, B. Peng, A. Petrone, 
 T. Henderson, D. Ranasinghe, V. G. Zakrzewski, J. Gao, N. Rega, 
 G. Zheng, W. Liang, M. Hada, M. Ehara, K. Toyota, R. Fukuda, 
 J. Hasegawa, M. Ishida, T. Nakajima, Y. Honda, O. Kitao, H. Nakai, 
 T. Vreven, K. Throssell, J. A. Montgomery, Jr., J. E. Peralta, 
 F. Ogliaro, M. J. Bearpark, J. J. Heyd, E. N. Brothers, K. N. Kudin, 
 V. N. Staroverov, T. A. Keith, R. Kobayashi, J. Normand, 
 K. Raghavachari, A. P. Rendell, J. C. Burant, S. S. Iyengar, 
 J. Tomasi, M. Cossi, J. M. Millam, M. Klene, C. Adamo, R. Cammi, 
 J. W. Ochterski, R. L. Martin, K. Morokuma, O. Farkas, 
 J. B. Foresman, and D. J. Fox, Gaussian, Inc., Wallingford CT, 2016.
 
 ******************************************
 Gaussian 16:  ES64L-G16RevA.03 25-Dec-2016
                28-Mar-2025 
 ******************************************
 %chk=ethyl_propiolate.chk
 %nprocshared=4
 Will use up to    4 processors via shared memory.
 %mem=10GB
 --------------------------
 # freq 6-311++g(d,p) m062x
 --------------------------
 1/10=4,30=1,38=1/1,3;
 2/12=2,17=6,18=5,40=1/2;
 3/5=4,6=6,7=1111,11=2,25=1,30=1,71=2,74=-55,140=1/1,2,3;
 4//1;
 5/5=2,38=5,98=1/2;
 8/6=4,10=90,11=11/1;
 11/6=1,8=1,9=11,15=111,16=1/1,2,10;
 10/6=1/2;
 6/7=2,8=2,9=2,10=2,28=1/1;
 7/8=1,10=1,25=1/1,2,3,16;
 1/10=4,30=1/3;
 99//99;
 -------------------
 Title Card Required
 -------------------
 Symbolic Z-matrix:
 Charge =  0 Multiplicity = 2
 C                    -2.03939  -1.11486  -0.85679 
 H                    -2.70375  -1.83655  -1.27328 
 C                    -1.25146  -0.34659  -0.35231 
 C                    -0.55033   0.8913    0.0491 
 O                    -1.15846   1.7781    0.56921 
 O                     0.74458   0.98462  -0.22088 
 C                     1.51634  -0.09038  -0.78918 
 C                     2.6055   -0.47888   0.18667 
 H                     0.8724   -0.93843  -1.0216 
 H                     1.9305    0.3057   -1.71769 
 H                     3.21932   0.38751   0.43647 
 H                     2.1638   -0.8804    1.09856 
 H                     3.24458  -1.24272  -0.26107 
 O                    -0.28076  -1.53784   1.04393 
 H                    -1.04439  -1.66834   1.62825 
 

 GradGradGradGradGradGradGradGradGradGradGradGradGradGradGradGradGradGrad
 Berny optimization.
 Initialization pass.
 Trust Radius=3.00D-01 FncErr=1.00D-07 GrdErr=1.00D-07 EigMax=2.50D+02 EigMin=1.00D-04
 Number of steps in this run=      2 maximum allowed number of steps=      2.
 GradGradGradGradGradGradGradGradGradGradGradGradGradGradGradGradGradGrad

                          Input orientation:                          
 ---------------------------------------------------------------------
 Center     Atomic      Atomic             Coordinates (Angstroms)
 Number     Number       Type             X           Y           Z
 ---------------------------------------------------------------------
      1          6           0       -2.039393   -1.114855   -0.856785
      2          1           0       -2.703749   -1.836549   -1.273278
      3          6           0       -1.251455   -0.346585   -0.352313
      4          6           0       -0.550326    0.891301    0.049104
      5          8           0       -1.158458    1.778102    0.569209
      6          8           0        0.744581    0.984624   -0.220878
      7          6           0        1.516343   -0.090378   -0.789183
      8          6           0        2.605498   -0.478882    0.186673
      9          1           0        0.872398   -0.938426   -1.021603
     10          1           0        1.930502    0.305699   -1.717687
     11          1           0        3.219319    0.387509    0.436466
     12          1           0        2.163798   -0.880396    1.098557
     13          1           0        3.244581   -1.242717   -0.261067
     14          8           0       -0.280755   -1.537839    1.043930
     15          1           0       -1.044390   -1.668343    1.628247
 ---------------------------------------------------------------------
                    Distance matrix (angstroms):
                    1          2          3          4          5
     1  C    0.000000
     2  H    1.065682   0.000000
     3  C    1.210610   2.275374   0.000000
     4  C    2.657559   3.718480   1.478201   0.000000
     5  O    3.343457   4.341473   2.317789   1.194466   0.000000
     6  O    3.544390   4.577941   2.402822   1.326041   2.208031
     7  C    3.700997   4.592672   2.813753   2.436707   3.534262
     8  C    4.802945   5.671227   3.896677   3.443189   4.405414
     9  H    2.921784   3.695780   2.304122   2.553127   3.746276
    10  H    4.303393   5.124745   3.523432   3.101449   4.115767
    11  H    5.619933   6.553808   4.598792   3.822837   4.595248
    12  H    4.641675   5.498440   3.748857   3.406865   4.287797
    13  H    5.318986   6.062989   4.585381   4.364809   5.403837
    14  O    2.623822   3.365944   2.076256   2.638763   3.462829
    15  H    2.733453   3.346732   2.390092   3.047879   3.607292
                    6          7          8          9         10
     6  O    0.000000
     7  C    1.440214   0.000000
     8  C    2.402282   1.513106   0.000000
     9  H    2.087012   1.089894   2.162116   0.000000
    10  H    2.026767   1.091112   2.167435   1.775377   0.000000
    11  H    2.629254   2.151910   1.090782   3.064654   2.511597
    12  H    2.689495   2.146366   1.089883   2.483175   3.064715
    13  H    3.348531   2.143268   1.091944   2.509633   2.499227
    14  O    3.002311   2.947034   3.191667   2.440386   3.989338
    15  H    3.695662   3.858924   4.100565   3.350904   4.893066
                   11         12         13         14         15
    11  H    0.000000
    12  H    1.777659   0.000000
    13  H    1.773366   1.774245   0.000000
    14  O    4.040606   2.532006   3.770691   0.000000
    15  H    4.881197   3.345729   4.705947   0.970359   0.000000
 Stoichiometry    C5H7O3(2)
 Framework group  C1[X(C5H7O3)]
 Deg. of freedom    39
 Full point group                 C1      NOp   1
 Largest Abelian subgroup         C1      NOp   1
 Largest concise Abelian subgroup C1      NOp   1
                         Standard orientation:                         
 ---------------------------------------------------------------------
 Center     Atomic      Atomic             Coordinates (Angstroms)
 Number     Number       Type             X           Y           Z
 ---------------------------------------------------------------------
      1          6           0       -2.100828   -1.067300   -0.850124
      2          1           0       -2.764126   -1.788011   -1.269992
      3          6           0       -1.313870   -0.300265   -0.342254
      4          6           0       -0.615306    0.936833    0.066006
      5          8           0       -1.224709    1.818287    0.593659
      6          8           0        0.678676    1.035722   -0.206417
      7          6           0        1.452127   -0.033128   -0.783955
      8          6           0        2.544730   -0.425216    0.186599
      9          1           0        0.810043   -0.881398   -1.020674
     10          1           0        1.862920    0.370515   -1.710694
     11          1           0        3.156680    0.441190    0.440888
     12          1           0        2.106372   -0.834261    1.096747
     13          1           0        3.184907   -1.184117   -0.267917
     14          8           0       -0.336422   -1.498314    1.043428
     15          1           0       -1.098274   -1.635024    1.628653
 ---------------------------------------------------------------------
 Rotational constants (GHZ):           2.6093298           1.6666585           1.2824649
 Standard basis: 6-311++G(d,p) (5D, 7F)
 There are   233 symmetry adapted cartesian basis functions of A   symmetry.
 There are   225 symmetry adapted basis functions of A   symmetry.
   225 basis functions,   351 primitive gaussians,   233 cartesian basis functions
    31 alpha electrons       30 beta electrons
       nuclear repulsion energy       364.9613142144 Hartrees.
 NAtoms=   15 NActive=   15 NUniq=   15 SFac= 1.00D+00 NAtFMM=   60 NAOKFM=F Big=F
 Integral buffers will be    131072 words long.
 Raffenetti 2 integral format.
 Two-electron integral symmetry is turned on.
 One-electron integrals computed using PRISM.
 NBasis=   225 RedAO= T EigKep=  2.31D-06  NBF=   225
 NBsUse=   225 1.00D-06 EigRej= -1.00D+00 NBFU=   225
 ExpMin= 3.60D-02 ExpMax= 8.59D+03 ExpMxC= 1.30D+03 IAcc=3 IRadAn=         5 AccDes= 0.00D+00
 Harris functional with IExCor= 1009 and IRadAn=       5 diagonalized for initial guess.
 HarFok:  IExCor= 1009 AccDes= 0.00D+00 IRadAn=         5 IDoV= 1 UseB2=F ITyADJ=14
 ICtDFT=  3500011 ScaDFX=  1.000000  1.000000  1.000000  1.000000
 FoFCou: FMM=F IPFlag=           0 FMFlag=      100000 FMFlg1=           0
         NFxFlg=           0 DoJE=T BraDBF=F KetDBF=T FulRan=T
         wScrn=  0.000000 ICntrl=       500 IOpCl=  0 I1Cent=   200000004 NGrid=           0
         NMat0=    1 NMatS0=      1 NMatT0=    0 NMatD0=    1 NMtDS0=    0 NMtDT0=    0
 Petite list used in FoFCou.
 Initial guess <Sx>= 0.0000 <Sy>= 0.0000 <Sz>= 0.5000 <S**2>= 0.7500 S= 0.5000
 Keep R1 and R2 ints in memory in canonical form, NReq=652863693.
 Requested convergence on RMS density matrix=1.00D-08 within 128 cycles.
 Requested convergence on MAX density matrix=1.00D-06.
 Requested convergence on             energy=1.00D-06.
 No special actions if energy rises.
 SCF Done:  E(UM062X) =  -420.197315095     A.U. after   24 cycles
            NFock= 24  Conv=0.65D-08     -V/T= 2.0032
 <Sx>= 0.0000 <Sy>= 0.0000 <Sz>= 0.5000 <S**2>= 0.7675 S= 0.5087
 <L.S>=  0.00000000000    
 Annihilation of the first spin contaminant:
 S**2 before annihilation     0.7675,   after     0.7501
 DoSCS=F DFT=T ScalE2(SS,OS)=  1.000000  1.000000
 Range of M.O.s used for correlation:     1   225
 NBasis=   225 NAE=    31 NBE=    30 NFC=     0 NFV=     0
 NROrb=    225 NOA=    31 NOB=    30 NVA=   194 NVB=   195

 **** Warning!!: The largest alpha MO coefficient is  0.22880326D+03


 **** Warning!!: The largest beta MO coefficient is  0.24847456D+03

 Symmetrizing basis deriv contribution to polar:
 IMax=3 JMax=2 DiffMx= 0.00D+00
 G2DrvN: will do    16 centers at a time, making    1 passes.
 Calling FoFCou, ICntrl=  3107 FMM=F I1Cent=   0 AccDes= 0.00D+00.
 End of G2Drv F.D. properties file   721 does not exist.
 End of G2Drv F.D. properties file   722 does not exist.
 End of G2Drv F.D. properties file   788 does not exist.
          IDoAtm=111111111111111
          Differentiating once with respect to electric field.
                with respect to dipole field.
          Differentiating once with respect to nuclear coordinates.
 Keep R1 and R2 ints in memory in canonical form, NReq=652870569.
          There are    48 degrees of freedom in the 1st order CPHF.  IDoFFX=6 NUNeed=     3.
     45 vectors produced by pass  0 Test12= 2.47D-14 2.08D-09 XBig12= 8.75D+01 2.50D+00.
 AX will form    45 AO Fock derivatives at one time.
     45 vectors produced by pass  1 Test12= 2.47D-14 2.08D-09 XBig12= 1.77D+01 4.27D-01.
     45 vectors produced by pass  2 Test12= 2.47D-14 2.08D-09 XBig12= 5.25D-01 9.53D-02.
     45 vectors produced by pass  3 Test12= 2.47D-14 2.08D-09 XBig12= 7.27D-03 1.34D-02.
     45 vectors produced by pass  4 Test12= 2.47D-14 2.08D-09 XBig12= 9.96D-05 1.28D-03.
     45 vectors produced by pass  5 Test12= 2.47D-14 2.08D-09 XBig12= 1.07D-06 1.18D-04.
     42 vectors produced by pass  6 Test12= 2.47D-14 2.08D-09 XBig12= 8.76D-09 9.75D-06.
     21 vectors produced by pass  7 Test12= 2.47D-14 2.08D-09 XBig12= 6.43D-11 6.73D-07.
      5 vectors produced by pass  8 Test12= 2.47D-14 2.08D-09 XBig12= 4.39D-13 4.73D-08.
      3 vectors produced by pass  9 Test12= 2.47D-14 2.08D-09 XBig12= 3.83D-15 6.71D-09.
      1 vectors produced by pass 10 Test12= 2.47D-14 2.08D-09 XBig12= 5.05D-16 6.64D-09.
 InvSVY:  IOpt=1 It=  1 EMax= 5.33D-15
 Solved reduced A of dimension   342 with    48 vectors.
 Isotropic polarizability for W=    0.000000       75.06 Bohr**3.
 End of Minotr F.D. properties file   721 does not exist.
 End of Minotr F.D. properties file   722 does not exist.
 End of Minotr F.D. properties file   788 does not exist.

 **********************************************************************

            Population analysis using the SCF density.

 **********************************************************************

 Orbital symmetries:
 Alpha Orbitals:
       Occupied  (A) (A) (A) (A) (A) (A) (A) (A) (A) (A) (A) (A)
                 (A) (A) (A) (A) (A) (A) (A) (A) (A) (A) (A) (A)
                 (A) (A) (A) (A) (A) (A) (A)
       Virtual   (A) (A) (A) (A) (A) (A) (A) (A) (A) (A) (A) (A)
                 (A) (A) (A) (A) (A) (A) (A) (A) (A) (A) (A) (A)
                 (A) (A) (A) (A) (A) (A) (A) (A) (A) (A) (A) (A)
                 (A) (A) (A) (A) (A) (A) (A) (A) (A) (A) (A) (A)
                 (A) (A) (A) (A) (A) (A) (A) (A) (A) (A) (A) (A)
                 (A) (A) (A) (A) (A) (A) (A) (A) (A) (A) (A) (A)
                 (A) (A) (A) (A) (A) (A) (A) (A) (A) (A) (A) (A)
                 (A) (A) (A) (A) (A) (A) (A) (A) (A) (A) (A) (A)
                 (A) (A) (A) (A) (A) (A) (A) (A) (A) (A) (A) (A)
                 (A) (A) (A) (A) (A) (A) (A) (A) (A) (A) (A) (A)
                 (A) (A) (A) (A) (A) (A) (A) (A) (A) (A) (A) (A)
                 (A) (A) (A) (A) (A) (A) (A) (A) (A) (A) (A) (A)
                 (A) (A) (A) (A) (A) (A) (A) (A) (A) (A) (A) (A)
                 (A) (A) (A) (A) (A) (A) (A) (A) (A) (A) (A) (A)
                 (A) (A) (A) (A) (A) (A) (A) (A) (A) (A) (A) (A)
                 (A) (A) (A) (A) (A) (A) (A) (A) (A) (A) (A) (A)
                 (A) (A)
 Beta  Orbitals:
       Occupied  (A) (A) (A) (A) (A) (A) (A) (A) (A) (A) (A) (A)
                 (A) (A) (A) (A) (A) (A) (A) (A) (A) (A) (A) (A)
                 (A) (A) (A) (A) (A) (A)
       Virtual   (A) (A) (A) (A) (A) (A) (A) (A) (A) (A) (A) (A)
                 (A) (A) (A) (A) (A) (A) (A) (A) (A) (A) (A) (A)
                 (A) (A) (A) (A) (A) (A) (A) (A) (A) (A) (A) (A)
                 (A) (A) (A) (A) (A) (A) (A) (A) (A) (A) (A) (A)
                 (A) (A) (A) (A) (A) (A) (A) (A) (A) (A) (A) (A)
                 (A) (A) (A) (A) (A) (A) (A) (A) (A) (A) (A) (A)
                 (A) (A) (A) (A) (A) (A) (A) (A) (A) (A) (A) (A)
                 (A) (A) (A) (A) (A) (A) (A) (A) (A) (A) (A) (A)
                 (A) (A) (A) (A) (A) (A) (A) (A) (A) (A) (A) (A)
                 (A) (A) (A) (A) (A) (A) (A) (A) (A) (A) (A) (A)
                 (A) (A) (A) (A) (A) (A) (A) (A) (A) (A) (A) (A)
                 (A) (A) (A) (A) (A) (A) (A) (A) (A) (A) (A) (A)
                 (A) (A) (A) (A) (A) (A) (A) (A) (A) (A) (A) (A)
                 (A) (A) (A) (A) (A) (A) (A) (A) (A) (A) (A) (A)
                 (A) (A) (A) (A) (A) (A) (A) (A) (A) (A) (A) (A)
                 (A) (A) (A) (A) (A) (A) (A) (A) (A) (A) (A) (A)
                 (A) (A) (A)
 The electronic state is 2-A.
 Alpha  occ. eigenvalues --  -19.67858 -19.67390 -19.62504 -10.70736 -10.60639
 Alpha  occ. eigenvalues --  -10.59783 -10.59158 -10.53342  -1.25018  -1.16385
 Alpha  occ. eigenvalues --   -1.13416  -0.90792  -0.88101  -0.76514  -0.73834
 Alpha  occ. eigenvalues --   -0.64792  -0.62456  -0.59348  -0.56258  -0.55051
 Alpha  occ. eigenvalues --   -0.53178  -0.50056  -0.47646  -0.47433  -0.44912
 Alpha  occ. eigenvalues --   -0.42627  -0.41775  -0.40159  -0.37556  -0.36474
 Alpha  occ. eigenvalues --   -0.35468
 Alpha virt. eigenvalues --   -0.01328  -0.00747   0.00557   0.01005   0.02157
 Alpha virt. eigenvalues --    0.02430   0.03363   0.04730   0.05657   0.05944
 Alpha virt. eigenvalues --    0.07140   0.07403   0.08601   0.09426   0.10159
 Alpha virt. eigenvalues --    0.11211   0.11263   0.11872   0.12782   0.13383
 Alpha virt. eigenvalues --    0.13757   0.14463   0.14694   0.15096   0.15383
 Alpha virt. eigenvalues --    0.16625   0.17797   0.18443   0.19540   0.20167
 Alpha virt. eigenvalues --    0.21051   0.21678   0.22439   0.23357   0.23602
 Alpha virt. eigenvalues --    0.25284   0.26976   0.27581   0.29530   0.30723
 Alpha virt. eigenvalues --    0.31109   0.32232   0.32671   0.33255   0.33713
 Alpha virt. eigenvalues --    0.34283   0.36608   0.37403   0.37631   0.40052
 Alpha virt. eigenvalues --    0.40740   0.41922   0.46249   0.47599   0.50383
 Alpha virt. eigenvalues --    0.51058   0.52226   0.54386   0.58077   0.59258
 Alpha virt. eigenvalues --    0.60345   0.61052   0.65016   0.65919   0.68273
 Alpha virt. eigenvalues --    0.68908   0.70138   0.70658   0.71562   0.73588
 Alpha virt. eigenvalues --    0.74955   0.75685   0.77542   0.78147   0.79075
 Alpha virt. eigenvalues --    0.82444   0.85376   0.91041   0.94400   0.97723
 Alpha virt. eigenvalues --    1.00428   1.06223   1.07269   1.08380   1.12070
 Alpha virt. eigenvalues --    1.15865   1.18346   1.21075   1.23249   1.24891
 Alpha virt. eigenvalues --    1.27115   1.28859   1.29556   1.31109   1.31450
 Alpha virt. eigenvalues --    1.32867   1.36852   1.39692   1.43274   1.43584
 Alpha virt. eigenvalues --    1.45220   1.47474   1.51805   1.53481   1.55506
 Alpha virt. eigenvalues --    1.58896   1.60606   1.62144   1.62648   1.64119
 Alpha virt. eigenvalues --    1.65773   1.69024   1.72235   1.73800   1.76408
 Alpha virt. eigenvalues --    1.78696   1.81018   1.83851   1.86139   1.90415
 Alpha virt. eigenvalues --    1.91102   1.95674   1.98670   2.01405   2.05414
 Alpha virt. eigenvalues --    2.10613   2.12473   2.14580   2.21536   2.32129
 Alpha virt. eigenvalues --    2.34796   2.38501   2.46657   2.52275   2.53071
 Alpha virt. eigenvalues --    2.53895   2.56598   2.60930   2.62338   2.64479
 Alpha virt. eigenvalues --    2.65090   2.67779   2.70388   2.74257   2.74749
 Alpha virt. eigenvalues --    2.81176   2.82436   2.83903   2.90251   2.91077
 Alpha virt. eigenvalues --    2.93130   2.94840   3.00711   3.02757   3.05011
 Alpha virt. eigenvalues --    3.10392   3.11228   3.13113   3.17245   3.18286
 Alpha virt. eigenvalues --    3.27093   3.28685   3.33752   3.37397   3.41037
 Alpha virt. eigenvalues --    3.44009   3.52791   3.62741   3.77115   3.84902
 Alpha virt. eigenvalues --    3.85654   3.88437   3.93582   4.03290   4.14815
 Alpha virt. eigenvalues --    4.19122   4.29248   5.10125   5.13716   5.18018
 Alpha virt. eigenvalues --    5.20615   5.28672   5.43066   5.60496   5.70699
 Alpha virt. eigenvalues --    5.99606  23.60015  23.93487  23.93886  24.05893
 Alpha virt. eigenvalues --   25.03908  49.96172  50.00559  50.13730
  Beta  occ. eigenvalues --  -19.67855 -19.65939 -19.62525 -10.70717 -10.60642
  Beta  occ. eigenvalues --  -10.59809 -10.58954 -10.53340  -1.25012  -1.16421
  Beta  occ. eigenvalues --   -1.07285  -0.89895  -0.88041  -0.76289  -0.73640
  Beta  occ. eigenvalues --   -0.64587  -0.62083  -0.58845  -0.56213  -0.53066
  Beta  occ. eigenvalues --   -0.52042  -0.47884  -0.47577  -0.44735  -0.42012
  Beta  occ. eigenvalues --   -0.40636  -0.39795  -0.38988  -0.37348  -0.35960
  Beta virt. eigenvalues --   -0.10750  -0.00705  -0.00430   0.00611   0.01296
  Beta virt. eigenvalues --    0.02342   0.02557   0.03508   0.04714   0.05789
  Beta virt. eigenvalues --    0.06095   0.07182   0.07483   0.08576   0.09477
  Beta virt. eigenvalues --    0.10443   0.11310   0.11455   0.11864   0.12893
  Beta virt. eigenvalues --    0.13204   0.13878   0.14624   0.14895   0.15322
  Beta virt. eigenvalues --    0.15420   0.16960   0.17768   0.18514   0.19644
  Beta virt. eigenvalues --    0.20147   0.21092   0.22019   0.22442   0.23498
  Beta virt. eigenvalues --    0.23655   0.25337   0.27056   0.27316   0.29428
  Beta virt. eigenvalues --    0.30755   0.31167   0.32210   0.32742   0.33262
  Beta virt. eigenvalues --    0.33714   0.34232   0.36675   0.37554   0.37687
  Beta virt. eigenvalues --    0.40081   0.40784   0.41905   0.46241   0.47598
  Beta virt. eigenvalues --    0.50477   0.51097   0.52272   0.54442   0.58695
  Beta virt. eigenvalues --    0.59671   0.60452   0.61559   0.65082   0.65843
  Beta virt. eigenvalues --    0.68264   0.68897   0.70072   0.70613   0.71538
  Beta virt. eigenvalues --    0.73598   0.74952   0.75689   0.77581   0.78182
  Beta virt. eigenvalues --    0.79041   0.82478   0.85405   0.91102   0.94765
  Beta virt. eigenvalues --    0.97864   1.00673   1.06953   1.07313   1.08718
  Beta virt. eigenvalues --    1.12870   1.16966   1.18988   1.21200   1.23787
  Beta virt. eigenvalues --    1.24989   1.27457   1.29077   1.29626   1.31631
  Beta virt. eigenvalues --    1.31737   1.34424   1.37029   1.40200   1.43421
  Beta virt. eigenvalues --    1.43868   1.45633   1.48370   1.52076   1.53868
  Beta virt. eigenvalues --    1.55875   1.59063   1.60663   1.62189   1.62677
  Beta virt. eigenvalues --    1.64104   1.65806   1.69110   1.72257   1.73838
  Beta virt. eigenvalues --    1.76495   1.78761   1.81123   1.84043   1.86375
  Beta virt. eigenvalues --    1.90551   1.91687   1.95978   1.98790   2.01585
  Beta virt. eigenvalues --    2.05444   2.11717   2.12572   2.14632   2.21550
  Beta virt. eigenvalues --    2.32191   2.34790   2.38803   2.46715   2.52268
  Beta virt. eigenvalues --    2.53096   2.53944   2.56632   2.61506   2.62565
  Beta virt. eigenvalues --    2.64783   2.65103   2.68164   2.70439   2.74573
  Beta virt. eigenvalues --    2.74997   2.81640   2.83496   2.86029   2.90509
  Beta virt. eigenvalues --    2.92877   2.93770   2.96300   3.01519   3.03835
  Beta virt. eigenvalues --    3.05817   3.11060   3.13486   3.13818   3.19025
  Beta virt. eigenvalues --    3.20188   3.27907   3.29813   3.33770   3.37596
  Beta virt. eigenvalues --    3.41257   3.43965   3.53353   3.62720   3.77146
  Beta virt. eigenvalues --    3.85189   3.85892   3.88450   3.96141   4.03285
  Beta virt. eigenvalues --    4.14705   4.19123   4.29248   5.11515   5.16997
  Beta virt. eigenvalues --    5.19814   5.23844   5.28917   5.43070   5.62887
  Beta virt. eigenvalues --    5.70673   5.99598  23.60081  23.93491  23.93889
  Beta virt. eigenvalues --   24.05894  25.04291  49.95752  50.00452  50.13751
          Condensed to atoms (all electrons):
               1          2          3          4          5          6
     1  C   21.114978   0.522261  -7.348648  -6.573126  -0.178140  -0.086588
     2  H    0.522261   0.427208  -0.143991  -0.018600  -0.002363  -0.002830
     3  C   -7.348648  -0.143991  12.028549   0.688148  -0.075735  -0.191333
     4  C   -6.573126  -0.018600   0.688148  10.945919   0.592498   0.153900
     5  O   -0.178140  -0.002363  -0.075735   0.592498   7.996043  -0.072648
     6  O   -0.086588  -0.002830  -0.191333   0.153900  -0.072648   8.180699
     7  C   -0.290572  -0.001757   0.019085   0.196885  -0.007809   0.271443
     8  C   -0.031042  -0.000231   0.051084  -0.028791   0.009472  -0.167227
     9  H    0.040851  -0.000721   0.047021  -0.077901  -0.001273  -0.030195
    10  H   -0.050733   0.000564  -0.047907   0.081256   0.000180  -0.056359
    11  H    0.006397   0.000145  -0.001342   0.000823   0.001268  -0.018117
    12  H   -0.026090  -0.000064  -0.022488   0.036075  -0.000994   0.004199
    13  H   -0.012280  -0.000070   0.001239   0.003282   0.000011   0.023064
    14  O   -0.318034  -0.003387   0.284408  -0.065848  -0.011236   0.017522
    15  H    0.048233   0.000311   0.013525  -0.012994  -0.002670  -0.002184
               7          8          9         10         11         12
     1  C   -0.290572  -0.031042   0.040851  -0.050733   0.006397  -0.026090
     2  H   -0.001757  -0.000231  -0.000721   0.000564   0.000145  -0.000064
     3  C    0.019085   0.051084   0.047021  -0.047907  -0.001342  -0.022488
     4  C    0.196885  -0.028791  -0.077901   0.081256   0.000823   0.036075
     5  O   -0.007809   0.009472  -0.001273   0.000180   0.001268  -0.000994
     6  O    0.271443  -0.167227  -0.030195  -0.056359  -0.018117   0.004199
     7  C    5.454227   0.043537   0.381735   0.424385  -0.038733  -0.050888
     8  C    0.043537   5.435690  -0.021758  -0.051043   0.419581   0.405868
     9  H    0.381735  -0.021758   0.540285  -0.032343  -0.000193  -0.002671
    10  H    0.424385  -0.051043  -0.032343   0.512739  -0.004674   0.004706
    11  H   -0.038733   0.419581  -0.000193  -0.004674   0.532152  -0.036567
    12  H   -0.050888   0.405868  -0.002671   0.004706  -0.036567   0.535491
    13  H   -0.030522   0.390736  -0.011307   0.004115  -0.036953  -0.030718
    14  O   -0.010786  -0.012639  -0.008211   0.004584  -0.001777   0.005469
    15  H    0.003313  -0.002973  -0.003894   0.000311  -0.000064   0.000161
              13         14         15
     1  C   -0.012280  -0.318034   0.048233
     2  H   -0.000070  -0.003387   0.000311
     3  C    0.001239   0.284408   0.013525
     4  C    0.003282  -0.065848  -0.012994
     5  O    0.000011  -0.011236  -0.002670
     6  O    0.023064   0.017522  -0.002184
     7  C   -0.030522  -0.010786   0.003313
     8  C    0.390736  -0.012639  -0.002973
     9  H   -0.011307  -0.008211  -0.003894
    10  H    0.004115   0.004584   0.000311
    11  H   -0.036953  -0.001777  -0.000064
    12  H   -0.030718   0.005469   0.000161
    13  H    0.545184   0.001163   0.000153
    14  O    0.001163   8.145065   0.234560
    15  H    0.000153   0.234560   0.472778
          Atomic-Atomic Spin Densities.
               1          2          3          4          5          6
     1  C    0.869606   0.009708  -0.230088  -0.126425   0.010896  -0.010825
     2  H    0.009708  -0.009411  -0.010972  -0.001502   0.000030  -0.000201
     3  C   -0.230088  -0.010972   0.039933   0.056971   0.006964   0.006491
     4  C   -0.126425  -0.001502   0.056971   0.044572  -0.013667   0.000555
     5  O    0.010896   0.000030   0.006964  -0.013667  -0.014654  -0.000057
     6  O   -0.010825  -0.000201   0.006491   0.000555  -0.000057   0.003379
     7  C    0.001689   0.000210   0.007535  -0.005527   0.000354   0.000591
     8  C   -0.014863  -0.000226  -0.001988   0.013322  -0.000323  -0.000637
     9  H    0.013616   0.000161  -0.003315  -0.004192   0.000350  -0.000957
    10  H    0.005953   0.000132  -0.000938  -0.004725   0.000106  -0.000419
    11  H   -0.000567  -0.000011   0.000670  -0.000201  -0.000030   0.000224
    12  H    0.007742   0.000078   0.001097  -0.008487  -0.000003  -0.000623
    13  H   -0.001652  -0.000008  -0.000507   0.002291  -0.000002   0.000073
    14  O   -0.267176  -0.004258   0.049592   0.095249   0.000910   0.001338
    15  H    0.037289   0.000487  -0.022287  -0.014152  -0.000126   0.000219
               7          8          9         10         11         12
     1  C    0.001689  -0.014863   0.013616   0.005953  -0.000567   0.007742
     2  H    0.000210  -0.000226   0.000161   0.000132  -0.000011   0.000078
     3  C    0.007535  -0.001988  -0.003315  -0.000938   0.000670   0.001097
     4  C   -0.005527   0.013322  -0.004192  -0.004725  -0.000201  -0.008487
     5  O    0.000354  -0.000323   0.000350   0.000106  -0.000030  -0.000003
     6  O    0.000591  -0.000637  -0.000957  -0.000419   0.000224  -0.000623
     7  C   -0.001964  -0.003894   0.003198   0.001573  -0.001054   0.003066
     8  C   -0.003894   0.012794  -0.002151  -0.002606   0.000465  -0.000884
     9  H    0.003198  -0.002151  -0.000089   0.000315  -0.000084   0.000541
    10  H    0.001573  -0.002606   0.000315   0.002982  -0.000564   0.001004
    11  H   -0.001054   0.000465  -0.000084  -0.000564   0.000753  -0.000920
    12  H    0.003066  -0.000884   0.000541   0.001004  -0.000920  -0.001835
    13  H    0.000954  -0.001004  -0.000418  -0.000307   0.000531  -0.000321
    14  O    0.004310  -0.000662  -0.007498  -0.001117   0.000414  -0.000066
    15  H   -0.000722  -0.000600   0.000837   0.000074  -0.000053   0.000068
              13         14         15
     1  C   -0.001652  -0.267176   0.037289
     2  H   -0.000008  -0.004258   0.000487
     3  C   -0.000507   0.049592  -0.022287
     4  C    0.002291   0.095249  -0.014152
     5  O   -0.000002   0.000910  -0.000126
     6  O    0.000073   0.001338   0.000219
     7  C    0.000954   0.004310  -0.000722
     8  C   -0.001004  -0.000662  -0.000600
     9  H   -0.000418  -0.007498   0.000837
    10  H   -0.000307  -0.001117   0.000074
    11  H    0.000531   0.000414  -0.000053
    12  H   -0.000321  -0.000066   0.000068
    13  H    0.000050  -0.000380   0.000071
    14  O   -0.000380   0.919148   0.008295
    15  H    0.000071   0.008295  -0.027987
 Mulliken charges and spin densities:
               1          2
     1  C   -0.817467   0.304902
     2  H    0.223526  -0.015783
     3  C    0.698386  -0.100842
     4  C    0.078473   0.034081
     5  O   -0.246605  -0.009252
     6  O   -0.023345  -0.000850
     7  C   -0.363544   0.010321
     8  C   -0.440265  -0.003258
     9  H    0.180574   0.000314
    10  H    0.210219   0.001462
    11  H    0.178052  -0.000426
    12  H    0.178511   0.000455
    13  H    0.152905  -0.000630
    14  O   -0.260855   0.798097
    15  H    0.251434  -0.018591
 Sum of Mulliken charges =  -0.00000   1.00000
 Mulliken charges and spin densities with hydrogens summed into heavy atoms:
               1          2
     1  C   -0.593941   0.289119
     3  C    0.698386  -0.100842
     4  C    0.078473   0.034081
     5  O   -0.246605  -0.009252
     6  O   -0.023345  -0.000850
     7  C    0.027248   0.012097
     8  C    0.069204  -0.003859
    14  O   -0.009421   0.779506
 APT charges:
               1
     1  C   -0.134810
     2  H    0.238328
     3  C   -0.469418
     4  C    1.537515
     5  O   -0.853415
     6  O   -0.931574
     7  C    0.508879
     8  C   -0.021044
     9  H   -0.012119
    10  H   -0.031847
    11  H    0.010205
    12  H    0.032421
    13  H    0.004318
    14  O   -0.131083
    15  H    0.253644
 Sum of APT charges =   0.00000
 APT charges with hydrogens summed into heavy atoms:
               1
     1  C    0.103519
     3  C   -0.469418
     4  C    1.537515
     5  O   -0.853415
     6  O   -0.931574
     7  C    0.464912
     8  C    0.025901
    14  O    0.122561
 Electronic spatial extent (au):  <R**2>=            998.6431
 Charge=             -0.0000 electrons
 Dipole moment (field-independent basis, Debye):
    X=             -0.1352    Y=             -3.8375    Z=             -1.7246  Tot=              4.2094
 Quadrupole moment (field-independent basis, Debye-Ang):
   XX=            -40.7998   YY=            -52.6431   ZZ=            -43.8770
   XY=              7.8400   XZ=              0.6316   YZ=             -1.5802
 Traceless Quadrupole moment (field-independent basis, Debye-Ang):
   XX=              4.9735   YY=             -6.8698   ZZ=              1.8963
   XY=              7.8400   XZ=              0.6316   YZ=             -1.5802
 Octapole moment (field-independent basis, Debye-Ang**2):
  XXX=             -3.9587  YYY=            -10.9652  ZZZ=              9.3466  XYY=             -4.7414
  XXY=            -20.1920  XXZ=             -7.4870  XZZ=             -4.7745  YZZ=             -6.6622
  YYZ=             -4.0751  XYZ=              0.6245
 Hexadecapole moment (field-independent basis, Debye-Ang**3):
 XXXX=           -703.8220 YYYY=           -403.5614 ZZZZ=           -169.9028 XXXY=             47.4908
 XXXZ=             13.3878 YYYX=             29.2966 YYYZ=             -7.7018 ZZZX=            -13.4408
 ZZZY=            -14.7206 XXYY=           -164.6656 XXZZ=           -137.9966 YYZZ=            -81.2385
 XXYZ=              9.9190 YYXZ=              8.3539 ZZXY=             17.0315
 N-N= 3.649613142144D+02 E-N=-1.714585017445D+03  KE= 4.188363424068D+02
  Exact polarizability:  86.419  -0.219  71.265   9.384   1.895  67.491
 Approx polarizability:  92.626   3.068  85.281   8.938   8.815  78.031
                          Isotropic Fermi Contact Couplings
        Atom                 a.u.       MegaHertz       Gauss      10(-4) cm-1
     1  C(13)              0.04390      49.34781      17.60853      16.46066
     2  H(1)              -0.00518     -23.16179      -8.26470      -7.72594
     3  C(13)              0.01890      21.25007       7.58255       7.08826
     4  C(13)              0.01029      11.56380       4.12625       3.85727
     5  O(17)             -0.00370       2.24088       0.79960       0.74748
     6  O(17)              0.00012      -0.07071      -0.02523      -0.02359
     7  C(13)             -0.00149      -1.67062      -0.59612      -0.55726
     8  C(13)              0.00084       0.94084       0.33571       0.31383
     9  H(1)               0.00023       1.02559       0.36596       0.34210
    10  H(1)               0.00018       0.79459       0.28353       0.26505
    11  H(1)               0.00003       0.15290       0.05456       0.05100
    12  H(1)               0.00016       0.71760       0.25606       0.23936
    13  H(1)              -0.00003      -0.13626      -0.04862      -0.04545
    14  O(17)              0.13729     -83.22423     -29.69648     -27.76062
    15  H(1)              -0.01368     -61.16293     -21.82446     -20.40176
 --------------------------------------------------------
       Center         ----  Spin Dipole Couplings  ----
                      3XX-RR        3YY-RR        3ZZ-RR
 --------------------------------------------------------
     1   Atom       -0.082713      0.035564      0.047149
     2   Atom        0.001315      0.005244     -0.006559
     3   Atom       -0.009716      0.025062     -0.015346
     4   Atom       -0.012411      0.020503     -0.008092
     5   Atom        0.006219      0.042981     -0.049200
     6   Atom        0.003609      0.007613     -0.011223
     7   Atom        0.000765     -0.001665      0.000899
     8   Atom        0.004306     -0.003013     -0.001293
     9   Atom       -0.000289     -0.006987      0.007276
    10   Atom        0.000431     -0.000793      0.000362
    11   Atom        0.002165     -0.000491     -0.001674
    12   Atom        0.012210     -0.005630     -0.006580
    13   Atom        0.003549     -0.002180     -0.001369
    14   Atom        0.166595     -1.056794      0.890199
    15   Atom        0.069428     -0.099210      0.029781
 --------------------------------------------------------
                        XY            XZ            YZ
 --------------------------------------------------------
     1   Atom       -0.152226      0.110652     -0.215567
     2   Atom        0.017054      0.020276      0.006788
     3   Atom        0.037226      0.032177      0.004932
     4   Atom        0.004373      0.002950     -0.010439
     5   Atom        0.007907     -0.037527     -0.006174
     6   Atom        0.015124     -0.010459     -0.005456
     7   Atom        0.002864     -0.004798     -0.004284
     8   Atom        0.004137     -0.004132     -0.002632
     9   Atom        0.003011     -0.008320     -0.004849
    10   Atom        0.001590     -0.001961     -0.001685
    11   Atom        0.002394     -0.000570     -0.000346
    12   Atom        0.006435     -0.000871     -0.000816
    13   Atom        0.000474     -0.002163     -0.000179
    14   Atom       -0.965381      2.110921     -1.147026
    15   Atom        0.015662     -0.094502     -0.040873
 --------------------------------------------------------


 ---------------------------------------------------------------------------------
              Anisotropic Spin Dipole Couplings in Principal Axis System
 ---------------------------------------------------------------------------------

       Atom             a.u.   MegaHertz   Gauss  10(-4) cm-1        Axes

              Baa    -0.1991   -26.718    -9.534    -8.912  0.5959  0.7176  0.3604
     1 C(13)  Bbb    -0.1399   -18.767    -6.697    -6.260  0.6940 -0.2343 -0.6808
              Bcc     0.3390    45.486    16.230    15.172 -0.4041  0.6558 -0.6377
 
              Baa    -0.0247   -13.158    -4.695    -4.389  0.6900 -0.2383 -0.6835
     2 H(1)   Bbb    -0.0058    -3.085    -1.101    -1.029 -0.2827  0.7805 -0.5576
              Bcc     0.0304    16.243     5.796     5.418  0.6664  0.5779  0.4712
 
              Baa    -0.0521    -6.987    -2.493    -2.331  0.7342 -0.3159 -0.6009
     3 C(13)  Bbb    -0.0038    -0.512    -0.183    -0.171  0.3522 -0.5795  0.7350
              Bcc     0.0559     7.499     2.676     2.502  0.5804  0.7513  0.3142
 
              Baa    -0.0163    -2.186    -0.780    -0.729  0.7535 -0.2608 -0.6035
     4 C(13)  Bbb    -0.0079    -1.062    -0.379    -0.354  0.6513  0.1713  0.7392
              Bcc     0.0242     3.247     1.159     1.083  0.0894  0.9501 -0.2990
 
              Baa    -0.0682     4.933     1.760     1.645  0.4488  0.0177  0.8934
     5 O(17)  Bbb     0.0208    -1.505    -0.537    -0.502  0.8203 -0.4049 -0.4040
              Bcc     0.0474    -3.428    -1.223    -1.143  0.3546  0.9142 -0.1962
 
              Baa    -0.0169     1.225     0.437     0.409  0.5294 -0.1403  0.8367
     6 O(17)  Bbb    -0.0074     0.535     0.191     0.178 -0.5371  0.7080  0.4586
              Bcc     0.0243    -1.760    -0.628    -0.587  0.6567  0.6922 -0.2995
 
              Baa    -0.0050    -0.670    -0.239    -0.223  0.2324  0.6868  0.6887
     7 C(13)  Bbb    -0.0032    -0.436    -0.155    -0.145  0.7671 -0.5647  0.3043
              Bcc     0.0082     1.105     0.394     0.369 -0.5979 -0.4576  0.6581
 
              Baa    -0.0052    -0.691    -0.247    -0.231 -0.2364  0.9018  0.3617
     8 C(13)  Bbb    -0.0034    -0.458    -0.163    -0.153  0.5399 -0.1875  0.8205
              Bcc     0.0086     1.149     0.410     0.383  0.8078  0.3893 -0.4426
 
              Baa    -0.0085    -4.551    -1.624    -1.518 -0.1146  0.9650  0.2358
     9 H(1)   Bbb    -0.0056    -3.011    -1.074    -1.004  0.8454 -0.0299  0.5333
              Bcc     0.0142     7.562     2.698     2.522 -0.5217 -0.2604  0.8124
 
              Baa    -0.0020    -1.084    -0.387    -0.361 -0.2132  0.8724  0.4398
    10 H(1)   Bbb    -0.0016    -0.828    -0.295    -0.276  0.7511 -0.1416  0.6449
              Bcc     0.0036     1.912     0.682     0.638 -0.6249 -0.4678  0.6251
 
              Baa    -0.0019    -1.014    -0.362    -0.338 -0.5006  0.8638  0.0571
    11 H(1)   Bbb    -0.0018    -0.938    -0.335    -0.313  0.1360  0.0133  0.9906
              Bcc     0.0037     1.952     0.696     0.651  0.8550  0.5036 -0.1241
 
              Baa    -0.0079    -4.221    -1.506    -1.408 -0.2685  0.8896  0.3695
    12 H(1)   Bbb    -0.0064    -3.432    -1.225    -1.145  0.1597 -0.3371  0.9278
              Bcc     0.0143     7.653     2.731     2.553  0.9499  0.3081 -0.0516
 
              Baa    -0.0022    -1.184    -0.422    -0.395 -0.0706  0.9970  0.0302
    13 H(1)   Bbb    -0.0022    -1.166    -0.416    -0.389  0.3532 -0.0033  0.9355
              Bcc     0.0044     2.350     0.838     0.784  0.9329  0.0768 -0.3519
 
              Baa    -1.6134   116.742    41.656    38.941  0.7541 -0.0426 -0.6554
    14 O(17)  Bbb    -1.5850   114.686    40.923    38.255  0.2485  0.9422  0.2247
              Bcc     3.1983  -231.428   -82.579   -77.196  0.6079 -0.3323  0.7211
 
              Baa    -0.1121   -59.817   -21.344   -19.953  0.0915  0.9390  0.3314
    15 H(1)   Bbb    -0.0398   -21.254    -7.584    -7.090  0.6471 -0.3091  0.6969
              Bcc     0.1519    81.071    28.928    27.042  0.7569  0.1507 -0.6359
 

 ---------------------------------------------------------------------------------

 Calling FoFJK, ICntrl=    100127 FMM=F ISym2X=0 I1Cent= 0 IOpClX= 1 NMat=1 NMatS=1 NMatT=0.
 Full mass-weighted force constant matrix:
 Low frequencies --- -374.3398  -38.9875  -26.7712  -14.0965   -0.0001    0.0003
 Low frequencies ---    0.0010   71.0649   88.0826
 ******    1 imaginary frequencies (negative Signs) ****** 
 Diagonal vibrational polarizability:
       21.3080193      64.3571271      44.5046089
 Harmonic frequencies (cm**-1), IR intensities (KM/Mole), Raman scattering
 activities (A**4/AMU), depolarization ratios for plane and unpolarized
 incident light, reduced masses (AMU), force constants (mDyne/A),
 and normal coordinates:
                      1                      2                      3
                      A                      A                      A
 Frequencies --   -374.3391                69.0224                87.9655
 Red. masses --     11.8098                 7.0425                 5.1808
 Frc consts  --      0.9750                 0.0198                 0.0236
 IR Inten    --     48.4806                 4.4894                 1.0349
  Atom  AN      X      Y      Z        X      Y      Z        X      Y      Z
     1   6     0.01   0.06   0.02     0.15  -0.05  -0.25     0.04  -0.02  -0.05
     2   1    -0.07   0.24  -0.17     0.22  -0.05  -0.36     0.07  -0.03  -0.09
     3   6     0.28  -0.43   0.54     0.05  -0.04  -0.11    -0.00  -0.01  -0.01
     4   6     0.04  -0.06   0.08     0.03  -0.08   0.04    -0.04   0.01   0.02
     5   8    -0.03  -0.03  -0.07     0.05  -0.19   0.24    -0.12   0.08  -0.19
     6   8     0.00   0.01  -0.03    -0.00   0.00  -0.08     0.03  -0.10   0.35
     7   6     0.03   0.01  -0.01    -0.01   0.01  -0.10    -0.04   0.03   0.04
     8   6    -0.00  -0.00   0.01     0.02   0.01  -0.12     0.16  -0.09  -0.24
     9   1     0.05   0.00  -0.03    -0.01  -0.00  -0.07    -0.04   0.03   0.04
    10   1     0.04   0.03   0.01    -0.04  -0.01  -0.11    -0.23   0.17   0.01
    11   1    -0.00  -0.01   0.04     0.02   0.01  -0.13     0.15  -0.10  -0.18
    12   1    -0.04  -0.02  -0.01     0.04   0.01  -0.11     0.35  -0.29  -0.24
    13   1     0.01   0.00   0.01     0.01   0.01  -0.13     0.13   0.05  -0.50
    14   8    -0.23   0.31  -0.37    -0.21   0.27   0.29    -0.02   0.09   0.07
    15   1    -0.00   0.04  -0.15    -0.32   0.42   0.19    -0.05  -0.01   0.01
                      4                      5                      6
                      A                      A                      A
 Frequencies --    111.1588               144.4443               176.7620
 Red. masses --      2.6285                 6.5638                 2.3103
 Frc consts  --      0.0191                 0.0807                 0.0425
 IR Inten    --      0.7245                10.8546                13.1070
  Atom  AN      X      Y      Z        X      Y      Z        X      Y      Z
     1   6    -0.10   0.07  -0.02    -0.20   0.08  -0.10     0.19  -0.03  -0.11
     2   1    -0.16   0.13  -0.04    -0.29   0.18  -0.13     0.34  -0.08  -0.28
     3   6    -0.04   0.00  -0.01    -0.11  -0.00  -0.11    -0.02   0.03   0.10
     4   6     0.01  -0.03   0.00    -0.05  -0.07  -0.00    -0.03   0.06   0.06
     5   8     0.04  -0.01   0.01    -0.01  -0.09   0.07     0.02   0.11   0.02
     6   8     0.01  -0.07  -0.00    -0.04  -0.12   0.03    -0.04  -0.01  -0.02
     7   6     0.01  -0.10   0.06    -0.03  -0.14   0.08    -0.12  -0.10   0.03
     8   6     0.18   0.22  -0.02     0.01  -0.03   0.09    -0.04   0.00  -0.02
     9   1     0.05  -0.21   0.33    -0.00  -0.17   0.15    -0.15  -0.12   0.20
    10   1    -0.17  -0.25  -0.09    -0.05  -0.19   0.05    -0.20  -0.22  -0.06
    11   1     0.12   0.34  -0.27     0.03  -0.00  -0.05     0.14  -0.03  -0.34
    12   1     0.34   0.36   0.12     0.05   0.10   0.16     0.01   0.32   0.15
    13   1     0.21   0.19   0.06    -0.02  -0.09   0.16    -0.24  -0.24   0.10
    14   8    -0.11  -0.07  -0.02     0.34   0.36  -0.07     0.05  -0.03  -0.01
    15   1    -0.11   0.01  -0.01     0.32  -0.35  -0.27     0.01  -0.34  -0.13
                      7                      8                      9
                      A                      A                      A
 Frequencies --    209.9062               225.9849               258.9428
 Red. masses --      1.7187                 1.3504                 1.7808
 Frc consts  --      0.0446                 0.0406                 0.0704
 IR Inten    --     31.8107                 1.0240                35.9194
  Atom  AN      X      Y      Z        X      Y      Z        X      Y      Z
     1   6     0.05  -0.10   0.06    -0.05   0.04   0.02    -0.02   0.13  -0.12
     2   1     0.12  -0.24   0.18    -0.13   0.10   0.05    -0.07   0.25  -0.26
     3   6    -0.02   0.05  -0.07     0.06  -0.03  -0.03     0.03  -0.05   0.08
     4   6    -0.01   0.02  -0.01     0.02  -0.01  -0.01    -0.01  -0.02   0.02
     5   8     0.01   0.00   0.05    -0.05  -0.06  -0.02    -0.04  -0.00  -0.04
     6   8     0.00  -0.01   0.04     0.03   0.05   0.03    -0.02   0.00  -0.02
     7   6    -0.02  -0.03   0.03     0.02   0.06   0.00    -0.03  -0.02   0.00
     8   6     0.01  -0.01   0.01     0.00  -0.02  -0.02    -0.03  -0.01   0.00
     9   1    -0.03  -0.04   0.08    -0.00   0.08  -0.01    -0.04  -0.02   0.02
    10   1    -0.06  -0.06   0.01     0.02   0.06   0.00    -0.03  -0.04  -0.01
    11   1     0.11  -0.04  -0.13     0.39  -0.19  -0.38    -0.07   0.02   0.04
    12   1     0.03   0.13   0.08    -0.05   0.45   0.17    -0.01  -0.07  -0.02
    13   1    -0.09  -0.12   0.05    -0.37  -0.44   0.16     0.02   0.05  -0.03
    14   8    -0.02   0.04  -0.14    -0.00  -0.02   0.03     0.09  -0.08   0.05
    15   1     0.17   0.79   0.29    -0.03  -0.01  -0.00     0.28   0.69   0.48
                     10                     11                     12
                      A                      A                      A
 Frequencies --    352.5868               400.1875               546.8063
 Red. masses --      2.9063                 3.3604                 5.8053
 Frc consts  --      0.2129                 0.3171                 1.0227
 IR Inten    --      0.4323                 7.6237                19.2664
  Atom  AN      X      Y      Z        X      Y      Z        X      Y      Z
     1   6     0.04   0.06   0.07    -0.02  -0.02  -0.03    -0.15  -0.19  -0.11
     2   1    -0.07   0.09   0.19     0.08  -0.06  -0.11    -0.30  -0.05  -0.14
     3   6     0.18   0.01  -0.10    -0.13   0.03   0.07    -0.05  -0.25  -0.08
     4   6     0.05   0.06  -0.03    -0.09   0.03   0.01     0.02  -0.06  -0.05
     5   8    -0.12  -0.09   0.01    -0.07   0.02   0.04     0.32   0.10  -0.02
     6   8     0.04   0.15  -0.04    -0.09   0.09  -0.17     0.00   0.17   0.04
     7   6    -0.14  -0.10   0.12     0.13   0.04   0.13    -0.15   0.17   0.19
     8   6    -0.00  -0.05  -0.02     0.23  -0.15   0.01    -0.05   0.02  -0.02
     9   1    -0.26  -0.09   0.45     0.17   0.02   0.09    -0.22   0.17   0.36
    10   1    -0.26  -0.40  -0.06     0.20   0.00   0.15    -0.21  -0.06   0.07
    11   1    -0.13   0.01   0.06     0.45  -0.31   0.02     0.09  -0.09   0.02
    12   1     0.19  -0.31  -0.05     0.41  -0.30   0.03     0.13  -0.16  -0.00
    13   1     0.09   0.16  -0.25     0.00  -0.15  -0.31    -0.22   0.06  -0.33
    14   8     0.01  -0.00  -0.01    -0.01  -0.00  -0.01     0.01  -0.01   0.01
    15   1    -0.08  -0.08  -0.15     0.03  -0.01   0.05     0.10  -0.06   0.12
                     13                     14                     15
                      A                      A                      A
 Frequencies --    621.1155               697.0820               698.7517
 Red. masses --      4.5810                 1.2946                 1.2288
 Frc consts  --      1.0413                 0.3706                 0.3535
 IR Inten    --     14.7287                66.9061                11.7271
  Atom  AN      X      Y      Z        X      Y      Z        X      Y      Z
     1   6     0.02   0.02   0.03    -0.05   0.08  -0.04    -0.08   0.08  -0.01
     2   1    -0.33   0.23   0.22     0.30  -0.44   0.29     0.55  -0.54   0.06
     3   6     0.30  -0.13  -0.17     0.06  -0.03  -0.02     0.01  -0.02   0.02
     4   6    -0.16   0.07   0.02    -0.03   0.04  -0.06     0.01  -0.03   0.02
     5   8     0.03   0.19   0.09     0.00   0.01   0.03     0.02  -0.01  -0.02
     6   8    -0.21  -0.15  -0.04    -0.01  -0.02   0.01    -0.01   0.00  -0.00
     7   6     0.00  -0.01   0.02     0.00  -0.00  -0.00    -0.01   0.02   0.02
     8   6     0.04  -0.01   0.02     0.01  -0.00   0.00    -0.01   0.00  -0.00
     9   1     0.19  -0.09  -0.24     0.02  -0.02  -0.01    -0.01   0.01   0.01
    10   1     0.09   0.21   0.15     0.01   0.01   0.01    -0.01   0.01   0.02
    11   1     0.10  -0.04  -0.05     0.01  -0.00   0.00     0.01  -0.00  -0.01
    12   1     0.12  -0.03   0.05     0.00   0.00   0.00     0.02  -0.01   0.01
    13   1    -0.04  -0.02  -0.08     0.00  -0.01   0.00    -0.03   0.01  -0.04
    14   8     0.03  -0.03   0.03    -0.03   0.00   0.00     0.04  -0.01   0.01
    15   1    -0.31   0.25  -0.36     0.43  -0.40   0.52    -0.35   0.29  -0.42
                     16                     17                     18
                      A                      A                      A
 Frequencies --    741.5474               745.5413               761.7076
 Red. masses --      4.9429                 1.3503                 5.4277
 Frc consts  --      1.6014                 0.4422                 1.8554
 IR Inten    --     49.1996                32.4507                17.5502
  Atom  AN      X      Y      Z        X      Y      Z        X      Y      Z
     1   6     0.07   0.08   0.10     0.08   0.03  -0.12    -0.14  -0.10  -0.11
     2   1     0.21   0.07  -0.09    -0.41  -0.10   0.87    -0.13  -0.34   0.25
     3   6     0.06   0.15  -0.13    -0.04   0.03   0.06    -0.01  -0.13  -0.14
     4   6     0.09  -0.27   0.32     0.02  -0.03   0.02     0.06   0.01   0.41
     5   8     0.06  -0.03  -0.16     0.01  -0.02  -0.02    -0.12   0.18  -0.01
     6   8    -0.11  -0.06  -0.10    -0.01  -0.01  -0.01     0.10   0.14  -0.03
     7   6    -0.08   0.08   0.11    -0.01   0.01   0.02     0.09  -0.11  -0.14
     8   6    -0.05   0.03  -0.00    -0.01   0.01   0.00     0.06  -0.04  -0.01
     9   1     0.02   0.06  -0.14    -0.01   0.02  -0.01    -0.04  -0.06   0.06
    10   1     0.07   0.18   0.22     0.01   0.02   0.03    -0.07  -0.19  -0.24
    11   1     0.07  -0.01  -0.12     0.01  -0.00  -0.02    -0.13   0.06   0.09
    12   1     0.22  -0.07   0.08     0.03  -0.01   0.01    -0.23   0.11  -0.08
    13   1    -0.19   0.08  -0.28    -0.03   0.01  -0.05     0.27  -0.09   0.37
    14   8    -0.05   0.04  -0.04     0.01  -0.00   0.00    -0.00   0.00  -0.00
    15   1     0.31  -0.25   0.38    -0.08   0.06  -0.10     0.06  -0.00   0.08
                     19                     20                     21
                      A                      A                      A
 Frequencies --    817.2516               962.6936              1095.5530
 Red. masses --      1.1558                 2.1894                 4.0493
 Frc consts  --      0.4548                 1.1955                 2.8635
 IR Inten    --      7.8637                16.9857                57.7732
  Atom  AN      X      Y      Z        X      Y      Z        X      Y      Z
     1   6     0.02   0.02   0.01     0.04   0.04   0.02     0.04   0.04   0.03
     2   1     0.01   0.02   0.03     0.03   0.05   0.03     0.03   0.05   0.04
     3   6     0.01   0.02  -0.00     0.02   0.03   0.00     0.01   0.03  -0.00
     4   6    -0.02  -0.03   0.01    -0.07  -0.09  -0.03    -0.16  -0.14  -0.03
     5   8     0.01  -0.00  -0.01     0.07  -0.03  -0.03     0.07  -0.00  -0.02
     6   8    -0.03  -0.03  -0.00    -0.10   0.09   0.03    -0.09   0.17   0.09
     7   6     0.04   0.06  -0.02    -0.09   0.02  -0.07     0.27  -0.16   0.09
     8   6     0.02   0.03  -0.01     0.16  -0.12   0.03    -0.13  -0.01  -0.17
     9   1     0.13  -0.15   0.47    -0.23   0.14  -0.09     0.30  -0.21   0.22
    10   1    -0.35  -0.16  -0.28    -0.26   0.12  -0.11     0.34  -0.23   0.10
    11   1     0.21  -0.22   0.40    -0.17   0.11   0.07    -0.37   0.18  -0.28
    12   1    -0.38  -0.08  -0.25    -0.05   0.18   0.08    -0.27   0.16  -0.17
    13   1    -0.14  -0.14   0.04     0.53  -0.13   0.58     0.01   0.03  -0.02
    14   8     0.00   0.00  -0.00    -0.00   0.00  -0.00    -0.00   0.00  -0.00
    15   1     0.00   0.00  -0.00    -0.00  -0.00  -0.01    -0.01  -0.00  -0.01
                     22                     23                     24
                      A                      A                      A
 Frequencies --   1139.9385              1178.6700              1282.1679
 Red. masses --      2.3990                 1.7967                 2.5367
 Frc consts  --      1.8367                 1.4706                 2.4571
 IR Inten    --     33.9940                47.8962               344.6342
  Atom  AN      X      Y      Z        X      Y      Z        X      Y      Z
     1   6    -0.01  -0.02  -0.01     0.01   0.01   0.01    -0.03  -0.03  -0.02
     2   1    -0.02  -0.02  -0.01     0.00   0.02   0.02    -0.02  -0.04  -0.04
     3   6    -0.00  -0.01   0.00     0.01   0.00  -0.00    -0.01   0.00   0.01
     4   6     0.05   0.06   0.00    -0.08  -0.04   0.01     0.23   0.12  -0.00
     5   8    -0.04   0.00   0.01    -0.02   0.02   0.01     0.01  -0.04  -0.02
     6   8     0.04  -0.10  -0.09     0.05  -0.07  -0.02    -0.17   0.01   0.03
     7   6    -0.00   0.09   0.23     0.07   0.17  -0.04     0.11   0.00  -0.03
     8   6     0.01  -0.06  -0.17    -0.07  -0.10   0.04    -0.06  -0.08   0.04
     9   1     0.01   0.12   0.09    -0.12   0.19   0.42     0.24  -0.18   0.31
    10   1    -0.05   0.19   0.25     0.06  -0.43  -0.32    -0.52   0.40  -0.12
    11   1    -0.40   0.18   0.01    -0.20   0.12  -0.34    -0.16   0.10  -0.34
    12   1    -0.43   0.32  -0.20     0.30   0.08   0.28     0.15   0.03   0.18
    13   1     0.28  -0.12   0.37     0.18   0.18  -0.06     0.11   0.14  -0.09
    14   8     0.00  -0.00   0.00    -0.00   0.00  -0.00     0.00  -0.00   0.00
    15   1     0.00  -0.00  -0.00    -0.00   0.00  -0.00     0.01  -0.01   0.01
                     25                     26                     27
                      A                      A                      A
 Frequencies --   1361.4414              1403.2822              1434.8764
 Red. masses --      1.4123                 1.2583                 1.3625
 Frc consts  --      1.5423                 1.4599                 1.6528
 IR Inten    --    149.3335                26.3488                15.3759
  Atom  AN      X      Y      Z        X      Y      Z        X      Y      Z
     1   6     0.01   0.01   0.01    -0.01  -0.01  -0.00    -0.01  -0.01  -0.00
     2   1     0.01   0.01   0.01    -0.01  -0.01  -0.01    -0.01  -0.01  -0.01
     3   6    -0.00   0.00  -0.00    -0.00  -0.00   0.00    -0.00   0.00   0.00
     4   6    -0.10  -0.05  -0.00     0.04   0.03   0.00     0.03   0.02   0.01
     5   8    -0.00   0.02   0.01     0.00  -0.01  -0.01     0.00  -0.01  -0.01
     6   8     0.11   0.02  -0.03    -0.03   0.00   0.02    -0.02   0.01   0.02
     7   6    -0.05   0.01   0.01    -0.04   0.03  -0.02    -0.11   0.05  -0.05
     8   6    -0.04  -0.03   0.01    -0.08   0.02  -0.09     0.09  -0.05   0.03
     9   1     0.58  -0.47  -0.02     0.22  -0.21   0.15     0.38  -0.38   0.18
    10   1    -0.41   0.43   0.03     0.38  -0.15   0.10     0.50  -0.19   0.11
    11   1    -0.04  -0.01  -0.05     0.21  -0.28   0.28    -0.27   0.22  -0.04
    12   1     0.17   0.00   0.13     0.42  -0.03   0.14    -0.28   0.19  -0.03
    13   1     0.05   0.04   0.03     0.29  -0.01   0.45    -0.14  -0.05  -0.28
    14   8    -0.00   0.00  -0.00    -0.00  -0.00   0.00     0.00  -0.00   0.00
    15   1    -0.00   0.00  -0.00     0.00   0.00   0.00     0.00   0.00   0.00
                     28                     29                     30
                      A                      A                      A
 Frequencies --   1488.4898              1502.9420              1528.0525
 Red. masses --      1.0378                 1.0480                 1.1009
 Frc consts  --      1.3548                 1.3948                 1.5145
 IR Inten    --      5.6159                 4.7624                 5.3872
  Atom  AN      X      Y      Z        X      Y      Z        X      Y      Z
     1   6     0.00   0.00   0.00    -0.00  -0.00  -0.00     0.00   0.01   0.00
     2   1    -0.00   0.00   0.00    -0.00  -0.00  -0.00     0.00   0.01   0.01
     3   6     0.00   0.00  -0.00    -0.00  -0.00   0.00     0.00  -0.00  -0.00
     4   6    -0.00  -0.00   0.00     0.01   0.01  -0.00    -0.02  -0.02  -0.00
     5   8     0.00  -0.00  -0.00     0.00  -0.00  -0.00    -0.00   0.01   0.00
     6   8     0.00   0.00  -0.00    -0.01   0.00   0.01     0.02  -0.01  -0.01
     7   6    -0.02  -0.01   0.01     0.02  -0.01   0.02     0.01  -0.04  -0.06
     8   6    -0.03  -0.03   0.02     0.00  -0.03  -0.04     0.00  -0.01  -0.01
     9   1    -0.00  -0.02  -0.04     0.03   0.05  -0.26    -0.34   0.06   0.58
    10   1     0.04  -0.01   0.04    -0.17  -0.15  -0.14     0.19   0.54   0.29
    11   1     0.43  -0.29  -0.14    -0.17  -0.07   0.56    -0.04  -0.03   0.22
    12   1    -0.38   0.30  -0.02     0.17   0.53   0.31     0.06   0.19   0.11
    13   1     0.43   0.50  -0.21    -0.11   0.05  -0.30    -0.06   0.02  -0.13
    14   8     0.00  -0.00   0.00    -0.00  -0.00  -0.00     0.00   0.00  -0.00
    15   1    -0.00  -0.00  -0.00     0.00   0.00   0.00    -0.00   0.00  -0.00
                     31                     32                     33
                      A                      A                      A
 Frequencies --   1863.1184              2152.0101              3075.5866
 Red. masses --     12.9316                 6.0763                 1.0354
 Frc consts  --     26.4474                16.5798                 5.7706
 IR Inten    --    532.6748                88.6241                11.9527
  Atom  AN      X      Y      Z        X      Y      Z        X      Y      Z
     1   6    -0.03  -0.03  -0.02    -0.26  -0.26  -0.16     0.00   0.00   0.00
     2   1    -0.06  -0.03  -0.01    -0.47  -0.47  -0.31    -0.00  -0.00  -0.00
     3   6     0.03   0.02   0.00     0.33   0.38   0.19    -0.00  -0.00  -0.00
     4   6    -0.44   0.59   0.36    -0.04  -0.08  -0.02     0.00   0.00  -0.00
     5   8     0.27  -0.41  -0.24    -0.00   0.00   0.00    -0.00   0.00   0.00
     6   8     0.04  -0.03  -0.02     0.00  -0.00  -0.00    -0.00  -0.00   0.00
     7   6     0.03  -0.01  -0.01    -0.00  -0.00  -0.00     0.00   0.00   0.00
     8   6    -0.01   0.00   0.00    -0.00   0.00  -0.00    -0.04   0.01  -0.02
     9   1    -0.08   0.04   0.05    -0.02   0.01   0.00    -0.01  -0.02  -0.01
    10   1    -0.02   0.08  -0.00    -0.00   0.00   0.00    -0.00   0.00  -0.00
    11   1     0.00  -0.00   0.01     0.00  -0.00   0.00     0.32   0.46   0.13
    12   1     0.02   0.00   0.01     0.00   0.00   0.00    -0.21  -0.19   0.42
    13   1    -0.02   0.00  -0.02    -0.00  -0.00   0.00     0.37  -0.45  -0.27
    14   8     0.00  -0.01   0.00     0.01  -0.01   0.01     0.00   0.00  -0.00
    15   1     0.01   0.02   0.01     0.00  -0.01  -0.00    -0.00   0.00   0.00
                     34                     35                     36
                      A                      A                      A
 Frequencies --   3097.3996              3145.5088              3154.5443
 Red. masses --      1.0606                 1.1050                 1.1011
 Frc consts  --      5.9951                 6.4419                 6.4560
 IR Inten    --     20.3945                 4.5263                12.0276
  Atom  AN      X      Y      Z        X      Y      Z        X      Y      Z
     1   6    -0.00   0.00   0.00    -0.00   0.00   0.00    -0.00   0.00   0.00
     2   1    -0.00   0.00   0.00    -0.00  -0.00  -0.00    -0.00   0.00   0.00
     3   6    -0.00   0.00  -0.00    -0.00  -0.00  -0.00    -0.00   0.00  -0.00
     4   6    -0.00   0.00   0.00     0.00  -0.00   0.00    -0.00   0.00   0.00
     5   8     0.00  -0.00  -0.00     0.00  -0.00  -0.00     0.00  -0.00  -0.00
     6   8     0.00  -0.00  -0.00     0.00  -0.00  -0.00    -0.00   0.00   0.00
     7   6    -0.00  -0.01  -0.07    -0.04  -0.05   0.02    -0.03  -0.04   0.00
     8   6    -0.01   0.00   0.01     0.01   0.06   0.01     0.03  -0.05  -0.06
     9   1     0.33   0.43   0.10     0.35   0.46   0.12     0.29   0.37   0.10
    10   1    -0.32  -0.32   0.69     0.16   0.16  -0.36     0.07   0.07  -0.16
    11   1    -0.01  -0.01   0.00    -0.31  -0.43  -0.12     0.21   0.28   0.07
    12   1     0.03   0.03  -0.06    -0.07  -0.05   0.14    -0.18  -0.18   0.36
    13   1     0.05  -0.07  -0.04     0.23  -0.26  -0.16    -0.38   0.44   0.26
    14   8    -0.00  -0.00   0.00    -0.00  -0.00   0.00     0.00  -0.00   0.00
    15   1     0.00  -0.00  -0.00     0.00   0.00  -0.00     0.00   0.00  -0.00
                     37                     38                     39
                      A                      A                      A
 Frequencies --   3171.6570              3474.4990              3810.8237
 Red. masses --      1.1056                 1.1561                 1.0675
 Frc consts  --      6.5527                 8.2229                 9.1339
 IR Inten    --     15.3067                70.3872                50.4591
  Atom  AN      X      Y      Z        X      Y      Z        X      Y      Z
     1   6     0.00  -0.00  -0.00    -0.07  -0.07  -0.04     0.00   0.00   0.00
     2   1     0.00  -0.00  -0.00     0.62   0.67   0.39    -0.00  -0.00  -0.00
     3   6     0.00   0.00   0.00     0.02   0.02   0.01    -0.00   0.00  -0.00
     4   6     0.00   0.00  -0.00    -0.00  -0.00  -0.00    -0.00  -0.00  -0.00
     5   8    -0.00   0.00   0.00     0.00   0.00  -0.00     0.00   0.00   0.00
     6   8    -0.00  -0.00   0.00     0.00  -0.00  -0.00     0.00   0.00  -0.00
     7   6     0.03   0.03  -0.02    -0.00   0.00   0.00     0.00   0.00   0.00
     8   6     0.05   0.05  -0.04     0.00   0.00  -0.00     0.00   0.00  -0.00
     9   1    -0.21  -0.26  -0.07    -0.00   0.00   0.00    -0.00  -0.00  -0.00
    10   1    -0.11  -0.11   0.25     0.00   0.00  -0.00    -0.00  -0.00   0.00
    11   1    -0.27  -0.39  -0.12    -0.00  -0.00   0.00    -0.00  -0.00   0.00
    12   1    -0.29  -0.27   0.61    -0.00  -0.00   0.00    -0.00  -0.00   0.00
    13   1    -0.07   0.10   0.05     0.00  -0.00  -0.00    -0.00  -0.00   0.00
    14   8     0.00   0.00  -0.00     0.00  -0.00   0.00    -0.05  -0.01   0.04
    15   1    -0.00   0.00   0.00     0.00   0.00  -0.00     0.79   0.14  -0.60

 -------------------
 - Thermochemistry -
 -------------------
 Temperature   298.150 Kelvin.  Pressure   1.00000 Atm.
 Atom     1 has atomic number  6 and mass  12.00000
 Atom     2 has atomic number  1 and mass   1.00783
 Atom     3 has atomic number  6 and mass  12.00000
 Atom     4 has atomic number  6 and mass  12.00000
 Atom     5 has atomic number  8 and mass  15.99491
 Atom     6 has atomic number  8 and mass  15.99491
 Atom     7 has atomic number  6 and mass  12.00000
 Atom     8 has atomic number  6 and mass  12.00000
 Atom     9 has atomic number  1 and mass   1.00783
 Atom    10 has atomic number  1 and mass   1.00783
 Atom    11 has atomic number  1 and mass   1.00783
 Atom    12 has atomic number  1 and mass   1.00783
 Atom    13 has atomic number  1 and mass   1.00783
 Atom    14 has atomic number  8 and mass  15.99491
 Atom    15 has atomic number  1 and mass   1.00783
 Molecular mass:   115.03952 amu.
 Principal axes and moments of inertia in atomic units:
                           1         2         3
     Eigenvalues --   691.649331082.850031407.24408
           X            0.99979   0.02021   0.00233
           Y           -0.02020   0.99978  -0.00520
           Z           -0.00243   0.00515   0.99998
 This molecule is an asymmetric top.
 Rotational symmetry number  1.
 Warning -- assumption of classical behavior for rotation
           may cause significant error
 Rotational temperatures (Kelvin)      0.12523     0.07999     0.06155
 Rotational constants (GHZ):           2.60933     1.66666     1.28246
    1 imaginary frequencies ignored.
 Zero-point vibrational energy     293025.4 (Joules/Mol)
                                   70.03475 (Kcal/Mol)
 Warning -- explicit consideration of  11 degrees of freedom as
           vibrations may cause significant error
 Vibrational temperatures:     99.31   126.56   159.93   207.82   254.32
          (Kelvin)            302.01   325.14   372.56   507.29   575.78
                              786.73   893.65  1002.95  1005.35  1066.92
                             1072.67  1095.93  1175.84  1385.10  1576.26
                             1640.12  1695.84  1844.75  1958.81  2019.01
                             2064.47  2141.60  2162.40  2198.53  2680.61
                             3096.26  4425.08  4456.47  4525.69  4538.69
                             4563.31  4999.03  5482.93
 
 Zero-point correction=                           0.111607 (Hartree/Particle)
 Thermal correction to Energy=                    0.121248
 Thermal correction to Enthalpy=                  0.122192
 Thermal correction to Gibbs Free Energy=         0.076168
 Sum of electronic and zero-point Energies=           -420.085708
 Sum of electronic and thermal Energies=              -420.076067
 Sum of electronic and thermal Enthalpies=            -420.075123
 Sum of electronic and thermal Free Energies=         -420.121147
 
                     E (Thermal)             CV                S
                      KCal/Mol        Cal/Mol-Kelvin    Cal/Mol-Kelvin
 Total                   76.084             32.552             96.866
 Electronic               0.000              0.000              1.377
 Translational            0.889              2.981             40.136
 Rotational               0.889              2.981             28.446
 Vibrational             74.307             26.590             26.907
 Vibration     1          0.598              1.969              4.181
 Vibration     2          0.601              1.958              3.705
 Vibration     3          0.607              1.940              3.249
 Vibration     4          0.616              1.909              2.744
 Vibration     5          0.628              1.871              2.362
 Vibration     6          0.642              1.826              2.044
 Vibration     7          0.650              1.801              1.911
 Vibration     8          0.668              1.748              1.669
 Vibration     9          0.729              1.570              1.155
 Vibration    10          0.766              1.470              0.962
 Vibration    11          0.902              1.147              0.551
                       Q            Log10(Q)             Ln(Q)
 Total Bot       0.923125D-35        -35.034740        -80.670469
 Total V=0       0.200028D+17         16.301090         37.534647
 Vib (Bot)       0.258969D-48        -48.586752       -111.875130
 Vib (Bot)    1  0.298845D+01          0.475445          1.094753
 Vib (Bot)    2  0.233815D+01          0.368873          0.849362
 Vib (Bot)    3  0.184206D+01          0.265303          0.610883
 Vib (Bot)    4  0.140600D+01          0.147984          0.340746
 Vib (Bot)    5  0.113754D+01          0.055965          0.128864
 Vib (Bot)    6  0.946249D+00         -0.023995         -0.055250
 Vib (Bot)    7  0.873074D+00         -0.058949         -0.135735
 Vib (Bot)    8  0.750483D+00         -0.124659         -0.287038
 Vib (Bot)    9  0.522393D+00         -0.282003         -0.649336
 Vib (Bot)   10  0.445320D+00         -0.351327         -0.808961
 Vib (Bot)   11  0.287877D+00         -0.540793         -1.245222
 Vib (V=0)       0.561149D+03          2.749078          6.329987
 Vib (V=0)    1  0.352998D+01          0.547773          1.261294
 Vib (V=0)    2  0.289102D+01          0.461051          1.061609
 Vib (V=0)    3  0.240871D+01          0.381785          0.879091
 Vib (V=0)    4  0.199225D+01          0.299345          0.689267
 Vib (V=0)    5  0.174257D+01          0.241191          0.555363
 Vib (V=0)    6  0.157023D+01          0.195963          0.451221
 Vib (V=0)    7  0.150611D+01          0.177857          0.409530
 Vib (V=0)    8  0.140179D+01          0.146683          0.337750
 Vib (V=0)    9  0.122311D+01          0.087467          0.201400
 Vib (V=0)   10  0.116956D+01          0.068022          0.156627
 Vib (V=0)   11  0.107695D+01          0.032196          0.074134
 Electronic      0.200000D+01          0.301030          0.693147
 Translational   0.484981D+08          7.685724         17.697035
 Rotational      0.367500D+06          5.565257         12.814479
 ***** Axes restored to original set *****
 -------------------------------------------------------------------
 Center     Atomic                   Forces (Hartrees/Bohr)
 Number     Number              X              Y              Z
 -------------------------------------------------------------------
      1        6          -0.000324683   -0.000793999   -0.000239063
      2        1           0.000124977   -0.000156264    0.000141007
      3        6          -0.002496204    0.004318771   -0.005104401
      4        6          -0.000562673    0.000473709   -0.000723130
      5        8           0.000411705    0.000399383    0.000817872
      6        8           0.000092133   -0.000154302    0.000410222
      7        6          -0.000233473   -0.000093673   -0.000220119
      8        6           0.000122560    0.000020698    0.000103820
      9        1          -0.000045203    0.000065742    0.000117658
     10        1          -0.000030793   -0.000058414    0.000101112
     11        1          -0.000027619   -0.000053647   -0.000100579
     12        1          -0.000031317    0.000025588   -0.000053714
     13        1          -0.000040940    0.000002773   -0.000002598
     14        8           0.002975694   -0.003953699    0.004667995
     15        1           0.000065835   -0.000042666    0.000083915
 -------------------------------------------------------------------
 Cartesian Forces:  Max     0.005104401 RMS     0.001494699

 GradGradGradGradGradGradGradGradGradGradGradGradGradGradGradGradGradGrad
 Berny optimization.
 Search for a local minimum.
 Step number   1 out of a maximum of    2
 All quantities printed in internal units (Hartrees-Bohrs-Radians)
 Second derivative matrix not updated -- analytic derivatives used.
 ITU=  0
     Eigenvalues ---   -0.06934   0.00103   0.00118   0.00175   0.00234
     Eigenvalues ---    0.00344   0.00562   0.00662   0.01093   0.02048
     Eigenvalues ---    0.02507   0.03036   0.03471   0.05607   0.06654
     Eigenvalues ---    0.07489   0.07846   0.08400   0.09149   0.10285
     Eigenvalues ---    0.11547   0.13920   0.16398   0.17933   0.22958
     Eigenvalues ---    0.24559   0.26414   0.36017   0.50420   0.61959
     Eigenvalues ---    0.70690   0.76860   0.78412   0.86405   0.89967
     Eigenvalues ---    0.94623   1.00931   1.77306   2.49069
 Eigenvalue     1 is  -6.93D-02 should be greater than     0.000000 Eigenvector:
                          Z3        Z14       Y3        Y14       X14
   1                    0.54466  -0.43040  -0.42653   0.36867  -0.29893
                          X3        Z15       Z4        Z5        Y2
   1                    0.27530  -0.07854   0.07241  -0.06663   0.06608
 Angle between quadratic step and forces=  31.75 degrees.
 Linear search not attempted -- first point.
 B after Tr=     0.002034   -0.000248   -0.000858
         Rot=    1.000000    0.000087   -0.000295   -0.000185 Ang=   0.04 deg.
 Variable       Old X    -DE/DX   Delta X   Delta X   Delta X     New X
                                 (Linear)    (Quad)   (Total)
    X1       -3.85389  -0.00032   0.00000  -0.01190  -0.01003  -3.86392
    Y1       -2.10677  -0.00079   0.00000  -0.00099  -0.00295  -2.10972
    Z1       -1.61909  -0.00024   0.00000   0.01239   0.01418  -1.60491
    X2       -5.10935   0.00012   0.00000  -0.02329  -0.02138  -5.13072
    Y2       -3.47057  -0.00016   0.00000   0.01275   0.01018  -3.46040
    Z2       -2.40615   0.00014   0.00000   0.01185   0.01462  -2.39153
    X3       -2.36491  -0.00250   0.00000  -0.04085  -0.03903  -2.40394
    Y3       -0.65495   0.00432   0.00000   0.06046   0.05919  -0.59576
    Z3       -0.66578  -0.00510   0.00000  -0.06865  -0.06798  -0.73376
    X4       -1.03997  -0.00056   0.00000  -0.00680  -0.00534  -1.04531
    Y4        1.68431   0.00047   0.00000   0.01012   0.00950   1.69381
    Z4        0.09279  -0.00072   0.00000  -0.01434  -0.01488   0.07791
    X5       -2.18917   0.00041   0.00000   0.00534   0.00676  -2.18241
    Y5        3.36013   0.00040   0.00000   0.01141   0.01054   3.37067
    Z5        1.07565   0.00082   0.00000   0.00064   0.00048   1.07613
    X6        1.40705   0.00009   0.00000  -0.00337  -0.00228   1.40478
    Y6        1.86067  -0.00015   0.00000   0.00281   0.00301   1.86367
    Z6       -0.41740   0.00041   0.00000  -0.01038  -0.01239  -0.42979
    X7        2.86547  -0.00023   0.00000  -0.00092   0.00030   2.86577
    Y7       -0.17079  -0.00009   0.00000   0.00114   0.00169  -0.16910
    Z7       -1.49134  -0.00022   0.00000  -0.00199  -0.00451  -1.49585
    X8        4.92368   0.00012   0.00000  -0.01250  -0.00992   4.91376
    Y8       -0.90496   0.00002   0.00000   0.00062   0.00226  -0.90270
    Z8        0.35276   0.00010   0.00000   0.01208   0.00849   0.36125
    X9        1.64859  -0.00005   0.00000   0.00011   0.00166   1.65026
    Y9       -1.77337   0.00007   0.00000   0.00231   0.00233  -1.77103
    Z9       -1.93055   0.00012   0.00000  -0.00814  -0.00966  -1.94021
   X10        3.64812  -0.00003   0.00000   0.01346   0.01337   3.66149
   Y10        0.57769  -0.00006   0.00000  -0.00153  -0.00099   0.57670
   Z10       -3.24596   0.00010   0.00000   0.00330   0.00018  -3.24578
   X11        6.08363  -0.00003   0.00000  -0.00448  -0.00223   6.08140
   Y11        0.73229  -0.00005   0.00000  -0.00397  -0.00182   0.73047
   Z11        0.82480  -0.00010   0.00000   0.00763   0.00306   0.82786
   X12        4.08899  -0.00003   0.00000  -0.02618  -0.02231   4.06668
   Y12       -1.66371   0.00003   0.00000   0.01698   0.01860  -1.64511
   Z12        2.07597  -0.00005   0.00000   0.01236   0.00939   2.08536
   X13        6.13137  -0.00004   0.00000  -0.01740  -0.01476   6.11661
   Y13       -2.34839   0.00000   0.00000  -0.01286  -0.01093  -2.35932
   Z13       -0.49335  -0.00000   0.00000   0.02831   0.02426  -0.46909
   X14       -0.53055   0.00298   0.00000   0.07388   0.07821  -0.45234
   Y14       -2.90609  -0.00395   0.00000  -0.07031  -0.07038  -2.97647
   Z14        1.97274   0.00467   0.00000   0.04730   0.04723   2.01997
   X15       -1.97361   0.00007   0.00000   0.02196   0.02698  -1.94663
   Y15       -3.15271  -0.00004   0.00000  -0.02981  -0.03024  -3.18295
   Z15        3.07694   0.00008   0.00000  -0.01331  -0.01246   3.06448
         Item               Value     Threshold  Converged?
 Maximum Force            0.005104     0.000450     NO 
 RMS     Force            0.001495     0.000300     NO 
 Maximum Displacement     0.078208     0.001800     NO 
 RMS     Displacement     0.025321     0.001200     NO 
 Predicted change in Energy=-2.148042D-03
 GradGradGradGradGradGradGradGradGradGradGradGradGradGradGradGradGradGrad


 ----------------------------------------------------------------------

 Electric dipole moment (input orientation):
 (Debye = 10**-18 statcoulomb cm , SI units = C m)
                  (au)            (Debye)         (10**-30 SI)
   Tot        0.165610D+01      0.420939D+01      0.140410D+02
   x         -0.559059D-01     -0.142099D+00     -0.473990D+00
   y         -0.151427D+01     -0.384889D+01     -0.128385D+02
   z         -0.668224D+00     -0.169846D+01     -0.566544D+01

 Dipole polarizability, Alpha (input orientation).
 (esu units = cm**3 , SI units = C**2 m**2 J**-1)
 Alpha(0;0):
               (au)            (10**-24 esu)      (10**-40 SI)
   iso        0.750583D+02      0.111225D+02      0.123754D+02
   aniso      0.240026D+02      0.355682D+01      0.395749D+01
   xx         0.863722D+02      0.127990D+02      0.142409D+02
   yx        -0.201671D+00     -0.298845D-01     -0.332510D-01
   yy         0.712921D+02      0.105644D+02      0.117545D+02
   zx         0.943570D+01      0.139823D+01      0.155574D+01
   zy         0.184114D+01      0.272829D+00      0.303563D+00
   zz         0.675106D+02      0.100040D+02      0.111310D+02

 ----------------------------------------------------------------------

 Dipole orientation:
     6         -3.74977492         -0.71341069          2.70973534
     1         -4.94764353         -0.90928330          4.31669608
     6         -2.32610791         -0.39596919          0.94732962
     6         -1.07929611         -0.61900151         -1.54240461
     8         -2.29760039         -0.42312945         -3.43247992
     8          1.37908094         -1.10298521         -1.58040324
     6          2.91724650         -1.23155081          0.66117633
     6          4.92767389          0.79671313          0.51890748
     1          1.75142657         -1.01197965          2.34480689
     1          3.74202877         -3.12130367          0.65835411
     1          6.03474333          0.59189413         -1.20774282
     1          4.05217513          2.66075785          0.54555374
     1          6.19469276          0.63321707          2.13935901
     8         -0.53280143          2.96707518          1.87913983
     1         -2.00654206          4.04468213          1.70781446

 Electric dipole moment (dipole orientation):
 (Debye = 10**-18 statcoulomb cm , SI units = C m)
                  (au)            (Debye)         (10**-30 SI)
   Tot        0.165610D+01      0.420939D+01      0.140410D+02
   x          0.000000D+00      0.000000D+00      0.000000D+00
   y          0.000000D+00      0.000000D+00      0.000000D+00
   z          0.165610D+01      0.420939D+01      0.140410D+02

 Dipole polarizability, Alpha (dipole orientation).
 (esu units = cm**3 , SI units = C**2 m**2 J**-1)
 Alpha(0;0):
               (au)            (10**-24 esu)      (10**-40 SI)
   iso        0.750583D+02      0.111225D+02      0.123754D+02
   aniso      0.240026D+02      0.355682D+01      0.395749D+01
   xx         0.857185D+02      0.127022D+02      0.141331D+02
   yx         0.913139D+01      0.135313D+01      0.150556D+01
   yy         0.671597D+02      0.995204D+01      0.110731D+02
   zx        -0.409629D+01     -0.607007D+00     -0.675386D+00
   zy        -0.228699D+00     -0.338897D-01     -0.377074D-01
   zz         0.722967D+02      0.107133D+02      0.119201D+02

 ----------------------------------------------------------------------
 1\1\GINC-BOSON\Freq\UM062X\6-311++G(d,p)\C5H7O3(2)\LOKI\28-Mar-2025\0\
 \# freq 6-311++g(d,p) m062x\\Title Card Required\\0,2\C,-2.039393,-1.1
 14855,-0.856785\H,-2.703749,-1.836549,-1.273278\C,-1.251455,-0.346585,
 -0.352313\C,-0.550326,0.891301,0.049104\O,-1.158458,1.778102,0.569209\
 O,0.744581,0.984624,-0.220878\C,1.516343,-0.090378,-0.789183\C,2.60549
 8,-0.478882,0.186673\H,0.872398,-0.938426,-1.021603\H,1.930502,0.30569
 9,-1.717687\H,3.219319,0.387509,0.436466\H,2.163798,-0.880396,1.098557
 \H,3.244581,-1.242717,-0.261067\O,-0.280755,-1.537839,1.04393\H,-1.044
 39,-1.668343,1.628247\\Version=ES64L-G16RevA.03\State=2-A\HF=-420.1973
 151\S2=0.767521\S2-1=0.\S2A=0.750131\RMSD=6.504e-09\RMSF=1.495e-03\Zer
 oPoint=0.1116075\Thermal=0.1212479\Dipole=-0.0559059,-1.5142714,-0.668
 224\DipoleDeriv=-0.0450015,-0.2209978,0.1998794,0.0722155,-0.3736697,0
 .1797791,0.0990802,-0.1053871,0.0142425,0.262868,0.0177709,0.0255016,0
 .0348684,0.2285752,0.0343655,0.0207738,0.027855,0.2235418,-0.5508596,0
 .1491754,-0.4977252,-0.1165395,-0.2732635,0.0307567,-0.3925049,0.20015
 38,-0.5841319,2.3333005,-0.114108,-0.5227743,0.0575883,1.610314,0.2786
 304,-0.3950045,0.547538,0.6689304,-0.9035476,0.2235763,0.1990049,0.337
 753,-1.1284815,-0.298455,0.2739261,-0.3843034,-0.5282172,-1.7521689,0.
 3205316,0.4345748,0.1361998,-0.6066622,-0.0710565,0.341035,-0.1709013,
 -0.4358915,0.680753,-0.210766,-0.115669,-0.3947432,0.4521977,0.0834836
 ,-0.187205,0.0384314,0.3936849,-0.0498203,0.0358854,-0.0225585,0.05283
 56,0.0420328,0.0190498,-0.0647705,0.0620641,-0.0553435,-0.0450611,-0.0
 383867,-0.0440219,0.0107633,-0.0255013,-0.0399436,-0.0322755,-0.020786
 3,0.0342054,-0.0247036,0.0198326,0.0478118,0.011761,0.0155023,0.075606
 9,0.0709734,0.031313,-0.0863404,0.0032286,-0.0477805,-0.0399527,-0.101
 1729,-0.0376135,-0.0346529,-0.0353268,-0.0067147,0.065001,0.0695145,-0
 .0268552,0.0688238,-0.0108048,0.0541113,0.0425551,0.0264854,0.0457127,
 -0.0263641,-0.0160087,0.0701427,0.023595,0.0985462,-0.0078147,-0.05586
 72,0.0406636,-0.0679766,0.0367787,-0.0969031,-0.1982504,0.2554312,-0.1
 716386,-0.2604448,-0.2123345,0.1416026,-0.1693692,-0.0359,0.1344096,0.
 0202296,-0.0119211,-0.017632,0.3107177,-0.0319175,0.0925471,-0.0276293
 ,0.3158038\Polar=86.3722315,-0.2016709,71.2920638,9.4357004,1.8411404,
 67.510627\Quadrupole=3.7287422,-5.1565381,1.427796,5.8094582,0.4317471
 ,-1.1170374\PG=C01 [X(C5H7O3)]\NImag=1\\0.62513579,0.59043714,0.666268
 37,0.36121541,0.37099323,0.28569578,-0.17813285,-0.16567708,-0.0958018
 2,0.16987060,-0.17109969,-0.20815565,-0.10717734,0.16788687,0.19650415
 ,-0.09452114,-0.10267691,-0.08677301,0.09648934,0.10530975,0.07749513,
 -0.42803896,-0.40922413,-0.24740750,0.00478385,0.00554086,0.00033902,0
 .54482997,-0.44866521,-0.47678932,-0.28534497,-0.00122248,0.01007192,-
 0.00206846,0.54399349,0.68764702,-0.23469459,-0.24838160,-0.17762263,0
 .00066197,0.00244431,0.00620995,0.22625936,0.35453427,0.19411952,0.006
 42675,0.00035168,0.00141378,0.00322439,-0.00333792,-0.00256037,-0.1186
 0037,-0.07911785,-0.02840519,0.68462615,0.01619894,0.01168129,0.009698
 25,-0.00100339,0.00115645,-0.00110872,-0.08498760,-0.15245279,-0.04650
 949,-0.16042179,0.75821692,-0.00508006,-0.00713206,-0.00086002,-0.0014
 9905,-0.00150596,0.00432896,-0.01374498,-0.02295205,-0.07169339,-0.173
 65469,0.27769279,0.36298841,-0.00113936,-0.00305315,-0.00116182,-0.000
 20820,0.00056276,0.00039413,0.01908549,0.00477535,0.00303853,-0.250617
 83,0.24719920,0.14510810,0.31323581,-0.00384145,-0.00244616,-0.0013000
 3,-0.00081768,0.00086614,0.00115987,0.01056285,-0.06141774,-0.03730065
 ,0.25648590,-0.49580483,-0.23776814,-0.30380898,0.54264628,-0.00018126
 ,0.00050698,0.00065980,-0.00017903,0.00070494,-0.00043209,0.00378123,-
 0.03730763,0.00423543,0.14965280,-0.23725109,-0.21324207,-0.19512444,0
 .29027391,0.20237454,-0.00481187,-0.00691365,-0.00371730,0.00052802,0.
 00027459,-0.00009599,-0.03238349,-0.01931624,0.00951112,-0.29996446,-0
 .05468774,0.03675691,-0.07865111,0.04471830,0.04142461,0.55273727,-0.0
 0214652,-0.00266918,-0.00174318,0.00062285,-0.00045114,-0.00039567,-0.
 03180094,-0.00849872,-0.00067428,-0.02442134,-0.10881555,-0.01805276,0
 .05991811,0.01040013,-0.01714190,-0.06487061,0.30609231,0.00158251,0.0
 0109073,0.00103282,0.00014754,0.00011992,-0.00068891,-0.00469627,-0.00
 602210,0.01236206,0.04672185,-0.01170015,-0.05865975,0.04775580,-0.013
 79992,-0.00176821,-0.13513027,0.11049587,0.13100252,0.00136228,0.00272
 531,0.00148579,-0.00022982,-0.00008015,-0.00000034,-0.00351681,0.00162
 559,-0.00076026,-0.03491409,0.02326684,0.01426065,0.00297436,-0.002906
 18,-0.00068448,-0.10063734,0.02327064,0.02433668,0.53506735,-0.0008385
 3,-0.00310708,-0.00222992,0.00013067,-0.00003629,-0.00006902,-0.004960
 48,0.00071729,0.00429138,0.02851299,0.00724003,0.00059332,-0.01301741,
 0.00703432,0.00343494,0.03981637,-0.15865054,-0.05218832,0.10547580,0.
 53414186,-0.00032794,-0.00120287,-0.00078167,0.00012118,0.00000835,0.0
 0000565,-0.00244109,0.00005469,0.00201587,0.01511622,0.00156874,-0.019
 25269,-0.00249922,0.00017456,0.00921152,0.02959640,-0.04704763,-0.0825
 8134,-0.00672346,-0.02970418,0.56473446,-0.00031421,-0.00020529,0.0000
 3711,0.00002622,0.00002793,0.00000850,-0.00047732,-0.00014933,0.000129
 81,0.00083426,0.00283040,-0.00270707,-0.00097842,-0.00001477,0.0012793
 9,-0.02597174,0.01686664,-0.00797652,-0.14358571,0.01489216,-0.0645467
 4,0.54023932,-0.00038166,0.00035860,0.00034050,0.00005355,0.00000414,-
 0.00000126,0.00049513,0.00014738,-0.00002657,-0.00503804,-0.00427458,0
 .00298418,0.00254121,-0.00064977,-0.00205421,0.03658705,-0.01499592,0.
 01047045,0.00906846,-0.08234898,0.01974154,0.01915481,0.58105333,0.000
 58401,0.00066467,0.00039362,0.00002344,0.00001012,0.00000341,-0.001080
 64,0.00055584,-0.00110918,-0.00320533,-0.00379425,0.00242539,0.0021745
 5,-0.00056827,-0.00212185,0.01951599,-0.00607894,0.01198358,-0.0748079
 5,0.02636549,-0.15016772,-0.04439887,0.01657547,0.55442386,-0.00125928
 ,0.00036952,0.00068595,-0.00012844,0.00001381,0.00001856,-0.00488891,0
 .00013661,0.00008798,0.00512983,0.00339509,0.00049816,-0.00135864,-0.0
 0050312,0.00004570,0.00808232,0.02216291,0.00748883,-0.15239964,-0.132
 61237,-0.03325231,-0.01399342,-0.01807918,-0.00470087,0.16850884,-0.00
 083054,0.00026137,0.00051079,-0.00001157,0.00008879,0.00001602,0.00130
 171,0.00044462,0.00019744,-0.00773302,-0.00065297,0.00088630,0.0016945
 4,-0.00010894,-0.00037106,-0.00283640,-0.02810874,-0.01070761,-0.12140
 368,-0.21025030,-0.04330636,0.00593143,0.01068734,0.00249293,0.1312631
 4,0.23388708,0.00010500,0.00040347,0.00012424,-0.00001095,0.00001511,0
 .00012083,0.00085922,0.00006069,-0.00064809,-0.00440024,-0.00196499,0.
 00173034,0.00103817,0.00024191,-0.00033753,-0.00280528,-0.01667899,-0.
 00611129,-0.02741232,-0.03696063,-0.06192910,-0.01407861,-0.01636207,-
 0.00388968,0.03212876,0.04906949,0.06463723,-0.00034028,-0.00020428,-0
 .00009342,0.00001076,0.00003546,0.00004421,0.00027930,-0.00034221,-0.0
 0006330,0.00347193,0.00133834,0.00337210,-0.00198894,0.00100118,-0.000
 23477,-0.01675936,0.00159824,0.01949672,-0.08695896,-0.04182915,0.0808
 4604,0.01083544,0.01001886,-0.02306011,-0.00568665,-0.00732426,0.01602
 324,0.09946393,0.00021003,0.00050792,0.00030484,0.00001505,0.00001600,
 0.00003366,-0.00010602,0.00000680,-0.00034616,-0.00497295,-0.00173777,
 -0.00332310,0.00292976,-0.00160544,0.00007099,0.02461228,0.00307742,-0
 .02879979,-0.04826429,-0.09183925,0.09412644,-0.00381604,-0.00226473,0
 .00624899,-0.00801865,-0.00646880,0.02121543,0.03541701,0.09915216,-0.
 00000458,0.00012709,0.00007903,-0.00000948,-0.00000582,-0.00002139,0.0
 0039412,0.00001882,-0.00010182,-0.00453269,-0.00099252,-0.00142022,0.0
 0153317,-0.00061271,-0.00023242,0.01464389,-0.00371409,-0.00968305,0.0
 8242040,0.08688770,-0.24000060,0.00674464,0.00971891,-0.01726018,-0.00
 306299,-0.00134299,0.00787784,-0.09476027,-0.09071502,0.26078331,0.000
 04220,0.00022365,0.00019429,0.00002965,0.00001458,0.00000831,-0.000008
 49,0.00013268,-0.00027792,-0.00109356,-0.00053544,0.00021977,0.0002947
 5,0.00010306,-0.00000942,0.00269597,-0.00068958,0.00086952,-0.01608793
 ,-0.02009988,-0.00638235,-0.13166702,-0.12157831,-0.03275518,-0.002329
 15,0.00209410,-0.00326953,0.00091256,0.00050593,0.00050401,0.14217206,
 0.00017256,0.00009341,0.00001987,0.00000469,0.00000393,0.00000979,-0.0
 0023904,-0.00003048,-0.00028186,0.00060683,0.00004014,-0.00017909,-0.0
 0022094,0.00012654,0.00016814,-0.00133780,0.00141004,0.00026410,0.0073
 9289,0.00791631,0.00263016,-0.12398103,-0.22319270,-0.04873065,0.00216
 578,0.00007244,0.00129088,-0.00051977,0.00059701,-0.00065607,0.1333407
 6,0.23810168,-0.00026279,-0.00014632,-0.00001997,0.00001201,0.00000635
 ,-0.00000122,0.00046175,-0.00015868,0.00042566,0.00024050,0.00021038,0
 .00011989,-0.00010982,-0.00004289,-0.00004808,0.00182793,0.00025617,0.
 00067222,-0.01366942,-0.02056293,-0.00669667,-0.03308420,-0.04627962,-
 0.06167943,-0.00304070,0.00234609,-0.00215296,0.00065413,-0.00046342,0
 .00055110,0.04026062,0.05201328,0.06471520,-0.00033987,-0.00037621,-0.
 00017891,-0.00003260,-0.00002534,-0.00003058,0.00067986,-0.00016603,0.
 00074704,0.00012705,0.00067565,0.00002821,-0.00010211,-0.00019709,-0.0
 0014120,0.00184205,-0.00160478,0.00122768,0.01030931,0.01052091,-0.024
 09207,-0.09464370,-0.04322575,0.09825070,0.00114681,-0.00032975,0.0007
 3847,-0.00376409,0.00172024,-0.00358325,-0.00730167,-0.00446032,0.0143
 1261,0.10141929,-0.00004173,-0.00019773,-0.00002569,-0.00001659,0.0000
 2212,-0.00000587,0.00009548,-0.00012296,0.00014310,0.00085296,0.000276
 15,0.00045393,-0.00018091,-0.00006192,-0.00013625,-0.00141018,0.000503
 68,-0.00067039,-0.00215389,-0.00434971,0.00785188,-0.04271822,-0.08593
 289,0.08437073,0.00026554,0.00016509,-0.00078627,0.00120436,0.00077193
 ,0.00096309,-0.00937966,-0.00858810,0.02206224,0.04565241,0.08803672,-
 0.00032064,-0.00032078,-0.00020231,-0.00001682,-0.00001501,-0.00002229
 ,0.00060763,-0.00016178,0.00069063,0.00081759,0.00079957,-0.00011927,-
 0.00040768,-0.00001092,0.00002326,-0.00052113,-0.00100883,0.00237160,0
 .00973350,0.00765977,-0.02178438,0.09366650,0.08441719,-0.23846843,0.0
 0048688,-0.00014357,0.00055311,-0.00383078,0.00078634,-0.00124231,-0.0
 0382035,-0.00312431,0.00824330,-0.10093853,-0.09364722,0.25974899,-0.0
 0009067,-0.00019276,-0.00006267,-0.00000504,0.00003517,0.00001128,-0.0
 0002201,-0.00013364,0.00003747,0.00264653,0.00124023,-0.00108367,-0.00
 099934,0.00031492,0.00076350,-0.00654631,0.00206542,-0.00301323,-0.011
 04486,0.01429783,0.01375523,-0.13922064,0.11073315,0.06344312,0.000195
 09,-0.00078557,0.00028220,0.00081891,0.00005168,-0.00019203,0.01258631
 ,-0.01283292,-0.00780711,-0.00755817,0.00873468,0.00369589,0.14943092,
 0.00010926,0.00010196,0.00007838,-0.00001259,-0.00000872,-0.00000976,0
 .00004656,0.00012203,-0.00018218,-0.00131969,-0.00037838,0.00081863,0.
 00045544,-0.00023407,-0.00028746,0.00293962,0.00062578,0.00079278,0.00
 206116,-0.00658578,-0.00474677,0.11132934,-0.17890140,-0.07773432,0.00
 021163,0.00020823,0.00018637,-0.00026381,0.00004748,0.00031159,0.01593
 448,-0.01646127,-0.00944886,-0.00809029,0.00979305,0.00434284,-0.12334
 557,0.19175567,-0.00015548,-0.00014901,-0.00013289,-0.00000564,-0.0000
 1117,0.00000244,0.00019758,-0.00008092,0.00031096,0.00108228,0.0013768
 7,-0.00090535,-0.00086637,0.00024644,0.00072929,-0.00686993,0.00230477
 ,-0.00119665,-0.00921936,0.01451510,0.01008239,0.06530244,-0.07960813,
 -0.09462615,0.00041957,-0.00066289,0.00069347,0.00122413,-0.00002576,0
 .00040328,0.00429167,-0.00356133,-0.00395650,0.01415361,-0.02039900,-0
 .00939320,-0.06975956,0.08584177,0.09805660,-0.02017659,-0.01027203,-0
 .01617873,0.00027942,0.00006923,0.00005289,0.01870037,-0.00358500,0.03
 124300,-0.00046934,0.00644691,-0.00263661,0.00048877,-0.00136127,-0.00
 066010,-0.00078536,-0.00115343,0.00155175,-0.00041482,-0.00109332,0.00
 066760,-0.00103169,-0.00026614,0.00004176,-0.00081054,-0.00083340,0.00
 110602,-0.00020458,-0.00012601,-0.00003744,-0.00016633,-0.00006220,0.0
 0015399,-0.00187240,-0.00087267,0.00052557,-0.00015815,-0.00003134,0.0
 0017226,0.33799116,0.02065309,0.01393747,0.01594238,0.00007211,-0.0004
 2085,0.00006548,-0.02736966,0.00201934,-0.03018573,0.00139769,-0.01463
 600,0.00475731,-0.00053219,0.00187019,0.00079287,0.00154505,0.00039809
 ,0.00070139,-0.00000543,-0.00028569,0.00011575,-0.00004312,0.00037543,
 -0.00014375,-0.00069134,-0.00007439,0.00015594,-0.00022183,-0.00024062
 ,0.00000511,-0.00000255,-0.00006062,0.00008787,-0.00004090,-0.00025467
 ,0.00010392,-0.00014833,-0.00002221,0.00018273,0.05998253,0.01002674,-
 0.02706531,-0.01314825,-0.02035809,0.00030760,0.00020085,0.00007129,0.
 03234735,-0.00115202,0.03218851,-0.00019585,0.00831376,-0.00644011,-0.
 00061051,0.00063874,0.00170234,-0.00243115,0.00000597,0.00122674,0.000
 34603,-0.00161998,-0.00247162,-0.00010231,0.00020099,-0.00035125,0.001
 90914,0.00091071,-0.00078081,0.00043959,0.00076792,0.00025635,0.000154
 66,0.00010777,-0.00004111,-0.00059089,-0.00024498,-0.00016054,-0.00004
 096,-0.00000182,-0.00000524,-0.25177476,-0.03814170,0.18700789,0.00167
 693,0.00201129,-0.00043017,-0.00001596,0.00008183,-0.00015782,-0.00042
 248,0.00203426,-0.00751503,-0.00082722,-0.00095565,0.00016222,-0.00003
 522,0.00026432,0.00026745,0.00062540,0.00018237,-0.00036261,0.00007668
 ,0.00080441,0.00016252,-0.00005136,-0.00008315,-0.00002462,-0.00020824
 ,-0.00019672,-0.00030414,-0.00008997,-0.00015800,-0.00005750,-0.000079
 36,-0.00002948,0.00005049,0.00009024,-0.00003160,0.00032237,-0.0000325
 8,-0.00002419,0.00003280,-0.33136991,-0.05459512,0.24730737,0.33066306
 ,0.00006430,0.00015474,-0.00006710,-0.00002442,0.00033902,-0.00025890,
 -0.00334823,-0.00186438,0.00227803,-0.00184544,0.00014189,0.00272671,0
 .00073722,-0.00061474,-0.00140319,0.00087936,-0.00031766,-0.00004696,-
 0.00007307,0.00040380,-0.00026429,-0.00010490,-0.00006525,-0.00023404,
 -0.00007936,-0.00015083,0.00011367,0.00009186,-0.00002010,0.00000690,-
 0.00006383,-0.00002834,0.00012034,-0.00005275,-0.00006075,0.00032279,-
 0.00003430,-0.00006236,0.00003055,-0.04684185,-0.01263220,0.04316204,0
 .05069543,0.01477717,-0.00087313,-0.00062837,-0.00123469,-0.00024031,-
 0.00010439,-0.00029875,0.00412321,0.00002430,-0.00138348,0.00190935,0.
 00366085,0.00099988,-0.00026258,-0.00133189,-0.00075394,-0.00170579,-0
 .00052650,0.00003768,0.00069453,-0.00041271,-0.00038410,-0.00027408,-0
 .00011737,0.00044402,0.00028734,0.00010471,0.00011240,-0.00005753,0.00
 011863,0.00001109,0.00001189,0.00002930,-0.00013142,0.00009710,0.00007
 072,-0.00023815,-0.00002945,0.00003883,-0.00006246,0.23577279,0.045560
 44,-0.19184433,-0.23945333,-0.04648655,0.19472625\\0.00032468,0.000794
 00,0.00023906,-0.00012498,0.00015626,-0.00014101,0.00249620,-0.0043187
 7,0.00510440,0.00056267,-0.00047371,0.00072313,-0.00041171,-0.00039938
 ,-0.00081787,-0.00009213,0.00015430,-0.00041022,0.00023347,0.00009367,
 0.00022012,-0.00012256,-0.00002070,-0.00010382,0.00004520,-0.00006574,
 -0.00011766,0.00003079,0.00005841,-0.00010111,0.00002762,0.00005365,0.
 00010058,0.00003132,-0.00002559,0.00005371,0.00004094,-0.00000277,0.00
 000260,-0.00297569,0.00395370,-0.00466800,-0.00006583,0.00004267,-0.00
 008391\\\@


 Until you make peace with who you are,
 you'll never be content with what you have.
                           -- Doris Mortman
 Job cpu time:       0 days  0 hours 50 minutes 41.4 seconds.
 Elapsed time:       0 days  0 hours 12 minutes 50.4 seconds.
 File lengths (MBytes):  RWF=    146 Int=      0 D2E=      0 Chk=      5 Scr=      1
 Normal termination of Gaussian 16 at Fri Mar 28 07:24:45 2025.
