 Entering Gaussian System, Link 0=g16
 Initial command:
 /opt/g16/l1.exe "/home/loki/Research/Transition_states/Addition/ts1_irc_points/Gau-103217.inp" -scrdir="/home/loki/Research/Transition_states/Addition/ts1_irc_points/"
 Entering Link 1 = /opt/g16/l1.exe PID=    103220.
  
 Copyright (c) 1988,1990,1992,1993,1995,1998,2003,2009,2016,
            Gaussian, Inc.  All Rights Reserved.
  
 This is part of the Gaussian(R) 16 program.  It is based on
 the Gaussian(R) 09 system (copyright 2009, Gaussian, Inc.),
 the Gaussian(R) 03 system (copyright 2003, Gaussian, Inc.),
 the Gaussian(R) 98 system (copyright 1998, Gaussian, Inc.),
 the Gaussian(R) 94 system (copyright 1995, Gaussian, Inc.),
 the Gaussian 92(TM) system (copyright 1992, Gaussian, Inc.),
 the Gaussian 90(TM) system (copyright 1990, Gaussian, Inc.),
 the Gaussian 88(TM) system (copyright 1988, Gaussian, Inc.),
 the Gaussian 86(TM) system (copyright 1986, Carnegie Mellon
 University), and the Gaussian 82(TM) system (copyright 1983,
 Carnegie Mellon University). Gaussian is a federally registered
 trademark of Gaussian, Inc.
  
 This software contains proprietary and confidential information,
 including trade secrets, belonging to Gaussian, Inc.
  
 This software is provided under written license and may be
 used, copied, transmitted, or stored only in accord with that
 written license.
  
 The following legend is applicable only to US Government
 contracts under FAR:
  
                    RESTRICTED RIGHTS LEGEND
  
 Use, reproduction and disclosure by the US Government is
 subject to restrictions as set forth in subparagraphs (a)
 and (c) of the Commercial Computer Software - Restricted
 Rights clause in FAR 52.227-19.
  
 Gaussian, Inc.
 340 Quinnipiac St., Bldg. 40, Wallingford CT 06492
  
  
 ---------------------------------------------------------------
 Warning -- This program may not be used in any manner that
 competes with the business of Gaussian, Inc. or will provide
 assistance to any competitor of Gaussian, Inc.  The licensee
 of this program is prohibited from giving any competitor of
 Gaussian, Inc. access to this program.  By using this program,
 the user acknowledges that Gaussian, Inc. is engaged in the
 business of creating and licensing software in the field of
 computational chemistry and represents and warrants to the
 licensee that it is not a competitor of Gaussian, Inc. and that
 it will not use this program in any manner prohibited above.
 ---------------------------------------------------------------
  

 Cite this work as:
 Gaussian 16, Revision A.03,
 M. J. Frisch, G. W. Trucks, H. B. Schlegel, G. E. Scuseria, 
 M. A. Robb, J. R. Cheeseman, G. Scalmani, V. Barone, 
 G. A. Petersson, H. Nakatsuji, X. Li, M. Caricato, A. V. Marenich, 
 J. Bloino, B. G. Janesko, R. Gomperts, B. Mennucci, H. P. Hratchian, 
 J. V. Ortiz, A. F. Izmaylov, J. L. Sonnenberg, D. Williams-Young, 
 F. Ding, F. Lipparini, F. Egidi, J. Goings, B. Peng, A. Petrone, 
 T. Henderson, D. Ranasinghe, V. G. Zakrzewski, J. Gao, N. Rega, 
 G. Zheng, W. Liang, M. Hada, M. Ehara, K. Toyota, R. Fukuda, 
 J. Hasegawa, M. Ishida, T. Nakajima, Y. Honda, O. Kitao, H. Nakai, 
 T. Vreven, K. Throssell, J. A. Montgomery, Jr., J. E. Peralta, 
 F. Ogliaro, M. J. Bearpark, J. J. Heyd, E. N. Brothers, K. N. Kudin, 
 V. N. Staroverov, T. A. Keith, R. Kobayashi, J. Normand, 
 K. Raghavachari, A. P. Rendell, J. C. Burant, S. S. Iyengar, 
 J. Tomasi, M. Cossi, J. M. Millam, M. Klene, C. Adamo, R. Cammi, 
 J. W. Ochterski, R. L. Martin, K. Morokuma, O. Farkas, 
 J. B. Foresman, and D. J. Fox, Gaussian, Inc., Wallingford CT, 2016.
 
 ******************************************
 Gaussian 16:  ES64L-G16RevA.03 25-Dec-2016
                28-Mar-2025 
 ******************************************
 %chk=ethyl_propiolate.chk
 %nprocshared=4
 Will use up to    4 processors via shared memory.
 %mem=10GB
 --------------------------
 # freq 6-311++g(d,p) m062x
 --------------------------
 1/10=4,30=1,38=1/1,3;
 2/12=2,17=6,18=5,40=1/2;
 3/5=4,6=6,7=1111,11=2,25=1,30=1,71=2,74=-55,140=1/1,2,3;
 4//1;
 5/5=2,38=5,98=1/2;
 8/6=4,10=90,11=11/1;
 11/6=1,8=1,9=11,15=111,16=1/1,2,10;
 10/6=1/2;
 6/7=2,8=2,9=2,10=2,28=1/1;
 7/8=1,10=1,25=1/1,2,3,16;
 1/10=4,30=1/3;
 99//99;
 -------------------
 Title Card Required
 -------------------
 Symbolic Z-matrix:
 Charge =  0 Multiplicity = 2
 C                    -2.04304  -1.09356  -0.86448 
 H                    -2.70771  -1.81045  -1.29187 
 C                    -1.17641  -0.45698  -0.2183 
 C                    -0.54682   0.88298   0.05685 
 O                    -1.16385   1.7729    0.55893 
 O                     0.74412   0.98697  -0.22561 
 C                     1.51994  -0.08909  -0.79042 
 C                     2.60571  -0.47877   0.18771 
 H                     0.88151  -0.93928  -1.02757 
 H                     1.93514   0.30974  -1.71715 
 H                     3.21978   0.38707   0.43901 
 H                     2.15866  -0.88233   1.09582 
 H                     3.24504  -1.24217  -0.26058 
 O                    -0.33415  -1.46635   0.96236 
 H                    -1.04709  -1.64176   1.59075 
 

 GradGradGradGradGradGradGradGradGradGradGradGradGradGradGradGradGradGrad
 Berny optimization.
 Initialization pass.
 Trust Radius=3.00D-01 FncErr=1.00D-07 GrdErr=1.00D-07 EigMax=2.50D+02 EigMin=1.00D-04
 Number of steps in this run=      2 maximum allowed number of steps=      2.
 GradGradGradGradGradGradGradGradGradGradGradGradGradGradGradGradGradGrad

                          Input orientation:                          
 ---------------------------------------------------------------------
 Center     Atomic      Atomic             Coordinates (Angstroms)
 Number     Number       Type             X           Y           Z
 ---------------------------------------------------------------------
      1          6           0       -2.043040   -1.093558   -0.864478
      2          1           0       -2.707705   -1.810450   -1.291869
      3          6           0       -1.176405   -0.456975   -0.218299
      4          6           0       -0.546817    0.882976    0.056853
      5          8           0       -1.163848    1.772899    0.558933
      6          8           0        0.744121    0.986966   -0.225614
      7          6           0        1.519944   -0.089085   -0.790415
      8          6           0        2.605709   -0.478766    0.187709
      9          1           0        0.881509   -0.939283   -1.027568
     10          1           0        1.935137    0.309744   -1.717153
     11          1           0        3.219785    0.387069    0.439009
     12          1           0        2.158658   -0.882329    1.095822
     13          1           0        3.245038   -1.242166   -0.260580
     14          8           0       -0.334145   -1.466348    0.962357
     15          1           0       -1.047088   -1.641764    1.590750
 ---------------------------------------------------------------------
                    Distance matrix (angstroms):
                    1          2          3          4          5
     1  C    0.000000
     2  H    1.066947   0.000000
     3  C    1.254528   2.308533   0.000000
     4  C    2.644659   3.707160   1.505841   0.000000
     5  O    3.318984   4.318490   2.361479   1.193639   0.000000
     6  O    3.536240   4.569195   2.402798   1.325565   2.207612
     7  C    3.702608   4.592120   2.780820   2.436035   3.534185
     8  C    4.805823   5.674055   3.803906   3.436551   4.406514
     9  H    2.933153   3.702870   2.263305   2.556699   3.749187
    10  H    4.303743   5.121725   3.537812   3.104157   4.114012
    11  H    5.620379   6.554401   4.524483   3.818279   4.599037
    12  H    4.641299   5.499451   3.609776   3.393428   4.286902
    13  H    5.324523   6.068085   4.490821   4.358343   5.403748
    14  O    2.529154   3.291463   1.766970   2.526755   3.368068
    15  H    2.705660   3.331005   2.166358   2.996235   3.569062
                    6          7          8          9         10
     6  O    0.000000
     7  C    1.441800   0.000000
     8  C    2.405144   1.512436   0.000000
     9  H    2.091038   1.089347   2.159129   0.000000
    10  H    2.025299   1.091006   2.167929   1.773620   0.000000
    11  H    2.632587   2.151201   1.090831   3.062285   2.511042
    12  H    2.690980   2.143614   1.089673   2.478536   3.063303
    13  H    3.350349   2.141558   1.092009   2.503253   2.499174
    14  O    2.931328   2.899433   3.196582   2.390693   3.934961
    15  H    3.663036   3.830197   4.082158   3.326944   4.862538
                   11         12         13         14         15
    11  H    0.000000
    12  H    1.780103   0.000000
    13  H    1.773265   1.774692   0.000000
    14  O    4.042211   2.563778   3.788982   0.000000
    15  H    4.863011   3.331442   4.691423   0.966404   0.000000
 Stoichiometry    C5H7O3(2)
 Framework group  C1[X(C5H7O3)]
 Deg. of freedom    39
 Full point group                 C1      NOp   1
 Largest Abelian subgroup         C1      NOp   1
 Largest concise Abelian subgroup C1      NOp   1
                         Standard orientation:                         
 ---------------------------------------------------------------------
 Center     Atomic      Atomic             Coordinates (Angstroms)
 Number     Number       Type             X           Y           Z
 ---------------------------------------------------------------------
      1          6           0       -2.107948   -1.046847   -0.848286
      2          1           0       -2.775514   -1.767219   -1.265175
      3          6           0       -1.240742   -0.403722   -0.209391
      4          6           0       -0.601789    0.936541    0.041589
      5          8           0       -1.214914    1.842263    0.519628
      6          8           0        0.692060    1.023564   -0.233189
      7          6           0        1.462843   -0.070924   -0.768704
      8          6           0        2.537916   -0.448443    0.225862
      9          1           0        0.818947   -0.920670   -0.992329
     10          1           0        1.888326    0.304264   -1.700633
     11          1           0        3.157482    0.417446    0.463107
     12          1           0        2.080675   -0.828499    1.139029
     13          1           0        3.174018   -1.226699   -0.200959
     14          8           0       -0.415966   -1.394342    0.999162
     15          1           0       -1.135047   -1.550135    1.625731
 ---------------------------------------------------------------------
 Rotational constants (GHZ):           2.7078910           1.6935637           1.2975532
 Standard basis: 6-311++G(d,p) (5D, 7F)
 There are   233 symmetry adapted cartesian basis functions of A   symmetry.
 There are   225 symmetry adapted basis functions of A   symmetry.
   225 basis functions,   351 primitive gaussians,   233 cartesian basis functions
    31 alpha electrons       30 beta electrons
       nuclear repulsion energy       368.2300240709 Hartrees.
 NAtoms=   15 NActive=   15 NUniq=   15 SFac= 1.00D+00 NAtFMM=   60 NAOKFM=F Big=F
 Integral buffers will be    131072 words long.
 Raffenetti 2 integral format.
 Two-electron integral symmetry is turned on.
 One-electron integrals computed using PRISM.
 NBasis=   225 RedAO= T EigKep=  7.42D-06  NBF=   225
 NBsUse=   225 1.00D-06 EigRej= -1.00D+00 NBFU=   225
 ExpMin= 3.60D-02 ExpMax= 8.59D+03 ExpMxC= 1.30D+03 IAcc=3 IRadAn=         5 AccDes= 0.00D+00
 Harris functional with IExCor= 1009 and IRadAn=       5 diagonalized for initial guess.
 HarFok:  IExCor= 1009 AccDes= 0.00D+00 IRadAn=         5 IDoV= 1 UseB2=F ITyADJ=14
 ICtDFT=  3500011 ScaDFX=  1.000000  1.000000  1.000000  1.000000
 FoFCou: FMM=F IPFlag=           0 FMFlag=      100000 FMFlg1=           0
         NFxFlg=           0 DoJE=T BraDBF=F KetDBF=T FulRan=T
         wScrn=  0.000000 ICntrl=       500 IOpCl=  0 I1Cent=   200000004 NGrid=           0
         NMat0=    1 NMatS0=      1 NMatT0=    0 NMatD0=    1 NMtDS0=    0 NMtDT0=    0
 Petite list used in FoFCou.
 Initial guess <Sx>= 0.0000 <Sy>= 0.0000 <Sz>= 0.5000 <S**2>= 0.7500 S= 0.5000
 Keep R1 and R2 ints in memory in canonical form, NReq=652863693.
 Requested convergence on RMS density matrix=1.00D-08 within 128 cycles.
 Requested convergence on MAX density matrix=1.00D-06.
 Requested convergence on             energy=1.00D-06.
 No special actions if energy rises.
 SCF Done:  E(UM062X) =  -420.207730823     A.U. after   19 cycles
            NFock= 19  Conv=0.72D-08     -V/T= 2.0037
 <Sx>= 0.0000 <Sy>= 0.0000 <Sz>= 0.5000 <S**2>= 0.7809 S= 0.5153
 <L.S>=  0.00000000000    
 Annihilation of the first spin contaminant:
 S**2 before annihilation     0.7809,   after     0.7505
 DoSCS=F DFT=T ScalE2(SS,OS)=  1.000000  1.000000
 Range of M.O.s used for correlation:     1   225
 NBasis=   225 NAE=    31 NBE=    30 NFC=     0 NFV=     0
 NROrb=    225 NOA=    31 NOB=    30 NVA=   194 NVB=   195

 **** Warning!!: The largest alpha MO coefficient is  0.97516448D+02


 **** Warning!!: The largest beta MO coefficient is  0.10703620D+03

 Symmetrizing basis deriv contribution to polar:
 IMax=3 JMax=2 DiffMx= 0.00D+00
 G2DrvN: will do    16 centers at a time, making    1 passes.
 Calling FoFCou, ICntrl=  3107 FMM=F I1Cent=   0 AccDes= 0.00D+00.
 End of G2Drv F.D. properties file   721 does not exist.
 End of G2Drv F.D. properties file   722 does not exist.
 End of G2Drv F.D. properties file   788 does not exist.
          IDoAtm=111111111111111
          Differentiating once with respect to electric field.
                with respect to dipole field.
          Differentiating once with respect to nuclear coordinates.
 Keep R1 and R2 ints in memory in canonical form, NReq=652870569.
          There are    48 degrees of freedom in the 1st order CPHF.  IDoFFX=6 NUNeed=     3.
     45 vectors produced by pass  0 Test12= 2.47D-14 2.08D-09 XBig12= 8.41D+01 2.47D+00.
 AX will form    45 AO Fock derivatives at one time.
     45 vectors produced by pass  1 Test12= 2.47D-14 2.08D-09 XBig12= 1.58D+01 3.76D-01.
     45 vectors produced by pass  2 Test12= 2.47D-14 2.08D-09 XBig12= 5.85D-01 1.48D-01.
     45 vectors produced by pass  3 Test12= 2.47D-14 2.08D-09 XBig12= 8.56D-03 1.21D-02.
     45 vectors produced by pass  4 Test12= 2.47D-14 2.08D-09 XBig12= 9.30D-05 1.24D-03.
     45 vectors produced by pass  5 Test12= 2.47D-14 2.08D-09 XBig12= 9.77D-07 9.45D-05.
     43 vectors produced by pass  6 Test12= 2.47D-14 2.08D-09 XBig12= 8.58D-09 8.52D-06.
     23 vectors produced by pass  7 Test12= 2.47D-14 2.08D-09 XBig12= 5.27D-11 5.64D-07.
      4 vectors produced by pass  8 Test12= 2.47D-14 2.08D-09 XBig12= 3.64D-13 4.95D-08.
      3 vectors produced by pass  9 Test12= 2.47D-14 2.08D-09 XBig12= 3.27D-15 5.35D-09.
      1 vectors produced by pass 10 Test12= 2.47D-14 2.08D-09 XBig12= 1.32D-16 3.08D-09.
 InvSVY:  IOpt=1 It=  1 EMax= 7.11D-15
 Solved reduced A of dimension   344 with    48 vectors.
 Isotropic polarizability for W=    0.000000       72.48 Bohr**3.
 End of Minotr F.D. properties file   721 does not exist.
 End of Minotr F.D. properties file   722 does not exist.
 End of Minotr F.D. properties file   788 does not exist.

 **********************************************************************

            Population analysis using the SCF density.

 **********************************************************************

 Orbital symmetries:
 Alpha Orbitals:
       Occupied  (A) (A) (A) (A) (A) (A) (A) (A) (A) (A) (A) (A)
                 (A) (A) (A) (A) (A) (A) (A) (A) (A) (A) (A) (A)
                 (A) (A) (A) (A) (A) (A) (A)
       Virtual   (A) (A) (A) (A) (A) (A) (A) (A) (A) (A) (A) (A)
                 (A) (A) (A) (A) (A) (A) (A) (A) (A) (A) (A) (A)
                 (A) (A) (A) (A) (A) (A) (A) (A) (A) (A) (A) (A)
                 (A) (A) (A) (A) (A) (A) (A) (A) (A) (A) (A) (A)
                 (A) (A) (A) (A) (A) (A) (A) (A) (A) (A) (A) (A)
                 (A) (A) (A) (A) (A) (A) (A) (A) (A) (A) (A) (A)
                 (A) (A) (A) (A) (A) (A) (A) (A) (A) (A) (A) (A)
                 (A) (A) (A) (A) (A) (A) (A) (A) (A) (A) (A) (A)
                 (A) (A) (A) (A) (A) (A) (A) (A) (A) (A) (A) (A)
                 (A) (A) (A) (A) (A) (A) (A) (A) (A) (A) (A) (A)
                 (A) (A) (A) (A) (A) (A) (A) (A) (A) (A) (A) (A)
                 (A) (A) (A) (A) (A) (A) (A) (A) (A) (A) (A) (A)
                 (A) (A) (A) (A) (A) (A) (A) (A) (A) (A) (A) (A)
                 (A) (A) (A) (A) (A) (A) (A) (A) (A) (A) (A) (A)
                 (A) (A) (A) (A) (A) (A) (A) (A) (A) (A) (A) (A)
                 (A) (A) (A) (A) (A) (A) (A) (A) (A) (A) (A) (A)
                 (A) (A)
 Beta  Orbitals:
       Occupied  (A) (A) (A) (A) (A) (A) (A) (A) (A) (A) (A) (A)
                 (A) (A) (A) (A) (A) (A) (A) (A) (A) (A) (A) (A)
                 (A) (A) (A) (A) (A) (A)
       Virtual   (A) (A) (A) (A) (A) (A) (A) (A) (A) (A) (A) (A)
                 (A) (A) (A) (A) (A) (A) (A) (A) (A) (A) (A) (A)
                 (A) (A) (A) (A) (A) (A) (A) (A) (A) (A) (A) (A)
                 (A) (A) (A) (A) (A) (A) (A) (A) (A) (A) (A) (A)
                 (A) (A) (A) (A) (A) (A) (A) (A) (A) (A) (A) (A)
                 (A) (A) (A) (A) (A) (A) (A) (A) (A) (A) (A) (A)
                 (A) (A) (A) (A) (A) (A) (A) (A) (A) (A) (A) (A)
                 (A) (A) (A) (A) (A) (A) (A) (A) (A) (A) (A) (A)
                 (A) (A) (A) (A) (A) (A) (A) (A) (A) (A) (A) (A)
                 (A) (A) (A) (A) (A) (A) (A) (A) (A) (A) (A) (A)
                 (A) (A) (A) (A) (A) (A) (A) (A) (A) (A) (A) (A)
                 (A) (A) (A) (A) (A) (A) (A) (A) (A) (A) (A) (A)
                 (A) (A) (A) (A) (A) (A) (A) (A) (A) (A) (A) (A)
                 (A) (A) (A) (A) (A) (A) (A) (A) (A) (A) (A) (A)
                 (A) (A) (A) (A) (A) (A) (A) (A) (A) (A) (A) (A)
                 (A) (A) (A) (A) (A) (A) (A) (A) (A) (A) (A) (A)
                 (A) (A) (A)
 The electronic state is 2-A.
 Alpha  occ. eigenvalues --  -19.67950 -19.65336 -19.62750 -10.70622 -10.63778
 Alpha  occ. eigenvalues --  -10.60657 -10.60615 -10.53176  -1.25148  -1.16508
 Alpha  occ. eigenvalues --   -1.12148  -0.91559  -0.88093  -0.76684  -0.73937
 Alpha  occ. eigenvalues --   -0.65232  -0.62610  -0.59614  -0.56376  -0.54773
 Alpha  occ. eigenvalues --   -0.53324  -0.49386  -0.47655  -0.46930  -0.44833
 Alpha  occ. eigenvalues --   -0.42114  -0.40915  -0.40348  -0.37558  -0.36682
 Alpha  occ. eigenvalues --   -0.32352
 Alpha virt. eigenvalues --   -0.00779  -0.00710   0.00527   0.00844   0.02255
 Alpha virt. eigenvalues --    0.02528   0.03171   0.04629   0.05448   0.05905
 Alpha virt. eigenvalues --    0.07185   0.07386   0.08637   0.09350   0.09852
 Alpha virt. eigenvalues --    0.10932   0.11131   0.12044   0.12672   0.13531
 Alpha virt. eigenvalues --    0.13948   0.14091   0.14489   0.15060   0.15479
 Alpha virt. eigenvalues --    0.16225   0.18043   0.18197   0.18842   0.20015
 Alpha virt. eigenvalues --    0.21173   0.21729   0.22556   0.23422   0.24227
 Alpha virt. eigenvalues --    0.25812   0.26830   0.27924   0.30737   0.30794
 Alpha virt. eigenvalues --    0.31637   0.32347   0.32714   0.33544   0.33898
 Alpha virt. eigenvalues --    0.35929   0.36567   0.37439   0.37727   0.40484
 Alpha virt. eigenvalues --    0.41300   0.41788   0.46047   0.47398   0.47909
 Alpha virt. eigenvalues --    0.50482   0.52435   0.54147   0.56445   0.58911
 Alpha virt. eigenvalues --    0.59918   0.61337   0.64621   0.64938   0.65223
 Alpha virt. eigenvalues --    0.67991   0.69290   0.70697   0.71594   0.72853
 Alpha virt. eigenvalues --    0.73950   0.76411   0.77147   0.78956   0.79644
 Alpha virt. eigenvalues --    0.80986   0.85142   0.89609   0.90965   0.95985
 Alpha virt. eigenvalues --    0.98942   1.02605   1.05805   1.08032   1.15157
 Alpha virt. eigenvalues --    1.17913   1.19833   1.22768   1.22987   1.26512
 Alpha virt. eigenvalues --    1.27380   1.29730   1.30551   1.31183   1.32163
 Alpha virt. eigenvalues --    1.33455   1.39369   1.40469   1.43844   1.45438
 Alpha virt. eigenvalues --    1.48279   1.49382   1.52399   1.53491   1.57583
 Alpha virt. eigenvalues --    1.58297   1.60426   1.61790   1.62564   1.63787
 Alpha virt. eigenvalues --    1.65959   1.69699   1.72406   1.74008   1.76160
 Alpha virt. eigenvalues --    1.77667   1.80240   1.83377   1.85350   1.89257
 Alpha virt. eigenvalues --    1.92133   1.94169   1.99351   2.04104   2.05777
 Alpha virt. eigenvalues --    2.12424   2.13259   2.14608   2.21089   2.24372
 Alpha virt. eigenvalues --    2.31841   2.34788   2.40047   2.49947   2.52529
 Alpha virt. eigenvalues --    2.53504   2.56367   2.59574   2.61953   2.63613
 Alpha virt. eigenvalues --    2.65451   2.67457   2.70183   2.72435   2.75225
 Alpha virt. eigenvalues --    2.76851   2.79237   2.83458   2.85982   2.90761
 Alpha virt. eigenvalues --    2.92914   2.95678   2.99102   3.01508   3.07800
 Alpha virt. eigenvalues --    3.10565   3.13419   3.14458   3.19081   3.21613
 Alpha virt. eigenvalues --    3.28246   3.33450   3.35359   3.38579   3.44658
 Alpha virt. eigenvalues --    3.46951   3.60130   3.60650   3.76285   3.85324
 Alpha virt. eigenvalues --    3.86250   3.88409   3.96245   4.02931   4.10836
 Alpha virt. eigenvalues --    4.18736   4.29142   5.13404   5.17999   5.21139
 Alpha virt. eigenvalues --    5.21782   5.28500   5.42779   5.63837   5.70008
 Alpha virt. eigenvalues --    5.99159  23.56384  23.92208  23.94093  24.06053
 Alpha virt. eigenvalues --   24.74753  49.98409  50.02599  50.12546
  Beta  occ. eigenvalues --  -19.67940 -19.64603 -19.62766 -10.70575 -10.63926
  Beta  occ. eigenvalues --  -10.60661 -10.60056 -10.53175  -1.25112  -1.16522
  Beta  occ. eigenvalues --   -1.09572  -0.89564  -0.87964  -0.76021  -0.73319
  Beta  occ. eigenvalues --   -0.64700  -0.61990  -0.59118  -0.56224  -0.53452
  Beta  occ. eigenvalues --   -0.52989  -0.47885  -0.47366  -0.44774  -0.43822
  Beta  occ. eigenvalues --   -0.41945  -0.39575  -0.39347  -0.37568  -0.35483
  Beta virt. eigenvalues --   -0.10060  -0.00723  -0.00126   0.00664   0.01382
  Beta virt. eigenvalues --    0.02359   0.02744   0.03496   0.04543   0.05713
  Beta virt. eigenvalues --    0.05971   0.07153   0.07323   0.08495   0.09410
  Beta virt. eigenvalues --    0.10100   0.11158   0.11188   0.12090   0.12828
  Beta virt. eigenvalues --    0.13258   0.13822   0.14395   0.14606   0.14944
  Beta virt. eigenvalues --    0.15823   0.16469   0.17635   0.18165   0.18805
  Beta virt. eigenvalues --    0.20227   0.20910   0.22158   0.22689   0.23388
  Beta virt. eigenvalues --    0.24317   0.25794   0.26727   0.27639   0.30627
  Beta virt. eigenvalues --    0.31064   0.31562   0.32434   0.32644   0.33504
  Beta virt. eigenvalues --    0.33804   0.35751   0.36581   0.37403   0.37611
  Beta virt. eigenvalues --    0.40577   0.41436   0.41732   0.46059   0.47586
  Beta virt. eigenvalues --    0.47932   0.50497   0.52408   0.54146   0.57007
  Beta virt. eigenvalues --    0.59293   0.60204   0.61666   0.64710   0.65159
  Beta virt. eigenvalues --    0.65378   0.67721   0.69270   0.70599   0.71567
  Beta virt. eigenvalues --    0.72900   0.73780   0.76380   0.77055   0.78752
  Beta virt. eigenvalues --    0.79542   0.80642   0.85288   0.90407   0.90990
  Beta virt. eigenvalues --    0.96120   0.99049   1.02624   1.06065   1.08172
  Beta virt. eigenvalues --    1.15500   1.18437   1.20531   1.23355   1.23767
  Beta virt. eigenvalues --    1.26661   1.28133   1.29920   1.31055   1.32154
  Beta virt. eigenvalues --    1.33772   1.34235   1.39410   1.41423   1.44180
  Beta virt. eigenvalues --    1.45705   1.49175   1.49851   1.53131   1.54126
  Beta virt. eigenvalues --    1.57732   1.58693   1.60512   1.61821   1.62615
  Beta virt. eigenvalues --    1.64079   1.66071   1.69713   1.72485   1.74129
  Beta virt. eigenvalues --    1.76297   1.77919   1.80372   1.83604   1.85707
  Beta virt. eigenvalues --    1.89380   1.92254   1.94235   1.99523   2.04782
  Beta virt. eigenvalues --    2.05811   2.12525   2.13622   2.14845   2.21175
  Beta virt. eigenvalues --    2.24750   2.32087   2.34777   2.40198   2.50636
  Beta virt. eigenvalues --    2.52525   2.53588   2.56463   2.59995   2.62028
  Beta virt. eigenvalues --    2.64478   2.65617   2.67752   2.70249   2.72678
  Beta virt. eigenvalues --    2.75629   2.77961   2.80321   2.83764   2.88335
  Beta virt. eigenvalues --    2.90820   2.92926   2.96037   2.99078   3.01342
  Beta virt. eigenvalues --    3.09779   3.11277   3.13447   3.18489   3.20056
  Beta virt. eigenvalues --    3.23629   3.28349   3.33435   3.35489   3.38809
  Beta virt. eigenvalues --    3.44661   3.48749   3.59757   3.60511   3.76268
  Beta virt. eigenvalues --    3.85347   3.86379   3.88409   3.97475   4.02930
  Beta virt. eigenvalues --    4.10583   4.18729   4.29142   5.13857   5.18195
  Beta virt. eigenvalues --    5.22265   5.24263   5.28920   5.42791   5.65202
  Beta virt. eigenvalues --    5.69980   5.99153  23.56507  23.92218  23.94094
  Beta virt. eigenvalues --   24.06053  24.75594  49.98221  50.02127  50.12555
          Condensed to atoms (all electrons):
               1          2          3          4          5          6
     1  C   10.045058   0.483504  -1.926801  -1.826500  -0.109046  -0.019072
     2  H    0.483504   0.424264  -0.142558   0.000881  -0.001200  -0.000711
     3  C   -1.926801  -0.142558   8.252786  -0.259231  -0.081717  -0.198275
     4  C   -1.826500   0.000881  -0.259231   7.373859   0.548517   0.088625
     5  O   -0.109046  -0.001200  -0.081717   0.548517   7.982761  -0.083859
     6  O   -0.019072  -0.000711  -0.198275   0.088625  -0.083859   8.190953
     7  C   -0.305705  -0.000091  -0.092945   0.301617  -0.005522   0.261621
     8  C   -0.003229  -0.000684   0.085328  -0.071654   0.010289  -0.178846
     9  H    0.075998  -0.001699   0.065791  -0.130039  -0.004138  -0.025765
    10  H   -0.012733   0.001580  -0.068040   0.057565   0.000876  -0.054590
    11  H    0.001487  -0.000047  -0.000933   0.004790   0.001217  -0.019874
    12  H   -0.010471   0.000362  -0.039401   0.031561  -0.000880   0.004705
    13  H    0.005354   0.000292   0.000159  -0.010804  -0.000121   0.022945
    14  O   -0.400965  -0.003244   0.383313  -0.091233  -0.007254   0.040190
    15  H    0.044946  -0.000076   0.025752  -0.016294  -0.002877  -0.003372
               7          8          9         10         11         12
     1  C   -0.305705  -0.003229   0.075998  -0.012733   0.001487  -0.010471
     2  H   -0.000091  -0.000684  -0.001699   0.001580  -0.000047   0.000362
     3  C   -0.092945   0.085328   0.065791  -0.068040  -0.000933  -0.039401
     4  C    0.301617  -0.071654  -0.130039   0.057565   0.004790   0.031561
     5  O   -0.005522   0.010289  -0.004138   0.000876   0.001217  -0.000880
     6  O    0.261621  -0.178846  -0.025765  -0.054590  -0.019874   0.004705
     7  C    5.515086   0.005546   0.369776   0.433529  -0.037273  -0.045692
     8  C    0.005546   5.477648  -0.026661  -0.054483   0.418628   0.404398
     9  H    0.369776  -0.026661   0.550675  -0.036787   0.000345  -0.002812
    10  H    0.433529  -0.054483  -0.036787   0.512880  -0.004865   0.006645
    11  H   -0.037273   0.418628   0.000345  -0.004865   0.536385  -0.036907
    12  H   -0.045692   0.404398  -0.002812   0.006645  -0.036907   0.526573
    13  H   -0.024958   0.383549  -0.012838   0.003225  -0.038866  -0.029797
    14  O   -0.023854   0.002530  -0.010932   0.004713  -0.001602   0.003186
    15  H   -0.002207  -0.003211  -0.002645  -0.000206   0.000121   0.000008
              13         14         15
     1  C    0.005354  -0.400965   0.044946
     2  H    0.000292  -0.003244  -0.000076
     3  C    0.000159   0.383313   0.025752
     4  C   -0.010804  -0.091233  -0.016294
     5  O   -0.000121  -0.007254  -0.002877
     6  O    0.022945   0.040190  -0.003372
     7  C   -0.024958  -0.023854  -0.002207
     8  C    0.383549   0.002530  -0.003211
     9  H   -0.012838  -0.010932  -0.002645
    10  H    0.003225   0.004713  -0.000206
    11  H   -0.038866  -0.001602   0.000121
    12  H   -0.029797   0.003186   0.000008
    13  H    0.552266   0.001042   0.000138
    14  O    0.001042   8.179734   0.225069
    15  H    0.000138   0.225069   0.473833
          Atomic-Atomic Spin Densities.
               1          2          3          4          5          6
     1  C    2.138003   0.075813  -0.821848  -0.244759   0.004558  -0.017464
     2  H    0.075813  -0.016610  -0.070848  -0.014006  -0.000170  -0.000415
     3  C   -0.821848  -0.070848   0.303750   0.233596   0.010071   0.007996
     4  C   -0.244759  -0.014006   0.233596   0.025030  -0.009728  -0.001365
     5  O    0.004558  -0.000170   0.010071  -0.009728  -0.012015   0.000139
     6  O   -0.017464  -0.000415   0.007996  -0.001365   0.000139   0.009598
     7  C    0.061328   0.000928   0.013163  -0.062210  -0.000896   0.000630
     8  C   -0.047610  -0.000881  -0.006778   0.039394  -0.000081   0.001617
     9  H   -0.008071   0.000168  -0.000319   0.017763   0.000937  -0.001726
    10  H    0.014002   0.000391  -0.001432  -0.010814  -0.000116  -0.000206
    11  H   -0.000341  -0.000021   0.002044  -0.001347  -0.000023   0.000126
    12  H    0.004153   0.000101   0.000757  -0.004889  -0.000024  -0.000092
    13  H    0.000944   0.000030  -0.001000   0.000068  -0.000009   0.000019
    14  O   -0.319456  -0.007057   0.092777   0.092119   0.002308   0.002893
    15  H    0.041414   0.001122  -0.020316  -0.011922  -0.000124  -0.000011
               7          8          9         10         11         12
     1  C    0.061328  -0.047610  -0.008071   0.014002  -0.000341   0.004153
     2  H    0.000928  -0.000881   0.000168   0.000391  -0.000021   0.000101
     3  C    0.013163  -0.006778  -0.000319  -0.001432   0.002044   0.000757
     4  C   -0.062210   0.039394   0.017763  -0.010814  -0.001347  -0.004889
     5  O   -0.000896  -0.000081   0.000937  -0.000116  -0.000023  -0.000024
     6  O    0.000630   0.001617  -0.001726  -0.000206   0.000126  -0.000092
     7  C   -0.015199  -0.006280   0.010994   0.001173  -0.001017  -0.000143
     8  C   -0.006280   0.020671  -0.003861  -0.003208   0.000454   0.000465
     9  H    0.010994  -0.003861  -0.004899   0.000976   0.000011   0.001096
    10  H    0.001173  -0.003208   0.000976   0.000769  -0.000249   0.000093
    11  H   -0.001017   0.000454   0.000011  -0.000249   0.000169  -0.000596
    12  H   -0.000143   0.000465   0.001096   0.000093  -0.000596  -0.001694
    13  H    0.001201  -0.001593  -0.000366   0.000121   0.000217   0.000192
    14  O    0.003522   0.004163  -0.008179  -0.001246   0.000177   0.001134
    15  H    0.000717  -0.001204   0.000598   0.000153  -0.000008  -0.000060
              13         14         15
     1  C    0.000944  -0.319456   0.041414
     2  H    0.000030  -0.007057   0.001122
     3  C   -0.001000   0.092777  -0.020316
     4  C    0.000068   0.092119  -0.011922
     5  O   -0.000009   0.002308  -0.000124
     6  O    0.000019   0.002893  -0.000011
     7  C    0.001201   0.003522   0.000717
     8  C   -0.001593   0.004163  -0.001204
     9  H   -0.000366  -0.008179   0.000598
    10  H    0.000121  -0.001246   0.000153
    11  H    0.000217   0.000177  -0.000008
    12  H    0.000192   0.001134  -0.000060
    13  H    0.000232  -0.000048   0.000016
    14  O   -0.000048   0.496305  -0.000853
    15  H    0.000016  -0.000853  -0.011227
 Mulliken charges and spin densities:
               1          2
     1  C   -0.041824   0.880665
     2  H    0.239426  -0.031457
     3  C   -0.003228  -0.258386
     4  C   -0.001659   0.046930
     5  O   -0.247046  -0.005173
     6  O   -0.024675   0.001740
     7  C   -0.348929   0.007912
     8  C   -0.449148  -0.004730
     9  H    0.191732   0.005123
    10  H    0.210692   0.000408
    11  H    0.177394  -0.000402
    12  H    0.188522   0.000492
    13  H    0.148414   0.000024
    14  O   -0.300693   0.358558
    15  H    0.261022  -0.001704
 Sum of Mulliken charges =  -0.00000   1.00000
 Mulliken charges and spin densities with hydrogens summed into heavy atoms:
               1          2
     1  C    0.197602   0.849208
     3  C   -0.003228  -0.258386
     4  C   -0.001659   0.046930
     5  O   -0.247046  -0.005173
     6  O   -0.024675   0.001740
     7  C    0.053495   0.013443
     8  C    0.065182  -0.004617
    14  O   -0.039671   0.356854
 APT charges:
               1
     1  C   -0.202001
     2  H    0.244059
     3  C    0.028357
     4  C    1.462336
     5  O   -0.840668
     6  O   -0.940921
     7  C    0.515090
     8  C   -0.022835
     9  H   -0.012588
    10  H   -0.033681
    11  H    0.009107
    12  H    0.038106
    13  H    0.003920
    14  O   -0.482892
    15  H    0.234610
 Sum of APT charges =   0.00000
 APT charges with hydrogens summed into heavy atoms:
               1
     1  C    0.042059
     3  C    0.028357
     4  C    1.462336
     5  O   -0.840668
     6  O   -0.940921
     7  C    0.468820
     8  C    0.028299
    14  O   -0.248282
 Electronic spatial extent (au):  <R**2>=            984.1244
 Charge=             -0.0000 electrons
 Dipole moment (field-independent basis, Debye):
    X=             -0.4041    Y=             -3.6645    Z=             -1.9828  Tot=              4.1860
 Quadrupole moment (field-independent basis, Debye-Ang):
   XX=            -40.4060   YY=            -53.4254   ZZ=            -44.1830
   XY=              7.5964   XZ=              0.7150   YZ=             -0.6921
 Traceless Quadrupole moment (field-independent basis, Debye-Ang):
   XX=              5.5988   YY=             -7.4206   ZZ=              1.8218
   XY=              7.5964   XZ=              0.7150   YZ=             -0.6921
 Octapole moment (field-independent basis, Debye-Ang**2):
  XXX=             -4.9218  YYY=            -10.1237  ZZZ=              8.1845  XYY=             -3.6359
  XXY=            -19.8045  XXZ=             -7.3807  XZZ=             -5.2345  YZZ=             -5.0197
  YYZ=             -4.4559  XYZ=              0.4424
 Hexadecapole moment (field-independent basis, Debye-Ang**3):
 XXXX=           -700.9451 YYYY=           -399.1513 ZZZZ=           -163.7661 XXXY=             46.1656
 XXXZ=             12.8393 YYYX=             27.4184 YYYZ=             -5.1203 ZZZX=            -14.2480
 ZZZY=            -12.5947 XXYY=           -165.1144 XXZZ=           -136.1683 YYZZ=            -80.4857
 XXYZ=              9.9531 YYXZ=              7.9432 ZZXY=             15.9682
 N-N= 3.682300240709D+02 E-N=-1.720862766403D+03  KE= 4.186523390703D+02
  Exact polarizability:  84.229  -0.150  68.877   7.397   2.530  64.320
 Approx polarizability:  91.704  -1.079  81.919   9.679   5.198  79.318
                          Isotropic Fermi Contact Couplings
        Atom                 a.u.       MegaHertz       Gauss      10(-4) cm-1
     1  C(13)              0.13213     148.54352      53.00402      49.54879
     2  H(1)              -0.01337     -59.78249     -21.33188     -19.94129
     3  C(13)             -0.01754     -19.72242      -7.03745      -6.57869
     4  C(13)              0.02998      33.70624      12.02722      11.24319
     5  O(17)             -0.00356       2.15697       0.76966       0.71949
     6  O(17)              0.00166      -1.00408      -0.35828      -0.33493
     7  C(13)             -0.00208      -2.33939      -0.83475      -0.78034
     8  C(13)              0.00047       0.53224       0.18992       0.17754
     9  H(1)               0.00011       0.49987       0.17837       0.16674
    10  H(1)               0.00006       0.26424       0.09429       0.08814
    11  H(1)              -0.00008      -0.34215      -0.12209      -0.11413
    12  H(1)               0.00003       0.12769       0.04556       0.04259
    13  H(1)              -0.00003      -0.12160      -0.04339      -0.04056
    14  O(17)              0.09807     -59.45085     -21.21354     -19.83067
    15  H(1)              -0.00619     -27.65260      -9.86714      -9.22392
 --------------------------------------------------------
       Center         ----  Spin Dipole Couplings  ----
                      3XX-RR        3YY-RR        3ZZ-RR
 --------------------------------------------------------
     1   Atom       -0.298488      0.239822      0.058665
     2   Atom       -0.002020      0.020957     -0.018937
     3   Atom       -0.005217      0.050608     -0.045391
     4   Atom       -0.013614      0.027017     -0.013403
     5   Atom       -0.005722      0.043615     -0.037892
     6   Atom        0.010772      0.007431     -0.018203
     7   Atom        0.001902     -0.002393      0.000491
     8   Atom        0.002818     -0.001987     -0.000831
     9   Atom        0.003949     -0.005316      0.001367
    10   Atom        0.001806     -0.000989     -0.000817
    11   Atom        0.001659     -0.000594     -0.001065
    12   Atom        0.006381     -0.003190     -0.003191
    13   Atom        0.002467     -0.001404     -0.001063
    14   Atom        0.160863     -0.539561      0.378698
    15   Atom        0.023733     -0.050131      0.026398
 --------------------------------------------------------
                        XY            XZ            YZ
 --------------------------------------------------------
     1   Atom       -0.335236      0.167994     -0.572312
     2   Atom        0.041474      0.041106      0.012857
     3   Atom        0.099731      0.061783      0.037164
     4   Atom        0.017324      0.007782      0.000459
     5   Atom        0.004381     -0.041976     -0.024926
     6   Atom        0.024673     -0.018082     -0.010554
     7   Atom       -0.000077     -0.002250     -0.001970
     8   Atom        0.001848     -0.001556     -0.001068
     9   Atom        0.001671     -0.003179     -0.002234
    10   Atom        0.001287     -0.001166     -0.000669
    11   Atom        0.001255      0.000045     -0.000097
    12   Atom        0.002715      0.000541     -0.000238
    13   Atom        0.000127     -0.000695     -0.000050
    14   Atom       -0.477766      1.057171     -0.528577
    15   Atom        0.007546     -0.043067     -0.021003
 --------------------------------------------------------


 ---------------------------------------------------------------------------------
              Anisotropic Spin Dipole Couplings in Principal Axis System
 ---------------------------------------------------------------------------------

       Atom             a.u.   MegaHertz   Gauss  10(-4) cm-1        Axes

              Baa    -0.5087   -68.265   -24.359   -22.771  0.6455  0.6249  0.4392
     1 C(13)  Bbb    -0.3365   -45.151   -16.111   -15.061  0.7003 -0.2548 -0.6668
              Bcc     0.8452   113.416    40.470    37.831 -0.3048  0.7380 -0.6021
 
              Baa    -0.0569   -30.348   -10.829   -10.123  0.6976 -0.2615 -0.6671
     2 H(1)   Bbb    -0.0109    -5.829    -2.080    -1.944 -0.3410  0.6977 -0.6300
              Bcc     0.0678    36.177    12.909    12.067  0.6302  0.6670  0.3975
 
              Baa    -0.1009   -13.539    -4.831    -4.516  0.7333 -0.3380 -0.5900
     3 C(13)  Bbb    -0.0487    -6.538    -2.333    -2.181  0.3186 -0.5957  0.7373
              Bcc     0.1496    20.077     7.164     6.697  0.6007  0.7286  0.3292
 
              Baa    -0.0246    -3.303    -1.179    -1.102  0.7977 -0.2628 -0.5428
     4 C(13)  Bbb    -0.0090    -1.207    -0.431    -0.403  0.4887 -0.2457  0.8371
              Bcc     0.0336     4.510     1.609     1.505  0.3534  0.9330  0.0676
 
              Baa    -0.0697     5.045     1.800     1.683  0.5334  0.1620  0.8302
     5 O(17)  Bbb     0.0138    -1.002    -0.357    -0.334  0.7844 -0.4620 -0.4139
              Bcc     0.0559    -4.043    -1.443    -1.349  0.3165  0.8720 -0.3735
 
              Baa    -0.0270     1.951     0.696     0.651  0.4638 -0.0615  0.8838
     6 O(17)  Bbb    -0.0140     1.011     0.361     0.337 -0.5323  0.7781  0.3335
              Bcc     0.0409    -2.961    -1.057    -0.988  0.7082  0.6251 -0.3281
 
              Baa    -0.0036    -0.488    -0.174    -0.163  0.2208  0.8281  0.5153
     7 C(13)  Bbb    -0.0001    -0.018    -0.006    -0.006  0.6216 -0.5266  0.5799
              Bcc     0.0038     0.506     0.181     0.169  0.7516  0.1923 -0.6310
 
              Baa    -0.0028    -0.375    -0.134    -0.125 -0.2104  0.9192  0.3328
     8 C(13)  Bbb    -0.0013    -0.177    -0.063    -0.059  0.4276 -0.2196  0.8769
              Bcc     0.0041     0.553     0.197     0.184  0.8791  0.3268 -0.3469
 
              Baa    -0.0060    -3.227    -1.152    -1.076 -0.0795  0.9634  0.2562
     9 H(1)   Bbb    -0.0006    -0.333    -0.119    -0.111  0.6018 -0.1585  0.7827
              Bcc     0.0067     3.561     1.271     1.188  0.7946  0.2164 -0.5672
 
              Baa    -0.0016    -0.858    -0.306    -0.286 -0.1515  0.8535  0.4986
    10 H(1)   Bbb    -0.0012    -0.635    -0.227    -0.212  0.4727 -0.3804  0.7949
              Bcc     0.0028     1.493     0.533     0.498  0.8681  0.3561 -0.3458
 
              Baa    -0.0012    -0.654    -0.233    -0.218 -0.3392  0.7595  0.5551
    11 H(1)   Bbb    -0.0010    -0.530    -0.189    -0.177  0.2259 -0.5070  0.8318
              Bcc     0.0022     1.184     0.423     0.395  0.9132  0.4075  0.0004
 
              Baa    -0.0041    -2.169    -0.774    -0.723 -0.2501  0.8835  0.3960
    12 H(1)   Bbb    -0.0031    -1.629    -0.581    -0.543  0.0608 -0.3938  0.9172
              Bcc     0.0071     3.798     1.355     1.267  0.9663  0.2535  0.0448
 
              Baa    -0.0014    -0.753    -0.269    -0.251 -0.0107  0.9925  0.1214
    13 H(1)   Bbb    -0.0012    -0.636    -0.227    -0.212  0.1894 -0.1172  0.9749
              Bcc     0.0026     1.389     0.496     0.463  0.9818  0.0334 -0.1867
 
              Baa    -0.7930    57.382    20.475    19.141  0.7514  0.0430 -0.6585
    14 O(17)  Bbb    -0.7799    56.430    20.135    18.823  0.1802  0.9466  0.2675
              Bcc     1.5729  -113.811   -40.611   -37.963  0.6348 -0.3196  0.7035
 
              Baa    -0.0557   -29.727   -10.607    -9.916  0.0585  0.9593  0.2761
    15 H(1)   Bbb    -0.0159    -8.463    -3.020    -2.823  0.7363 -0.2282  0.6370
              Bcc     0.0716    38.190    13.627    12.739 -0.6741 -0.1660  0.7198
 

 ---------------------------------------------------------------------------------

 Calling FoFJK, ICntrl=    100127 FMM=F ISym2X=0 I1Cent= 0 IOpClX= 1 NMat=1 NMatS=1 NMatT=0.
 Full mass-weighted force constant matrix:
 Low frequencies --- -584.4255   -0.0008   -0.0006    0.0005   20.7783   34.3344
 Low frequencies ---   60.2455   86.5582  107.0701
 ******    1 imaginary frequencies (negative Signs) ****** 
 Diagonal vibrational polarizability:
       29.4845192      83.9391162      40.2479083
 Harmonic frequencies (cm**-1), IR intensities (KM/Mole), Raman scattering
 activities (A**4/AMU), depolarization ratios for plane and unpolarized
 incident light, reduced masses (AMU), force constants (mDyne/A),
 and normal coordinates:
                      1                      2                      3
                      A                      A                      A
 Frequencies --   -584.4247                86.2254               105.7919
 Red. masses --      9.8945                 5.4214                 2.6300
 Frc consts  --      1.9911                 0.0237                 0.0173
 IR Inten    --     30.5801                 0.9030                 0.9412
  Atom  AN      X      Y      Z        X      Y      Z        X      Y      Z
     1   6    -0.01   0.15  -0.06    -0.07   0.02   0.04    -0.05   0.05  -0.07
     2   1     0.22  -0.30   0.32    -0.10   0.06   0.03    -0.07   0.08  -0.10
     3   6     0.28  -0.40   0.51    -0.03   0.00   0.01    -0.06   0.00  -0.02
     4   6    -0.01  -0.05   0.01    -0.04   0.01   0.00     0.01  -0.03   0.01
     5   8    -0.01  -0.02  -0.04    -0.12   0.09  -0.25     0.07  -0.03   0.08
     6   8    -0.00   0.01  -0.01     0.04  -0.09   0.36    -0.00  -0.07  -0.04
     7   6     0.01   0.01  -0.01    -0.01   0.01   0.08    -0.01  -0.12   0.05
     8   6     0.00   0.00   0.00     0.21  -0.02  -0.19     0.16   0.21  -0.01
     9   1     0.04   0.01  -0.05    -0.01  -0.01   0.15     0.04  -0.22   0.34
    10   1     0.03   0.02   0.00    -0.23   0.11   0.02    -0.17  -0.28  -0.10
    11   1     0.00  -0.00   0.01     0.20  -0.01  -0.21     0.11   0.32  -0.29
    12   1    -0.00  -0.00  -0.00     0.42  -0.16  -0.14     0.31   0.38   0.13
    13   1     0.00   0.00   0.00     0.18   0.07  -0.40     0.18   0.17   0.09
    14   8    -0.21   0.25  -0.31     0.01  -0.00  -0.02    -0.12  -0.03  -0.00
    15   1     0.01   0.06  -0.13    -0.04  -0.24  -0.13    -0.11   0.12   0.06
                      4                      5                      6
                      A                      A                      A
 Frequencies --    123.6111               153.0578               212.9083
 Red. masses --      2.6109                 1.3717                 1.3371
 Frc consts  --      0.0235                 0.0189                 0.0357
 IR Inten    --      8.6103                76.5705                 2.7040
  Atom  AN      X      Y      Z        X      Y      Z        X      Y      Z
     1   6     0.19  -0.09  -0.15    -0.07   0.01   0.05     0.04  -0.01  -0.02
     2   1     0.39  -0.27  -0.15    -0.02  -0.16   0.26     0.12  -0.10   0.02
     3   6     0.01   0.01   0.00    -0.00   0.01  -0.03     0.01   0.02   0.00
     4   6    -0.01   0.01   0.03     0.00   0.00  -0.02    -0.02   0.03   0.01
     5   8    -0.00   0.01   0.06    -0.00  -0.00  -0.02    -0.02   0.03   0.00
     6   8    -0.00  -0.00   0.05     0.01   0.01   0.02    -0.01   0.01   0.02
     7   6    -0.05   0.01  -0.04     0.03   0.02   0.02    -0.06  -0.04   0.04
     8   6     0.00  -0.06  -0.13     0.01   0.01   0.03    -0.03  -0.02   0.01
     9   1    -0.07   0.03  -0.04     0.03   0.02  -0.02    -0.09  -0.04   0.13
    10   1    -0.10   0.04  -0.05     0.05   0.04   0.03    -0.11  -0.12  -0.01
    11   1     0.03  -0.08  -0.11    -0.03   0.01   0.09     0.31  -0.15  -0.40
    12   1     0.05  -0.11  -0.12    -0.01  -0.06  -0.00    -0.02   0.46   0.21
    13   1    -0.03  -0.04  -0.21     0.05   0.05   0.01    -0.37  -0.40   0.19
    14   8    -0.11   0.07   0.12    -0.00  -0.09  -0.09     0.08  -0.01  -0.07
    15   1    -0.03   0.61   0.36     0.25   0.78   0.43     0.13   0.04   0.01
                      7                      8                      9
                      A                      A                      A
 Frequencies --    238.7212               250.4880               274.3369
 Red. masses --      6.6288                 2.3899                 1.3382
 Frc consts  --      0.2226                 0.0884                 0.0593
 IR Inten    --      6.1914                 7.6483                21.2477
  Atom  AN      X      Y      Z        X      Y      Z        X      Y      Z
     1   6    -0.11  -0.15   0.00     0.10  -0.01  -0.04     0.02   0.05  -0.03
     2   1    -0.00  -0.44   0.33     0.33  -0.26   0.01    -0.27   0.63  -0.54
     3   6    -0.09   0.05  -0.21    -0.03   0.05   0.08     0.02  -0.03   0.04
     4   6    -0.05  -0.02  -0.05    -0.04   0.06   0.04    -0.01  -0.02   0.01
     5   8     0.02  -0.08   0.17     0.05   0.15  -0.01    -0.04  -0.03  -0.01
     6   8    -0.02  -0.11   0.08    -0.05  -0.05  -0.02    -0.02  -0.02  -0.01
     7   6    -0.01  -0.10   0.06    -0.10  -0.12   0.03    -0.03  -0.04   0.02
     8   6     0.04  -0.06   0.04    -0.05   0.02   0.03    -0.01  -0.01   0.00
     9   1     0.02  -0.12   0.07    -0.10  -0.14   0.14    -0.03  -0.05   0.05
    10   1    -0.02  -0.09   0.06    -0.15  -0.20  -0.02    -0.05  -0.07  -0.00
    11   1    -0.13   0.03   0.16    -0.38   0.20   0.24    -0.07   0.02   0.03
    12   1     0.09  -0.25  -0.01     0.03  -0.32  -0.08     0.02  -0.08  -0.01
    13   1     0.19   0.12  -0.05     0.27   0.35  -0.10     0.04   0.05  -0.03
    14   8     0.14   0.44  -0.15     0.08  -0.08  -0.08     0.09   0.05   0.01
    15   1     0.17   0.14  -0.20     0.15  -0.15  -0.03     0.21   0.30   0.20
                     10                     11                     12
                      A                      A                      A
 Frequencies --    357.2265               390.1496               413.9890
 Red. masses --      3.5437                 3.4007                 3.5354
 Frc consts  --      0.2664                 0.3050                 0.3570
 IR Inten    --     10.1230                 1.4277                 9.9514
  Atom  AN      X      Y      Z        X      Y      Z        X      Y      Z
     1   6    -0.05   0.28  -0.12     0.07  -0.15   0.14    -0.05   0.04  -0.09
     2   1     0.24  -0.39   0.55    -0.17   0.23  -0.12     0.18  -0.16  -0.13
     3   6     0.10   0.01  -0.05     0.06   0.03  -0.04    -0.18   0.02   0.11
     4   6     0.02  -0.01  -0.02     0.01   0.09  -0.03    -0.12  -0.01   0.04
     5   8    -0.14  -0.13  -0.00    -0.07  -0.01   0.04    -0.03   0.07   0.02
     6   8     0.01   0.08  -0.06     0.01   0.19  -0.11    -0.14  -0.03  -0.14
     7   6    -0.07  -0.07   0.07    -0.04  -0.02   0.16     0.17   0.05   0.06
     8   6     0.02  -0.05  -0.02     0.11  -0.11  -0.01     0.20  -0.11   0.04
     9   1    -0.13  -0.06   0.25    -0.13  -0.01   0.39     0.29   0.01  -0.15
    10   1    -0.13  -0.25  -0.03    -0.10  -0.28   0.04     0.30   0.20   0.17
    11   1    -0.04  -0.02   0.03     0.16  -0.15   0.04     0.42  -0.27   0.04
    12   1     0.15  -0.22  -0.02     0.34  -0.35   0.00     0.26  -0.15   0.05
    13   1     0.07   0.07  -0.17     0.04   0.01  -0.35    -0.02  -0.19  -0.15
    14   8     0.10  -0.01   0.13    -0.10  -0.02  -0.09     0.05  -0.00   0.02
    15   1     0.01  -0.07   0.01    -0.15  -0.01  -0.15     0.16  -0.06   0.13
                     13                     14                     15
                      A                      A                      A
 Frequencies --    559.7824               637.4250               713.6099
 Red. masses --      6.0225                 4.4848                 1.3818
 Frc consts  --      1.1119                 1.0736                 0.4146
 IR Inten    --     23.3598                 3.6489                38.0123
  Atom  AN      X      Y      Z        X      Y      Z        X      Y      Z
     1   6    -0.19  -0.08  -0.19     0.05   0.04   0.03    -0.09   0.04   0.11
     2   1    -0.27  -0.12  -0.04    -0.39   0.23   0.42     0.68  -0.21  -0.66
     3   6    -0.05  -0.28  -0.06     0.32  -0.11  -0.19     0.07  -0.02  -0.06
     4   6     0.00  -0.09  -0.06    -0.15   0.07  -0.02    -0.01  -0.02   0.01
     5   8     0.31   0.08  -0.03     0.02   0.16   0.08     0.02  -0.00  -0.01
     6   8    -0.02   0.15   0.03    -0.19  -0.14  -0.01    -0.02  -0.01  -0.01
     7   6    -0.15   0.17   0.19    -0.00  -0.01   0.01    -0.01   0.01   0.02
     8   6    -0.05   0.01  -0.01     0.03  -0.01   0.01    -0.01   0.00  -0.00
     9   1    -0.20   0.18   0.32     0.17  -0.09  -0.23     0.01   0.00  -0.01
    10   1    -0.19  -0.04   0.09     0.07   0.20   0.13     0.00   0.02   0.03
    11   1     0.10  -0.10   0.02     0.08  -0.03  -0.06     0.01  -0.01  -0.01
    12   1     0.15  -0.17   0.01     0.12  -0.02   0.04     0.03  -0.01   0.01
    13   1    -0.22   0.05  -0.35    -0.03  -0.01  -0.07    -0.03   0.01  -0.04
    14   8     0.08  -0.01   0.09    -0.00  -0.03   0.06    -0.00   0.00   0.01
    15   1     0.14  -0.06   0.14    -0.28   0.19  -0.21    -0.09   0.07  -0.08
                     16                     17                     18
                      A                      A                      A
 Frequencies --    746.5850               757.8543               815.8912
 Red. masses --      4.8207                 9.6330                 1.1449
 Frc consts  --      1.5831                 3.2598                 0.4490
 IR Inten    --      5.3555                10.4971                 8.3456
  Atom  AN      X      Y      Z        X      Y      Z        X      Y      Z
     1   6    -0.17  -0.08  -0.08    -0.13  -0.09  -0.08     0.02   0.01   0.01
     2   1     0.03  -0.13  -0.33    -0.21  -0.15   0.11     0.00   0.02   0.03
     3   6     0.00  -0.21  -0.00     0.04  -0.12  -0.21     0.01   0.02  -0.01
     4   6    -0.07   0.25  -0.13     0.15  -0.13   0.72    -0.02  -0.03   0.02
     5   8    -0.12   0.13   0.14    -0.11   0.16  -0.13     0.01   0.00  -0.01
     6   8     0.13   0.10   0.06     0.04   0.11  -0.11    -0.03  -0.03  -0.00
     7   6     0.11  -0.12  -0.16     0.05  -0.08  -0.08     0.04   0.06  -0.02
     8   6     0.07  -0.05   0.00     0.02  -0.03  -0.01     0.02   0.03  -0.01
     9   1    -0.02  -0.09   0.12    -0.03  -0.02  -0.08     0.12  -0.14   0.48
    10   1    -0.07  -0.23  -0.28     0.01  -0.07  -0.08    -0.35  -0.17  -0.29
    11   1    -0.11   0.04   0.13    -0.11   0.08  -0.03     0.19  -0.21   0.40
    12   1    -0.27   0.11  -0.10    -0.07   0.08  -0.01    -0.38  -0.07  -0.25
    13   1     0.28  -0.10   0.40     0.17  -0.02   0.21    -0.13  -0.13   0.05
    14   8     0.04  -0.04   0.07    -0.01   0.06  -0.02    -0.00   0.00  -0.01
    15   1     0.08  -0.07   0.10    -0.07   0.19  -0.06    -0.01   0.01  -0.01
                     19                     20                     21
                      A                      A                      A
 Frequencies --    959.5217              1018.4906              1091.5475
 Red. masses --      2.1611                 1.1678                 4.1867
 Frc consts  --      1.1723                 0.7137                 2.9391
 IR Inten    --     17.1186                56.5230                58.4874
  Atom  AN      X      Y      Z        X      Y      Z        X      Y      Z
     1   6     0.04   0.03   0.02     0.01   0.01   0.02     0.04   0.03   0.03
     2   1     0.03   0.03   0.04     0.03   0.01  -0.01     0.03   0.04   0.05
     3   6     0.00   0.03   0.00     0.05   0.01  -0.06     0.01   0.03  -0.02
     4   6    -0.07  -0.10  -0.02     0.01   0.00   0.00    -0.17  -0.15  -0.01
     5   8     0.07  -0.03  -0.03     0.00   0.00  -0.00     0.07   0.00  -0.02
     6   8    -0.09   0.10   0.03    -0.02  -0.01  -0.00    -0.09   0.19   0.09
     7   6    -0.08   0.01  -0.08    -0.02   0.00  -0.00     0.28  -0.17   0.08
     8   6     0.15  -0.12   0.03     0.02  -0.01   0.00    -0.14  -0.00  -0.16
     9   1    -0.23   0.14  -0.10    -0.01   0.01  -0.03     0.30  -0.22   0.23
    10   1    -0.25   0.10  -0.12    -0.03   0.05   0.01     0.36  -0.26   0.09
    11   1    -0.18   0.12   0.05    -0.01   0.01   0.01    -0.33   0.16  -0.31
    12   1    -0.05   0.19   0.07    -0.01   0.02   0.00    -0.22   0.12  -0.15
    13   1     0.52  -0.11   0.58     0.04  -0.01   0.05    -0.03   0.05  -0.08
    14   8     0.01   0.00  -0.01    -0.07   0.02  -0.01    -0.01   0.01  -0.01
    15   1    -0.10   0.08  -0.11     0.58  -0.52   0.60     0.05  -0.05   0.05
                     22                     23                     24
                      A                      A                      A
 Frequencies --   1139.5633              1178.6622              1278.3241
 Red. masses --      2.2929                 1.8151                 2.5389
 Frc consts  --      1.7544                 1.4857                 2.4445
 IR Inten    --     27.3202                54.5073               336.6865
  Atom  AN      X      Y      Z        X      Y      Z        X      Y      Z
     1   6    -0.01  -0.01  -0.01     0.01   0.01   0.01    -0.03  -0.02  -0.02
     2   1    -0.01  -0.01  -0.01     0.00   0.02   0.02    -0.02  -0.04  -0.04
     3   6    -0.00  -0.01   0.01     0.01   0.00  -0.01    -0.00  -0.01   0.02
     4   6     0.04   0.05  -0.01    -0.09  -0.04   0.01     0.22   0.12  -0.01
     5   8    -0.03   0.00   0.01    -0.02   0.03   0.01     0.01  -0.04  -0.02
     6   8     0.03  -0.09  -0.08     0.06  -0.07  -0.02    -0.18   0.01   0.03
     7   6     0.01   0.09   0.22     0.07   0.17  -0.04     0.11   0.00  -0.03
     8   6     0.01  -0.06  -0.17    -0.07  -0.09   0.04    -0.06  -0.08   0.04
     9   1     0.02   0.12   0.11    -0.13   0.20   0.41     0.24  -0.18   0.33
    10   1    -0.04   0.17   0.24     0.06  -0.45  -0.31    -0.49   0.38  -0.14
    11   1    -0.41   0.20  -0.02    -0.19   0.11  -0.34    -0.16   0.10  -0.36
    12   1    -0.42   0.33  -0.22     0.30   0.08   0.29     0.16   0.03   0.19
    13   1     0.27  -0.12   0.38     0.18   0.17  -0.07     0.12   0.14  -0.09
    14   8     0.00  -0.00   0.00    -0.00   0.00  -0.00     0.00  -0.00   0.00
    15   1    -0.03   0.02  -0.03     0.02  -0.02   0.02    -0.01   0.02  -0.02
                     25                     26                     27
                      A                      A                      A
 Frequencies --   1361.1678              1401.5053              1433.1598
 Red. masses --      1.4049                 1.2574                 1.3650
 Frc consts  --      1.5336                 1.4552                 1.6519
 IR Inten    --    147.0243                23.4693                15.4466
  Atom  AN      X      Y      Z        X      Y      Z        X      Y      Z
     1   6     0.01   0.01   0.01    -0.01  -0.01  -0.00    -0.01  -0.00  -0.00
     2   1     0.00   0.01   0.01    -0.01  -0.01  -0.01    -0.01  -0.01  -0.01
     3   6    -0.01   0.00  -0.00     0.00  -0.00   0.00    -0.00   0.00   0.00
     4   6    -0.09  -0.05   0.00     0.04   0.03   0.00     0.03   0.02   0.01
     5   8    -0.00   0.02   0.01     0.00  -0.01  -0.01     0.00  -0.01  -0.01
     6   8     0.11   0.02  -0.03    -0.04   0.00   0.02    -0.02   0.01   0.02
     7   6    -0.05   0.02   0.00    -0.05   0.03  -0.03    -0.10   0.05  -0.06
     8   6    -0.04  -0.03   0.01    -0.07   0.02  -0.09     0.09  -0.05   0.04
     9   1     0.58  -0.48   0.01     0.22  -0.22   0.17     0.35  -0.36   0.19
    10   1    -0.39   0.45   0.03     0.41  -0.17   0.11     0.50  -0.18   0.12
    11   1    -0.04  -0.01  -0.05     0.19  -0.26   0.30    -0.27   0.24  -0.07
    12   1     0.17   0.00   0.13     0.41  -0.02   0.14    -0.30   0.19  -0.06
    13   1     0.06   0.03   0.03     0.27  -0.01   0.44    -0.15  -0.06  -0.30
    14   8    -0.00   0.00   0.00     0.00  -0.00   0.00     0.00  -0.00   0.00
    15   1     0.00  -0.00   0.00     0.00   0.00   0.00    -0.00   0.01  -0.00
                     28                     29                     30
                      A                      A                      A
 Frequencies --   1488.9446              1503.9963              1533.3004
 Red. masses --      1.0379                 1.0457                 1.0986
 Frc consts  --      1.3557                 1.3936                 1.5218
 IR Inten    --      5.3915                 4.5222                 4.4087
  Atom  AN      X      Y      Z        X      Y      Z        X      Y      Z
     1   6     0.00   0.00   0.00    -0.00  -0.00  -0.00     0.01   0.01   0.00
     2   1     0.00   0.00   0.00    -0.00  -0.00  -0.00     0.01   0.01   0.01
     3   6     0.00  -0.00  -0.00    -0.00   0.00   0.00     0.00  -0.00  -0.00
     4   6    -0.00  -0.00   0.00     0.01   0.00  -0.00    -0.02  -0.02  -0.00
     5   8     0.00  -0.00  -0.00     0.00  -0.00  -0.00    -0.00   0.01   0.00
     6   8     0.00   0.00  -0.00    -0.01   0.01   0.00     0.02  -0.01  -0.01
     7   6    -0.02  -0.01   0.01     0.02  -0.01   0.02     0.01  -0.05  -0.06
     8   6    -0.03  -0.02   0.02     0.00  -0.04  -0.03     0.00  -0.00  -0.01
     9   1    -0.00  -0.02  -0.02     0.03   0.03  -0.24    -0.37   0.09   0.59
    10   1     0.06   0.00   0.06    -0.15  -0.13  -0.12     0.19   0.54   0.28
    11   1     0.44  -0.29  -0.19    -0.14  -0.08   0.54    -0.03  -0.03   0.19
    12   1    -0.39   0.24  -0.06     0.12   0.58   0.29     0.05   0.17   0.09
    13   1     0.45   0.48  -0.18    -0.06   0.10  -0.34    -0.05   0.02  -0.12
    14   8     0.00  -0.00   0.00    -0.00  -0.00   0.00     0.00   0.00  -0.00
    15   1    -0.00   0.00  -0.00     0.00  -0.00   0.00    -0.00   0.00  -0.00
                     31                     32                     33
                      A                      A                      A
 Frequencies --   1856.0323              1880.6900              3074.9029
 Red. masses --      8.7345                 9.3858                 1.0355
 Frc consts  --     17.7279                19.5593                 5.7684
 IR Inten    --    276.4101               259.4135                13.2025
  Atom  AN      X      Y      Z        X      Y      Z        X      Y      Z
     1   6    -0.25  -0.20  -0.18     0.23   0.19   0.16     0.00   0.00   0.00
     2   1    -0.40  -0.30  -0.26     0.35   0.29   0.26    -0.00  -0.00  -0.00
     3   6     0.31   0.32   0.17    -0.28  -0.32  -0.17     0.00  -0.00   0.00
     4   6    -0.30   0.28   0.18    -0.22   0.45   0.20     0.00  -0.00  -0.00
     5   8     0.16  -0.24  -0.13     0.16  -0.25  -0.13    -0.00   0.00   0.00
     6   8     0.03  -0.02  -0.01     0.02  -0.01  -0.01    -0.00  -0.00   0.00
     7   6     0.02  -0.01  -0.00     0.02  -0.01  -0.00     0.00   0.00   0.00
     8   6    -0.00   0.00   0.00    -0.00   0.00   0.00    -0.04   0.01  -0.02
     9   1    -0.08   0.04   0.05    -0.02   0.01   0.01    -0.01  -0.01  -0.00
    10   1    -0.01   0.07   0.01    -0.01   0.04  -0.01    -0.00  -0.00   0.00
    11   1     0.00  -0.00   0.01     0.00  -0.00   0.00     0.32   0.47   0.12
    12   1     0.01   0.00   0.01     0.01  -0.00   0.00    -0.21  -0.17   0.41
    13   1    -0.01   0.00  -0.01    -0.01  -0.00  -0.01     0.37  -0.46  -0.26
    14   8     0.01  -0.03   0.02    -0.01   0.02  -0.02     0.00   0.00  -0.00
    15   1     0.03  -0.02   0.03    -0.01   0.04  -0.01    -0.00   0.00   0.00
                     34                     35                     36
                      A                      A                      A
 Frequencies --   3099.7231              3146.5448              3156.5410
 Red. masses --      1.0618                 1.1039                 1.1009
 Frc consts  --      6.0109                 6.4392                 6.4625
 IR Inten    --     21.5633                 6.9743                10.5526
  Atom  AN      X      Y      Z        X      Y      Z        X      Y      Z
     1   6    -0.00   0.00   0.00     0.00  -0.00  -0.00    -0.00   0.00   0.00
     2   1     0.00   0.00   0.00     0.00   0.00   0.00    -0.00  -0.00  -0.00
     3   6    -0.00   0.00  -0.00     0.00  -0.00  -0.00    -0.00   0.00   0.00
     4   6    -0.00   0.00   0.00    -0.00   0.00  -0.00    -0.00   0.00   0.00
     5   8     0.00  -0.00  -0.00    -0.00   0.00   0.00     0.00  -0.00  -0.00
     6   8     0.00  -0.00  -0.00    -0.00   0.00   0.00    -0.00   0.00   0.00
     7   6     0.00  -0.01  -0.07     0.03   0.04  -0.02    -0.04  -0.05   0.01
     8   6    -0.01   0.00   0.01    -0.01  -0.07  -0.02     0.03  -0.03  -0.05
     9   1     0.31   0.39   0.08    -0.27  -0.34  -0.09     0.38   0.49   0.12
    10   1    -0.34  -0.30   0.72    -0.12  -0.11   0.28     0.10   0.09  -0.22
    11   1    -0.01  -0.02  -0.00     0.36   0.50   0.13     0.12   0.15   0.04
    12   1     0.04   0.03  -0.07     0.03   0.01  -0.06    -0.20  -0.17   0.39
    13   1     0.05  -0.06  -0.04    -0.32   0.37   0.21    -0.30   0.37   0.19
    14   8    -0.00  -0.00   0.00     0.00   0.00  -0.00    -0.00  -0.00   0.00
    15   1     0.00  -0.00  -0.00    -0.00  -0.00   0.00     0.00   0.00  -0.00
                     37                     38                     39
                      A                      A                      A
 Frequencies --   3174.1766              3441.7873              3853.1649
 Red. masses --      1.1058                 1.1271                 1.0678
 Frc consts  --      6.5640                 7.8663                 9.3403
 IR Inten    --     12.5988                82.3853                67.1254
  Atom  AN      X      Y      Z        X      Y      Z        X      Y      Z
     1   6     0.00  -0.00  -0.00    -0.07  -0.07  -0.04     0.00   0.00   0.00
     2   1     0.00   0.00  -0.00     0.62   0.67   0.39    -0.00   0.00  -0.00
     3   6     0.00  -0.00   0.00     0.01   0.01   0.01    -0.00   0.00  -0.00
     4   6    -0.00   0.00  -0.00    -0.00  -0.00   0.00    -0.00  -0.00  -0.00
     5   8    -0.00   0.00   0.00     0.00  -0.00  -0.00     0.00   0.00   0.00
     6   8    -0.00  -0.00   0.00     0.00  -0.00  -0.00     0.00   0.00  -0.00
     7   6     0.03   0.03  -0.02    -0.00  -0.00   0.00     0.00   0.00   0.00
     8   6     0.05   0.04  -0.05     0.00   0.00  -0.00     0.00   0.00  -0.00
     9   1    -0.23  -0.29  -0.08     0.00   0.00   0.00    -0.00  -0.00  -0.00
    10   1    -0.11  -0.11   0.26     0.00   0.00  -0.00    -0.00  -0.00   0.00
    11   1    -0.26  -0.37  -0.11     0.00   0.00   0.00    -0.00  -0.00   0.00
    12   1    -0.30  -0.25   0.61    -0.00  -0.00   0.00    -0.00  -0.00   0.00
    13   1    -0.07   0.11   0.05     0.00  -0.00  -0.00     0.00  -0.00   0.00
    14   8     0.00   0.00  -0.00     0.00  -0.00   0.00    -0.05  -0.01   0.04
    15   1    -0.00   0.00   0.00     0.00  -0.00  -0.00     0.74   0.16  -0.64

 -------------------
 - Thermochemistry -
 -------------------
 Temperature   298.150 Kelvin.  Pressure   1.00000 Atm.
 Atom     1 has atomic number  6 and mass  12.00000
 Atom     2 has atomic number  1 and mass   1.00783
 Atom     3 has atomic number  6 and mass  12.00000
 Atom     4 has atomic number  6 and mass  12.00000
 Atom     5 has atomic number  8 and mass  15.99491
 Atom     6 has atomic number  8 and mass  15.99491
 Atom     7 has atomic number  6 and mass  12.00000
 Atom     8 has atomic number  6 and mass  12.00000
 Atom     9 has atomic number  1 and mass   1.00783
 Atom    10 has atomic number  1 and mass   1.00783
 Atom    11 has atomic number  1 and mass   1.00783
 Atom    12 has atomic number  1 and mass   1.00783
 Atom    13 has atomic number  1 and mass   1.00783
 Atom    14 has atomic number  8 and mass  15.99491
 Atom    15 has atomic number  1 and mass   1.00783
 Molecular mass:   115.03952 amu.
 Principal axes and moments of inertia in atomic units:
                           1         2         3
     Eigenvalues --   666.474821065.647091390.88032
           X            0.99986   0.01632   0.00375
           Y           -0.01630   0.99986  -0.00375
           Z           -0.00381   0.00369   0.99999
 This molecule is an asymmetric top.
 Rotational symmetry number  1.
 Warning -- assumption of classical behavior for rotation
           may cause significant error
 Rotational temperatures (Kelvin)      0.12996     0.08128     0.06227
 Rotational constants (GHZ):           2.70789     1.69356     1.29755
    1 imaginary frequencies ignored.
 Zero-point vibrational energy     292543.2 (Joules/Mol)
                                   69.91950 (Kcal/Mol)
 Warning -- explicit consideration of  12 degrees of freedom as
           vibrations may cause significant error
 Vibrational temperatures:    124.06   152.21   177.85   220.22   306.33
          (Kelvin)            343.47   360.40   394.71   513.97   561.34
                              595.64   805.40   917.11  1026.73  1074.17
                             1090.38  1173.89  1380.54  1465.38  1570.49
                             1639.58  1695.83  1839.22  1958.42  2016.45
                             2062.00  2142.26  2163.92  2206.08  2670.42
                             2705.89  4424.10  4459.81  4527.18  4541.56
                             4566.93  4951.96  5543.84
 
 Zero-point correction=                           0.111424 (Hartree/Particle)
 Thermal correction to Energy=                    0.120906
 Thermal correction to Enthalpy=                  0.121851
 Thermal correction to Gibbs Free Energy=         0.076611
 Sum of electronic and zero-point Energies=           -420.096307
 Sum of electronic and thermal Energies=              -420.086825
 Sum of electronic and thermal Enthalpies=            -420.085880
 Sum of electronic and thermal Free Energies=         -420.131120
 
                     E (Thermal)             CV                S
                      KCal/Mol        Cal/Mol-Kelvin    Cal/Mol-Kelvin
 Total                   75.870             32.509             95.215
 Electronic               0.000              0.000              1.377
 Translational            0.889              2.981             40.136
 Rotational               0.889              2.981             28.381
 Vibrational             74.092             26.547             25.321
 Vibration     1          0.601              1.959              3.744
 Vibration     2          0.605              1.945              3.345
 Vibration     3          0.610              1.929              3.043
 Vibration     4          0.619              1.899              2.634
 Vibration     5          0.644              1.821              2.019
 Vibration     6          0.657              1.781              1.812
 Vibration     7          0.663              1.762              1.727
 Vibration     8          0.677              1.721              1.569
 Vibration     9          0.732              1.560              1.134
 Vibration    10          0.758              1.491              1.000
 Vibration    11          0.778              1.440              0.913
 Vibration    12          0.915              1.118              0.524
                       Q            Log10(Q)             Ln(Q)
 Total Bot       0.577534D-35        -35.238422        -81.139466
 Total V=0       0.103022D+17         16.012928         36.871129
 Vib (Bot)       0.167353D-48        -48.776366       -112.311733
 Vib (Bot)    1  0.238604D+01          0.377678          0.869635
 Vib (Bot)    2  0.193768D+01          0.287283          0.661493
 Vib (Bot)    3  0.165182D+01          0.217964          0.501881
 Vib (Bot)    4  0.132361D+01          0.121759          0.280359
 Vib (Bot)    5  0.931778D+00         -0.030688         -0.070661
 Vib (Bot)    6  0.821857D+00         -0.085204         -0.196189
 Vib (Bot)    7  0.778985D+00         -0.108471         -0.249764
 Vib (Bot)    8  0.702900D+00         -0.153107         -0.352541
 Vib (Bot)    9  0.514038D+00         -0.289005         -0.665458
 Vib (Bot)   10  0.460110D+00         -0.337139         -0.776290
 Vib (Bot)   11  0.426080D+00         -0.370509         -0.853128
 Vib (Bot)   12  0.277706D+00         -0.556414         -1.281191
 Vib (V=0)       0.298528D+03          2.474984          5.698862
 Vib (V=0)    1  0.293787D+01          0.468032          1.077683
 Vib (V=0)    2  0.250115D+01          0.398140          0.916752
 Vib (V=0)    3  0.222584D+01          0.347494          0.800135
 Vib (V=0)    4  0.191490D+01          0.282145          0.649663
 Vib (V=0)    5  0.155745D+01          0.192415          0.443053
 Vib (V=0)    6  0.146200D+01          0.164948          0.379807
 Vib (V=0)    7  0.142564D+01          0.154011          0.354624
 Vib (V=0)    8  0.136259D+01          0.134366          0.309390
 Vib (V=0)    9  0.121710D+01          0.085327          0.196472
 Vib (V=0)   10  0.117949D+01          0.071693          0.165079
 Vib (V=0)   11  0.115692D+01          0.063303          0.145762
 Vib (V=0)   12  0.107194D+01          0.030172          0.069475
 Electronic      0.200000D+01          0.301030          0.693147
 Translational   0.484981D+08          7.685724         17.697035
 Rotational      0.355786D+06          5.551189         12.782085
 ***** Axes restored to original set *****
 -------------------------------------------------------------------
 Center     Atomic                   Forces (Hartrees/Bohr)
 Number     Number              X              Y              Z
 -------------------------------------------------------------------
      1        6          -0.000603558    0.008322372   -0.002683653
      2        1           0.000459404   -0.000218273    0.000367284
      3        6           0.019886361   -0.030418736    0.035174958
      4        6          -0.000424073   -0.002902202    0.000930849
      5        8          -0.001484696   -0.001517557   -0.003184584
      6        8           0.000078965    0.000810141   -0.001388931
      7        6           0.000759645    0.000527542   -0.000555511
      8        6           0.000206947    0.000081632    0.000307603
      9        1           0.000219498    0.000108291   -0.000136074
     10        1           0.000096621    0.000026709    0.000113844
     11        1          -0.000021284   -0.000070253   -0.000022833
     12        1          -0.000146824   -0.000006612   -0.000073904
     13        1          -0.000023903    0.000008196    0.000022119
     14        8          -0.019080559    0.024717542   -0.028114513
     15        1           0.000077456    0.000531210   -0.000756653
 -------------------------------------------------------------------
 Cartesian Forces:  Max     0.035174958 RMS     0.009921616

 GradGradGradGradGradGradGradGradGradGradGradGradGradGradGradGradGradGrad
 Berny optimization.
 Search for a local minimum.
 Step number   1 out of a maximum of    2
 All quantities printed in internal units (Hartrees-Bohrs-Radians)
 Second derivative matrix not updated -- analytic derivatives used.
 ITU=  0
     Eigenvalues ---   -0.16365   0.00086   0.00138   0.00181   0.00245
     Eigenvalues ---    0.00369   0.00489   0.01021   0.02125   0.02624
     Eigenvalues ---    0.02761   0.03399   0.04575   0.05579   0.06421
     Eigenvalues ---    0.06775   0.07957   0.08580   0.10026   0.11508
     Eigenvalues ---    0.12275   0.14542   0.16524   0.18538   0.23484
     Eigenvalues ---    0.24271   0.27571   0.36012   0.50243   0.60663
     Eigenvalues ---    0.68611   0.77108   0.78326   0.86495   0.89538
     Eigenvalues ---    0.94700   1.04713   1.78245   1.93464
 Eigenvalue     1 is  -1.64D-01 should be greater than     0.000000 Eigenvector:
                          Z3        Y3        Z14       Y14       X3
   1                    0.55867  -0.46800  -0.36187   0.32854   0.30962
                          X14       Y1        Z15       Z1        Y4
   1                   -0.29261   0.15116  -0.06648  -0.06378  -0.06127
 Quadratic step=1.071D+00 exceeds max=3.000D-01 adjusted using Lamda=-6.121D-02.
 Angle between NR and scaled steps=  59.47 degrees.
 Angle between quadratic step and forces=   9.00 degrees.
 Linear search not attempted -- first point.
 B after Tr=    -0.001555    0.000383   -0.000967
         Rot=    1.000000    0.000394    0.000095   -0.000023 Ang=   0.05 deg.
 Variable       Old X    -DE/DX   Delta X   Delta X   Delta X     New X
                                 (Linear)    (Quad)   (Total)
    X1       -3.86079  -0.00060   0.00000   0.00087  -0.00028  -3.86106
    Y1       -2.06653   0.00832   0.00000   0.01661   0.01552  -2.05100
    Z1       -1.63363  -0.00268   0.00000  -0.00533  -0.00542  -1.63905
    X2       -5.11682   0.00046   0.00000  -0.00945  -0.01038  -5.12720
    Y2       -3.42125  -0.00022   0.00000   0.01953   0.01773  -3.40352
    Z2       -2.44128   0.00037   0.00000  -0.01860  -0.01786  -2.45913
    X3       -2.22308   0.01989   0.00000   0.09133   0.08987  -2.13321
    Y3       -0.86356  -0.03042   0.00000  -0.14005  -0.13996  -1.00352
    Z3       -0.41253   0.03517   0.00000   0.16110   0.16052  -0.25201
    X4       -1.03333  -0.00042   0.00000  -0.00124  -0.00290  -1.03623
    Y4        1.66858  -0.00290   0.00000  -0.01587  -0.01545   1.65314
    Z4        0.10744   0.00093   0.00000   0.00339   0.00093   0.10836
    X5       -2.19935  -0.00148   0.00000  -0.00341  -0.00532  -2.20467
    Y5        3.35029  -0.00152   0.00000  -0.00991  -0.00881   3.34148
    Z5        1.05623  -0.00318   0.00000  -0.00900  -0.01302   1.04321
    X6        1.40618   0.00008   0.00000   0.00244   0.00088   1.40707
    Y6        1.86510   0.00081   0.00000   0.00451   0.00462   1.86971
    Z6       -0.42635  -0.00139   0.00000  -0.00503  -0.00720  -0.43355
    X7        2.87228   0.00076   0.00000   0.00349   0.00222   2.87450
    Y7       -0.16835   0.00053   0.00000   0.00267   0.00201  -0.16634
    Z7       -1.49367  -0.00056   0.00000  -0.00043  -0.00071  -1.49438
    X8        4.92408   0.00021   0.00000   0.00253   0.00095   4.92502
    Y8       -0.90474   0.00008   0.00000   0.00016   0.00105  -0.90369
    Z8        0.35472   0.00031   0.00000   0.00005   0.00074   0.35546
    X9        1.66581   0.00022   0.00000   0.00063  -0.00048   1.66533
    Y9       -1.77499   0.00011   0.00000   0.00255   0.00148  -1.77351
    Z9       -1.94182  -0.00014   0.00000   0.00214   0.00289  -1.93894
   X10        3.65688   0.00010   0.00000   0.00091  -0.00006   3.65682
   Y10        0.58533   0.00003   0.00000   0.00046  -0.00155   0.58378
   Z10       -3.24495   0.00011   0.00000  -0.00057  -0.00131  -3.24626
   X11        6.08451  -0.00002   0.00000   0.00141  -0.00034   6.08417
   Y11        0.73145  -0.00007   0.00000  -0.00061   0.00071   0.73216
   Z11        0.82961  -0.00002   0.00000   0.00035  -0.00003   0.82957
   X12        4.07927  -0.00015   0.00000  -0.00046  -0.00234   4.07694
   Y12       -1.66736  -0.00001   0.00000  -0.00103   0.00118  -1.66618
   Z12        2.07080  -0.00007   0.00000  -0.00125  -0.00013   2.07068
   X13        6.13223  -0.00002   0.00000   0.00045  -0.00090   6.13133
   Y13       -2.34735   0.00001   0.00000  -0.00077  -0.00050  -2.34785
   Z13       -0.49242   0.00002   0.00000  -0.00070   0.00136  -0.49107
   X14       -0.63144  -0.01908   0.00000  -0.08809  -0.08984  -0.72129
   Y14       -2.77100   0.02472   0.00000   0.11586   0.11756  -2.65344
   Z14        1.81859  -0.02811   0.00000  -0.11365  -0.11266   1.70593
   X15       -1.97871   0.00008   0.00000   0.02089   0.01891  -1.95980
   Y15       -3.10248   0.00053   0.00000   0.00176   0.00441  -3.09807
   Z15        3.00608  -0.00076   0.00000  -0.00919  -0.00808   2.99800
         Item               Value     Threshold  Converged?
 Maximum Force            0.035175     0.000450     NO 
 RMS     Force            0.009922     0.000300     NO 
 Maximum Displacement     0.160518     0.001800     NO 
 RMS     Displacement     0.044747     0.001200     NO 
 Predicted change in Energy=-2.670272D-02
 GradGradGradGradGradGradGradGradGradGradGradGradGradGradGradGradGradGrad


 ----------------------------------------------------------------------

 Electric dipole moment (input orientation):
 (Debye = 10**-18 statcoulomb cm , SI units = C m)
                  (au)            (Debye)         (10**-30 SI)
   Tot        0.164691D+01      0.418603D+01      0.139631D+02
   x         -0.152832D+00     -0.388461D+00     -0.129577D+01
   y         -0.142585D+01     -0.362414D+01     -0.120888D+02
   z         -0.809884D+00     -0.205852D+01     -0.686649D+01

 Dipole polarizability, Alpha (input orientation).
 (esu units = cm**3 , SI units = C**2 m**2 J**-1)
 Alpha(0;0):
               (au)            (10**-24 esu)      (10**-40 SI)
   iso        0.724753D+02      0.107397D+02      0.119496D+02
   aniso      0.225797D+02      0.334597D+01      0.372290D+01
   xx         0.843421D+02      0.124982D+02      0.139061D+02
   yx        -0.157402D+00     -0.233246D-01     -0.259521D-01
   yy         0.687611D+02      0.101893D+02      0.113372D+02
   zx         0.722114D+01      0.107006D+01      0.119061D+01
   zy         0.269036D+01      0.398671D+00      0.443581D+00
   zz         0.643227D+02      0.953165D+01      0.106054D+02

 ----------------------------------------------------------------------

 Dipole orientation:
     6         -3.57559988         -0.59411752          2.95076957
     1         -4.67647121         -0.68698471          4.63738607
     6         -2.12545816         -0.04723516          1.15680789
     6         -1.12720554         -0.79281234         -1.40155179
     8         -2.46511483         -0.87087934         -3.21590194
     8          1.33718190         -1.22133248         -1.53557861
     6          3.00337490         -1.05472250          0.61372966
     6          4.91145989          1.02244198          0.15190744
     1          1.93199121         -0.70834277          2.33705787
     1          3.90537291         -2.90365416          0.74961629
     1          5.93300510          0.68202666         -1.60587897
     1          3.95335452          2.84211033          0.04666082
     1          6.26895286          1.07182729          1.70535913
     8         -0.64732139          2.91913779          1.56333700
     1         -2.07915599          4.03959871          1.39139536

 Electric dipole moment (dipole orientation):
 (Debye = 10**-18 statcoulomb cm , SI units = C m)
                  (au)            (Debye)         (10**-30 SI)
   Tot        0.164691D+01      0.418603D+01      0.139631D+02
   x          0.000000D+00      0.000000D+00      0.000000D+00
   y          0.000000D+00      0.000000D+00      0.000000D+00
   z          0.164691D+01      0.418603D+01      0.139631D+02

 Dipole polarizability, Alpha (dipole orientation).
 (esu units = cm**3 , SI units = C**2 m**2 J**-1)
 Alpha(0;0):
               (au)            (10**-24 esu)      (10**-40 SI)
   iso        0.724753D+02      0.107397D+02      0.119496D+02
   aniso      0.225797D+02      0.334597D+01      0.372290D+01
   xx         0.828358D+02      0.122750D+02      0.136578D+02
   yx         0.744767D+01      0.110363D+01      0.122796D+01
   yy         0.638436D+02      0.946064D+01      0.105264D+02
   zx        -0.468638D+01     -0.694450D+00     -0.772680D+00
   zy        -0.317939D+00     -0.471137D-01     -0.524211D-01
   zz         0.707466D+02      0.104836D+02      0.116645D+02

 ----------------------------------------------------------------------
 1\1\GINC-BOSON\Freq\UM062X\6-311++G(d,p)\C5H7O3(2)\LOKI\28-Mar-2025\0\
 \# freq 6-311++g(d,p) m062x\\Title Card Required\\0,2\C,-2.04304,-1.09
 3558,-0.864478\H,-2.707705,-1.81045,-1.291869\C,-1.176405,-0.456975,-0
 .218299\C,-0.546817,0.882976,0.056853\O,-1.163848,1.772899,0.558933\O,
 0.744121,0.986966,-0.225614\C,1.519944,-0.089085,-0.790415\C,2.605709,
 -0.478766,0.187709\H,0.881509,-0.939283,-1.027568\H,1.935137,0.309744,
 -1.717153\H,3.219785,0.387069,0.439009\H,2.158658,-0.882329,1.095822\H
 ,3.245038,-1.242166,-0.26058\O,-0.334145,-1.466348,0.962357\H,-1.04708
 8,-1.641764,1.59075\\Version=ES64L-G16RevA.03\State=2-A\HF=-420.207730
 8\S2=0.780906\S2-1=0.\S2A=0.750535\RMSD=7.197e-09\RMSF=9.922e-03\ZeroP
 oint=0.1114238\Thermal=0.1209063\Dipole=-0.1528323,-1.425848,-0.809884
 4\DipoleDeriv=-0.1947487,-0.117856,-0.0082356,-0.0409858,-0.2611806,0.
 0173435,-0.0084749,-0.0608517,-0.1500732,0.2718439,0.02212,0.0273967,0
 .0070232,0.2155257,0.0083157,0.0347261,0.0393211,0.2448086,-0.0323917,
 -0.0021089,0.0750764,-0.1912313,-0.0246848,-0.1490378,0.0917243,-0.070
 3487,0.142148,2.2706004,-0.2238266,-0.5647492,0.1167912,1.5543789,0.35
 21069,-0.5097403,0.4702557,0.5620283,-0.9048317,0.2483009,0.2028987,0.
 3256548,-1.1234269,-0.3041088,0.3019302,-0.3405887,-0.4937458,-1.77590
 96,0.3411119,0.4139884,0.1093568,-0.6189577,-0.0837115,0.3543854,-0.17
 33343,-0.4278945,0.6897432,-0.2161278,-0.1090436,-0.3991063,0.4635838,
 0.0726486,-0.1845577,0.0377326,0.3919418,-0.0513135,0.0371861,-0.01975
 46,0.047893,0.0397943,0.0198872,-0.0507241,0.0652631,-0.0569843,-0.049
 4162,-0.0415805,-0.0422574,0.0077031,-0.0266095,-0.0422837,-0.0330388,
 -0.0257584,0.0382609,-0.0266729,0.018545,0.0483109,0.0127523,0.0128429
 ,0.0793311,0.0701152,0.0315305,-0.087213,0.0034566,-0.048975,-0.039861
 ,-0.1006529,-0.039129,-0.0341348,-0.0397759,-0.0068867,0.0629944,0.075
 9595,-0.0216623,0.0590797,-0.0062343,0.0592392,0.0381694,0.0143048,0.0
 411976,-0.020882,-0.015272,0.0712999,0.02391,0.0999156,-0.0077637,-0.0
 562476,0.0390369,-0.0684969,0.0347963,-0.363774,-0.1046764,-0.0417381,
 0.0057388,-0.5342869,0.1044075,-0.1303298,0.0719098,-0.5506141,0.10272
 67,0.0382498,-0.0250214,0.0053818,0.2906742,-0.0226858,0.0504186,-0.01
 09451,0.3104285\Polar=84.3421167,-0.1574023,68.7610906,7.221143,2.6903
 649,64.3227452\Quadrupole=4.075175,-5.3945848,1.3194098,5.7116111,0.63
 84981,-0.6992904\PG=C01 [X(C5H7O3)]\NImag=1\\0.55272254,0.45184285,0.4
 4345860,0.34870742,0.31990839,0.29371654,-0.17200890,-0.16431811,-0.09
 392911,0.16729812,-0.17719448,-0.19082142,-0.12194086,0.16747474,0.183
 91970,-0.08937619,-0.10926008,-0.07814086,0.09688588,0.11167214,0.0758
 3484,-0.33626971,-0.27247797,-0.20848367,-0.00011113,0.01266420,-0.006
 69133,0.44301632,-0.31879671,-0.27215664,-0.23770762,-0.00196957,0.005
 47389,-0.00094194,0.41560092,0.48385913,-0.19192709,-0.19158459,-0.161
 94931,-0.00300902,0.01160400,-0.00266862,0.12955540,0.30242888,0.15640
 972,-0.00496451,-0.00707949,-0.00353330,0.00356106,-0.00307939,-0.0031
 4113,-0.09015440,-0.06909033,0.00036493,0.67565934,0.00897344,0.007132
 06,0.00577063,-0.00045810,0.00053232,-0.00017531,-0.05736287,-0.145414
 29,-0.02158370,-0.18001727,0.77242107,-0.01408474,-0.01345486,-0.00991
 076,-0.00217414,-0.00066430,0.00426615,0.00638142,-0.01758965,-0.05224
 907,-0.18065207,0.25205659,0.35026947,-0.00041039,-0.00130552,-0.00088
 613,-0.00023556,0.00051641,0.00044181,0.01629756,0.00606208,0.00225318
 ,-0.25692206,0.25596100,0.14367424,0.32205637,0.00018827,-0.00225161,0
 .00103350,-0.00087280,0.00068083,0.00134771,0.00765347,-0.05259372,-0.
 03887097,0.26279946,-0.50633034,-0.23154868,-0.31362964,0.54749546,0.0
 0164724,0.00133649,0.00253696,0.00006659,0.00029023,-0.00044950,0.0030
 8066,-0.02445746,0.00406112,0.14545336,-0.23248079,-0.20341466,-0.1942
 4697,0.27718925,0.18803457,-0.00217936,-0.00517978,-0.00152297,0.00052
 785,0.00014698,-0.00004521,-0.03474725,-0.01261299,0.00392065,-0.29991
 278,-0.06163891,0.04054052,-0.08012784,0.04596808,0.04181551,0.5486134
 6,-0.00155971,-0.00281507,-0.00061371,0.00068646,-0.00046892,-0.000539
 84,-0.03446524,-0.00941703,-0.00090636,-0.02728366,-0.11161058,-0.0149
 5705,0.05999863,0.01129571,-0.01763596,-0.06059808,0.30808255,0.003083
 00,0.00205278,0.00210198,0.00012553,0.00009883,-0.00061134,-0.00293718
 ,-0.00354691,0.01052882,0.04939689,-0.00915297,-0.05851097,0.04721743,
 -0.01412356,-0.00216866,-0.14124439,0.10473962,0.13015652,0.00068844,0
 .00218940,0.00132626,-0.00019290,-0.00003528,-0.00003313,-0.00385016,0
 .00023408,0.00036550,-0.03462051,0.02363557,0.01445380,0.00314324,-0.0
 0313579,-0.00063582,-0.09975064,0.02260246,0.02424764,0.53459378,-0.00
 013019,-0.00221944,-0.00178301,0.00008575,-0.00003261,-0.00010078,-0.0
 0651416,0.00231853,0.00305633,0.02772088,0.00718233,-0.00008635,-0.013
 27865,0.00719610,0.00370876,0.03865037,-0.15799742,-0.05097430,0.10714
 372,0.53461941,-0.00019262,-0.00092307,-0.00059875,0.00015463,-0.00006
 573,-0.00002256,-0.00237843,0.00110297,0.00209394,0.01412548,0.0010182
 0,-0.01945560,-0.00231741,0.00029274,0.00927698,0.02941137,-0.04577916
 ,-0.08215492,-0.00597472,-0.03022159,0.56496742,-0.00021992,-0.0000847
 3,0.00008503,0.00003839,0.00001656,0.00000609,-0.00076834,-0.00002728,
 -0.00010768,0.00073804,0.00281429,-0.00271162,-0.00097830,-0.00004591,
 0.00127842,-0.02573657,0.01678402,-0.00808728,-0.14364585,0.01500703,-
 0.06492810,0.54139064,-0.00038044,0.00030989,0.00036836,0.00007693,0.0
 0003100,-0.00002406,0.00033120,-0.00000043,-0.00034812,-0.00490609,-0.
 00430977,0.00321238,0.00256310,-0.00062072,-0.00212975,0.03635020,-0.0
 1473636,0.01054836,0.00933574,-0.08244010,0.02002619,0.01998371,0.5810
 0411,0.00029142,0.00038832,0.00020085,0.00002987,0.00000027,0.00000040
 ,-0.00065074,0.00012388,-0.00027820,-0.00276334,-0.00356575,0.00258659
 ,0.00210520,-0.00062242,-0.00217781,0.01921186,-0.00591536,0.01203032,
 -0.07517084,0.02644081,-0.15103239,-0.04460152,0.01604570,0.55508639,-
 0.00117245,0.00011379,0.00106448,-0.00013542,0.00002960,0.00001872,-0.
 00531750,0.00036887,0.00047150,0.00520454,0.00317753,0.00008621,-0.001
 30091,-0.00053342,0.00014749,0.00807407,0.02232321,0.00765842,-0.15141
 447,-0.13251637,-0.03376185,-0.01406329,-0.01823978,-0.00481845,0.1688
 0336,-0.00071360,0.00032437,0.00075516,0.00003251,0.00010356,-0.000031
 98,0.00085078,0.00070017,-0.00032556,-0.00750835,-0.00061582,0.0011633
 0,0.00167122,-0.00010252,-0.00040791,-0.00278312,-0.02757916,-0.010533
 94,-0.12143683,-0.21169193,-0.04482024,0.00583592,0.01055787,0.0025675
 5,0.13185267,0.23485175,-0.00031669,0.00015623,-0.00016519,-0.00000044
 ,-0.00000153,0.00013263,0.00252957,-0.00087871,0.00039986,-0.00444607,
 -0.00167438,0.00181928,0.00108266,0.00020119,-0.00037379,-0.00270914,-
 0.01640010,-0.00610485,-0.02790541,-0.03817961,-0.06212832,-0.01418670
 ,-0.01645218,-0.00399163,0.03165749,0.05007836,0.06523602,-0.00025717,
 -0.00019169,-0.00005079,0.00000274,0.00002822,0.00006295,0.00038444,-0
 .00033251,-0.00013864,0.00346616,0.00139758,0.00329127,-0.00198920,0.0
 0095490,-0.00021788,-0.01696490,0.00157932,0.01958696,-0.08718719,-0.0
 4228913,0.08091805,0.01095104,0.01005756,-0.02298814,-0.00575042,-0.00
 738339,0.01592073,0.09981293,0.00000081,0.00032886,0.00019079,0.000025
 50,0.00000626,0.00003763,0.00046623,-0.00044173,0.00023630,-0.00487064
 ,-0.00165044,-0.00318892,0.00297128,-0.00163971,0.00001114,0.02480390,
 0.00307550,-0.02878795,-0.04887136,-0.09224389,0.09438127,-0.00381825,
 -0.00229994,0.00627568,-0.00816432,-0.00654251,0.02120760,0.03593610,0
 .09983120,-0.00000964,0.00010839,0.00005850,-0.00001536,0.00000734,-0.
 00002098,0.00041771,-0.00013434,-0.00013919,-0.00445080,-0.00097001,-0
 .00129009,0.00155651,-0.00065315,-0.00027702,0.01466588,-0.00352987,-0
 .00968127,0.08254570,0.08720491,-0.23932306,0.00685446,0.00977327,-0.0
 1722236,-0.00314754,-0.00136327,0.00793493,-0.09494612,-0.09112983,0.2
 5994432,-0.00002310,0.00016492,0.00014894,0.00003938,0.00001162,0.0000
 0591,0.00012504,-0.00000883,-0.00012402,-0.00100947,-0.00049375,0.0002
 6339,0.00028843,0.00009202,-0.00003597,0.00264437,-0.00061526,0.000906
 04,-0.01602032,-0.02008760,-0.00640695,-0.13168642,-0.12142820,-0.0329
 5274,-0.00234084,0.00205809,-0.00328068,0.00090302,0.00051050,0.000501
 67,0.14218185,0.00012010,0.00003279,-0.00002136,0.00000446,-0.00000685
 ,0.00001832,-0.00011197,-0.00007350,-0.00005735,0.00059319,0.00005750,
 -0.00023350,-0.00022059,0.00012492,0.00018152,-0.00135886,0.00137557,0
 .00025164,0.00742488,0.00792417,0.00268906,-0.12380359,-0.22277035,-0.
 04895807,0.00218177,0.00009992,0.00130910,-0.00051677,0.00060053,-0.00
 066177,0.13318492,0.23764635,-0.00015954,-0.00003680,0.00007739,0.0000
 1706,0.00001650,-0.00001097,0.00027083,-0.00004863,0.00002362,0.000191
 81,0.00012811,0.00014798,-0.00010220,-0.00001783,-0.00005598,0.0018255
 4,0.00028274,0.00069427,-0.01366456,-0.02061168,-0.00677685,-0.0332398
 4,-0.04637128,-0.06203191,-0.00310796,0.00231817,-0.00216881,0.0006611
 0,-0.00046929,0.00055604,0.04057167,0.05232861,0.06491438,-0.00001284,
 -0.00017217,0.00003618,-0.00004339,-0.00000008,-0.00004470,-0.00003469
 ,0.00021568,-0.00021031,0.00023371,0.00064878,0.00002998,-0.00015715,-
 0.00018123,-0.00012441,0.00171768,-0.00162400,0.00123908,0.01037827,0.
 01059725,-0.02427220,-0.09573209,-0.04413161,0.09954371,0.00117361,-0.
 00029173,0.00069209,-0.00378745,0.00175396,-0.00360351,-0.00725103,-0.
 00439419,0.01407088,0.10211664,0.00005787,-0.00009864,0.00003646,-0.00
 002022,0.00001227,-0.00000047,-0.00001379,0.00003782,-0.00005152,0.000
 98297,0.00025988,0.00044491,-0.00022711,-0.00005032,-0.00011101,-0.001
 53935,0.00052375,-0.00067802,-0.00208367,-0.00441290,0.00787233,-0.043
 49381,-0.08672977,0.08481977,0.00029070,0.00018255,-0.00082076,0.00118
 645,0.00079634,0.00097627,-0.00933577,-0.00856003,0.02187292,0.0460256
 3,0.08883532,-0.00019746,-0.00016268,-0.00011108,-0.00002160,0.0000079
 3,-0.00002691,0.00027144,0.00000459,0.00014442,0.00057223,0.00065280,-
 0.00005849,-0.00034804,0.00001200,0.00000537,-0.00035131,-0.00105763,0
 .00235439,0.00969891,0.00782577,-0.02180080,0.09444672,0.08468119,-0.2
 3795477,0.00046389,-0.00015216,0.00058207,-0.00379406,0.00076053,-0.00
 127061,-0.00401905,-0.00323540,0.00855987,-0.10164536,-0.09388342,0.25
 905404,-0.00002846,-0.00013412,-0.00003741,-0.00000495,0.00002170,0.00
 001944,-0.00002261,0.00000362,-0.00000997,0.00258041,0.00122066,-0.001
 15978,-0.00100484,0.00031698,0.00078946,-0.00650520,0.00201605,-0.0030
 1611,-0.01111328,0.01429567,0.01375620,-0.13926707,0.11059520,0.063466
 16,0.00019788,-0.00077567,0.00026652,0.00080937,0.00005535,-0.00019080
 ,0.01258701,-0.01285772,-0.00780581,-0.00757008,0.00888472,0.00366581,
 0.14955422,0.00006883,0.00007101,0.00003667,-0.00001473,-0.00000798,-0
 .00000786,0.00007562,0.00003726,-0.00007766,-0.00125151,-0.00035244,0.
 00085737,0.00045424,-0.00023974,-0.00030522,0.00290285,0.00067537,0.00
 082371,0.00217259,-0.00668531,-0.00478528,0.11118972,-0.17855518,-0.07
 762776,0.00020958,0.00021110,0.00018311,-0.00027646,0.00005151,0.00030
 809,0.01590316,-0.01646846,-0.00943439,-0.00805421,0.00986527,0.004296
 78,-0.12325762,0.19144690,-0.00007086,-0.00010492,-0.00007213,-0.00000
 849,-0.00000372,-0.00000211,0.00004397,0.00003626,0.00007849,0.0009759
 4,0.00134491,-0.00095185,-0.00085726,0.00024674,0.00074313,-0.00681560
 ,0.00228199,-0.00121922,-0.00934579,0.01457938,0.01005659,0.06538595,-
 0.07959255,-0.09475137,0.00042195,-0.00064464,0.00069671,0.00122941,-0
 .00003080,0.00041225,0.00434478,-0.00360725,-0.00399340,0.01405390,-0.
 02045803,-0.00927656,-0.06974105,0.08578194,0.09815847,-0.03697301,-0.
 00499757,-0.04310772,0.00139127,-0.00082255,0.00202406,0.00667844,-0.0
 2504645,0.07323017,-0.00123717,0.00309519,-0.00737646,0.00109505,-0.00
 029840,0.00041010,0.00327246,0.00016492,0.00195134,-0.00087749,0.00046
 134,0.00186105,-0.00097510,-0.00011694,-0.00057668,-0.00168865,-0.0012
 9776,0.00112952,-0.00031964,-0.00059190,-0.00014082,-0.00032191,-0.000
 17526,0.00034247,-0.00124709,-0.00069830,0.00076075,-0.00017558,-0.000
 08266,0.00032055,0.33983252,0.03648022,0.01777715,0.03404055,-0.000623
 18,0.00022428,-0.00185698,-0.05609826,-0.00723321,-0.06979219,0.012779
 45,-0.01749027,0.02016543,-0.00207391,-0.00165217,-0.00339016,-0.00337
 686,-0.00013723,-0.00048916,0.00053135,-0.00178720,-0.00044269,-0.0002
 8334,0.00062565,0.00009652,-0.00092303,-0.00029902,0.00091362,-0.00024
 362,0.00006719,0.00006151,0.00005633,0.00001935,-0.00000719,-0.0002571
 1,-0.00063740,0.00011299,-0.00037176,-0.00001260,0.00019500,0.08215215
 ,0.03372101,-0.05452815,-0.00759560,-0.04665564,0.00205527,-0.00101026
 ,0.00203333,0.06568723,-0.01933516,0.04871092,-0.01191868,0.00535012,-
 0.01374444,0.00041983,0.00630202,0.00482750,0.00260164,0.00081568,0.00
 223209,-0.00029658,-0.00036208,-0.00228963,0.00010244,0.00037035,-0.00
 062957,0.00248974,0.00108507,-0.00185664,0.00045862,0.00039786,0.00025
 512,0.00012569,0.00002241,0.00006076,0.00005608,-0.00006197,-0.0002866
 4,0.00004632,-0.00006328,0.00013071,-0.26431405,-0.05126570,0.23638411
 ,0.00110883,0.00163019,0.00018279,-0.00012657,0.00022175,-0.00013317,0
 .00477399,0.00539942,-0.01463460,-0.00262237,-0.00095313,-0.00056202,0
 .00024559,0.00072401,0.00057221,0.00107465,-0.00000911,-0.00012736,-0.
 00013092,0.00085408,0.00000552,-0.00004516,-0.00009057,-0.00012576,-0.
 00026951,-0.00011074,-0.00043344,-0.00007374,-0.00020716,-0.00003733,-
 0.00011601,-0.00007038,0.00012854,0.00021591,-0.00001633,0.00049713,-0
 .00003682,-0.00003942,0.00006261,-0.30845410,-0.06774843,0.25701460,0.
 30445623,0.00104274,0.00092810,-0.00007396,-0.00010963,0.00035366,-0.0
 0013650,-0.01059818,-0.00509625,0.00627252,0.00021077,0.00018881,0.003
 82333,0.00053745,-0.00131219,-0.00179912,0.00026558,-0.00026667,-0.000
 22814,0.00029314,0.00027026,-0.00034501,-0.00007435,-0.00006591,-0.000
 06914,-0.00017079,-0.00020034,0.00035807,0.00009345,0.00006083,0.00000
 246,-0.00001214,-0.00000191,0.00005003,-0.00013497,-0.00002413,0.00013
 672,-0.00001308,-0.00003671,-0.00002432,-0.05174581,-0.02318553,0.0653
 5057,0.06041582,0.02838798,-0.00286609,-0.00082800,-0.00108851,-0.0001
 7667,-0.00001083,-0.00031349,0.01290313,0.00094384,-0.00516653,-0.0001
 7526,0.00328154,0.00049647,0.00000715,-0.00078854,-0.00056821,-0.00130
 433,-0.00078498,0.00035285,0.00038903,-0.00049656,-0.00081205,-0.00029
 636,-0.00010787,0.00016548,0.00035592,0.00031209,-0.00001227,0.0000065
 4,0.00010800,0.00006341,-0.00004868,-0.00002596,0.00000363,0.00017858,
 0.00004254,0.00008572,-0.00004897,0.00001378,-0.00000972,0.23348571,0.
 07165844,-0.22917198,-0.24240970,-0.07331749,0.23597520\\0.00060356,-0
 .00832237,0.00268365,-0.00045940,0.00021827,-0.00036728,-0.01988636,0.
 03041874,-0.03517496,0.00042407,0.00290220,-0.00093085,0.00148470,0.00
 151756,0.00318458,-0.00007897,-0.00081014,0.00138893,-0.00075965,-0.00
 052754,0.00055551,-0.00020695,-0.00008163,-0.00030760,-0.00021950,-0.0
 0010829,0.00013607,-0.00009662,-0.00002671,-0.00011384,0.00002128,0.00
 007025,0.00002283,0.00014682,0.00000661,0.00007390,0.00002390,-0.00000
 820,-0.00002212,0.01908056,-0.02471754,0.02811451,-0.00007746,-0.00053
 121,0.00075665\\\@


 IF NO USE IS MADE OF THE LABOR OF PAST AGES,
 THE WORLD MUST REMAIN ALWAYS IN THE INFANCY OF KNOWLEDGE.

                          -- CICERO
 Job cpu time:       0 days  0 hours 49 minutes  9.9 seconds.
 Elapsed time:       0 days  0 hours 12 minutes 25.4 seconds.
 File lengths (MBytes):  RWF=    146 Int=      0 D2E=      0 Chk=      5 Scr=      1
 Normal termination of Gaussian 16 at Fri Mar 28 05:30:01 2025.
