 Entering Gaussian System, Link 0=g16
 Initial command:
 /opt/g16/l1.exe "/home/loki/Research/Transition_states/Addition/ts1_irc_points/Gau-178251.inp" -scrdir="/home/loki/Research/Transition_states/Addition/ts1_irc_points/"
 Entering Link 1 = /opt/g16/l1.exe PID=    178254.
  
 Copyright (c) 1988,1990,1992,1993,1995,1998,2003,2009,2016,
            Gaussian, Inc.  All Rights Reserved.
  
 This is part of the Gaussian(R) 16 program.  It is based on
 the Gaussian(R) 09 system (copyright 2009, Gaussian, Inc.),
 the Gaussian(R) 03 system (copyright 2003, Gaussian, Inc.),
 the Gaussian(R) 98 system (copyright 1998, Gaussian, Inc.),
 the Gaussian(R) 94 system (copyright 1995, Gaussian, Inc.),
 the Gaussian 92(TM) system (copyright 1992, Gaussian, Inc.),
 the Gaussian 90(TM) system (copyright 1990, Gaussian, Inc.),
 the Gaussian 88(TM) system (copyright 1988, Gaussian, Inc.),
 the Gaussian 86(TM) system (copyright 1986, Carnegie Mellon
 University), and the Gaussian 82(TM) system (copyright 1983,
 Carnegie Mellon University). Gaussian is a federally registered
 trademark of Gaussian, Inc.
  
 This software contains proprietary and confidential information,
 including trade secrets, belonging to Gaussian, Inc.
  
 This software is provided under written license and may be
 used, copied, transmitted, or stored only in accord with that
 written license.
  
 The following legend is applicable only to US Government
 contracts under FAR:
  
                    RESTRICTED RIGHTS LEGEND
  
 Use, reproduction and disclosure by the US Government is
 subject to restrictions as set forth in subparagraphs (a)
 and (c) of the Commercial Computer Software - Restricted
 Rights clause in FAR 52.227-19.
  
 Gaussian, Inc.
 340 Quinnipiac St., Bldg. 40, Wallingford CT 06492
  
  
 ---------------------------------------------------------------
 Warning -- This program may not be used in any manner that
 competes with the business of Gaussian, Inc. or will provide
 assistance to any competitor of Gaussian, Inc.  The licensee
 of this program is prohibited from giving any competitor of
 Gaussian, Inc. access to this program.  By using this program,
 the user acknowledges that Gaussian, Inc. is engaged in the
 business of creating and licensing software in the field of
 computational chemistry and represents and warrants to the
 licensee that it is not a competitor of Gaussian, Inc. and that
 it will not use this program in any manner prohibited above.
 ---------------------------------------------------------------
  

 Cite this work as:
 Gaussian 16, Revision A.03,
 M. J. Frisch, G. W. Trucks, H. B. Schlegel, G. E. Scuseria, 
 M. A. Robb, J. R. Cheeseman, G. Scalmani, V. Barone, 
 G. A. Petersson, H. Nakatsuji, X. Li, M. Caricato, A. V. Marenich, 
 J. Bloino, B. G. Janesko, R. Gomperts, B. Mennucci, H. P. Hratchian, 
 J. V. Ortiz, A. F. Izmaylov, J. L. Sonnenberg, D. Williams-Young, 
 F. Ding, F. Lipparini, F. Egidi, J. Goings, B. Peng, A. Petrone, 
 T. Henderson, D. Ranasinghe, V. G. Zakrzewski, J. Gao, N. Rega, 
 G. Zheng, W. Liang, M. Hada, M. Ehara, K. Toyota, R. Fukuda, 
 J. Hasegawa, M. Ishida, T. Nakajima, Y. Honda, O. Kitao, H. Nakai, 
 T. Vreven, K. Throssell, J. A. Montgomery, Jr., J. E. Peralta, 
 F. Ogliaro, M. J. Bearpark, J. J. Heyd, E. N. Brothers, K. N. Kudin, 
 V. N. Staroverov, T. A. Keith, R. Kobayashi, J. Normand, 
 K. Raghavachari, A. P. Rendell, J. C. Burant, S. S. Iyengar, 
 J. Tomasi, M. Cossi, J. M. Millam, M. Klene, C. Adamo, R. Cammi, 
 J. W. Ochterski, R. L. Martin, K. Morokuma, O. Farkas, 
 J. B. Foresman, and D. J. Fox, Gaussian, Inc., Wallingford CT, 2016.
 
 ******************************************
 Gaussian 16:  ES64L-G16RevA.03 25-Dec-2016
                28-Mar-2025 
 ******************************************
 %chk=ethyl_propiolate.chk
 %nprocshared=8
 Will use up to    8 processors via shared memory.
 %mem=12GB
 --------------------------
 # freq 6-311++g(d,p) m062x
 --------------------------
 1/10=4,30=1,38=1/1,3;
 2/12=2,17=6,18=5,40=1/2;
 3/5=4,6=6,7=1111,11=2,25=1,30=1,71=2,74=-55,140=1/1,2,3;
 4//1;
 5/5=2,38=5,98=1/2;
 8/6=4,10=90,11=11/1;
 11/6=1,8=1,9=11,15=111,16=1/1,2,10;
 10/6=1/2;
 6/7=2,8=2,9=2,10=2,28=1/1;
 7/8=1,10=1,25=1/1,2,3,16;
 1/10=4,30=1/3;
 99//99;
 -------------------
 Title Card Required
 -------------------
 Symbolic Z-matrix:
 Charge =  0 Multiplicity = 2
 C                    -2.04057  -1.11962  -0.85881 
 H                    -2.6979   -1.85712  -1.25782 
 C                    -1.27293  -0.31317  -0.39596 
 C                    -0.55425   0.89683   0.04153 
 O                    -1.15543   1.78121   0.57503 
 O                     0.7443    0.98338  -0.21796 
 C                     1.51412  -0.09112  -0.78852 
 C                     2.60541  -0.47884   0.18577 
 H                     0.86871  -0.93879  -1.01905 
 H                     1.92725   0.30339  -1.71822 
 H                     3.21928   0.388     0.43386 
 H                     2.1665   -0.87904   1.09954 
 H                     3.2441   -1.24292  -0.26208 
 O                    -0.26193  -1.56328   1.07368 
 H                    -1.04387  -1.67131   1.6394 
 

 GradGradGradGradGradGradGradGradGradGradGradGradGradGradGradGradGradGrad
 Berny optimization.
 Initialization pass.
 Trust Radius=3.00D-01 FncErr=1.00D-07 GrdErr=1.00D-07 EigMax=2.50D+02 EigMin=1.00D-04
 Number of steps in this run=      2 maximum allowed number of steps=      2.
 GradGradGradGradGradGradGradGradGradGradGradGradGradGradGradGradGradGrad

                          Input orientation:                          
 ---------------------------------------------------------------------
 Center     Atomic      Atomic             Coordinates (Angstroms)
 Number     Number       Type             X           Y           Z
 ---------------------------------------------------------------------
      1          6           0       -2.040573   -1.119624   -0.858807
      2          1           0       -2.697896   -1.857124   -1.257815
      3          6           0       -1.272931   -0.313172   -0.395963
      4          6           0       -0.554246    0.896834    0.041528
      5          8           0       -1.155430    1.781205    0.575029
      6          8           0        0.744298    0.983384   -0.217956
      7          6           0        1.514122   -0.091121   -0.788515
      8          6           0        2.605411   -0.478840    0.185771
      9          1           0        0.868706   -0.938785   -1.019047
     10          1           0        1.927252    0.303390   -1.718223
     11          1           0        3.219276    0.387999    0.433855
     12          1           0        2.166499   -0.879042    1.099542
     13          1           0        3.244102   -1.242921   -0.262078
     14          8           0       -0.261934   -1.563276    1.073679
     15          1           0       -1.043865   -1.671306    1.639399
 ---------------------------------------------------------------------
                    Distance matrix (angstroms):
                    1          2          3          4          5
     1  C    0.000000
     2  H    1.065452   0.000000
     3  C    1.205763   2.270925   0.000000
     4  C    2.661930   3.723951   1.473778   0.000000
     5  O    3.354724   4.356140   2.311503   1.195055   0.000000
     6  O    3.548075   4.582411   2.404570   1.327042   2.207784
     7  C    3.701164   4.591308   2.823308   2.437862   3.534312
     8  C    4.804884   5.666451   3.925226   3.449162   4.404912
     9  H    2.919295   3.690665   2.316513   2.553255   3.746538
    10  H    4.302000   5.125601   3.517057   3.099473   4.116536
    11  H    5.622269   6.550973   4.621706   3.827833   4.593365
    12  H    4.646769   5.493279   3.792944   3.416955   4.288035
    13  H    5.319688   6.056078   4.613669   4.370146   5.403885
    14  O    2.663623   3.384689   2.178238   2.683826   3.497505
    15  H    2.745690   3.341287   2.457580   3.064027   3.614576
                    6          7          8          9         10
     6  O    0.000000
     7  C    1.439697   0.000000
     8  C    2.401007   1.513430   0.000000
     9  H    2.086135   1.090065   2.163164   0.000000
    10  H    2.027948   1.091179   2.167251   1.775490   0.000000
    11  H    2.627709   2.152044   1.090773   3.065364   2.511558
    12  H    2.688324   2.147365   1.089854   2.485207   3.065156
    13  H    3.347746   2.143971   1.091932   2.511575   2.499106
    14  O    3.027590   2.964689   3.191559   2.459235   4.008952
    15  H    3.700632   3.864589   4.105146   3.355868   4.899039
                   11         12         13         14         15
    11  H    0.000000
    12  H    1.776759   0.000000
    13  H    1.773369   1.774160   0.000000
    14  O    4.041741   2.523119   3.765523   0.000000
    15  H    4.885534   3.350457   4.710179   0.971147   0.000000
 Stoichiometry    C5H7O3(2)
 Framework group  C1[X(C5H7O3)]
 Deg. of freedom    39
 Full point group                 C1      NOp   1
 Largest Abelian subgroup         C1      NOp   1
 Largest concise Abelian subgroup C1      NOp   1
                         Standard orientation:                         
 ---------------------------------------------------------------------
 Center     Atomic      Atomic             Coordinates (Angstroms)
 Number     Number       Type             X           Y           Z
 ---------------------------------------------------------------------
      1          6           0       -2.100333   -1.073051   -0.855025
      2          1           0       -2.754636   -1.808618   -1.262475
      3          6           0       -1.335824   -0.268793   -0.383263
      4          6           0       -0.623474    0.939008    0.070386
      5          8           0       -1.227857    1.809496    0.622771
      6          8           0        0.672682    1.039911   -0.195766
      7          6           0        1.446890   -0.018755   -0.789531
      8          6           0        2.547324   -0.414737    0.171049
      9          1           0        0.806408   -0.867259   -1.030499
     10          1           0        1.851037    0.394757   -1.714920
     11          1           0        3.156224    0.452397    0.430094
     12          1           0        2.117336   -0.833863    1.080569
     13          1           0        3.188856   -1.166136   -0.293871
     14          8           0       -0.305988   -1.536100    1.058296
     15          1           0       -1.083421   -1.659772    1.627003
 ---------------------------------------------------------------------
 Rotational constants (GHZ):           2.5705486           1.6564461           1.2765309
 Standard basis: 6-311++G(d,p) (5D, 7F)
 There are   233 symmetry adapted cartesian basis functions of A   symmetry.
 There are   225 symmetry adapted basis functions of A   symmetry.
   225 basis functions,   351 primitive gaussians,   233 cartesian basis functions
    31 alpha electrons       30 beta electrons
       nuclear repulsion energy       363.7276249980 Hartrees.
 NAtoms=   15 NActive=   15 NUniq=   15 SFac= 1.00D+00 NAtFMM=   60 NAOKFM=F Big=F
 Integral buffers will be    131072 words long.
 Raffenetti 2 integral format.
 Two-electron integral symmetry is turned on.
 One-electron integrals computed using PRISM.
 NBasis=   225 RedAO= T EigKep=  1.69D-06  NBF=   225
 NBsUse=   225 1.00D-06 EigRej= -1.00D+00 NBFU=   225
 ExpMin= 3.60D-02 ExpMax= 8.59D+03 ExpMxC= 1.30D+03 IAcc=3 IRadAn=         5 AccDes= 0.00D+00
 Harris functional with IExCor= 1009 and IRadAn=       5 diagonalized for initial guess.
 HarFok:  IExCor= 1009 AccDes= 0.00D+00 IRadAn=         5 IDoV= 1 UseB2=F ITyADJ=14
 ICtDFT=  3500011 ScaDFX=  1.000000  1.000000  1.000000  1.000000
 FoFCou: FMM=F IPFlag=           0 FMFlag=      100000 FMFlg1=           0
         NFxFlg=           0 DoJE=T BraDBF=F KetDBF=T FulRan=T
         wScrn=  0.000000 ICntrl=       500 IOpCl=  0 I1Cent=   200000004 NGrid=           0
         NMat0=    1 NMatS0=      1 NMatT0=    0 NMatD0=    1 NMtDS0=    0 NMtDT0=    0
 Petite list used in FoFCou.
 Initial guess <Sx>= 0.0000 <Sy>= 0.0000 <Sz>= 0.5000 <S**2>= 0.7500 S= 0.5000
 Requested convergence on RMS density matrix=1.00D-08 within 128 cycles.
 Requested convergence on MAX density matrix=1.00D-06.
 Requested convergence on             energy=1.00D-06.
 No special actions if energy rises.
 Restarting incremental Fock formation.
 SCF Done:  E(UM062X) =  -420.199154455     A.U. after   24 cycles
            NFock= 24  Conv=0.30D-08     -V/T= 2.0032
 <Sx>= 0.0000 <Sy>= 0.0000 <Sz>= 0.5000 <S**2>= 0.7610 S= 0.5055
 <L.S>=  0.00000000000    
 Annihilation of the first spin contaminant:
 S**2 before annihilation     0.7610,   after     0.7501
 DoSCS=F DFT=T ScalE2(SS,OS)=  1.000000  1.000000
 Range of M.O.s used for correlation:     1   225
 NBasis=   225 NAE=    31 NBE=    30 NFC=     0 NFV=     0
 NROrb=    225 NOA=    31 NOB=    30 NVA=   194 NVB=   195

 **** Warning!!: The largest alpha MO coefficient is  0.22141496D+03


 **** Warning!!: The largest beta MO coefficient is  0.24747075D+03

 Symmetrizing basis deriv contribution to polar:
 IMax=3 JMax=2 DiffMx= 0.00D+00
 G2DrvN: will do    16 centers at a time, making    1 passes.
 Calling FoFCou, ICntrl=  3107 FMM=F I1Cent=   0 AccDes= 0.00D+00.
 End of G2Drv F.D. properties file   721 does not exist.
 End of G2Drv F.D. properties file   722 does not exist.
 End of G2Drv F.D. properties file   788 does not exist.
          IDoAtm=111111111111111
          Differentiating once with respect to electric field.
                with respect to dipole field.
          Differentiating once with respect to nuclear coordinates.
 Keep R1 and R2 ints in memory in canonical form, NReq=654950185.
          There are    48 degrees of freedom in the 1st order CPHF.  IDoFFX=6 NUNeed=     3.
     45 vectors produced by pass  0 Test12= 2.47D-14 2.08D-09 XBig12= 8.43D+01 2.72D+00.
 AX will form    45 AO Fock derivatives at one time.
     45 vectors produced by pass  1 Test12= 2.47D-14 2.08D-09 XBig12= 1.63D+01 4.13D-01.
     45 vectors produced by pass  2 Test12= 2.47D-14 2.08D-09 XBig12= 4.59D-01 9.94D-02.
     45 vectors produced by pass  3 Test12= 2.47D-14 2.08D-09 XBig12= 7.26D-03 1.62D-02.
     45 vectors produced by pass  4 Test12= 2.47D-14 2.08D-09 XBig12= 8.65D-05 1.34D-03.
     45 vectors produced by pass  5 Test12= 2.47D-14 2.08D-09 XBig12= 8.93D-07 1.10D-04.
     42 vectors produced by pass  6 Test12= 2.47D-14 2.08D-09 XBig12= 8.03D-09 9.58D-06.
     20 vectors produced by pass  7 Test12= 2.47D-14 2.08D-09 XBig12= 6.20D-11 6.33D-07.
      4 vectors produced by pass  8 Test12= 2.47D-14 2.08D-09 XBig12= 4.82D-13 7.10D-08.
      3 vectors produced by pass  9 Test12= 2.47D-14 2.08D-09 XBig12= 5.23D-15 1.03D-08.
      2 vectors produced by pass 10 Test12= 2.47D-14 2.08D-09 XBig12= 6.14D-16 4.58D-09.
 InvSVY:  IOpt=1 It=  1 EMax= 5.33D-15
 Solved reduced A of dimension   341 with    48 vectors.
 Isotropic polarizability for W=    0.000000       73.50 Bohr**3.
 End of Minotr F.D. properties file   721 does not exist.
 End of Minotr F.D. properties file   722 does not exist.
 End of Minotr F.D. properties file   788 does not exist.

 **********************************************************************

            Population analysis using the SCF density.

 **********************************************************************

 Orbital symmetries:
 Alpha Orbitals:
       Occupied  (A) (A) (A) (A) (A) (A) (A) (A) (A) (A) (A) (A)
                 (A) (A) (A) (A) (A) (A) (A) (A) (A) (A) (A) (A)
                 (A) (A) (A) (A) (A) (A) (A)
       Virtual   (A) (A) (A) (A) (A) (A) (A) (A) (A) (A) (A) (A)
                 (A) (A) (A) (A) (A) (A) (A) (A) (A) (A) (A) (A)
                 (A) (A) (A) (A) (A) (A) (A) (A) (A) (A) (A) (A)
                 (A) (A) (A) (A) (A) (A) (A) (A) (A) (A) (A) (A)
                 (A) (A) (A) (A) (A) (A) (A) (A) (A) (A) (A) (A)
                 (A) (A) (A) (A) (A) (A) (A) (A) (A) (A) (A) (A)
                 (A) (A) (A) (A) (A) (A) (A) (A) (A) (A) (A) (A)
                 (A) (A) (A) (A) (A) (A) (A) (A) (A) (A) (A) (A)
                 (A) (A) (A) (A) (A) (A) (A) (A) (A) (A) (A) (A)
                 (A) (A) (A) (A) (A) (A) (A) (A) (A) (A) (A) (A)
                 (A) (A) (A) (A) (A) (A) (A) (A) (A) (A) (A) (A)
                 (A) (A) (A) (A) (A) (A) (A) (A) (A) (A) (A) (A)
                 (A) (A) (A) (A) (A) (A) (A) (A) (A) (A) (A) (A)
                 (A) (A) (A) (A) (A) (A) (A) (A) (A) (A) (A) (A)
                 (A) (A) (A) (A) (A) (A) (A) (A) (A) (A) (A) (A)
                 (A) (A) (A) (A) (A) (A) (A) (A) (A) (A) (A) (A)
                 (A) (A)
 Beta  Orbitals:
       Occupied  (A) (A) (A) (A) (A) (A) (A) (A) (A) (A) (A) (A)
                 (A) (A) (A) (A) (A) (A) (A) (A) (A) (A) (A) (A)
                 (A) (A) (A) (A) (A) (A)
       Virtual   (A) (A) (A) (A) (A) (A) (A) (A) (A) (A) (A) (A)
                 (A) (A) (A) (A) (A) (A) (A) (A) (A) (A) (A) (A)
                 (A) (A) (A) (A) (A) (A) (A) (A) (A) (A) (A) (A)
                 (A) (A) (A) (A) (A) (A) (A) (A) (A) (A) (A) (A)
                 (A) (A) (A) (A) (A) (A) (A) (A) (A) (A) (A) (A)
                 (A) (A) (A) (A) (A) (A) (A) (A) (A) (A) (A) (A)
                 (A) (A) (A) (A) (A) (A) (A) (A) (A) (A) (A) (A)
                 (A) (A) (A) (A) (A) (A) (A) (A) (A) (A) (A) (A)
                 (A) (A) (A) (A) (A) (A) (A) (A) (A) (A) (A) (A)
                 (A) (A) (A) (A) (A) (A) (A) (A) (A) (A) (A) (A)
                 (A) (A) (A) (A) (A) (A) (A) (A) (A) (A) (A) (A)
                 (A) (A) (A) (A) (A) (A) (A) (A) (A) (A) (A) (A)
                 (A) (A) (A) (A) (A) (A) (A) (A) (A) (A) (A) (A)
                 (A) (A) (A) (A) (A) (A) (A) (A) (A) (A) (A) (A)
                 (A) (A) (A) (A) (A) (A) (A) (A) (A) (A) (A) (A)
                 (A) (A) (A) (A) (A) (A) (A) (A) (A) (A) (A) (A)
                 (A) (A) (A)
 The electronic state is 2-A.
 Alpha  occ. eigenvalues --  -19.68226 -19.67794 -19.62422 -10.70667 -10.60634
 Alpha  occ. eigenvalues --  -10.59029 -10.58643 -10.53385  -1.24925  -1.16297
 Alpha  occ. eigenvalues --   -1.14108  -0.90408  -0.88078  -0.76414  -0.73765
 Alpha  occ. eigenvalues --   -0.64639  -0.62242  -0.59371  -0.56196  -0.55592
 Alpha  occ. eigenvalues --   -0.53008  -0.50356  -0.47638  -0.47566  -0.44993
 Alpha  occ. eigenvalues --   -0.43172  -0.41834  -0.39995  -0.37605  -0.36422
 Alpha  occ. eigenvalues --   -0.36016
 Alpha virt. eigenvalues --   -0.01468  -0.00745   0.00566   0.00979   0.02209
 Alpha virt. eigenvalues --    0.02437   0.03447   0.04748   0.05698   0.05968
 Alpha virt. eigenvalues --    0.07198   0.07432   0.08646   0.09455   0.10246
 Alpha virt. eigenvalues --    0.11228   0.11355   0.11733   0.12799   0.13143
 Alpha virt. eigenvalues --    0.13785   0.14506   0.14823   0.15116   0.15533
 Alpha virt. eigenvalues --    0.16802   0.17651   0.18422   0.19515   0.20069
 Alpha virt. eigenvalues --    0.20736   0.21992   0.22518   0.23143   0.23707
 Alpha virt. eigenvalues --    0.25151   0.26945   0.27709   0.28940   0.30586
 Alpha virt. eigenvalues --    0.31067   0.32333   0.32599   0.33157   0.33711
 Alpha virt. eigenvalues --    0.33942   0.36438   0.37358   0.37689   0.39778
 Alpha virt. eigenvalues --    0.40566   0.41992   0.46294   0.47511   0.51141
 Alpha virt. eigenvalues --    0.51466   0.52002   0.54444   0.57998   0.59431
 Alpha virt. eigenvalues --    0.60252   0.61178   0.65013   0.66097   0.68737
 Alpha virt. eigenvalues --    0.68969   0.70491   0.70722   0.71568   0.73254
 Alpha virt. eigenvalues --    0.74369   0.75479   0.77624   0.78186   0.78968
 Alpha virt. eigenvalues --    0.84126   0.85807   0.90857   0.95758   0.98979
 Alpha virt. eigenvalues --    1.00694   1.05775   1.08014   1.08879   1.11105
 Alpha virt. eigenvalues --    1.14798   1.17700   1.21373   1.22924   1.24522
 Alpha virt. eigenvalues --    1.26687   1.28015   1.29180   1.30667   1.31586
 Alpha virt. eigenvalues --    1.32603   1.36513   1.38600   1.42352   1.43377
 Alpha virt. eigenvalues --    1.44243   1.47127   1.51527   1.53275   1.54971
 Alpha virt. eigenvalues --    1.58789   1.60489   1.62244   1.62761   1.64084
 Alpha virt. eigenvalues --    1.65659   1.68998   1.72227   1.73648   1.76256
 Alpha virt. eigenvalues --    1.79099   1.81262   1.83577   1.86110   1.89750
 Alpha virt. eigenvalues --    1.90671   1.96388   1.98853   2.01352   2.05279
 Alpha virt. eigenvalues --    2.09746   2.12409   2.14667   2.21481   2.32364
 Alpha virt. eigenvalues --    2.34779   2.40430   2.47646   2.51926   2.52532
 Alpha virt. eigenvalues --    2.53577   2.56780   2.61631   2.62315   2.64725
 Alpha virt. eigenvalues --    2.64993   2.67886   2.70391   2.74225   2.74627
 Alpha virt. eigenvalues --    2.81108   2.82262   2.83253   2.90144   2.92251
 Alpha virt. eigenvalues --    2.92881   2.94268   3.00550   3.02735   3.05235
 Alpha virt. eigenvalues --    3.05627   3.11030   3.12738   3.16197   3.17454
 Alpha virt. eigenvalues --    3.27313   3.29367   3.33623   3.37287   3.41094
 Alpha virt. eigenvalues --    3.43922   3.55062   3.63345   3.77289   3.84596
 Alpha virt. eigenvalues --    3.85554   3.88423   3.92690   4.03381   4.15847
 Alpha virt. eigenvalues --    4.19453   4.29314   5.08460   5.12714   5.17824
 Alpha virt. eigenvalues --    5.20232   5.28747   5.43075   5.58941   5.70786
 Alpha virt. eigenvalues --    5.99709  23.60916  23.93495  23.94085  24.05827
 Alpha virt. eigenvalues --   25.08990  49.94931  50.00270  50.14156
  Beta  occ. eigenvalues --  -19.67793 -19.66701 -19.62439 -10.70654 -10.60636
  Beta  occ. eigenvalues --  -10.59022 -10.58510 -10.53383  -1.24923  -1.16327
  Beta  occ. eigenvalues --   -1.07181  -0.89765  -0.88025  -0.76260  -0.73625
  Beta  occ. eigenvalues --   -0.64510  -0.61949  -0.58814  -0.56156  -0.53398
  Beta  occ. eigenvalues --   -0.51927  -0.47894  -0.47583  -0.44743  -0.42012
  Beta  occ. eigenvalues --   -0.40438  -0.39810  -0.39150  -0.37278  -0.35947
  Beta virt. eigenvalues --   -0.10373  -0.00887  -0.00576   0.00613   0.01301
  Beta virt. eigenvalues --    0.02351   0.02547   0.03550   0.04771   0.05823
  Beta virt. eigenvalues --    0.06125   0.07265   0.07521   0.08654   0.09498
  Beta virt. eigenvalues --    0.10515   0.11306   0.11530   0.11737   0.12908
  Beta virt. eigenvalues --    0.13030   0.13909   0.14598   0.14982   0.15249
  Beta virt. eigenvalues --    0.15620   0.17117   0.17700   0.18481   0.19582
  Beta virt. eigenvalues --    0.20068   0.20801   0.22230   0.22525   0.23406
  Beta virt. eigenvalues --    0.23608   0.25221   0.26998   0.27484   0.28768
  Beta virt. eigenvalues --    0.30621   0.31115   0.32312   0.32725   0.33148
  Beta virt. eigenvalues --    0.33706   0.33953   0.36536   0.37487   0.37765
  Beta virt. eigenvalues --    0.39764   0.40594   0.41984   0.46279   0.47499
  Beta virt. eigenvalues --    0.51163   0.51550   0.52073   0.54513   0.58677
  Beta virt. eigenvalues --    0.59763   0.60421   0.61588   0.65068   0.66059
  Beta virt. eigenvalues --    0.68730   0.68964   0.70463   0.70688   0.71544
  Beta virt. eigenvalues --    0.73324   0.74441   0.75482   0.77631   0.78282
  Beta virt. eigenvalues --    0.78949   0.84243   0.85890   0.90942   0.96005
  Beta virt. eigenvalues --    0.99159   1.00922   1.06777   1.08220   1.09575
  Beta virt. eigenvalues --    1.11670   1.15709   1.18212   1.21498   1.23344
  Beta virt. eigenvalues --    1.24631   1.26940   1.28246   1.29213   1.31187
  Beta virt. eigenvalues --    1.31725   1.34115   1.36702   1.39007   1.42642
  Beta virt. eigenvalues --    1.43613   1.44636   1.47909   1.51724   1.53807
  Beta virt. eigenvalues --    1.55250   1.58946   1.60539   1.62289   1.62798
  Beta virt. eigenvalues --    1.64078   1.65716   1.69078   1.72243   1.73696
  Beta virt. eigenvalues --    1.76381   1.79166   1.81367   1.83891   1.86291
  Beta virt. eigenvalues --    1.90354   1.90737   1.96657   1.98947   2.01497
  Beta virt. eigenvalues --    2.05312   2.10995   2.12469   2.14694   2.21480
  Beta virt. eigenvalues --    2.32408   2.34772   2.40789   2.47697   2.51907
  Beta virt. eigenvalues --    2.52544   2.53605   2.56806   2.61854   2.62606
  Beta virt. eigenvalues --    2.64996   2.65040   2.68236   2.70457   2.74410
  Beta virt. eigenvalues --    2.74979   2.81824   2.83468   2.84832   2.90389
  Beta virt. eigenvalues --    2.93560   2.94593   2.96786   3.01342   3.03583
  Beta virt. eigenvalues --    3.05905   3.07192   3.11165   3.13852   3.18161
  Beta virt. eigenvalues --    3.19506   3.27666   3.30391   3.33644   3.37483
  Beta virt. eigenvalues --    3.41248   3.43885   3.55456   3.63331   3.77325
  Beta virt. eigenvalues --    3.85074   3.85745   3.88443   3.95321   4.03376
  Beta virt. eigenvalues --    4.15797   4.19456   4.29315   5.10154   5.16641
  Beta virt. eigenvalues --    5.19313   5.23158   5.28869   5.43076   5.61208
  Beta virt. eigenvalues --    5.70764   5.99703  23.60963  23.93494  23.94092
  Beta virt. eigenvalues --   24.05827  25.09257  49.94501  50.00218  50.14173
          Condensed to atoms (all electrons):
               1          2          3          4          5          6
     1  C   30.784651   0.702074 -12.906210 -10.378927  -0.243445  -0.157778
     2  H    0.702074   0.434238  -0.275535  -0.061066  -0.003403  -0.003796
     3  C  -12.906210  -0.275535  16.211595   1.811941  -0.038269  -0.187418
     4  C  -10.378927  -0.061066   1.811941  13.534363   0.618816   0.221894
     5  O   -0.243445  -0.003403  -0.038269   0.618816   7.997708  -0.070433
     6  O   -0.157778  -0.003796  -0.187418   0.221894  -0.070433   8.185227
     7  C   -0.222988  -0.001984   0.056243   0.091099  -0.007913   0.269679
     8  C   -0.064294  -0.000313   0.035481   0.019085   0.008388  -0.162167
     9  H    0.029932  -0.000113   0.039549  -0.054696  -0.000405  -0.031919
    10  H   -0.066534   0.000153  -0.040160   0.089721   0.000127  -0.057180
    11  H    0.008509   0.000201  -0.000204  -0.002401   0.001193  -0.017270
    12  H   -0.030771  -0.000172  -0.018343   0.037964  -0.000905   0.003959
    13  H   -0.022605  -0.000234   0.002644   0.011535   0.000058   0.023219
    14  O   -0.261260  -0.002657   0.236481  -0.048018  -0.011264   0.010199
    15  H    0.040290   0.000150   0.009422  -0.008720  -0.002537  -0.001725
               7          8          9         10         11         12
     1  C   -0.222988  -0.064294   0.029932  -0.066534   0.008509  -0.030771
     2  H   -0.001984  -0.000313  -0.000113   0.000153   0.000201  -0.000172
     3  C    0.056243   0.035481   0.039549  -0.040160  -0.000204  -0.018343
     4  C    0.091099   0.019085  -0.054696   0.089721  -0.002401   0.037964
     5  O   -0.007913   0.008388  -0.000405   0.000127   0.001193  -0.000905
     6  O    0.269679  -0.162167  -0.031919  -0.057180  -0.017270   0.003959
     7  C    5.434508   0.057258   0.383472   0.422335  -0.039000  -0.051291
     8  C    0.057258   5.421617  -0.021821  -0.049270   0.419113   0.405391
     9  H    0.383472  -0.021821   0.539905  -0.031128  -0.000140  -0.002898
    10  H    0.422335  -0.049270  -0.031128   0.512531  -0.004386   0.004107
    11  H   -0.039000   0.419113  -0.000140  -0.004386   0.530159  -0.036277
    12  H   -0.051291   0.405391  -0.002898   0.004107  -0.036277   0.538276
    13  H   -0.032317   0.393309  -0.011071   0.004269  -0.036079  -0.031231
    14  O   -0.005089  -0.014244  -0.007959   0.004847  -0.001724   0.006395
    15  H    0.003709  -0.002807  -0.003644   0.000290  -0.000093   0.000115
              13         14         15
     1  C   -0.022605  -0.261260   0.040290
     2  H   -0.000234  -0.002657   0.000150
     3  C    0.002644   0.236481   0.009422
     4  C    0.011535  -0.048018  -0.008720
     5  O    0.000058  -0.011264  -0.002537
     6  O    0.023219   0.010199  -0.001725
     7  C   -0.032317  -0.005089   0.003709
     8  C    0.393309  -0.014244  -0.002807
     9  H   -0.011071  -0.007959  -0.003644
    10  H    0.004269   0.004847   0.000290
    11  H   -0.036079  -0.001724  -0.000093
    12  H   -0.031231   0.006395   0.000115
    13  H    0.543259   0.000828   0.000167
    14  O    0.000828   8.108813   0.238487
    15  H    0.000167   0.238487   0.471956
          Atomic-Atomic Spin Densities.
               1          2          3          4          5          6
     1  C    0.239087  -0.007442   0.131479   0.023668   0.010696  -0.010029
     2  H   -0.007442  -0.007817   0.005641   0.001704   0.000046  -0.000218
     3  C    0.131479   0.005641  -0.203956  -0.028125   0.004952   0.006361
     4  C    0.023668   0.001704  -0.028125  -0.026162  -0.013466   0.000767
     5  O    0.010696   0.000046   0.004952  -0.013466  -0.011486   0.000204
     6  O   -0.010029  -0.000218   0.006361   0.000767   0.000204   0.001422
     7  C   -0.024018  -0.000095   0.009502   0.016215   0.000713   0.001137
     8  C    0.001566  -0.000056  -0.001938  -0.002003  -0.000245  -0.000936
     9  H    0.012576   0.000088  -0.001945  -0.006379   0.000234  -0.000951
    10  H   -0.004382  -0.000050   0.001323   0.002982   0.000189  -0.000239
    11  H    0.000073  -0.000001   0.000303  -0.000466  -0.000031   0.000178
    12  H    0.004149   0.000007   0.002116  -0.006389   0.000026  -0.000613
    13  H   -0.001436  -0.000005  -0.000407   0.002055  -0.000004   0.000088
    14  O   -0.217342  -0.003223   0.029041   0.089896   0.000552   0.001549
    15  H    0.038184   0.000473  -0.023030  -0.015126  -0.000180   0.000143
               7          8          9         10         11         12
     1  C   -0.024018   0.001566   0.012576  -0.004382   0.000073   0.004149
     2  H   -0.000095  -0.000056   0.000088  -0.000050  -0.000001   0.000007
     3  C    0.009502  -0.001938  -0.001945   0.001323   0.000303   0.002116
     4  C    0.016215  -0.002003  -0.006379   0.002982  -0.000466  -0.006389
     5  O    0.000713  -0.000245   0.000234   0.000189  -0.000031   0.000026
     6  O    0.001137  -0.000936  -0.000951  -0.000239   0.000178  -0.000613
     7  C    0.001723  -0.004335   0.001886   0.001198  -0.000633   0.002981
     8  C   -0.004335   0.011526  -0.001191  -0.002039   0.000075  -0.000282
     9  H    0.001886  -0.001191   0.000421   0.000316  -0.000115   0.000441
    10  H    0.001198  -0.002039   0.000316   0.003068  -0.000501   0.001070
    11  H   -0.000633   0.000075  -0.000115  -0.000501   0.000777  -0.000925
    12  H    0.002981  -0.000282   0.000441   0.001070  -0.000925  -0.001545
    13  H    0.000739  -0.000785  -0.000372  -0.000488   0.000574  -0.000580
    14  O    0.003331  -0.001503  -0.006944  -0.001043   0.000419  -0.000440
    15  H   -0.000583  -0.000594   0.000624   0.000085  -0.000054   0.000084
              13         14         15
     1  C   -0.001436  -0.217342   0.038184
     2  H   -0.000005  -0.003223   0.000473
     3  C   -0.000407   0.029041  -0.023030
     4  C    0.002055   0.089896  -0.015126
     5  O   -0.000004   0.000552  -0.000180
     6  O    0.000088   0.001549   0.000143
     7  C    0.000739   0.003331  -0.000583
     8  C   -0.000785  -0.001503  -0.000594
     9  H   -0.000372  -0.006944   0.000624
    10  H   -0.000488  -0.001043   0.000085
    11  H    0.000574   0.000419  -0.000054
    12  H   -0.000580  -0.000440   0.000084
    13  H    0.000155  -0.000370   0.000072
    14  O   -0.000370   0.962653   0.009450
    15  H    0.000072   0.009450  -0.029211
 Mulliken charges and spin densities:
               1          2
     1  C   -1.210643   0.196829
     2  H    0.212457  -0.010950
     3  C    1.062782  -0.068683
     4  C    0.117410   0.039171
     5  O   -0.247717  -0.007802
     6  O   -0.024491  -0.001137
     7  C   -0.357720   0.009763
     8  C   -0.444724  -0.002741
     9  H    0.172936  -0.001310
    10  H    0.210280   0.001489
    11  H    0.178399  -0.000328
    12  H    0.175679   0.000100
    13  H    0.154247  -0.000762
    14  O   -0.253836   0.866026
    15  H    0.254940  -0.019665
 Sum of Mulliken charges =  -0.00000   1.00000
 Mulliken charges and spin densities with hydrogens summed into heavy atoms:
               1          2
     1  C   -0.998186   0.185878
     3  C    1.062782  -0.068683
     4  C    0.117410   0.039171
     5  O   -0.247717  -0.007802
     6  O   -0.024491  -0.001137
     7  C    0.025497   0.009942
     8  C    0.063601  -0.003731
    14  O    0.001104   0.846361
 APT charges:
               1
     1  C   -0.177156
     2  H    0.235197
     3  C   -0.381452
     4  C    1.538329
     5  O   -0.855066
     6  O   -0.937770
     7  C    0.511719
     8  C   -0.018358
     9  H   -0.010629
    10  H   -0.032367
    11  H    0.009564
    12  H    0.028118
    13  H    0.003641
    14  O   -0.173812
    15  H    0.260042
 Sum of APT charges =  -0.00000
 APT charges with hydrogens summed into heavy atoms:
               1
     1  C    0.058041
     3  C   -0.381452
     4  C    1.538329
     5  O   -0.855066
     6  O   -0.937770
     7  C    0.468723
     8  C    0.022966
    14  O    0.086229
 Electronic spatial extent (au):  <R**2>=           1004.6859
 Charge=             -0.0000 electrons
 Dipole moment (field-independent basis, Debye):
    X=             -0.0220    Y=             -3.9227    Z=             -1.5876  Tot=              4.2318
 Quadrupole moment (field-independent basis, Debye-Ang):
   XX=            -41.2043   YY=            -52.3223   ZZ=            -43.8885
   XY=              7.8934   XZ=              0.4283   YZ=             -2.0040
 Traceless Quadrupole moment (field-independent basis, Debye-Ang):
   XX=              4.6008   YY=             -6.5173   ZZ=              1.9166
   XY=              7.8934   XZ=              0.4283   YZ=             -2.0040
 Octapole moment (field-independent basis, Debye-Ang**2):
  XXX=             -2.7140  YYY=            -11.4732  ZZZ=             10.1570  XYY=             -5.1097
  XXY=            -20.0722  XXZ=             -6.9966  XZZ=             -4.3084  YZZ=             -7.2039
  YYZ=             -3.8316  XYZ=              0.9103
 Hexadecapole moment (field-independent basis, Debye-Ang**3):
 XXXX=           -708.3396 YYYY=           -405.1745 ZZZZ=           -172.9664 XXXY=             47.0928
 XXXZ=             11.9867 YYYX=             30.0481 YYYZ=             -8.9252 ZZZX=            -14.0053
 ZZZY=            -15.9495 XXYY=           -164.9383 XXZZ=           -139.7075 YYZZ=            -81.7544
 XXYZ=              9.3384 YYXZ=              8.2733 ZZXY=             17.1263
 N-N= 3.637276249980D+02 E-N=-1.712143431881D+03  KE= 4.188546794850D+02
  Exact polarizability:  84.809   1.122  70.953   7.035   3.582  64.728
 Approx polarizability:  90.833   4.656  85.871   6.509  10.344  75.505
                          Isotropic Fermi Contact Couplings
        Atom                 a.u.       MegaHertz       Gauss      10(-4) cm-1
     1  C(13)              0.03269      36.74987      13.11327      12.25844
     2  H(1)              -0.00350     -15.64921      -5.58403      -5.22002
     3  C(13)              0.01954      21.96330       7.83705       7.32617
     4  C(13)              0.00691       7.77098       2.77288       2.59212
     5  O(17)             -0.00287       1.74026       0.62097       0.58049
     6  O(17)             -0.00012       0.07144       0.02549       0.02383
     7  C(13)             -0.00113      -1.27541      -0.45510      -0.42543
     8  C(13)              0.00081       0.90998       0.32470       0.30354
     9  H(1)               0.00027       1.19394       0.42603       0.39825
    10  H(1)               0.00020       0.91349       0.32596       0.30471
    11  H(1)               0.00006       0.25062       0.08943       0.08360
    12  H(1)               0.00016       0.72020       0.25699       0.24023
    13  H(1)              -0.00003      -0.13558      -0.04838      -0.04522
    14  O(17)              0.13149     -79.70989     -28.44247     -26.58836
    15  H(1)              -0.01450     -64.83047     -23.13312     -21.62512
 --------------------------------------------------------
       Center         ----  Spin Dipole Couplings  ----
                      3XX-RR        3YY-RR        3ZZ-RR
 --------------------------------------------------------
     1   Atom       -0.045532      0.007667      0.037865
     2   Atom        0.001597      0.002771     -0.004369
     3   Atom       -0.012081      0.020126     -0.008046
     4   Atom       -0.011040      0.018308     -0.007269
     5   Atom        0.005981      0.032316     -0.038297
     6   Atom        0.002216      0.006585     -0.008801
     7   Atom        0.000571     -0.001233      0.000662
     8   Atom        0.004462     -0.002997     -0.001465
     9   Atom       -0.001058     -0.007008      0.008066
    10   Atom        0.000180     -0.000744      0.000564
    11   Atom        0.002211     -0.000448     -0.001763
    12   Atom        0.012970     -0.005858     -0.007113
    13   Atom        0.003685     -0.002302     -0.001383
    14   Atom        0.079574     -1.144363      1.064790
    15   Atom        0.080344     -0.106813      0.026469
 --------------------------------------------------------
                        XY            XZ            YZ
 --------------------------------------------------------
     1   Atom       -0.108607      0.091188     -0.144517
     2   Atom        0.012120      0.015620      0.005087
     3   Atom        0.017378      0.029573     -0.009084
     4   Atom        0.002537      0.002333     -0.009744
     5   Atom        0.006065     -0.026515      0.000309
     6   Atom        0.011317     -0.006852     -0.003838
     7   Atom        0.003681     -0.005037     -0.004642
     8   Atom        0.004496     -0.004384     -0.002859
     9   Atom        0.003267     -0.009015     -0.005458
    10   Atom        0.001638     -0.002085     -0.001885
    11   Atom        0.002579     -0.000674     -0.000405
    12   Atom        0.007172     -0.001207     -0.000969
    13   Atom        0.000586     -0.002422     -0.000242
    14   Atom       -1.003024      2.248308     -1.250260
    15   Atom        0.014703     -0.099818     -0.041259
 --------------------------------------------------------


 ---------------------------------------------------------------------------------
              Anisotropic Spin Dipole Couplings in Principal Axis System
 ---------------------------------------------------------------------------------

       Atom             a.u.   MegaHertz   Gauss  10(-4) cm-1        Axes

              Baa    -0.1370   -18.379    -6.558    -6.131  0.5710  0.7538  0.3253
     1 C(13)  Bbb    -0.1010   -13.547    -4.834    -4.519  0.6898 -0.2256 -0.6880
              Bcc     0.2379    31.927    11.392    10.650  0.4452 -0.6172  0.6488
 
              Baa    -0.0182    -9.703    -3.462    -3.237 -0.6857  0.2289  0.6909
     2 H(1)   Bbb    -0.0044    -2.373    -0.847    -0.792 -0.2608  0.8090 -0.5268
              Bcc     0.0226    12.076     4.309     4.028  0.6795  0.5414  0.4951
 
              Baa    -0.0452    -6.067    -2.165    -2.024  0.7168 -0.2795 -0.6388
     3 C(13)  Bbb     0.0168     2.249     0.803     0.750  0.4788 -0.4687  0.7424
              Bcc     0.0284     3.817     1.362     1.273  0.5068  0.8380  0.2021
 
              Baa    -0.0139    -1.861    -0.664    -0.621  0.7385 -0.2481 -0.6269
     4 C(13)  Bbb    -0.0078    -1.048    -0.374    -0.350  0.6723  0.2006  0.7126
              Bcc     0.0217     2.910     1.038     0.971  0.0510  0.9478 -0.3149
 
              Baa    -0.0508     3.676     1.312     1.226  0.4259 -0.0344  0.9041
     5 O(17)  Bbb     0.0166    -1.199    -0.428    -0.400  0.8523 -0.3202 -0.4137
              Bcc     0.0342    -2.477    -0.884    -0.826  0.3038  0.9467 -0.1070
 
              Baa    -0.0123     0.888     0.317     0.296  0.5046 -0.1291  0.8536
     6 O(17)  Bbb    -0.0057     0.411     0.147     0.137 -0.5833  0.6780  0.4474
              Bcc     0.0180    -1.299    -0.464    -0.433  0.6365  0.7236 -0.2668
 
              Baa    -0.0051    -0.683    -0.244    -0.228  0.2031  0.6676  0.7162
     7 C(13)  Bbb    -0.0039    -0.530    -0.189    -0.177  0.7793 -0.5531  0.2946
              Bcc     0.0090     1.213     0.433     0.405 -0.5929 -0.4983  0.6326
 
              Baa    -0.0054    -0.727    -0.259    -0.242 -0.2357  0.8926  0.3844
     8 C(13)  Bbb    -0.0037    -0.497    -0.177    -0.166  0.5480 -0.2046  0.8111
              Bcc     0.0091     1.224     0.437     0.408  0.8026  0.4018 -0.4409
 
              Baa    -0.0088    -4.703    -1.678    -1.569 -0.1151  0.9615  0.2494
     9 H(1)   Bbb    -0.0066    -3.520    -1.256    -1.174  0.8566 -0.0311  0.5151
              Bcc     0.0154     8.223     2.934     2.743 -0.5030 -0.2729  0.8201
 
              Baa    -0.0021    -1.128    -0.402    -0.376 -0.2201  0.8701  0.4411
    10 H(1)   Bbb    -0.0017    -0.915    -0.327    -0.305  0.7787 -0.1157  0.6167
              Bcc     0.0038     2.043     0.729     0.682 -0.5876 -0.4792  0.6520
 
              Baa    -0.0020    -1.078    -0.385    -0.360 -0.5242  0.8509 -0.0351
    11 H(1)   Bbb    -0.0019    -0.999    -0.357    -0.333  0.0991  0.1019  0.9898
              Bcc     0.0039     2.077     0.741     0.693  0.8458  0.5154 -0.1378
 
              Baa    -0.0085    -4.534    -1.618    -1.512 -0.2738  0.8836  0.3799
    12 H(1)   Bbb    -0.0070    -3.728    -1.330    -1.244  0.1785 -0.3415  0.9228
              Bcc     0.0155     8.262     2.948     2.756  0.9451  0.3205 -0.0642
 
              Baa    -0.0024    -1.261    -0.450    -0.421  0.1416  0.8216  0.5522
    13 H(1)   Bbb    -0.0024    -1.254    -0.447    -0.418  0.3543 -0.5629  0.7467
              Bcc     0.0047     2.515     0.897     0.839  0.9243  0.0899 -0.3708
 
              Baa    -1.7297   125.157    44.659    41.748  0.7575 -0.0845 -0.6473
    14 O(17)  Bbb    -1.7052   123.389    44.028    41.158  0.2760  0.9401  0.2003
              Bcc     3.4349  -248.545   -88.687   -82.906  0.5916 -0.3304  0.7355
 
              Baa    -0.1198   -63.930   -22.812   -21.325  0.0956  0.9391  0.3301
    15 H(1)   Bbb    -0.0421   -22.439    -8.007    -7.485  0.6222 -0.3153  0.7166
              Bcc     0.1619    86.369    30.819    28.810  0.7770  0.1369 -0.6145
 

 ---------------------------------------------------------------------------------

 Calling FoFJK, ICntrl=    100127 FMM=F ISym2X=0 I1Cent= 0 IOpClX= 1 NMat=1 NMatS=1 NMatT=0.
 Full mass-weighted force constant matrix:
 Low frequencies ---  -52.2954  -36.1938  -12.7206   -0.0012   -0.0009   -0.0008
 Low frequencies ---   22.1860   74.2658   89.5019
 ******    1 imaginary frequencies (negative Signs) ****** 
 Diagonal vibrational polarizability:
      105.2634894      70.0337798     125.4764682
 Harmonic frequencies (cm**-1), IR intensities (KM/Mole), Raman scattering
 activities (A**4/AMU), depolarization ratios for plane and unpolarized
 incident light, reduced masses (AMU), force constants (mDyne/A),
 and normal coordinates:
                      1                      2                      3
                      A                      A                      A
 Frequencies --    -20.9742                72.3278                88.8098
 Red. masses --      6.8749                 9.6170                 5.4348
 Frc consts  --      0.0018                 0.0296                 0.0253
 IR Inten    --      2.3253                 9.6358                 2.9633
  Atom  AN      X      Y      Z        X      Y      Z        X      Y      Z
     1   6     0.10  -0.03  -0.22     0.06  -0.02  -0.14     0.03  -0.02  -0.05
     2   1     0.20  -0.14  -0.19     0.02   0.10  -0.30     0.04   0.01  -0.12
     3   6    -0.09   0.19  -0.34     0.14  -0.22   0.11     0.03  -0.08   0.05
     4   6    -0.03   0.01  -0.03     0.07  -0.14   0.07    -0.04  -0.02   0.04
     5   8     0.03  -0.07   0.16     0.05  -0.27   0.25    -0.14   0.04  -0.17
     6   8    -0.00  -0.03   0.04    -0.01   0.04  -0.20     0.03  -0.10   0.33
     7   6    -0.06  -0.02  -0.04     0.06   0.04  -0.11    -0.02   0.04   0.02
     8   6     0.06   0.03  -0.15    -0.07  -0.03   0.02     0.12  -0.13  -0.21
     9   1    -0.07  -0.05   0.08     0.07   0.06  -0.22    -0.03   0.07  -0.06
    10   1    -0.17  -0.06  -0.10     0.18   0.06  -0.04    -0.15   0.23   0.05
    11   1     0.07   0.05  -0.24    -0.08  -0.05   0.12     0.11  -0.17  -0.08
    12   1     0.17   0.06  -0.08    -0.19  -0.05  -0.05     0.25  -0.38  -0.26
    13   1     0.02   0.03  -0.19    -0.03  -0.03   0.06     0.10   0.02  -0.49
    14   8    -0.02  -0.04   0.41    -0.23   0.48   0.03    -0.00   0.23   0.01
    15   1    -0.20   0.36   0.26    -0.20   0.27   0.01     0.00  -0.05  -0.04
                      4                      5                      6
                      A                      A                      A
 Frequencies --    118.9465               132.1715               178.9124
 Red. masses --      2.8773                 5.8701                 2.2859
 Frc consts  --      0.0240                 0.0604                 0.0431
 IR Inten    --      1.6367                10.5229                15.0575
  Atom  AN      X      Y      Z        X      Y      Z        X      Y      Z
     1   6    -0.12   0.08  -0.01    -0.20   0.10  -0.10     0.19  -0.04  -0.11
     2   1    -0.20   0.16  -0.04    -0.28   0.17  -0.12     0.34  -0.07  -0.29
     3   6    -0.02  -0.04   0.03    -0.14   0.05  -0.13    -0.00   0.00   0.13
     4   6     0.02  -0.05   0.01    -0.05  -0.05  -0.01    -0.02   0.04   0.07
     5   8     0.03  -0.03  -0.01     0.00  -0.06   0.06     0.02   0.10   0.02
     6   8     0.02  -0.08   0.02    -0.05  -0.10  -0.00    -0.04  -0.01  -0.02
     7   6     0.02  -0.09   0.05    -0.03  -0.14   0.08    -0.11  -0.10   0.02
     8   6     0.20   0.21  -0.03    -0.01  -0.01   0.12    -0.03   0.01  -0.03
     9   1     0.08  -0.20   0.30    -0.01  -0.18   0.16    -0.13  -0.12   0.20
    10   1    -0.16  -0.21  -0.08    -0.04  -0.22   0.04    -0.20  -0.22  -0.07
    11   1     0.11   0.34  -0.25     0.01   0.02  -0.05     0.14  -0.01  -0.35
    12   1     0.36   0.31   0.09     0.02   0.15   0.20     0.04   0.33   0.15
    13   1     0.25   0.23   0.02    -0.04  -0.10   0.22    -0.21  -0.22   0.09
    14   8    -0.14  -0.01  -0.04     0.37   0.23  -0.05     0.00   0.01  -0.03
    15   1    -0.14   0.01  -0.03     0.35  -0.33  -0.20    -0.03  -0.35  -0.15
                      7                      8                      9
                      A                      A                      A
 Frequencies --    209.9832               224.7699               260.7965
 Red. masses --      1.8922                 1.3214                 1.6884
 Frc consts  --      0.0492                 0.0393                 0.0677
 IR Inten    --     28.3121                 1.5228                41.3988
  Atom  AN      X      Y      Z        X      Y      Z        X      Y      Z
     1   6     0.05  -0.11   0.07    -0.05   0.04   0.02    -0.01   0.11  -0.11
     2   1     0.14  -0.26   0.20    -0.13   0.09   0.05    -0.05   0.23  -0.27
     3   6    -0.03   0.06  -0.08     0.06  -0.03  -0.03     0.04  -0.07   0.11
     4   6    -0.02   0.02  -0.02     0.02  -0.01  -0.01    -0.00  -0.02   0.03
     5   8     0.01  -0.00   0.06    -0.05  -0.06  -0.02    -0.03   0.01  -0.04
     6   8    -0.00  -0.02   0.05     0.03   0.05   0.03    -0.02   0.00  -0.02
     7   6    -0.02  -0.04   0.04     0.02   0.06   0.00    -0.03  -0.02   0.00
     8   6     0.01  -0.01   0.01     0.00  -0.02  -0.02    -0.02  -0.00  -0.00
     9   1    -0.03  -0.05   0.09    -0.01   0.07  -0.00    -0.03  -0.02   0.02
    10   1    -0.06  -0.07   0.01     0.02   0.05   0.00    -0.03  -0.03  -0.01
    11   1     0.09  -0.02  -0.12     0.39  -0.18  -0.39    -0.06   0.01   0.03
    12   1     0.04   0.11   0.08    -0.05   0.45   0.18    -0.01  -0.05  -0.02
    13   1    -0.07  -0.10   0.05    -0.37  -0.45   0.16     0.01   0.03  -0.02
    14   8    -0.02   0.05  -0.15    -0.00  -0.02   0.02     0.06  -0.06   0.02
    15   1     0.16   0.79   0.27    -0.02   0.02   0.01     0.26   0.72   0.46
                     10                     11                     12
                      A                      A                      A
 Frequencies --    350.5726               399.4695               546.8624
 Red. masses --      2.9073                 3.3496                 5.5430
 Frc consts  --      0.2105                 0.3149                 0.9767
 IR Inten    --      0.5597                 7.2815                16.9460
  Atom  AN      X      Y      Z        X      Y      Z        X      Y      Z
     1   6     0.04   0.07   0.06    -0.02  -0.03  -0.03    -0.15  -0.19  -0.11
     2   1    -0.07   0.11   0.17     0.08  -0.08  -0.11    -0.27  -0.08  -0.12
     3   6     0.19   0.01  -0.08    -0.14   0.03   0.06    -0.05  -0.24  -0.07
     4   6     0.05   0.05  -0.03    -0.09   0.03   0.00     0.03  -0.07  -0.05
     5   8    -0.12  -0.09   0.01    -0.07   0.02   0.04     0.31   0.08  -0.02
     6   8     0.04   0.15  -0.04    -0.09   0.10  -0.16     0.01   0.17   0.05
     7   6    -0.14  -0.11   0.12     0.13   0.04   0.14    -0.15   0.16   0.19
     8   6    -0.00  -0.05  -0.02     0.23  -0.15   0.01    -0.06   0.02  -0.02
     9   1    -0.26  -0.10   0.45     0.16   0.02   0.10    -0.22   0.17   0.36
    10   1    -0.26  -0.41  -0.06     0.20  -0.00   0.15    -0.21  -0.06   0.06
    11   1    -0.14   0.02   0.05     0.45  -0.30   0.02     0.08  -0.08   0.01
    12   1     0.19  -0.31  -0.05     0.41  -0.30   0.02     0.12  -0.15  -0.01
    13   1     0.09   0.17  -0.25     0.00  -0.15  -0.32    -0.21   0.07  -0.31
    14   8     0.01   0.00  -0.02    -0.01  -0.01  -0.00    -0.01  -0.00  -0.00
    15   1    -0.06  -0.06  -0.13     0.02  -0.01   0.04     0.17  -0.11   0.21
                     13                     14                     15
                      A                      A                      A
 Frequencies --    603.6138               634.8089               715.8158
 Red. masses --      1.2878                 3.1868                 1.3421
 Frc consts  --      0.2765                 0.7567                 0.4052
 IR Inten    --     83.0994                10.4543                33.8317
  Atom  AN      X      Y      Z        X      Y      Z        X      Y      Z
     1   6     0.01   0.01  -0.01     0.03   0.03   0.01    -0.10   0.11   0.01
     2   1     0.09  -0.06  -0.01    -0.27   0.19   0.21     0.74  -0.64  -0.00
     3   6    -0.07   0.06   0.02     0.25  -0.09  -0.15     0.06  -0.03  -0.01
     4   6     0.03  -0.00  -0.03    -0.12   0.06   0.01    -0.01  -0.01  -0.01
     5   8    -0.03  -0.05  -0.01     0.02   0.13   0.08     0.02  -0.00  -0.00
     6   8     0.06   0.03   0.01    -0.15  -0.11  -0.03    -0.02  -0.01  -0.00
     7   6     0.01  -0.01  -0.02     0.00  -0.01   0.01    -0.01   0.01   0.02
     8   6    -0.00   0.00  -0.00     0.03  -0.01   0.01    -0.01   0.00   0.00
     9   1    -0.04   0.01   0.05     0.14  -0.07  -0.18     0.01   0.00  -0.01
    10   1    -0.01  -0.06  -0.05     0.07   0.15   0.11     0.00   0.02   0.02
    11   1    -0.03   0.02   0.01     0.08  -0.03  -0.03     0.01  -0.01  -0.01
    12   1    -0.04   0.02  -0.01     0.09  -0.02   0.03     0.02  -0.01   0.01
    13   1     0.03   0.00   0.04    -0.02  -0.02  -0.05    -0.03   0.01  -0.04
    14   8    -0.05   0.01  -0.01    -0.04   0.00  -0.00     0.00  -0.00   0.00
    15   1     0.53  -0.46   0.68     0.40  -0.36   0.52     0.00  -0.02   0.00
                     16                     17                     18
                      A                      A                      A
 Frequencies --    745.1939               752.0893               764.2270
 Red. masses --      6.1402                 1.4313                 4.3373
 Frc consts  --      2.0090                 0.4770                 1.4925
 IR Inten    --     19.9864                31.0458                24.9225
  Atom  AN      X      Y      Z        X      Y      Z        X      Y      Z
     1   6     0.08   0.04   0.14     0.07   0.07  -0.12    -0.12  -0.08  -0.12
     2   1     0.17   0.25  -0.36    -0.23  -0.23   0.91    -0.12  -0.42   0.46
     3   6     0.01   0.20  -0.15    -0.02   0.03   0.06    -0.02  -0.10  -0.12
     4   6     0.12  -0.32   0.37     0.01  -0.05  -0.01     0.05  -0.01   0.36
     5   8     0.05  -0.04  -0.19     0.02  -0.03  -0.03    -0.10   0.15  -0.01
     6   8    -0.10  -0.05  -0.11    -0.03  -0.02  -0.01     0.09   0.12  -0.03
     7   6    -0.08   0.08   0.11    -0.03   0.03   0.04     0.08  -0.09  -0.12
     8   6    -0.06   0.04  -0.00    -0.02   0.01   0.00     0.05  -0.04  -0.01
     9   1     0.01   0.08  -0.13     0.00   0.02  -0.03    -0.04  -0.05   0.06
    10   1     0.08   0.17   0.22     0.02   0.05   0.07    -0.06  -0.16  -0.21
    11   1     0.06  -0.01  -0.12     0.03  -0.01  -0.03    -0.11   0.05   0.08
    12   1     0.22  -0.07   0.08     0.07  -0.02   0.02    -0.20   0.09  -0.06
    13   1    -0.20   0.08  -0.29    -0.07   0.03  -0.09     0.24  -0.08   0.32
    14   8    -0.02   0.02  -0.02     0.00   0.00   0.00     0.00   0.00  -0.00
    15   1     0.08  -0.04   0.11    -0.02  -0.00  -0.03     0.03   0.01   0.04
                     19                     20                     21
                      A                      A                      A
 Frequencies --    818.8826               963.6773              1096.5744
 Red. masses --      1.1524                 2.1859                 3.9702
 Frc consts  --      0.4553                 1.1960                 2.8128
 IR Inten    --      7.4318                15.5071                53.4945
  Atom  AN      X      Y      Z        X      Y      Z        X      Y      Z
     1   6     0.02   0.02   0.01     0.04   0.04   0.02     0.04   0.05   0.03
     2   1     0.01   0.02   0.03     0.03   0.05   0.03     0.03   0.06   0.04
     3   6     0.01   0.02  -0.00     0.01   0.03   0.01     0.01   0.03   0.00
     4   6    -0.02  -0.03   0.00    -0.06  -0.09  -0.03    -0.16  -0.13  -0.03
     5   8     0.01  -0.00  -0.01     0.07  -0.03  -0.03     0.07  -0.00  -0.02
     6   8    -0.03  -0.03  -0.00    -0.10   0.09   0.03    -0.10   0.17   0.09
     7   6     0.04   0.06  -0.02    -0.10   0.03  -0.07     0.27  -0.15   0.09
     8   6     0.02   0.03  -0.01     0.16  -0.12   0.03    -0.13  -0.01  -0.17
     9   1     0.13  -0.15   0.46    -0.23   0.14  -0.09     0.30  -0.20   0.22
    10   1    -0.35  -0.16  -0.28    -0.27   0.12  -0.10     0.33  -0.22   0.10
    11   1     0.21  -0.23   0.40    -0.17   0.10   0.07    -0.39   0.19  -0.27
    12   1    -0.38  -0.08  -0.25    -0.05   0.18   0.08    -0.29   0.18  -0.17
    13   1    -0.14  -0.14   0.04     0.53  -0.13   0.57     0.03   0.02   0.01
    14   8     0.00   0.00  -0.00    -0.00   0.00  -0.00    -0.00   0.00  -0.00
    15   1     0.00   0.00  -0.00    -0.01  -0.00  -0.01    -0.01  -0.00  -0.01
                     22                     23                     24
                      A                      A                      A
 Frequencies --   1140.5950              1179.3258              1284.4696
 Red. masses --      2.4577                 1.7844                 2.4901
 Frc consts  --      1.8838                 1.4622                 2.4206
 IR Inten    --     36.6805                48.3734               355.2676
  Atom  AN      X      Y      Z        X      Y      Z        X      Y      Z
     1   6    -0.02  -0.02  -0.01     0.01   0.01   0.01    -0.03  -0.03  -0.02
     2   1    -0.02  -0.02  -0.01     0.00   0.02   0.02    -0.02  -0.05  -0.03
     3   6    -0.00  -0.01   0.00     0.01   0.00  -0.00    -0.01  -0.00   0.01
     4   6     0.06   0.06   0.00    -0.08  -0.04   0.01     0.23   0.12   0.00
     5   8    -0.04   0.01   0.02    -0.02   0.02   0.01     0.01  -0.04  -0.02
     6   8     0.05  -0.10  -0.09     0.05  -0.07  -0.02    -0.17   0.01   0.02
     7   6    -0.01   0.09   0.23     0.07   0.17  -0.04     0.11  -0.00  -0.03
     8   6     0.01  -0.06  -0.17    -0.07  -0.10   0.04    -0.06  -0.08   0.04
     9   1     0.00   0.13   0.09    -0.12   0.18   0.42     0.25  -0.19   0.29
    10   1    -0.06   0.19   0.25     0.05  -0.43  -0.32    -0.53   0.41  -0.11
    11   1    -0.40   0.18   0.02    -0.20   0.13  -0.33    -0.16   0.10  -0.33
    12   1    -0.43   0.32  -0.19     0.30   0.07   0.28     0.15   0.02   0.18
    13   1     0.28  -0.13   0.37     0.18   0.18  -0.07     0.10   0.14  -0.09
    14   8     0.00  -0.00   0.00    -0.00   0.00  -0.00    -0.00  -0.00   0.00
    15   1     0.00  -0.00   0.00    -0.00   0.01  -0.00     0.01  -0.01   0.02
                     25                     26                     27
                      A                      A                      A
 Frequencies --   1361.1186              1403.4982              1435.0327
 Red. masses --      1.4310                 1.2592                 1.3629
 Frc consts  --      1.5620                 1.4614                 1.6537
 IR Inten    --    159.7976                27.5291                13.2662
  Atom  AN      X      Y      Z        X      Y      Z        X      Y      Z
     1   6     0.01   0.01   0.01    -0.01  -0.01  -0.00    -0.01  -0.01  -0.00
     2   1     0.01   0.02   0.01    -0.01  -0.01  -0.01    -0.01  -0.01  -0.01
     3   6    -0.00   0.00  -0.00    -0.00  -0.00   0.00    -0.00   0.00   0.00
     4   6    -0.10  -0.05  -0.01     0.04   0.03   0.01     0.04   0.02   0.01
     5   8    -0.00   0.02   0.01     0.00  -0.01  -0.01     0.00  -0.01  -0.01
     6   8     0.11   0.03  -0.03    -0.03   0.00   0.02    -0.02   0.01   0.02
     7   6    -0.05   0.01   0.01    -0.04   0.03  -0.02    -0.11   0.06  -0.05
     8   6    -0.04  -0.03   0.01    -0.08   0.02  -0.09     0.09  -0.05   0.03
     9   1     0.58  -0.47  -0.03     0.22  -0.21   0.14     0.39  -0.38   0.16
    10   1    -0.41   0.43   0.03     0.38  -0.15   0.09     0.50  -0.20   0.10
    11   1    -0.04  -0.01  -0.05     0.22  -0.29   0.27    -0.27   0.22  -0.03
    12   1     0.17   0.00   0.13     0.42  -0.03   0.13    -0.27   0.19  -0.02
    13   1     0.05   0.04   0.03     0.29  -0.01   0.45    -0.14  -0.04  -0.28
    14   8    -0.00   0.00  -0.00    -0.00  -0.00   0.00     0.00  -0.00   0.00
    15   1    -0.00   0.00  -0.00     0.00   0.00   0.00     0.00   0.00   0.00
                     28                     29                     30
                      A                      A                      A
 Frequencies --   1488.4689              1503.4598              1530.4035
 Red. masses --      1.0378                 1.0475                 1.1002
 Frc consts  --      1.3547                 1.3950                 1.5182
 IR Inten    --      5.4270                 4.0004                 4.7370
  Atom  AN      X      Y      Z        X      Y      Z        X      Y      Z
     1   6     0.00   0.00   0.00    -0.00  -0.00  -0.00     0.00   0.01   0.00
     2   1    -0.00   0.00   0.00    -0.00  -0.00  -0.00     0.00   0.01   0.01
     3   6     0.00   0.00  -0.00    -0.00  -0.00   0.00     0.00  -0.00  -0.00
     4   6    -0.00  -0.00   0.00     0.01   0.00  -0.00    -0.02  -0.02  -0.00
     5   8     0.00  -0.00  -0.00     0.00  -0.00  -0.00    -0.00   0.01   0.00
     6   8     0.00   0.00  -0.00    -0.01   0.00   0.00     0.02  -0.01  -0.01
     7   6    -0.02  -0.01   0.01     0.02  -0.01   0.02     0.01  -0.04  -0.06
     8   6    -0.03  -0.03   0.02     0.00  -0.03  -0.04     0.00  -0.00  -0.01
     9   1    -0.00  -0.01  -0.04     0.02   0.05  -0.24    -0.34   0.05   0.60
    10   1     0.04  -0.01   0.04    -0.16  -0.13  -0.13     0.20   0.54   0.30
    11   1     0.42  -0.29  -0.13    -0.18  -0.07   0.57    -0.04  -0.03   0.20
    12   1    -0.37   0.31  -0.00     0.18   0.53   0.31     0.06   0.17   0.10
    13   1     0.42   0.50  -0.22    -0.12   0.05  -0.29    -0.05   0.02  -0.12
    14   8     0.00  -0.00   0.00    -0.00  -0.00  -0.00     0.00   0.00  -0.00
    15   1     0.00  -0.00  -0.00    -0.00   0.00   0.00    -0.00   0.00  -0.00
                     31                     32                     33
                      A                      A                      A
 Frequencies --   1860.0462              2198.3434              3076.0386
 Red. masses --     12.9456                 5.9106                 1.0355
 Frc consts  --     26.3888                16.8296                 5.7728
 IR Inten    --    520.8305                66.5856                11.8935
  Atom  AN      X      Y      Z        X      Y      Z        X      Y      Z
     1   6    -0.02  -0.03  -0.01    -0.25  -0.26  -0.15     0.00   0.00   0.00
     2   1    -0.06  -0.03  -0.01    -0.47  -0.50  -0.29    -0.00  -0.00  -0.00
     3   6     0.03   0.02   0.00     0.32   0.38   0.19    -0.00  -0.00  -0.00
     4   6    -0.43   0.59   0.38    -0.04  -0.07  -0.03     0.00   0.00  -0.00
     5   8     0.26  -0.40  -0.25    -0.00   0.00   0.00    -0.00   0.00   0.00
     6   8     0.04  -0.03  -0.02     0.00  -0.00  -0.00    -0.00  -0.00   0.00
     7   6     0.03  -0.01  -0.01    -0.00  -0.00  -0.00     0.00   0.00   0.00
     8   6    -0.01   0.00   0.00    -0.00   0.00  -0.00    -0.04   0.01  -0.02
     9   1    -0.08   0.04   0.05    -0.01   0.01   0.00    -0.01  -0.02  -0.01
    10   1    -0.02   0.08  -0.00    -0.00   0.00   0.00    -0.00   0.00  -0.00
    11   1     0.00  -0.00   0.01     0.00  -0.00   0.00     0.32   0.47   0.13
    12   1     0.01  -0.00   0.01     0.00   0.00   0.00    -0.21  -0.19   0.41
    13   1    -0.02   0.00  -0.02    -0.00  -0.00  -0.00     0.37  -0.44  -0.28
    14   8     0.00  -0.00   0.00     0.00  -0.00   0.01     0.00   0.00  -0.00
    15   1     0.01   0.02   0.01     0.00  -0.00  -0.00    -0.00   0.00   0.00
                     34                     35                     36
                      A                      A                      A
 Frequencies --   3096.6883              3145.2400              3154.6394
 Red. masses --      1.0605                 1.1051                 1.1011
 Frc consts  --      5.9919                 6.4410                 6.4561
 IR Inten    --     20.3255                 4.3393                12.3337
  Atom  AN      X      Y      Z        X      Y      Z        X      Y      Z
     1   6    -0.00   0.00   0.00    -0.00   0.00   0.00    -0.00   0.00   0.00
     2   1    -0.00   0.00   0.00    -0.00  -0.00  -0.00    -0.00   0.00   0.00
     3   6    -0.00   0.00   0.00    -0.00  -0.00   0.00    -0.00   0.00  -0.00
     4   6    -0.00   0.00   0.00    -0.00  -0.00   0.00    -0.00   0.00   0.00
     5   8     0.00  -0.00  -0.00     0.00  -0.00  -0.00     0.00  -0.00  -0.00
     6   8     0.00  -0.00  -0.00     0.00  -0.00  -0.00    -0.00   0.00   0.00
     7   6    -0.00  -0.01  -0.07    -0.04  -0.05   0.02    -0.03  -0.04   0.00
     8   6    -0.01   0.00   0.01     0.01   0.06   0.01     0.03  -0.05  -0.06
     9   1     0.33   0.43   0.10     0.36   0.47   0.13     0.28   0.36   0.10
    10   1    -0.31  -0.32   0.69     0.16   0.16  -0.37     0.07   0.07  -0.16
    11   1    -0.01  -0.01   0.00    -0.29  -0.42  -0.12     0.22   0.30   0.08
    12   1     0.03   0.03  -0.06    -0.07  -0.05   0.14    -0.17  -0.17   0.34
    13   1     0.05  -0.06  -0.04     0.22  -0.24  -0.16    -0.38   0.44   0.27
    14   8    -0.00  -0.00   0.00    -0.00  -0.00   0.00     0.00  -0.00   0.00
    15   1     0.00  -0.00  -0.00     0.00   0.00  -0.00    -0.00   0.00  -0.00
                     37                     38                     39
                      A                      A                      A
 Frequencies --   3171.7682              3479.8083              3803.0637
 Red. masses --      1.1054                 1.1623                 1.0674
 Frc consts  --      6.5517                 8.2927                 9.0957
 IR Inten    --     15.9775                69.9828                44.3896
  Atom  AN      X      Y      Z        X      Y      Z        X      Y      Z
     1   6     0.00  -0.00  -0.00    -0.07  -0.08  -0.04     0.00   0.00   0.00
     2   1     0.00   0.00  -0.00     0.61   0.69   0.38     0.00   0.00  -0.00
     3   6     0.00   0.00   0.00     0.02   0.02   0.01    -0.00   0.00  -0.00
     4   6     0.00   0.00  -0.00    -0.00  -0.00  -0.00    -0.00  -0.00  -0.00
     5   8    -0.00   0.00   0.00     0.00  -0.00  -0.00    -0.00   0.00   0.00
     6   8    -0.00  -0.00   0.00     0.00  -0.00  -0.00     0.00   0.00  -0.00
     7   6     0.03   0.03  -0.01    -0.00   0.00   0.00     0.00   0.00   0.00
     8   6     0.05   0.05  -0.05     0.00   0.00  -0.00     0.00   0.00  -0.00
     9   1    -0.20  -0.25  -0.07    -0.00   0.00   0.00    -0.00  -0.00  -0.00
    10   1    -0.10  -0.11   0.25     0.00   0.00  -0.00    -0.00  -0.00   0.00
    11   1    -0.27  -0.39  -0.12     0.00  -0.00   0.00    -0.00  -0.00   0.00
    12   1    -0.29  -0.28   0.62    -0.00   0.00   0.00    -0.00  -0.00   0.00
    13   1    -0.07   0.11   0.05     0.00  -0.00  -0.00    -0.00  -0.00   0.00
    14   8     0.00   0.00  -0.00     0.00  -0.00   0.00    -0.05  -0.01   0.04
    15   1    -0.00   0.00   0.00    -0.00   0.00  -0.00     0.80   0.13  -0.58

 -------------------
 - Thermochemistry -
 -------------------
 Temperature   298.150 Kelvin.  Pressure   1.00000 Atm.
 Atom     1 has atomic number  6 and mass  12.00000
 Atom     2 has atomic number  1 and mass   1.00783
 Atom     3 has atomic number  6 and mass  12.00000
 Atom     4 has atomic number  6 and mass  12.00000
 Atom     5 has atomic number  8 and mass  15.99491
 Atom     6 has atomic number  8 and mass  15.99491
 Atom     7 has atomic number  6 and mass  12.00000
 Atom     8 has atomic number  6 and mass  12.00000
 Atom     9 has atomic number  1 and mass   1.00783
 Atom    10 has atomic number  1 and mass   1.00783
 Atom    11 has atomic number  1 and mass   1.00783
 Atom    12 has atomic number  1 and mass   1.00783
 Atom    13 has atomic number  1 and mass   1.00783
 Atom    14 has atomic number  8 and mass  15.99491
 Atom    15 has atomic number  1 and mass   1.00783
 Molecular mass:   115.03952 amu.
 Principal axes and moments of inertia in atomic units:
                           1         2         3
     Eigenvalues --   702.084071089.526051413.78571
           X            0.99976   0.02202   0.00162
           Y           -0.02201   0.99974  -0.00556
           Z           -0.00174   0.00552   0.99998
 This molecule is an asymmetric top.
 Rotational symmetry number  1.
 Warning -- assumption of classical behavior for rotation
           may cause significant error
 Rotational temperatures (Kelvin)      0.12337     0.07950     0.06126
 Rotational constants (GHZ):           2.57055     1.65645     1.27653
    1 imaginary frequencies ignored.
 Zero-point vibrational energy     293028.3 (Joules/Mol)
                                   70.03545 (Kcal/Mol)
 Warning -- explicit consideration of  12 degrees of freedom as
           vibrations may cause significant error
 Vibrational temperatures:    104.06   127.78   171.14   190.17   257.41
          (Kelvin)            302.12   323.39   375.23   504.40   574.75
                              786.81   868.47   913.35  1029.90  1072.17
                             1082.09  1099.55  1178.19  1386.52  1577.73
                             1641.06  1696.79  1848.07  1958.35  2019.32
                             2064.69  2141.57  2163.14  2201.91  2676.19
                             3162.93  4425.73  4455.44  4525.30  4538.82
                             4563.47  5006.67  5471.76
 
 Zero-point correction=                           0.111609 (Hartree/Particle)
 Thermal correction to Energy=                    0.121272
 Thermal correction to Enthalpy=                  0.122216
 Thermal correction to Gibbs Free Energy=         0.076184
 Sum of electronic and zero-point Energies=           -420.087546
 Sum of electronic and thermal Energies=              -420.077883
 Sum of electronic and thermal Enthalpies=            -420.076939
 Sum of electronic and thermal Free Energies=         -420.122971
 
                     E (Thermal)             CV                S
                      KCal/Mol        Cal/Mol-Kelvin    Cal/Mol-Kelvin
 Total                   76.099             32.654             96.883
 Electronic               0.000              0.000              1.377
 Translational            0.889              2.981             40.136
 Rotational               0.889              2.981             28.471
 Vibrational             74.322             26.693             26.899
 Vibration     1          0.598              1.967              4.089
 Vibration     2          0.602              1.957              3.686
 Vibration     3          0.609              1.934              3.117
 Vibration     4          0.612              1.921              2.914
 Vibration     5          0.629              1.868              2.340
 Vibration     6          0.642              1.826              2.044
 Vibration     7          0.649              1.803              1.920
 Vibration     8          0.669              1.744              1.656
 Vibration     9          0.727              1.574              1.164
 Vibration    10          0.766              1.471              0.965
 Vibration    11          0.902              1.147              0.551
 Vibration    12          0.962              1.024              0.443
                       Q            Log10(Q)             Ln(Q)
 Total Bot       0.907914D-35        -35.041956        -80.687084
 Total V=0       0.196966D+17         16.294392         37.519224
 Vib (Bot)       0.251443D-48        -48.599561       -111.904624
 Vib (Bot)    1  0.285058D+01          0.454934          1.047524
 Vib (Bot)    2  0.231559D+01          0.364662          0.839665
 Vib (Bot)    3  0.171848D+01          0.235144          0.541439
 Vib (Bot)    4  0.154158D+01          0.187967          0.432809
 Vib (Bot)    5  0.112304D+01          0.050395          0.116039
 Vib (Bot)    6  0.945872D+00         -0.024167         -0.055648
 Vib (Bot)    7  0.878251D+00         -0.056381         -0.129823
 Vib (Bot)    8  0.744470D+00         -0.128153         -0.295082
 Vib (Bot)    9  0.526084D+00         -0.278945         -0.642294
 Vib (Bot)   10  0.446355D+00         -0.350319         -0.806640
 Vib (Bot)   11  0.287832D+00         -0.540861         -1.245378
 Vib (Bot)   12  0.246456D+00         -0.608261         -1.400572
 Vib (V=0)       0.545490D+03          2.736787          6.301684
 Vib (V=0)    1  0.339410D+01          0.530725          1.222040
 Vib (V=0)    2  0.286896D+01          0.457724          1.053949
 Vib (V=0)    3  0.228974D+01          0.359786          0.828438
 Vib (V=0)    4  0.212064D+01          0.326467          0.751718
 Vib (V=0)    5  0.172932D+01          0.237874          0.547726
 Vib (V=0)    6  0.156989D+01          0.195871          0.451009
 Vib (V=0)    7  0.151061D+01          0.179151          0.412511
 Vib (V=0)    8  0.139679D+01          0.145132          0.334178
 Vib (V=0)    9  0.122579D+01          0.088414          0.203582
 Vib (V=0)   10  0.117025D+01          0.068278          0.157216
 Vib (V=0)   11  0.107693D+01          0.032187          0.074114
 Vib (V=0)   12  0.105744D+01          0.024256          0.055852
 Electronic      0.200000D+01          0.301030          0.693147
 Translational   0.484981D+08          7.685724         17.697035
 Rotational      0.372264D+06          5.570851         12.827358
 ***** Axes restored to original set *****
 -------------------------------------------------------------------
 Center     Atomic                   Forces (Hartrees/Bohr)
 Number     Number              X              Y              Z
 -------------------------------------------------------------------
      1        6          -0.000183550   -0.000623262   -0.000553519
      2        1           0.000157927   -0.000284730    0.000236873
      3        6          -0.003472113    0.005371810   -0.007308292
      4        6          -0.000928194    0.001203858   -0.001428083
      5        8           0.000761374    0.000642674    0.001394828
      6        8          -0.000089958   -0.000319695    0.000758492
      7        6          -0.000474069   -0.000203222   -0.000171646
      8        6           0.000109842    0.000059069    0.000003882
      9        1          -0.000088942    0.000040799    0.000172121
     10        1          -0.000066001   -0.000080187    0.000092261
     11        1          -0.000025314   -0.000046394   -0.000136096
     12        1          -0.000013886    0.000035532   -0.000055758
     13        1          -0.000047340    0.000004348   -0.000021505
     14        8           0.004215726   -0.005826939    0.006931458
     15        1           0.000144496    0.000026340    0.000084984
 -------------------------------------------------------------------
 Cartesian Forces:  Max     0.007308292 RMS     0.002125953

 GradGradGradGradGradGradGradGradGradGradGradGradGradGradGradGradGradGrad
 Berny optimization.
 Search for a local minimum.
 Step number   1 out of a maximum of    2
 All quantities printed in internal units (Hartrees-Bohrs-Radians)
 Second derivative matrix not updated -- analytic derivatives used.
 ITU=  0
     Eigenvalues ---   -0.00012   0.00112   0.00173   0.00219   0.00261
     Eigenvalues ---    0.00348   0.00518   0.00596   0.01029   0.02002
     Eigenvalues ---    0.02359   0.02701   0.03409   0.05594   0.06697
     Eigenvalues ---    0.07828   0.07867   0.08391   0.09049   0.10267
     Eigenvalues ---    0.11568   0.13896   0.16405   0.18106   0.23054
     Eigenvalues ---    0.24635   0.26682   0.36103   0.50484   0.62156
     Eigenvalues ---    0.71188   0.76785   0.78433   0.86378   0.90054
     Eigenvalues ---    0.94607   1.00243   1.76723   2.58969
 Eigenvalue     1 is  -1.19D-04 should be greater than     0.000000 Eigenvector:
                          Z14       Z3        Y15       Z15       Z1
   1                    0.43818  -0.35055   0.32338   0.24781  -0.24061
                          X15       Z2        X2        Z5        Y3
   1                   -0.23031  -0.21835   0.21646   0.19109   0.19001
 Quadratic step=6.528D+01 exceeds max=3.000D-01 adjusted using Lamda=-4.394D-02.
 Angle between NR and scaled steps=  50.51 degrees.
 Angle between quadratic step and forces=   8.79 degrees.
 Linear search not attempted -- first point.
 B after Tr=     0.002376    0.000027    0.001219
         Rot=    1.000000   -0.000580    0.000069    0.000094 Ang=  -0.07 deg.
 Variable       Old X    -DE/DX   Delta X   Delta X   Delta X     New X
                                 (Linear)    (Quad)   (Total)
    X1       -3.85612  -0.00018   0.00000  -0.00523  -0.00302  -3.85914
    Y1       -2.11578  -0.00062   0.00000   0.00086   0.00353  -2.11225
    Z1       -1.62291  -0.00055   0.00000  -0.02849  -0.03026  -1.65317
    X2       -5.09828   0.00016   0.00000   0.00284   0.00488  -5.09341
    Y2       -3.50946  -0.00028   0.00000  -0.02626  -0.02252  -3.53198
    Z2       -2.37693   0.00024   0.00000   0.01251   0.00892  -2.36800
    X3       -2.40549  -0.00347   0.00000  -0.06761  -0.06520  -2.47069
    Y3       -0.59181   0.00537   0.00000   0.11383   0.11537  -0.47644
    Z3       -0.74826  -0.00731   0.00000  -0.15650  -0.15618  -0.90444
    X4       -1.04737  -0.00093   0.00000  -0.01739  -0.01470  -1.06207
    Y4        1.69477   0.00120   0.00000   0.02665   0.02683   1.72160
    Z4        0.07848  -0.00143   0.00000  -0.03300  -0.02993   0.04855
    X5       -2.18345   0.00076   0.00000   0.01338   0.01624  -2.16721
    Y5        3.36599   0.00064   0.00000   0.01415   0.01329   3.37928
    Z5        1.08665   0.00139   0.00000   0.02661   0.03145   1.11810
    X6        1.40652  -0.00009   0.00000  -0.00367  -0.00089   1.40563
    Y6        1.85833  -0.00032   0.00000  -0.00564  -0.00542   1.85291
    Z6       -0.41188   0.00076   0.00000   0.01240   0.01596  -0.39592
    X7        2.86128  -0.00047   0.00000  -0.01006  -0.00752   2.85376
    Y7       -0.17219  -0.00020   0.00000  -0.00257  -0.00135  -0.17355
    Z7       -1.49008  -0.00017   0.00000   0.00095   0.00237  -1.48771
    X8        4.92351   0.00011   0.00000  -0.00307  -0.00092   4.92260
    Y8       -0.90488   0.00006   0.00000   0.00088  -0.00042  -0.90529
    Z8        0.35106   0.00000   0.00000  -0.00334  -0.00249   0.34856
    X9        1.64162  -0.00009   0.00000  -0.01148  -0.00917   1.63245
    Y9       -1.77405   0.00004   0.00000  -0.00294  -0.00099  -1.77504
    Z9       -1.92572   0.00017   0.00000   0.00626   0.00564  -1.92008
   X10        3.64198  -0.00007   0.00000  -0.01039  -0.00746   3.63452
   Y10        0.57332  -0.00008   0.00000  -0.00519  -0.00208   0.57125
   Z10       -3.24697   0.00009   0.00000  -0.00080   0.00158  -3.24539
   X11        6.08355  -0.00003   0.00000  -0.00313  -0.00073   6.08282
   Y11        0.73321  -0.00005   0.00000   0.00180  -0.00026   0.73295
   Z11        0.81987  -0.00014   0.00000  -0.00695  -0.00404   0.81583
   X12        4.09409  -0.00001   0.00000   0.00258   0.00435   4.09844
   Y12       -1.66115   0.00004   0.00000   0.00385   0.00069  -1.66045
   Z12        2.07783  -0.00006   0.00000   0.00030   0.00016   2.07800
   X13        6.13046  -0.00005   0.00000  -0.00315  -0.00115   6.12932
   Y13       -2.34878   0.00000   0.00000   0.00034  -0.00020  -2.34898
   Z13       -0.49526  -0.00002   0.00000  -0.00243  -0.00309  -0.49835
   X14       -0.49498   0.00422   0.00000   0.09081   0.09231  -0.40268
   Y14       -2.95416  -0.00583   0.00000  -0.11863  -0.12104  -3.07520
   Z14        2.02896   0.00693   0.00000   0.13978   0.13737   2.16633
   X15       -1.97262   0.00014   0.00000  -0.00838  -0.00703  -1.97965
   Y15       -3.15831   0.00003   0.00000  -0.00221  -0.00543  -3.16374
   Z15        3.09802   0.00008   0.00000   0.02527   0.02254   3.12055
         Item               Value     Threshold  Converged?
 Maximum Force            0.007308     0.000450     NO 
 RMS     Force            0.002126     0.000300     NO 
 Maximum Displacement     0.156181     0.001800     NO 
 RMS     Displacement     0.044715     0.001200     NO 
 Predicted change in Energy=-4.102474D-03
 GradGradGradGradGradGradGradGradGradGradGradGradGradGradGradGradGradGrad


 ----------------------------------------------------------------------

 Electric dipole moment (input orientation):
 (Debye = 10**-18 statcoulomb cm , SI units = C m)
                  (au)            (Debye)         (10**-30 SI)
   Tot        0.166493D+01      0.423184D+01      0.141159D+02
   x         -0.165233D-01     -0.419981D-01     -0.140091D+00
   y         -0.155370D+01     -0.394910D+01     -0.131728D+02
   z         -0.598129D+00     -0.152029D+01     -0.507115D+01

 Dipole polarizability, Alpha (input orientation).
 (esu units = cm**3 , SI units = C**2 m**2 J**-1)
 Alpha(0;0):
               (au)            (10**-24 esu)      (10**-40 SI)
   iso        0.734966D+02      0.108911D+02      0.121180D+02
   aniso      0.225327D+02      0.333900D+01      0.371513D+01
   xx         0.847355D+02      0.125565D+02      0.139710D+02
   yx         0.111712D+01      0.165541D+00      0.184189D+00
   yy         0.710558D+02      0.105294D+02      0.117155D+02
   zx         0.716988D+01      0.106247D+01      0.118215D+01
   zy         0.342750D+01      0.507903D+00      0.565118D+00
   zz         0.646986D+02      0.958735D+01      0.106674D+02

 ----------------------------------------------------------------------

 Dipole orientation:
     6         -3.82532253         -0.78050291          2.59572521
     1         -5.05041408         -0.99182509          4.17949305
     6         -2.39385838         -0.50200747          0.84495624
     6         -1.05962340         -0.54287431         -1.59933809
     8         -2.21700645         -0.21031074         -3.50981166
     8          1.39784335         -1.04251643         -1.60015941
     6          2.87702982         -1.30915385          0.66760521
     6          4.92583785          0.68629156          0.66943995
     1          1.67269639         -1.14841642          2.33104453
     1          3.67003219         -3.21122886          0.59531533
     1          6.06997678          0.54308003         -1.03913801
     1          4.08449025          2.56379451          0.76306868
     1          6.15093857          0.42357589          2.30893432
     8         -0.49495551          2.95152925          2.03279621
     1         -1.98170257          4.01244648          1.85390865

 Electric dipole moment (dipole orientation):
 (Debye = 10**-18 statcoulomb cm , SI units = C m)
                  (au)            (Debye)         (10**-30 SI)
   Tot        0.166493D+01      0.423184D+01      0.141159D+02
   x          0.000000D+00      0.000000D+00      0.000000D+00
   y          0.000000D+00      0.000000D+00      0.000000D+00
   z          0.166493D+01      0.423184D+01      0.141159D+02

 Dipole polarizability, Alpha (dipole orientation).
 (esu units = cm**3 , SI units = C**2 m**2 J**-1)
 Alpha(0;0):
               (au)            (10**-24 esu)      (10**-40 SI)
   iso        0.734966D+02      0.108911D+02      0.121180D+02
   aniso      0.225327D+02      0.333900D+01      0.371513D+01
   xx         0.845758D+02      0.125328D+02      0.139447D+02
   yx         0.643095D+01      0.952969D+00      0.106032D+01
   yy         0.633074D+02      0.938120D+01      0.104380D+02
   zx        -0.373552D+01     -0.553547D+00     -0.615904D+00
   zy        -0.499128D+00     -0.739631D-01     -0.822950D-01
   zz         0.726066D+02      0.107592D+02      0.119712D+02

 ----------------------------------------------------------------------
 1\1\GINC-BOSON\Freq\UM062X\6-311++G(d,p)\C5H7O3(2)\LOKI\28-Mar-2025\0\
 \# freq 6-311++g(d,p) m062x\\Title Card Required\\0,2\C,-2.040573,-1.1
 19624,-0.858807\H,-2.697896,-1.857124,-1.257815\C,-1.272931,-0.313172,
 -0.395963\C,-0.554246,0.896834,0.041528\O,-1.15543,1.781205,0.575029\O
 ,0.744298,0.983384,-0.217956\C,1.514122,-0.091121,-0.788515\C,2.605411
 ,-0.47884,0.185771\H,0.868706,-0.938785,-1.019047\H,1.927252,0.30339,-
 1.718223\H,3.219276,0.387999,0.433855\H,2.166499,-0.879042,1.099542\H,
 3.244102,-1.242921,-0.262078\O,-0.261934,-1.563276,1.073679\H,-1.04386
 5,-1.671306,1.639399\\Version=ES64L-G16RevA.03\State=2-A\HF=-420.19915
 45\S2=0.760992\S2-1=0.\S2A=0.750064\RMSD=2.951e-09\RMSF=2.126e-03\Zero
 Point=0.1116086\Thermal=0.1212717\Dipole=-0.0165233,-1.5536954,-0.5981
 293\DipoleDeriv=-0.1167698,-0.1684338,0.1109412,0.0361486,-0.3508432,0
 .1280602,0.0464376,-0.0570785,-0.0638564,0.2568243,0.0167306,0.0214658
 ,0.036417,0.2314859,0.0351975,0.0160566,0.0234769,0.217281,-0.4620952,
 0.0459438,-0.3537863,-0.1623638,-0.2539862,-0.027082,-0.2633622,0.0905
 718,-0.4282739,2.3692717,-0.1207173,-0.4717544,0.0768817,1.5600146,0.3
 245326,-0.3756872,0.5649845,0.6856995,-0.9090559,0.2180358,0.1865756,0
 .3281461,-1.1124975,-0.3159113,0.2687121,-0.3939088,-0.543644,-1.77820
 65,0.3375937,0.4033628,0.1409459,-0.6001106,-0.074883,0.333266,-0.1726
 014,-0.4349921,0.684352,-0.2140639,-0.1093666,-0.4033705,0.4564341,0.0
 738345,-0.1898357,0.0400992,0.3943717,-0.0505004,0.0356672,-0.0244323,
 0.0513781,0.043402,0.0166885,-0.0621169,0.0574015,-0.0479745,-0.043807
 8,-0.039921,-0.0408215,0.0078486,-0.0259445,-0.0409478,-0.0253972,-0.0
 214487,0.0378645,-0.0244166,0.0208013,0.0471147,0.0145119,0.0142649,0.
 0777824,0.0713394,0.0309338,-0.0869498,0.0040736,-0.0481321,-0.0386222
 ,-0.1000304,-0.0379544,-0.0330037,-0.0367778,-0.0049622,0.0625743,0.06
 43196,-0.0251586,0.0654729,-0.0116086,0.0532165,0.0433432,0.0248973,0.
 0493588,-0.0331817,-0.0161237,0.0701575,0.0234483,0.0989574,-0.0083853
 ,-0.0551372,0.0396107,-0.0669706,0.0354321,-0.1296604,-0.14092,0.17898
 79,-0.1029898,-0.283809,-0.1255379,0.065935,-0.1119476,-0.1079677,0.15
 17951,0.012417,0.001414,-0.0108724,0.3147128,-0.0269359,0.0869223,-0.0
 279088,0.313617\Polar=84.7354816,1.1171235,71.0557558,7.1698822,3.4275
 002,64.6986146\Quadrupole=3.505841,-4.9828051,1.4769641,5.818574,0.220
 3329,-1.3455522\PG=C01 [X(C5H7O3)]\NImag=1\\0.62549319,0.62082172,0.73
 357025,0.34492027,0.37178574,0.26647128,-0.17553757,-0.16811263,-0.091
 01190,0.16684192,-0.17182720,-0.21725063,-0.10351181,0.16986177,0.2058
 2937,-0.09049429,-0.10090183,-0.08270538,0.09152917,0.10280016,0.07273
 415,-0.44015978,-0.44282345,-0.24325317,0.00516072,0.00457431,0.001140
 93,0.57279642,-0.46582234,-0.52764946,-0.27949384,-0.00053744,0.009525
 57,-0.00115437,0.55831086,0.74515272,-0.23699554,-0.25961720,-0.173363
 05,0.00076009,0.00154935,0.00669165,0.25131748,0.34630250,0.21845089,0
 .00695791,0.00161313,0.00096949,0.00335098,-0.00356010,-0.00234130,-0.
 12266888,-0.08227890,-0.03182172,0.68271318,0.01298285,0.01034828,0.00
 643452,-0.00120533,0.00137625,-0.00138174,-0.08276246,-0.15617191,-0.0
 4302431,-0.15242210,0.75328789,-0.00195407,-0.00430216,0.00100373,-0.0
 0129036,-0.00166904,0.00458334,-0.02093349,-0.02595911,-0.07786109,-0.
 16919050,0.28708606,0.37112123,-0.00110709,-0.00313465,-0.00104705,-0.
 00023558,0.00063118,0.00035369,0.01926152,0.00408293,0.00245128,-0.245
 73198,0.24145975,0.14609771,0.30760713,-0.00367982,-0.00218922,-0.0010
 6761,-0.00084715,0.00085306,0.00118773,0.00949465,-0.06074401,-0.03927
 462,0.25076637,-0.49118941,-0.24266866,-0.29773767,0.53771971,-0.00065
 246,0.00019595,0.00039829,-0.00030044,0.00080783,-0.00043858,0.0040398
 9,-0.03987576,0.00308160,0.15094497,-0.24188162,-0.21995324,-0.1960231
 0,0.29705410,0.21096413,-0.00400154,-0.00649331,-0.00278532,0.00056830
 ,0.00027697,-0.00013981,-0.03436824,-0.01862971,0.00668188,-0.29965491
 ,-0.05374073,0.03360243,-0.07799051,0.04500999,0.04159581,0.55303681,-
 0.00189911,-0.00247064,-0.00155133,0.00064513,-0.00051315,-0.00032891,
 -0.03129202,-0.00710650,-0.00175671,-0.02376518,-0.10777416,-0.0193386
 1,0.06012759,0.00993531,-0.01699551,-0.06693887,0.30464061,0.00092646,
 0.00054017,0.00076279,0.00017315,0.00011791,-0.00074870,-0.00520231,-0
 .00663439,0.01292852,0.04419538,-0.01315389,-0.05819058,0.04803734,-0.
 01368069,-0.00177169,-0.13118626,0.11332649,0.13122313,0.00119872,0.00
 260870,0.00120681,-0.00025117,-0.00007703,0.00000867,-0.00291520,0.001
 43109,-0.00014019,-0.03445775,0.02353327,0.01426694,0.00281418,-0.0029
 0399,-0.00076984,-0.10114575,0.02356696,0.02423171,0.53514563,-0.00043
 929,-0.00298255,-0.00184487,0.00015220,-0.00003396,-0.00006715,-0.0054
 5253,0.00095424,0.00323410,0.02846788,0.00657733,0.00081800,-0.0128734
 4,0.00717367,0.00346555,0.04018641,-0.15874791,-0.05282916,0.10483221,
 0.53394846,-0.00028642,-0.00122359,-0.00074022,0.00011488,0.00001634,0
 .00001165,-0.00250616,-0.00005844,0.00183588,0.01514017,0.00191449,-0.
 01905314,-0.00254524,0.00008599,0.00918657,0.02965058,-0.04782165,-0.0
 8299928,-0.00695404,-0.02933354,0.56469677,-0.00029455,-0.00020098,0.0
 0004861,0.00002169,0.00003261,0.00000848,-0.00048203,-0.00014650,0.000
 10686,0.00085406,0.00279640,-0.00269600,-0.00097922,0.00000561,0.00128
 216,-0.02604639,0.01686640,-0.00791697,-0.14360842,0.01484065,-0.06435
 733,0.53971863,-0.00031591,0.00044630,0.00037696,0.00005012,-0.0000017
 7,0.00001020,0.00035429,0.00016887,-0.00011167,-0.00510097,-0.00426746
 ,0.00291421,0.00254938,-0.00065479,-0.00204183,0.03673867,-0.01508037,
 0.01044200,0.00894146,-0.08227805,0.01962105,0.01894555,0.58108548,0.0
 0040973,0.00055103,0.00024384,0.00001589,0.00001130,0.00000154,-0.0007
 0350,0.00043988,-0.00073208,-0.00319057,-0.00369055,0.00233508,0.00217
 338,-0.00060409,-0.00211522,0.01954391,-0.00615890,0.01201484,-0.07459
 395,0.02624638,-0.14972735,-0.04454264,0.01659997,0.55451288,-0.001369
 20,0.00034988,0.00052540,-0.00013095,0.00000751,0.00002469,-0.00466177
 ,0.00007780,0.00023997,0.00508674,0.00337364,0.00059606,-0.00135702,-0
 .00049225,0.00000753,0.00811914,0.02211374,0.00737011,-0.15267116,-0.1
 3265167,-0.03274323,-0.01399029,-0.01806450,-0.00464480,0.16873911,-0.
 00077982,0.00033459,0.00051100,-0.00002564,0.00009434,0.00002150,0.001
 13779,0.00043079,0.00012427,-0.00781913,-0.00070654,0.00081692,0.00171
 989,-0.00009976,-0.00036896,-0.00281691,-0.02827146,-0.01075087,-0.121
 47049,-0.20986569,-0.04258174,0.00594494,0.01070803,0.00244181,0.13143
 821,0.23386253,-0.00002950,0.00031914,0.00002989,-0.00001571,0.0000146
 1,0.00011187,0.00093415,0.00008353,-0.00042700,-0.00423938,-0.00182032
 ,0.00170388,0.00099103,0.00020167,-0.00033569,-0.00299710,-0.01681836,
 -0.00608427,-0.02700120,-0.03650876,-0.06201890,-0.01401587,-0.0163217
 9,-0.00381734,0.03161069,0.04834333,0.06494862,-0.00034274,-0.00018251
 ,-0.00011264,0.00001272,0.00003340,0.00004328,0.00021104,-0.00031858,-
 0.00005902,0.00350362,0.00125458,0.00337354,-0.00199730,0.00103734,-0.
 00022446,-0.01666098,0.00166345,0.01946555,-0.08672242,-0.04158912,0.0
 8068736,0.01077976,0.01001259,-0.02312941,-0.00568238,-0.00734779,0.01
 610109,0.09914988,0.00010916,0.00046917,0.00021685,0.00001095,0.000017
 28,0.00002971,0.00001919,-0.00002786,-0.00016142,-0.00497702,-0.001588
 01,-0.00335627,0.00291157,-0.00164744,0.00006112,0.02447582,0.00307532
 ,-0.02877843,-0.04789189,-0.09160284,0.09388656,-0.00380798,-0.0022479
 2,0.00624407,-0.00801084,-0.00648595,0.02127795,0.03514285,0.09879382,
 -0.00000221,0.00013963,0.00007862,-0.00000697,-0.00000866,-0.00002044,
 0.00038031,0.00004706,-0.00010025,-0.00455820,-0.00096254,-0.00146937,
 0.00153542,-0.00061298,-0.00022583,0.01463357,-0.00381891,-0.00966715,
 0.08224019,0.08669730,-0.24035823,0.00668720,0.00968667,-0.01726736,-0
 .00303912,-0.00133946,0.00784397,-0.09454961,-0.09044926,0.26121826,0.
 00000824,0.00020996,0.00016521,0.00002593,0.00001560,0.00000834,0.0000
 4150,0.00011087,-0.00020519,-0.00108015,-0.00050311,0.00021449,0.00029
 261,0.00009418,-0.00000629,0.00269388,-0.00071459,0.00085707,-0.016127
 20,-0.02014024,-0.00635401,-0.13168667,-0.12167421,-0.03252038,-0.0023
 3606,0.00210026,-0.00325976,0.00091842,0.00050410,0.00050576,0.1422160
 4,0.00012703,0.00006094,-0.00001688,0.00000360,0.00000426,0.00000842,-
 0.00014682,-0.00005769,-0.00019188,0.00062629,0.00006306,-0.00016784,-
 0.00022427,0.00011817,0.00016390,-0.00134482,0.00141630,0.00026850,0.0
 0737203,0.00789145,0.00259196,-0.12409051,-0.22340706,-0.04840824,0.00
 216432,0.00006826,0.00128069,-0.00052071,0.00059928,-0.00065413,0.1334
 5461,0.23834171,-0.00017949,-0.00008470,0.00003966,0.00001265,0.000006
 13,0.00000177,0.00028042,-0.00009794,0.00026090,0.00020914,0.00016448,
 0.00011254,-0.00010441,-0.00002674,-0.00004128,0.00186430,0.00025233,0
 .00064754,-0.01368037,-0.02051141,-0.00664026,-0.03286311,-0.04600945,
 -0.06144520,-0.00302748,0.00234616,-0.00214019,0.00065445,-0.00046624,
 0.00055059,0.03997880,0.05164813,0.06450663,-0.00020304,-0.00027797,-0
 .00006594,-0.00002663,-0.00002682,-0.00002508,0.00042956,-0.00007325,0
 .00045234,0.00003792,0.00056427,0.00002805,-0.00007617,-0.00017046,-0.
 00013315,0.00192448,-0.00159745,0.00124218,0.01025217,0.01051575,-0.02
 408475,-0.09411337,-0.04281823,0.09785329,0.00112709,-0.00034720,0.000
 73436,-0.00377248,0.00169989,-0.00357640,-0.00730202,-0.00447767,0.014
 39851,0.10106832,-0.00004212,-0.00019935,-0.00003176,-0.00001714,0.000
 02502,-0.00000713,0.00006934,-0.00012040,0.00012455,0.00082491,0.00025
 695,0.00044132,-0.00017513,-0.00005769,-0.00013986,-0.00138412,0.00051
 664,-0.00066443,-0.00217280,-0.00433217,0.00784349,-0.04233569,-0.0856
 2184,0.08425490,0.00025807,0.00015837,-0.00077926,0.00120459,0.0007633
 2,0.00095680,-0.00937361,-0.00858935,0.02214500,0.04543582,0.08773639,
 -0.00018084,-0.00022976,-0.00008770,-0.00001137,-0.00001725,-0.0000181
 8,0.00034560,-0.00007271,0.00041565,0.00079696,0.00072755,-0.00012702,
 -0.00040377,0.00001721,0.00003760,-0.00049267,-0.00099717,0.00235672,0
 .00969834,0.00762531,-0.02178268,0.09333730,0.08433244,-0.23916056,0.0
 0049175,-0.00013903,0.00054382,-0.00383514,0.00078954,-0.00122690,-0.0
 0374194,-0.00307984,0.00813930,-0.10071302,-0.09359517,0.26053737,-0.0
 0009797,-0.00020216,-0.00006335,-0.00000626,0.00003807,0.00000826,-0.0
 0002629,-0.00014104,0.00003354,0.00266551,0.00122716,-0.00106208,-0.00
 100238,0.00032079,0.00076192,-0.00658537,0.00208955,-0.00301528,-0.011
 01261,0.01430943,0.01376384,-0.13909326,0.11070063,0.06344888,0.000193
 02,-0.00078956,0.00028634,0.00082205,0.00005037,-0.00019384,0.01258043
 ,-0.01282647,-0.00781897,-0.00753039,0.00867034,0.00369217,0.14927337,
 0.00008922,0.00009453,0.00006576,-0.00001206,-0.00000872,-0.00001043,0
 .00009351,0.00011071,-0.00014323,-0.00131493,-0.00035582,0.00080137,0.
 00044809,-0.00023700,-0.00028420,0.00293634,0.00060528,0.00078368,0.00
 200951,-0.00654233,-0.00472959,0.11129751,-0.17903572,-0.07777971,0.00
 021418,0.00020714,0.00018832,-0.00025880,0.00004630,0.00031394,0.01594
 537,-0.01646860,-0.00946851,-0.00808921,0.00976689,0.00434886,-0.12329
 403,0.19188069,-0.00010421,-0.00011577,-0.00008788,-0.00000347,-0.0000
 1230,0.00000405,0.00010350,-0.00004976,0.00020435,0.00107626,0.0013438
 6,-0.00087014,-0.00085854,0.00025443,0.00072769,-0.00685133,0.00230511
 ,-0.00119855,-0.00916904,0.01449405,0.01007762,0.06528886,-0.07962957,
 -0.09468124,0.00041755,-0.00066548,0.00068899,0.00122206,-0.00002609,0
 .00039892,0.00424672,-0.00352236,-0.00393299,0.01417851,-0.02041125,-0
 .00942855,-0.06977456,0.08589448,0.09811369,-0.01172698,-0.00594923,-0
 .00869379,0.00020698,-0.00003552,0.00006066,0.00809438,0.00261698,0.01
 274033,-0.00123392,0.00419780,-0.00136393,0.00062779,-0.00103406,-0.00
 069004,-0.00027920,-0.00105802,0.00119434,-0.00064008,-0.00089028,0.00
 025877,-0.00103950,-0.00022604,-0.00014551,-0.00085733,-0.00070544,0.0
 0115587,-0.00012065,-0.00009336,0.00000856,-0.00017819,-0.00010302,0.0
 0025652,-0.00185073,-0.00093069,0.00075237,-0.00014993,-0.00004636,0.0
 0021082,0.35188284,0.01099326,0.00770090,0.00834748,0.00007707,-0.0002
 6889,0.00008789,-0.00994751,-0.00287600,-0.00936553,0.00086685,-0.0101
 1105,0.00197834,-0.00051735,0.00159157,0.00122122,0.00084036,0.0001030
 0,0.00107740,0.00039215,-0.00055692,0.00001063,-0.00002557,0.00026871,
 0.00009864,-0.00070803,-0.00028078,0.00042595,-0.00022647,-0.00014197,
 -0.00000261,0.00004047,-0.00001109,-0.00002533,-0.00027578,-0.00024143
 ,-0.00005934,-0.00011878,0.00000112,0.00010638,0.04486115,0.01334640,-
 0.01509123,-0.00678395,-0.01111880,0.00027259,0.00001991,0.00007626,0.
 01203732,0.00634395,0.01031252,-0.00001264,0.00475894,-0.00443038,-0.0
 0037562,0.00046382,0.00129544,-0.00151467,0.00014079,0.00076194,-0.000
 09829,-0.00117281,-0.00224502,-0.00012510,0.00025005,-0.00066979,0.001
 92374,0.00120157,-0.00110877,0.00044985,0.00065220,0.00025266,0.000095
 63,0.00004305,0.00010174,-0.00040320,-0.00022349,0.00010019,-0.0000420
 9,-0.00002295,0.00005404,-0.24069976,-0.03930404,0.18461457,0.00118240
 ,0.00177351,-0.00080263,-0.00000108,0.00005527,-0.00018569,-0.00071297
 ,0.00131722,-0.00556210,-0.00034233,-0.00075599,0.00031121,-0.00012599
 ,0.00013646,0.00016749,0.00039028,0.00019243,-0.00037247,0.00014105,0.
 00073203,0.00021558,-0.00004043,-0.00009282,0.00002568,-0.00020896,-0.
 00023909,-0.00025502,-0.00009854,-0.00014280,-0.00006467,-0.00006675,-
 0.00001358,0.00001905,0.00003528,-0.00003177,0.00026426,-0.00002992,-0
 .00001834,0.00001688,-0.34273547,-0.04625183,0.24358344,0.34261343,-0.
 00031762,-0.00028313,-0.00022022,-0.00004344,0.00035198,-0.00029404,-0
 .00162913,-0.00158905,0.00231179,-0.00192709,0.00025461,0.00260547,0.0
 0073212,-0.00057216,-0.00138193,0.00088392,-0.00032825,-0.00006428,-0.
 00017119,0.00039728,-0.00022196,-0.00012243,-0.00008241,-0.00024650,-0
 .00007003,-0.00015388,0.00011332,0.00009518,-0.00002251,0.00000716,-0.
 00006965,-0.00002964,0.00012808,-0.00006171,-0.00006135,0.00034935,-0.
 00003430,-0.00006446,0.00003427,-0.04060391,-0.00852356,0.03363296,0.0
 4333929,0.01070652,-0.00028621,-0.00027269,-0.00092507,-0.00023820,-0.
 00012447,-0.00028500,0.00201901,0.00017941,-0.00169849,0.00202193,0.00
 348509,0.00109517,-0.00028212,-0.00132956,-0.00080979,-0.00160531,-0.0
 0043866,-0.00003525,0.00075426,-0.00031299,-0.00024340,-0.00024245,-0.
 00011924,0.00050798,0.00024716,0.00003895,0.00006113,-0.00008690,0.000
 07972,-0.00000750,0.00001553,0.00003652,-0.00016073,0.00011431,0.00008
 627,-0.00029907,-0.00002479,0.00004221,-0.00007000,0.23495480,0.035402
 92,-0.17799661,-0.23736103,-0.03675348,0.18086662\\0.00018355,0.000623
 26,0.00055352,-0.00015793,0.00028473,-0.00023687,0.00347211,-0.0053718
 1,0.00730829,0.00092819,-0.00120386,0.00142808,-0.00076137,-0.00064267
 ,-0.00139483,0.00008996,0.00031970,-0.00075849,0.00047407,0.00020322,0
 .00017165,-0.00010984,-0.00005907,-0.00000388,0.00008894,-0.00004080,-
 0.00017212,0.00006600,0.00008019,-0.00009226,0.00002531,0.00004639,0.0
 0013610,0.00001389,-0.00003553,0.00005576,0.00004734,-0.00000435,0.000
 02151,-0.00421573,0.00582694,-0.00693146,-0.00014450,-0.00002634,-0.00
 008498\\\@


 Cherishing children is the mark of a civilized society.
 -- Joan Ganz Cooney
 Job cpu time:       0 days  1 hours 45 minutes 25.8 seconds.
 Elapsed time:       0 days  0 hours 13 minutes 21.6 seconds.
 File lengths (MBytes):  RWF=    153 Int=      0 D2E=      0 Chk=      5 Scr=      1
 Normal termination of Gaussian 16 at Fri Mar 28 08:25:15 2025.
