 Entering Gaussian System, Link 0=g16
 Initial command:
 /opt/g16/l1.exe "/home/loki/Research/Transition_states/Addition/ts1_irc_points/Gau-136331.inp" -scrdir="/home/loki/Research/Transition_states/Addition/ts1_irc_points/"
 Entering Link 1 = /opt/g16/l1.exe PID=    136334.
  
 Copyright (c) 1988,1990,1992,1993,1995,1998,2003,2009,2016,
            Gaussian, Inc.  All Rights Reserved.
  
 This is part of the Gaussian(R) 16 program.  It is based on
 the Gaussian(R) 09 system (copyright 2009, Gaussian, Inc.),
 the Gaussian(R) 03 system (copyright 2003, Gaussian, Inc.),
 the Gaussian(R) 98 system (copyright 1998, Gaussian, Inc.),
 the Gaussian(R) 94 system (copyright 1995, Gaussian, Inc.),
 the Gaussian 92(TM) system (copyright 1992, Gaussian, Inc.),
 the Gaussian 90(TM) system (copyright 1990, Gaussian, Inc.),
 the Gaussian 88(TM) system (copyright 1988, Gaussian, Inc.),
 the Gaussian 86(TM) system (copyright 1986, Carnegie Mellon
 University), and the Gaussian 82(TM) system (copyright 1983,
 Carnegie Mellon University). Gaussian is a federally registered
 trademark of Gaussian, Inc.
  
 This software contains proprietary and confidential information,
 including trade secrets, belonging to Gaussian, Inc.
  
 This software is provided under written license and may be
 used, copied, transmitted, or stored only in accord with that
 written license.
  
 The following legend is applicable only to US Government
 contracts under FAR:
  
                    RESTRICTED RIGHTS LEGEND
  
 Use, reproduction and disclosure by the US Government is
 subject to restrictions as set forth in subparagraphs (a)
 and (c) of the Commercial Computer Software - Restricted
 Rights clause in FAR 52.227-19.
  
 Gaussian, Inc.
 340 Quinnipiac St., Bldg. 40, Wallingford CT 06492
  
  
 ---------------------------------------------------------------
 Warning -- This program may not be used in any manner that
 competes with the business of Gaussian, Inc. or will provide
 assistance to any competitor of Gaussian, Inc.  The licensee
 of this program is prohibited from giving any competitor of
 Gaussian, Inc. access to this program.  By using this program,
 the user acknowledges that Gaussian, Inc. is engaged in the
 business of creating and licensing software in the field of
 computational chemistry and represents and warrants to the
 licensee that it is not a competitor of Gaussian, Inc. and that
 it will not use this program in any manner prohibited above.
 ---------------------------------------------------------------
  

 Cite this work as:
 Gaussian 16, Revision A.03,
 M. J. Frisch, G. W. Trucks, H. B. Schlegel, G. E. Scuseria, 
 M. A. Robb, J. R. Cheeseman, G. Scalmani, V. Barone, 
 G. A. Petersson, H. Nakatsuji, X. Li, M. Caricato, A. V. Marenich, 
 J. Bloino, B. G. Janesko, R. Gomperts, B. Mennucci, H. P. Hratchian, 
 J. V. Ortiz, A. F. Izmaylov, J. L. Sonnenberg, D. Williams-Young, 
 F. Ding, F. Lipparini, F. Egidi, J. Goings, B. Peng, A. Petrone, 
 T. Henderson, D. Ranasinghe, V. G. Zakrzewski, J. Gao, N. Rega, 
 G. Zheng, W. Liang, M. Hada, M. Ehara, K. Toyota, R. Fukuda, 
 J. Hasegawa, M. Ishida, T. Nakajima, Y. Honda, O. Kitao, H. Nakai, 
 T. Vreven, K. Throssell, J. A. Montgomery, Jr., J. E. Peralta, 
 F. Ogliaro, M. J. Bearpark, J. J. Heyd, E. N. Brothers, K. N. Kudin, 
 V. N. Staroverov, T. A. Keith, R. Kobayashi, J. Normand, 
 K. Raghavachari, A. P. Rendell, J. C. Burant, S. S. Iyengar, 
 J. Tomasi, M. Cossi, J. M. Millam, M. Klene, C. Adamo, R. Cammi, 
 J. W. Ochterski, R. L. Martin, K. Morokuma, O. Farkas, 
 J. B. Foresman, and D. J. Fox, Gaussian, Inc., Wallingford CT, 2016.
 
 ******************************************
 Gaussian 16:  ES64L-G16RevA.03 25-Dec-2016
                28-Mar-2025 
 ******************************************
 %chk=ethyl_propiolate.chk
 %nprocshared=4
 Will use up to    4 processors via shared memory.
 %mem=10GB
 --------------------------
 # freq 6-311++g(d,p) m062x
 --------------------------
 1/10=4,30=1,38=1/1,3;
 2/12=2,17=6,18=5,40=1/2;
 3/5=4,6=6,7=1111,11=2,25=1,30=1,71=2,74=-55,140=1/1,2,3;
 4//1;
 5/5=2,38=5,98=1/2;
 8/6=4,10=90,11=11/1;
 11/6=1,8=1,9=11,15=111,16=1/1,2,10;
 10/6=1/2;
 6/7=2,8=2,9=2,10=2,28=1/1;
 7/8=1,10=1,25=1/1,2,3,16;
 1/10=4,30=1/3;
 99//99;
 -------------------
 Title Card Required
 -------------------
 Symbolic Z-matrix:
 Charge =  0 Multiplicity = 2
 C                    -2.03964  -1.10915  -0.85763 
 H                    -2.7079   -1.821    -1.28552 
 C                    -1.22756  -0.3825   -0.308 
 C                    -0.54786   0.88818   0.05348 
 O                    -1.16072   1.77592   0.56507 
 O                     0.7444    0.9855   -0.22288 
 C                     1.51783  -0.09003  -0.78965 
 C                     2.60555  -0.47881   0.18722 
 H                     0.87562  -0.93886  -1.02308 
 H                     1.93227   0.30737  -1.71741 
 H                     3.21941   0.38738   0.43771 
 H                     2.16141  -0.88124   1.09746 
 H                     3.24479  -1.24244  -0.26067 
 O                    -0.29891  -1.51335   1.01571 
 H                    -1.04558  -1.66044   1.6159 
 

 GradGradGradGradGradGradGradGradGradGradGradGradGradGradGradGradGradGrad
 Berny optimization.
 Initialization pass.
 Trust Radius=3.00D-01 FncErr=1.00D-07 GrdErr=1.00D-07 EigMax=2.50D+02 EigMin=1.00D-04
 Number of steps in this run=      2 maximum allowed number of steps=      2.
 GradGradGradGradGradGradGradGradGradGradGradGradGradGradGradGradGradGrad

                          Input orientation:                          
 ---------------------------------------------------------------------
 Center     Atomic      Atomic             Coordinates (Angstroms)
 Number     Number       Type             X           Y           Z
 ---------------------------------------------------------------------
      1          6           0       -2.039640   -1.109151   -0.857631
      2          1           0       -2.707898   -1.821001   -1.285520
      3          6           0       -1.227561   -0.382500   -0.308003
      4          6           0       -0.547856    0.888180    0.053481
      5          8           0       -1.160720    1.775915    0.565070
      6          8           0        0.744396    0.985503   -0.222881
      7          6           0        1.517834   -0.090030   -0.789651
      8          6           0        2.605549   -0.478810    0.187221
      9          1           0        0.875622   -0.938861   -1.023077
     10          1           0        1.932265    0.307369   -1.717413
     11          1           0        3.219413    0.387382    0.437714
     12          1           0        2.161413   -0.881236    1.097457
     13          1           0        3.244793   -1.242439   -0.260674
     14          8           0       -0.298905   -1.513351    1.015711
     15          1           0       -1.045576   -1.660443    1.615899
 ---------------------------------------------------------------------
                    Distance matrix (angstroms):
                    1          2          3          4          5
     1  C    0.000000
     2  H    1.066015   0.000000
     3  C    1.220486   2.283905   0.000000
     4  C    2.654218   3.714615   1.485698   0.000000
     5  O    3.334694   4.330848   2.329266   1.193901   0.000000
     6  O    3.541375   4.574276   2.401519   1.325052   2.207959
     7  C    3.701196   4.593360   2.802627   2.436153   3.534356
     8  C    4.802794   5.674783   3.866168   3.439551   4.405830
     9  H    2.924914   3.699819   2.290032   2.554084   3.746853
    10  H    4.303694   5.123241   3.528010   3.102323   4.114962
    11  H    5.619179   6.555876   4.574319   3.819784   4.596717
    12  H    4.639306   5.501993   3.702594   3.400126   4.287243
    13  H    5.319714   6.067913   4.554524   4.361470   5.403782
    14  O    2.589005   3.345678   1.973181   2.599080   3.430025
    15  H    2.722212   3.347734   2.316820   3.030570   3.595282
                    6          7          8          9         10
     6  O    0.000000
     7  C    1.440905   0.000000
     8  C    2.403391   1.512796   0.000000
     9  H    2.088231   1.089696   2.160814   0.000000
    10  H    2.025963   1.091064   2.167722   1.775299   0.000000
    11  H    2.630560   2.151678   1.090809   3.063688   2.511518
    12  H    2.689971   2.145082   1.089832   2.480573   3.064112
    13  H    3.349200   2.142487   1.091958   2.507267   2.499345
    14  O    2.977727   2.930139   3.192573   2.422026   3.970278
    15  H    3.685938   3.850187   4.094886   3.343034   4.883727
                   11         12         13         14         15
    11  H    0.000000
    12  H    1.778768   0.000000
    13  H    1.773332   1.774458   0.000000
    14  O    4.040474   2.541538   3.776288   0.000000
    15  H    4.875637   3.340767   4.701438   0.969216   0.000000
 Stoichiometry    C5H7O3(2)
 Framework group  C1[X(C5H7O3)]
 Deg. of freedom    39
 Full point group                 C1      NOp   1
 Largest Abelian subgroup         C1      NOp   1
 Largest concise Abelian subgroup C1      NOp   1
                         Standard orientation:                         
 ---------------------------------------------------------------------
 Center     Atomic      Atomic             Coordinates (Angstroms)
 Number     Number       Type             X           Y           Z
 ---------------------------------------------------------------------
      1          6           0       -2.102525   -1.061653   -0.847298
      2          1           0       -2.771251   -1.774039   -1.273559
      3          6           0       -1.290097   -0.334250   -0.299182
      4          6           0       -0.609093    0.936724    0.058808
      5          8           0       -1.221345    1.826999    0.566701
      6          8           0        0.683606    1.031376   -0.216390
      7          6           0        1.456241   -0.047098   -0.778647
      8          6           0        2.542309   -0.434052    0.200780
      9          1           0        0.813153   -0.895845   -1.009956
     10          1           0        1.872273    0.346618   -1.707262
     11          1           0        3.157053    0.432152    0.449065
     12          1           0        2.096585   -0.832813    1.111853
     13          1           0        3.181035   -1.200044   -0.243806
     14          8           0       -0.364488   -1.461888    1.029398
     15          1           0       -1.112046   -1.605954    1.629217
 ---------------------------------------------------------------------
 Rotational constants (GHZ):           2.6444635           1.6762963           1.2879125
 Standard basis: 6-311++G(d,p) (5D, 7F)
 There are   233 symmetry adapted cartesian basis functions of A   symmetry.
 There are   225 symmetry adapted basis functions of A   symmetry.
   225 basis functions,   351 primitive gaussians,   233 cartesian basis functions
    31 alpha electrons       30 beta electrons
       nuclear repulsion energy       366.1054765604 Hartrees.
 NAtoms=   15 NActive=   15 NUniq=   15 SFac= 1.00D+00 NAtFMM=   60 NAOKFM=F Big=F
 Integral buffers will be    131072 words long.
 Raffenetti 2 integral format.
 Two-electron integral symmetry is turned on.
 One-electron integrals computed using PRISM.
 NBasis=   225 RedAO= T EigKep=  3.38D-06  NBF=   225
 NBsUse=   225 1.00D-06 EigRej= -1.00D+00 NBFU=   225
 ExpMin= 3.60D-02 ExpMax= 8.59D+03 ExpMxC= 1.30D+03 IAcc=3 IRadAn=         5 AccDes= 0.00D+00
 Harris functional with IExCor= 1009 and IRadAn=       5 diagonalized for initial guess.
 HarFok:  IExCor= 1009 AccDes= 0.00D+00 IRadAn=         5 IDoV= 1 UseB2=F ITyADJ=14
 ICtDFT=  3500011 ScaDFX=  1.000000  1.000000  1.000000  1.000000
 FoFCou: FMM=F IPFlag=           0 FMFlag=      100000 FMFlg1=           0
         NFxFlg=           0 DoJE=T BraDBF=F KetDBF=T FulRan=T
         wScrn=  0.000000 ICntrl=       500 IOpCl=  0 I1Cent=   200000004 NGrid=           0
         NMat0=    1 NMatS0=      1 NMatT0=    0 NMatD0=    1 NMtDS0=    0 NMtDT0=    0
 Petite list used in FoFCou.
 Initial guess <Sx>= 0.0000 <Sy>= 0.0000 <Sz>= 0.5000 <S**2>= 0.7500 S= 0.5000
 Keep R1 and R2 ints in memory in canonical form, NReq=652863693.
 Requested convergence on RMS density matrix=1.00D-08 within 128 cycles.
 Requested convergence on MAX density matrix=1.00D-06.
 Requested convergence on             energy=1.00D-06.
 No special actions if energy rises.
 SCF Done:  E(UM062X) =  -420.196977308     A.U. after   23 cycles
            NFock= 23  Conv=0.55D-08     -V/T= 2.0034
 <Sx>= 0.0000 <Sy>= 0.0000 <Sz>= 0.5000 <S**2>= 0.7778 S= 0.5138
 <L.S>=  0.00000000000    
 Annihilation of the first spin contaminant:
 S**2 before annihilation     0.7778,   after     0.7503
 DoSCS=F DFT=T ScalE2(SS,OS)=  1.000000  1.000000
 Range of M.O.s used for correlation:     1   225
 NBasis=   225 NAE=    31 NBE=    30 NFC=     0 NFV=     0
 NROrb=    225 NOA=    31 NOB=    30 NVA=   194 NVB=   195

 **** Warning!!: The largest alpha MO coefficient is  0.16800875D+03


 **** Warning!!: The largest beta MO coefficient is  0.17125289D+03

 Symmetrizing basis deriv contribution to polar:
 IMax=3 JMax=2 DiffMx= 0.00D+00
 G2DrvN: will do    16 centers at a time, making    1 passes.
 Calling FoFCou, ICntrl=  3107 FMM=F I1Cent=   0 AccDes= 0.00D+00.
 End of G2Drv F.D. properties file   721 does not exist.
 End of G2Drv F.D. properties file   722 does not exist.
 End of G2Drv F.D. properties file   788 does not exist.
          IDoAtm=111111111111111
          Differentiating once with respect to electric field.
                with respect to dipole field.
          Differentiating once with respect to nuclear coordinates.
 Keep R1 and R2 ints in memory in canonical form, NReq=652870569.
          There are    48 degrees of freedom in the 1st order CPHF.  IDoFFX=6 NUNeed=     3.
     45 vectors produced by pass  0 Test12= 2.47D-14 2.08D-09 XBig12= 8.97D+01 3.08D+00.
 AX will form    45 AO Fock derivatives at one time.
     45 vectors produced by pass  1 Test12= 2.47D-14 2.08D-09 XBig12= 1.87D+01 4.70D-01.
     45 vectors produced by pass  2 Test12= 2.47D-14 2.08D-09 XBig12= 6.39D-01 1.27D-01.
     45 vectors produced by pass  3 Test12= 2.47D-14 2.08D-09 XBig12= 9.22D-03 1.33D-02.
     45 vectors produced by pass  4 Test12= 2.47D-14 2.08D-09 XBig12= 1.13D-04 1.57D-03.
     45 vectors produced by pass  5 Test12= 2.47D-14 2.08D-09 XBig12= 1.18D-06 1.25D-04.
     43 vectors produced by pass  6 Test12= 2.47D-14 2.08D-09 XBig12= 9.29D-09 8.94D-06.
     20 vectors produced by pass  7 Test12= 2.47D-14 2.08D-09 XBig12= 6.28D-11 6.72D-07.
      4 vectors produced by pass  8 Test12= 2.47D-14 2.08D-09 XBig12= 5.02D-13 7.12D-08.
      3 vectors produced by pass  9 Test12= 2.47D-14 2.08D-09 XBig12= 4.57D-15 7.23D-09.
      1 vectors produced by pass 10 Test12= 2.47D-14 2.08D-09 XBig12= 7.00D-16 5.09D-09.
 InvSVY:  IOpt=1 It=  1 EMax= 7.11D-15
 Solved reduced A of dimension   341 with    48 vectors.
 Isotropic polarizability for W=    0.000000       75.46 Bohr**3.
 End of Minotr F.D. properties file   721 does not exist.
 End of Minotr F.D. properties file   722 does not exist.
 End of Minotr F.D. properties file   788 does not exist.

 **********************************************************************

            Population analysis using the SCF density.

 **********************************************************************

 Orbital symmetries:
 Alpha Orbitals:
       Occupied  (A) (A) (A) (A) (A) (A) (A) (A) (A) (A) (A) (A)
                 (A) (A) (A) (A) (A) (A) (A) (A) (A) (A) (A) (A)
                 (A) (A) (A) (A) (A) (A) (A)
       Virtual   (A) (A) (A) (A) (A) (A) (A) (A) (A) (A) (A) (A)
                 (A) (A) (A) (A) (A) (A) (A) (A) (A) (A) (A) (A)
                 (A) (A) (A) (A) (A) (A) (A) (A) (A) (A) (A) (A)
                 (A) (A) (A) (A) (A) (A) (A) (A) (A) (A) (A) (A)
                 (A) (A) (A) (A) (A) (A) (A) (A) (A) (A) (A) (A)
                 (A) (A) (A) (A) (A) (A) (A) (A) (A) (A) (A) (A)
                 (A) (A) (A) (A) (A) (A) (A) (A) (A) (A) (A) (A)
                 (A) (A) (A) (A) (A) (A) (A) (A) (A) (A) (A) (A)
                 (A) (A) (A) (A) (A) (A) (A) (A) (A) (A) (A) (A)
                 (A) (A) (A) (A) (A) (A) (A) (A) (A) (A) (A) (A)
                 (A) (A) (A) (A) (A) (A) (A) (A) (A) (A) (A) (A)
                 (A) (A) (A) (A) (A) (A) (A) (A) (A) (A) (A) (A)
                 (A) (A) (A) (A) (A) (A) (A) (A) (A) (A) (A) (A)
                 (A) (A) (A) (A) (A) (A) (A) (A) (A) (A) (A) (A)
                 (A) (A) (A) (A) (A) (A) (A) (A) (A) (A) (A) (A)
                 (A) (A) (A) (A) (A) (A) (A) (A) (A) (A) (A) (A)
                 (A) (A)
 Beta  Orbitals:
       Occupied  (A) (A) (A) (A) (A) (A) (A) (A) (A) (A) (A) (A)
                 (A) (A) (A) (A) (A) (A) (A) (A) (A) (A) (A) (A)
                 (A) (A) (A) (A) (A) (A)
       Virtual   (A) (A) (A) (A) (A) (A) (A) (A) (A) (A) (A) (A)
                 (A) (A) (A) (A) (A) (A) (A) (A) (A) (A) (A) (A)
                 (A) (A) (A) (A) (A) (A) (A) (A) (A) (A) (A) (A)
                 (A) (A) (A) (A) (A) (A) (A) (A) (A) (A) (A) (A)
                 (A) (A) (A) (A) (A) (A) (A) (A) (A) (A) (A) (A)
                 (A) (A) (A) (A) (A) (A) (A) (A) (A) (A) (A) (A)
                 (A) (A) (A) (A) (A) (A) (A) (A) (A) (A) (A) (A)
                 (A) (A) (A) (A) (A) (A) (A) (A) (A) (A) (A) (A)
                 (A) (A) (A) (A) (A) (A) (A) (A) (A) (A) (A) (A)
                 (A) (A) (A) (A) (A) (A) (A) (A) (A) (A) (A) (A)
                 (A) (A) (A) (A) (A) (A) (A) (A) (A) (A) (A) (A)
                 (A) (A) (A) (A) (A) (A) (A) (A) (A) (A) (A) (A)
                 (A) (A) (A) (A) (A) (A) (A) (A) (A) (A) (A) (A)
                 (A) (A) (A) (A) (A) (A) (A) (A) (A) (A) (A) (A)
                 (A) (A) (A) (A) (A) (A) (A) (A) (A) (A) (A) (A)
                 (A) (A) (A) (A) (A) (A) (A) (A) (A) (A) (A) (A)
                 (A) (A) (A)
 The electronic state is 2-A.
 Alpha  occ. eigenvalues --  -19.67946 -19.66312 -19.62650 -10.70836 -10.61104
 Alpha  occ. eigenvalues --  -10.60650 -10.59911 -10.53261  -1.25141  -1.16505
 Alpha  occ. eigenvalues --   -1.12484  -0.91315  -0.88119  -0.76653  -0.73925
 Alpha  occ. eigenvalues --   -0.65050  -0.62703  -0.59333  -0.56347  -0.54442
 Alpha  occ. eigenvalues --   -0.53333  -0.49688  -0.47649  -0.47248  -0.44826
 Alpha  occ. eigenvalues --   -0.42192  -0.41377  -0.40404  -0.37562  -0.36700
 Alpha  occ. eigenvalues --   -0.34439
 Alpha virt. eigenvalues --   -0.01221  -0.00763   0.00538   0.01033   0.02067
 Alpha virt. eigenvalues --    0.02431   0.03241   0.04684   0.05570   0.05930
 Alpha virt. eigenvalues --    0.07098   0.07386   0.08572   0.09401   0.10025
 Alpha virt. eigenvalues --    0.11131   0.11188   0.11922   0.12762   0.13549
 Alpha virt. eigenvalues --    0.13716   0.14176   0.14628   0.15086   0.15353
 Alpha virt. eigenvalues --    0.16436   0.17930   0.18526   0.19324   0.20146
 Alpha virt. eigenvalues --    0.20977   0.21901   0.22359   0.23439   0.23728
 Alpha virt. eigenvalues --    0.25488   0.26931   0.27685   0.30044   0.30778
 Alpha virt. eigenvalues --    0.31267   0.32163   0.32740   0.33391   0.33745
 Alpha virt. eigenvalues --    0.34762   0.36675   0.37488   0.37617   0.40267
 Alpha virt. eigenvalues --    0.40946   0.41869   0.46207   0.47704   0.49268
 Alpha virt. eigenvalues --    0.50852   0.52432   0.54222   0.57744   0.59049
 Alpha virt. eigenvalues --    0.60209   0.61151   0.64942   0.65744   0.67336
 Alpha virt. eigenvalues --    0.68895   0.69547   0.70760   0.71593   0.73744
 Alpha virt. eigenvalues --    0.74819   0.75881   0.77001   0.78465   0.79224
 Alpha virt. eigenvalues --    0.81414   0.85125   0.91116   0.92647   0.97113
 Alpha virt. eigenvalues --    1.00263   1.05570   1.06525   1.08191   1.13544
 Alpha virt. eigenvalues --    1.17265   1.18993   1.20979   1.23328   1.25450
 Alpha virt. eigenvalues --    1.27178   1.29205   1.30115   1.31049   1.31700
 Alpha virt. eigenvalues --    1.33004   1.37416   1.40358   1.43506   1.44588
 Alpha virt. eigenvalues --    1.46458   1.47661   1.51951   1.53490   1.56304
 Alpha virt. eigenvalues --    1.58811   1.60661   1.61976   1.62555   1.64021
 Alpha virt. eigenvalues --    1.65751   1.69144   1.72235   1.73879   1.76413
 Alpha virt. eigenvalues --    1.78128   1.80630   1.83793   1.85808   1.90402
 Alpha virt. eigenvalues --    1.92069   1.94945   1.98630   2.01789   2.05601
 Alpha virt. eigenvalues --    2.11744   2.12551   2.14529   2.21554   2.31372
 Alpha virt. eigenvalues --    2.34775   2.35640   2.44962   2.52410   2.53063
 Alpha virt. eigenvalues --    2.54580   2.56446   2.59463   2.62152   2.64563
 Alpha virt. eigenvalues --    2.65198   2.67708   2.70355   2.73956   2.74908
 Alpha virt. eigenvalues --    2.80568   2.81803   2.84723   2.87621   2.90704
 Alpha virt. eigenvalues --    2.93157   2.94986   3.00977   3.02932   3.04517
 Alpha virt. eigenvalues --    3.10730   3.13508   3.15938   3.18486   3.20217
 Alpha virt. eigenvalues --    3.28322   3.29640   3.33892   3.37397   3.41245
 Alpha virt. eigenvalues --    3.44166   3.50015   3.61917   3.76709   3.85170
 Alpha virt. eigenvalues --    3.85855   3.88449   3.94703   4.03102   4.13355
 Alpha virt. eigenvalues --    4.18894   4.29198   5.11704   5.15244   5.18245
 Alpha virt. eigenvalues --    5.20943   5.28517   5.42973   5.62167   5.70514
 Alpha virt. eigenvalues --    5.99447  23.58566  23.93082  23.93965  24.05975
 Alpha virt. eigenvalues --   24.95844  49.97408  50.01171  50.13249
  Beta  occ. eigenvalues --  -19.67941 -19.65025 -19.62674 -10.70809 -10.61177
  Beta  occ. eigenvalues --  -10.60653 -10.59603 -10.53259  -1.25129  -1.16544
  Beta  occ. eigenvalues --   -1.07541  -0.90029  -0.88049  -0.76298  -0.73639
  Beta  occ. eigenvalues --   -0.64711  -0.62258  -0.58886  -0.56291  -0.52864
  Beta  occ. eigenvalues --   -0.52109  -0.47869  -0.47548  -0.44707  -0.42033
  Beta  occ. eigenvalues --   -0.41165  -0.39928  -0.38673  -0.37449  -0.35921
  Beta virt. eigenvalues --   -0.11116  -0.00682  -0.00237   0.00607   0.01304
  Beta virt. eigenvalues --    0.02311   0.02587   0.03443   0.04612   0.05746
  Beta virt. eigenvalues --    0.06052   0.07104   0.07443   0.08513   0.09459
  Beta virt. eigenvalues --    0.10331   0.11287   0.11366   0.11884   0.12880
  Beta virt. eigenvalues --    0.13294   0.13842   0.14630   0.14741   0.15277
  Beta virt. eigenvalues --    0.15410   0.16732   0.17786   0.18590   0.19483
  Beta virt. eigenvalues --    0.20176   0.21000   0.21978   0.22560   0.23427
  Beta virt. eigenvalues --    0.23926   0.25519   0.26983   0.27377   0.30033
  Beta virt. eigenvalues --    0.30831   0.31298   0.32165   0.32740   0.33389
  Beta virt. eigenvalues --    0.33736   0.34646   0.36720   0.37549   0.37700
  Beta virt. eigenvalues --    0.40335   0.41018   0.41843   0.46204   0.47706
  Beta virt. eigenvalues --    0.49384   0.50885   0.52453   0.54255   0.58344
  Beta virt. eigenvalues --    0.59490   0.60334   0.61643   0.64991   0.65596
  Beta virt. eigenvalues --    0.67400   0.68830   0.69467   0.70706   0.71561
  Beta virt. eigenvalues --    0.73704   0.74864   0.75870   0.76921   0.78360
  Beta virt. eigenvalues --    0.79169   0.81330   0.85157   0.91146   0.93123
  Beta virt. eigenvalues --    0.97243   1.00478   1.05640   1.06903   1.08260
  Beta virt. eigenvalues --    1.14326   1.18362   1.19926   1.21187   1.23939
  Beta virt. eigenvalues --    1.25608   1.27632   1.29420   1.30240   1.31642
  Beta virt. eigenvalues --    1.32234   1.34551   1.37565   1.40936   1.43809
  Beta virt. eigenvalues --    1.44757   1.46862   1.48833   1.52404   1.53769
  Beta virt. eigenvalues --    1.56686   1.59023   1.60710   1.62010   1.62579
  Beta virt. eigenvalues --    1.64033   1.65760   1.69223   1.72271   1.73919
  Beta virt. eigenvalues --    1.76478   1.78217   1.80742   1.83936   1.86044
  Beta virt. eigenvalues --    1.90487   1.92577   1.95165   1.98792   2.02085
  Beta virt. eigenvalues --    2.05635   2.12367   2.12911   2.14626   2.21584
  Beta virt. eigenvalues --    2.31433   2.34783   2.35811   2.45020   2.52408
  Beta virt. eigenvalues --    2.53148   2.54745   2.56471   2.60378   2.62221
  Beta virt. eigenvalues --    2.65013   2.65210   2.68183   2.70406   2.74280
  Beta virt. eigenvalues --    2.75234   2.81084   2.83302   2.86168   2.89832
  Beta virt. eigenvalues --    2.90815   2.93306   2.95522   3.01251   3.03262
  Beta virt. eigenvalues --    3.07095   3.10956   3.13844   3.19666   3.20048
  Beta virt. eigenvalues --    3.21841   3.28436   3.31269   3.33936   3.37524
  Beta virt. eigenvalues --    3.41589   3.44134   3.50720   3.61890   3.76719
  Beta virt. eigenvalues --    3.85295   3.86113   3.88454   3.97058   4.03099
  Beta virt. eigenvalues --    4.13153   4.18889   4.29198   5.12786   5.17475
  Beta virt. eigenvalues --    5.20704   5.23849   5.28876   5.42978   5.64540
  Beta virt. eigenvalues --    5.70483   5.99438  23.58655  23.93090  23.93965
  Beta virt. eigenvalues --   24.05976  24.96396  49.97040  50.00919  50.13272
          Condensed to atoms (all electrons):
               1          2          3          4          5          6
     1  C   15.047900   0.462849  -4.170086  -4.045644  -0.137864  -0.042794
     2  H    0.462849   0.422615  -0.107584  -0.002502  -0.001685  -0.002022
     3  C   -4.170086  -0.107584   9.743921   0.084582  -0.091863  -0.194101
     4  C   -4.045644  -0.002502   0.084582   9.121274   0.573019   0.110745
     5  O   -0.137864  -0.001685  -0.091863   0.573019   7.991902  -0.076025
     6  O   -0.042794  -0.002022  -0.194101   0.110745  -0.076025   8.180529
     7  C   -0.322991  -0.001340  -0.020511   0.269056  -0.007289   0.269755
     8  C   -0.013928  -0.000384   0.067030  -0.059841   0.010269  -0.171993
     9  H    0.054685  -0.001216   0.054442  -0.103534  -0.002230  -0.028062
    10  H   -0.034896   0.000968  -0.056981   0.073174   0.000319  -0.055716
    11  H    0.004205   0.000075  -0.001884   0.003322   0.001303  -0.018926
    12  H   -0.019445   0.000089  -0.027649   0.032771  -0.001010   0.004515
    13  H   -0.003973   0.000080   0.000239  -0.003013  -0.000049   0.022950
    14  O   -0.395716  -0.004505   0.337292  -0.064304  -0.010272   0.026388
    15  H    0.052697   0.000331   0.019179  -0.016152  -0.002825  -0.002638
               7          8          9         10         11         12
     1  C   -0.322991  -0.013928   0.054685  -0.034896   0.004205  -0.019445
     2  H   -0.001340  -0.000384  -0.001216   0.000968   0.000075   0.000089
     3  C   -0.020511   0.067030   0.054442  -0.056981  -0.001884  -0.027649
     4  C    0.269056  -0.059841  -0.103534   0.073174   0.003322   0.032771
     5  O   -0.007289   0.010269  -0.002230   0.000319   0.001303  -0.001010
     6  O    0.269755  -0.171993  -0.028062  -0.055716  -0.018926   0.004515
     7  C    5.480819   0.024615   0.376994   0.427135  -0.038159  -0.050242
     8  C    0.024615   5.455817  -0.021225  -0.052859   0.419468   0.406700
     9  H    0.376994  -0.021225   0.543239  -0.034055  -0.000207  -0.002354
    10  H    0.427135  -0.052859  -0.034055   0.513693  -0.004904   0.005423
    11  H   -0.038159   0.419468  -0.000207  -0.004904   0.534565  -0.036740
    12  H   -0.050242   0.406700  -0.002354   0.005423  -0.036740   0.530366
    13  H   -0.028012   0.387260  -0.011732   0.003888  -0.037859  -0.030099
    14  O   -0.019492  -0.007410  -0.008191   0.004274  -0.001708   0.004275
    15  H    0.002643  -0.003307  -0.004123   0.000256  -0.000026   0.000175
              13         14         15
     1  C   -0.003973  -0.395716   0.052697
     2  H    0.000080  -0.004505   0.000331
     3  C    0.000239   0.337292   0.019179
     4  C   -0.003013  -0.064304  -0.016152
     5  O   -0.000049  -0.010272  -0.002825
     6  O    0.022950   0.026388  -0.002638
     7  C   -0.028012  -0.019492   0.002643
     8  C    0.387260  -0.007410  -0.003307
     9  H   -0.011732  -0.008191  -0.004123
    10  H    0.003888   0.004274   0.000256
    11  H   -0.037859  -0.001708  -0.000026
    12  H   -0.030099   0.004275   0.000175
    13  H    0.547761   0.001321   0.000157
    14  O    0.001321   8.187072   0.228772
    15  H    0.000157   0.228772   0.475459
          Atomic-Atomic Spin Densities.
               1          2          3          4          5          6
     1  C    1.513844   0.032973  -0.595849  -0.210713   0.010303  -0.015007
     2  H    0.032973  -0.012241  -0.033180  -0.005597  -0.000026  -0.000262
     3  C   -0.595849  -0.033180   0.252768   0.148022   0.009564   0.007527
     4  C   -0.210713  -0.005597   0.148022   0.049043  -0.014430   0.000800
     5  O    0.010303  -0.000026   0.009564  -0.014430  -0.017307  -0.000030
     6  O   -0.015007  -0.000262   0.007527   0.000800  -0.000030   0.005939
     7  C    0.042072   0.000666   0.006503  -0.041178  -0.000276   0.000515
     8  C   -0.038367  -0.000496  -0.002202   0.032748  -0.000261   0.000080
     9  H    0.004337   0.000149  -0.001835   0.005827   0.000589  -0.001251
    10  H    0.014369   0.000307  -0.002346  -0.011106  -0.000000  -0.000393
    11  H   -0.000823  -0.000019   0.001205  -0.000437  -0.000030   0.000251
    12  H    0.008904   0.000137   0.000189  -0.008468  -0.000016  -0.000513
    13  H   -0.001113  -0.000002  -0.000730   0.001889  -0.000000   0.000044
    14  O   -0.312846  -0.005305   0.067525   0.099740   0.001475   0.001660
    15  H    0.039438   0.000635  -0.022786  -0.013720  -0.000098   0.000258
               7          8          9         10         11         12
     1  C    0.042072  -0.038367   0.004337   0.014369  -0.000823   0.008904
     2  H    0.000666  -0.000496   0.000149   0.000307  -0.000019   0.000137
     3  C    0.006503  -0.002202  -0.001835  -0.002346   0.001205   0.000189
     4  C   -0.041178   0.032748   0.005827  -0.011106  -0.000437  -0.008468
     5  O   -0.000276  -0.000261   0.000589  -0.000000  -0.000030  -0.000016
     6  O    0.000515   0.000080  -0.001251  -0.000393   0.000251  -0.000513
     7  C   -0.009563  -0.003569   0.007333   0.001351  -0.001485   0.002730
     8  C   -0.003569   0.015751  -0.004007  -0.002941   0.000844  -0.001233
     9  H    0.007333  -0.004007  -0.002278   0.000659  -0.000001   0.000658
    10  H    0.001351  -0.002941   0.000659   0.002390  -0.000552   0.000805
    11  H   -0.001485   0.000844  -0.000001  -0.000552   0.000605  -0.000810
    12  H    0.002730  -0.001233   0.000658   0.000805  -0.000810  -0.001929
    13  H    0.001194  -0.001280  -0.000461  -0.000102   0.000430  -0.000068
    14  O    0.003502   0.001300  -0.007716  -0.001283   0.000386   0.000257
    15  H   -0.000593  -0.000714   0.001009   0.000089  -0.000048   0.000052
              13         14         15
     1  C   -0.001113  -0.312846   0.039438
     2  H   -0.000002  -0.005305   0.000635
     3  C   -0.000730   0.067525  -0.022786
     4  C    0.001889   0.099740  -0.013720
     5  O   -0.000000   0.001475  -0.000098
     6  O    0.000044   0.001660   0.000258
     7  C    0.001194   0.003502  -0.000593
     8  C   -0.001280   0.001300  -0.000714
     9  H   -0.000461  -0.007716   0.001009
    10  H   -0.000102  -0.001283   0.000089
    11  H    0.000430   0.000386  -0.000048
    12  H   -0.000068   0.000257   0.000052
    13  H    0.000034  -0.000320   0.000052
    14  O   -0.000320   0.825871   0.006461
    15  H    0.000052   0.006461  -0.024772
 Mulliken charges and spin densities:
               1          2
     1  C   -0.435000   0.491522
     2  H    0.234233  -0.022259
     3  C    0.363973  -0.165624
     4  C    0.027047   0.032422
     5  O   -0.245700  -0.010542
     6  O   -0.022602  -0.000383
     7  C   -0.362981   0.009201
     8  C   -0.440212  -0.004346
     9  H    0.187571   0.003010
    10  H    0.210280   0.001247
    11  H    0.177477  -0.000485
    12  H    0.183223   0.000697
    13  H    0.151083  -0.000432
    14  O   -0.277795   0.680708
    15  H    0.249403  -0.014735
 Sum of Mulliken charges =  -0.00000   1.00000
 Mulliken charges and spin densities with hydrogens summed into heavy atoms:
               1          2
     1  C   -0.200767   0.469263
     3  C    0.363973  -0.165624
     4  C    0.027047   0.032422
     5  O   -0.245700  -0.010542
     6  O   -0.022602  -0.000383
     7  C    0.034870   0.013458
     8  C    0.071571  -0.004566
    14  O   -0.028392   0.665973
 APT charges:
               1
     1  C   -0.092603
     2  H    0.242187
     3  C   -0.458332
     4  C    1.531382
     5  O   -0.850247
     6  O   -0.930459
     7  C    0.508706
     8  C   -0.023070
     9  H   -0.013372
    10  H   -0.031940
    11  H    0.010306
    12  H    0.037001
    13  H    0.004632
    14  O   -0.180939
    15  H    0.246749
 Sum of APT charges =   0.00000
 APT charges with hydrogens summed into heavy atoms:
               1
     1  C    0.149584
     3  C   -0.458332
     4  C    1.531382
     5  O   -0.850247
     6  O   -0.930459
     7  C    0.463394
     8  C    0.028869
    14  O    0.065809
 Electronic spatial extent (au):  <R**2>=            993.2106
 Charge=             -0.0000 electrons
 Dipole moment (field-independent basis, Debye):
    X=             -0.3041    Y=             -3.7083    Z=             -1.9365  Tot=              4.1946
 Quadrupole moment (field-independent basis, Debye-Ang):
   XX=            -40.3561   YY=            -53.0024   ZZ=            -43.9782
   XY=              7.7978   XZ=              0.8565   YZ=             -1.0737
 Traceless Quadrupole moment (field-independent basis, Debye-Ang):
   XX=              5.4228   YY=             -7.2235   ZZ=              1.8007
   XY=              7.7978   XZ=              0.8565   YZ=             -1.0737
 Octapole moment (field-independent basis, Debye-Ang**2):
  XXX=             -5.2370  YYY=            -10.3296  ZZZ=              8.4603  XYY=             -4.4367
  XXY=            -20.3189  XXZ=             -7.9275  XZZ=             -5.1724  YZZ=             -5.9718
  YYZ=             -4.4971  XYZ=              0.3269
 Hexadecapole moment (field-independent basis, Debye-Ang**3):
 XXXX=           -699.7889 YYYY=           -402.3850 ZZZZ=           -167.6639 XXXY=             47.8265
 XXXZ=             14.5825 YYYX=             28.6745 YYYZ=             -6.1280 ZZZX=            -13.0008
 ZZZY=            -13.3387 XXYY=           -164.3370 XXZZ=           -136.5992 YYZZ=            -81.1103
 XXYZ=             10.4730 YYXZ=              8.5423 ZZXY=             16.8051
 N-N= 3.661054765604D+02 E-N=-1.716799920655D+03  KE= 4.187826855619D+02
  Exact polarizability:  86.972  -0.923  71.019  10.319   1.142  68.383
 Approx polarizability:  93.981   1.122  84.636  11.019   6.933  80.425
                          Isotropic Fermi Contact Couplings
        Atom                 a.u.       MegaHertz       Gauss      10(-4) cm-1
     1  C(13)              0.06378      71.69990      25.58431      23.91651
     2  H(1)              -0.00789     -35.28921     -12.59207     -11.77121
     3  C(13)              0.01117      12.55681       4.48058       4.18850
     4  C(13)              0.01608      18.07318       6.44896       6.02856
     5  O(17)             -0.00443       2.68454       0.95791       0.89547
     6  O(17)              0.00051      -0.30778      -0.10982      -0.10267
     7  C(13)             -0.00182      -2.04672      -0.73032      -0.68271
     8  C(13)              0.00071       0.79659       0.28424       0.26571
     9  H(1)               0.00019       0.85950       0.30669       0.28670
    10  H(1)               0.00015       0.65562       0.23394       0.21869
    11  H(1)              -0.00000      -0.01866      -0.00666      -0.00622
    12  H(1)               0.00013       0.56498       0.20160       0.18846
    13  H(1)              -0.00003      -0.13944      -0.04976      -0.04651
    14  O(17)              0.13610     -82.50206     -29.43879     -27.51973
    15  H(1)              -0.01186     -53.03062     -18.92264     -17.68911
 --------------------------------------------------------
       Center         ----  Spin Dipole Couplings  ----
                      3XX-RR        3YY-RR        3ZZ-RR
 --------------------------------------------------------
     1   Atom       -0.145157      0.088053      0.057105
     2   Atom        0.000694      0.009355     -0.010049
     3   Atom       -0.005616      0.032783     -0.027166
     4   Atom       -0.013673      0.023105     -0.009432
     5   Atom        0.004557      0.053108     -0.057665
     6   Atom        0.005709      0.008614     -0.014322
     7   Atom        0.000998     -0.002008      0.001010
     8   Atom        0.003898     -0.002779     -0.001119
     9   Atom        0.000841     -0.006640      0.005799
    10   Atom        0.000803     -0.000837      0.000034
    11   Atom        0.002033     -0.000529     -0.001505
    12   Atom        0.010674     -0.005010     -0.005664
    13   Atom        0.003266     -0.001968     -0.001298
    14   Atom        0.195705     -0.895586      0.699881
    15   Atom        0.055619     -0.086341      0.030722
 --------------------------------------------------------
                        XY            XZ            YZ
 --------------------------------------------------------
     1   Atom       -0.215677      0.135260     -0.327262
     2   Atom        0.024645      0.027330      0.009110
     3   Atom        0.065353      0.036611      0.025084
     4   Atom        0.007579      0.004144     -0.009550
     5   Atom        0.008965     -0.049277     -0.015549
     6   Atom        0.019761     -0.014827     -0.007638
     7   Atom        0.001819     -0.004206     -0.003677
     8   Atom        0.003488     -0.003454     -0.002173
     9   Atom        0.002690     -0.006933     -0.004052
    10   Atom        0.001509     -0.001729     -0.001384
    11   Atom        0.002076     -0.000402     -0.000273
    12   Atom        0.005356     -0.000412     -0.000609
    13   Atom        0.000365     -0.001745     -0.000126
    14   Atom       -0.873361      1.831517     -0.997301
    15   Atom        0.013987     -0.082928     -0.036842
 --------------------------------------------------------


 ---------------------------------------------------------------------------------
              Anisotropic Spin Dipole Couplings in Principal Axis System
 ---------------------------------------------------------------------------------

       Atom             a.u.   MegaHertz   Gauss  10(-4) cm-1        Axes

              Baa    -0.2968   -39.821   -14.209   -13.283  0.6175  0.6809  0.3937
     1 C(13)  Bbb    -0.2008   -26.942    -9.614    -8.987  0.6976 -0.2428 -0.6741
              Bcc     0.4975    66.764    23.823    22.270 -0.3634  0.6909 -0.6250
 
              Baa    -0.0348   -18.541    -6.616    -6.185  0.6938 -0.2480 -0.6761
     2 H(1)   Bbb    -0.0076    -4.079    -1.456    -1.361 -0.3022  0.7520 -0.5859
              Bcc     0.0424    22.621     8.072     7.545  0.6537  0.6108  0.4468
 
              Baa    -0.0631    -8.469    -3.022    -2.825  0.7672 -0.3896 -0.5095
     3 C(13)  Bbb    -0.0331    -4.436    -1.583    -1.480  0.2493 -0.5509  0.7965
              Bcc     0.0962    12.905     4.605     4.305  0.5910  0.7381  0.3255
 
              Baa    -0.0194    -2.603    -0.929    -0.868  0.7717 -0.2673 -0.5771
     4 C(13)  Bbb    -0.0073    -0.978    -0.349    -0.326  0.6165  0.0919  0.7819
              Bcc     0.0267     3.581     1.278     1.194  0.1559  0.9592 -0.2357
 
              Baa    -0.0855     6.184     2.207     2.063  0.4739  0.0679  0.8780
     5 O(17)  Bbb     0.0239    -1.727    -0.616    -0.576  0.7979 -0.4549 -0.3955
              Bcc     0.0616    -4.457    -1.590    -1.487  0.3726  0.8879 -0.2697
 
              Baa    -0.0225     1.631     0.582     0.544  0.5316 -0.1321  0.8367
     6 O(17)  Bbb    -0.0098     0.709     0.253     0.236 -0.5138  0.7350  0.4425
              Bcc     0.0323    -2.340    -0.835    -0.780  0.6734  0.6650 -0.3229
 
              Baa    -0.0047    -0.629    -0.225    -0.210  0.2491  0.7197  0.6481
     7 C(13)  Bbb    -0.0022    -0.301    -0.107    -0.100  0.7538 -0.5642  0.3368
              Bcc     0.0069     0.930     0.332     0.310 -0.6080 -0.4047  0.6830
 
              Baa    -0.0045    -0.605    -0.216    -0.202 -0.2370  0.9094  0.3418
     8 C(13)  Bbb    -0.0028    -0.378    -0.135    -0.126  0.5216 -0.1777  0.8344
              Bcc     0.0073     0.982     0.350     0.328  0.8196  0.3760 -0.4323
 
              Baa    -0.0079    -4.223    -1.507    -1.409 -0.1181  0.9669  0.2260
     9 H(1)   Bbb    -0.0040    -2.155    -0.769    -0.719  0.8232 -0.0320  0.5669
              Bcc     0.0120     6.378     2.276     2.127 -0.5554 -0.2530  0.7922
 
              Baa    -0.0019    -1.010    -0.360    -0.337 -0.2041  0.8727  0.4436
    10 H(1)   Bbb    -0.0013    -0.708    -0.252    -0.236  0.6962 -0.1892  0.6924
              Bcc     0.0032     1.718     0.613     0.573  0.6882  0.4502 -0.5690
 
              Baa    -0.0017    -0.907    -0.324    -0.302 -0.4440  0.8521  0.2771
    11 H(1)   Bbb    -0.0015    -0.823    -0.294    -0.274  0.2211 -0.1955  0.9555
              Bcc     0.0032     1.729     0.617     0.577  0.8683  0.4855 -0.1016
 
              Baa    -0.0068    -3.653    -1.303    -1.218 -0.2639  0.8917  0.3677
    12 H(1)   Bbb    -0.0055    -2.935    -1.047    -0.979  0.1371 -0.3426  0.9294
              Bcc     0.0123     6.588     2.351     2.197  0.9547  0.2957 -0.0318
 
              Baa    -0.0020    -1.064    -0.380    -0.355 -0.0540  0.9975  0.0459
    13 H(1)   Bbb    -0.0019    -1.008    -0.360    -0.336  0.3221 -0.0261  0.9463
              Bcc     0.0039     2.071     0.739     0.691  0.9451  0.0659 -0.3199
 
              Baa    -1.4013   101.396    36.180    33.822  0.7726  0.0966 -0.6275
    14 O(17)  Bbb    -1.3740    99.424    35.477    33.164  0.1447  0.9356  0.3222
              Bcc     2.7753  -200.819   -71.657   -66.986  0.6182 -0.3397  0.7088
 
              Baa    -0.0979   -52.210   -18.630   -17.415  0.0919  0.9400  0.3286
    15 H(1)   Bbb    -0.0347   -18.518    -6.608    -6.177  0.6696 -0.3026  0.6783
              Bcc     0.1326    70.728    25.238    23.592  0.7370  0.1577 -0.6572
 

 ---------------------------------------------------------------------------------

 Calling FoFJK, ICntrl=    100127 FMM=F ISym2X=0 I1Cent= 0 IOpClX= 1 NMat=1 NMatS=1 NMatT=0.
 Full mass-weighted force constant matrix:
 Low frequencies --- -601.1515   -1.5790   -0.0010   -0.0008   -0.0005   18.5437
 Low frequencies ---   25.9420   86.5822   97.7950
 ******    1 imaginary frequencies (negative Signs) ****** 
 Diagonal vibrational polarizability:
       21.0783806      59.5200010      31.9221233
 Harmonic frequencies (cm**-1), IR intensities (KM/Mole), Raman scattering
 activities (A**4/AMU), depolarization ratios for plane and unpolarized
 incident light, reduced masses (AMU), force constants (mDyne/A),
 and normal coordinates:
                      1                      2                      3
                      A                      A                      A
 Frequencies --   -601.1515                86.5453                97.4236
 Red. masses --     12.0942                 6.5784                 4.5992
 Frc consts  --      2.5751                 0.0290                 0.0257
 IR Inten    --     57.8470                 0.6192                 4.8269
  Atom  AN      X      Y      Z        X      Y      Z        X      Y      Z
     1   6    -0.02   0.08  -0.03    -0.08   0.02   0.09     0.15  -0.05  -0.21
     2   1    -0.04   0.16  -0.13    -0.10   0.02   0.13     0.24  -0.07  -0.32
     3   6     0.31  -0.47   0.57    -0.03   0.01   0.04     0.01  -0.01  -0.05
     4   6     0.02  -0.03   0.04    -0.05   0.04  -0.00    -0.01  -0.03   0.04
     5   8    -0.02  -0.02  -0.04    -0.14   0.15  -0.31    -0.01  -0.05   0.07
     6   8    -0.00   0.01  -0.02     0.04  -0.09   0.38     0.01  -0.06   0.11
     7   6     0.02   0.00  -0.01    -0.02   0.02   0.09    -0.04  -0.02  -0.03
     8   6     0.00   0.00   0.00     0.17  -0.07  -0.16     0.13   0.02  -0.21
     9   1     0.04  -0.01  -0.02    -0.02   0.02   0.10    -0.04  -0.05   0.08
    10   1     0.02   0.02   0.00    -0.19   0.16   0.06    -0.21  -0.01  -0.10
    11   1     0.00  -0.00   0.01     0.15  -0.07  -0.12     0.13   0.04  -0.28
    12   1    -0.03  -0.01  -0.01     0.35  -0.25  -0.15     0.28  -0.02  -0.15
    13   1     0.00   0.00   0.00     0.15   0.05  -0.40     0.10   0.06  -0.32
    14   8    -0.22   0.30  -0.35     0.08  -0.06  -0.08    -0.19   0.17   0.22
    15   1    -0.02   0.13  -0.16     0.10  -0.23  -0.11    -0.27   0.28   0.15
                      4                      5                      6
                      A                      A                      A
 Frequencies --    108.1479               173.5385               185.6082
 Red. masses --      2.6504                 5.1197                 2.2344
 Frc consts  --      0.0183                 0.0908                 0.0454
 IR Inten    --      0.8591                23.0635                12.5718
  Atom  AN      X      Y      Z        X      Y      Z        X      Y      Z
     1   6    -0.12   0.08  -0.00    -0.10   0.03  -0.10     0.17  -0.01  -0.08
     2   1    -0.19   0.14  -0.00    -0.13   0.09  -0.14     0.30  -0.04  -0.23
     3   6    -0.05   0.00  -0.01    -0.09   0.01  -0.09     0.00   0.03   0.12
     4   6     0.01  -0.03  -0.00    -0.05  -0.04   0.01    -0.02   0.06   0.05
     5   8     0.05  -0.01   0.02    -0.02  -0.06   0.08     0.01   0.12  -0.02
     6   8     0.00  -0.06  -0.03    -0.04  -0.10   0.04    -0.03   0.01  -0.03
     7   6     0.01  -0.11   0.06    -0.05  -0.13   0.07    -0.11  -0.07   0.02
     8   6     0.16   0.22   0.02    -0.00  -0.04   0.05    -0.05   0.00  -0.02
     9   1     0.06  -0.22   0.34    -0.04  -0.15   0.15    -0.14  -0.08   0.16
    10   1    -0.14  -0.27  -0.08    -0.09  -0.19   0.03    -0.17  -0.18  -0.06
    11   1     0.10   0.34  -0.24     0.08  -0.05  -0.14     0.15  -0.05  -0.33
    12   1     0.30   0.39   0.16     0.04   0.15   0.15    -0.01   0.33   0.14
    13   1     0.19   0.18   0.13    -0.10  -0.17   0.13    -0.26  -0.24   0.11
    14   8    -0.08  -0.08  -0.06     0.28   0.35  -0.05     0.04  -0.09  -0.00
    15   1    -0.06  -0.03  -0.03     0.19  -0.52  -0.37    -0.03  -0.45  -0.17
                      7                      8                      9
                      A                      A                      A
 Frequencies --    210.8559               230.3255               267.7438
 Red. masses --      1.3887                 1.4790                 2.3976
 Frc consts  --      0.0364                 0.0462                 0.1013
 IR Inten    --     38.7896                 0.6854                17.4350
  Atom  AN      X      Y      Z        X      Y      Z        X      Y      Z
     1   6     0.04  -0.07   0.02    -0.06   0.05   0.02    -0.04   0.19  -0.14
     2   1     0.10  -0.17   0.09    -0.16   0.12   0.06    -0.13   0.39  -0.34
     3   6    -0.01   0.03  -0.04     0.05  -0.04  -0.04     0.03  -0.06   0.08
     4   6    -0.01   0.02  -0.00     0.03  -0.02  -0.02    -0.01  -0.03   0.02
     5   8    -0.00   0.01   0.03    -0.05  -0.07  -0.02    -0.06  -0.02  -0.05
     6   8    -0.00  -0.00   0.04     0.03   0.05   0.02    -0.02  -0.00  -0.02
     7   6    -0.03  -0.03   0.03     0.04   0.07  -0.01    -0.03  -0.03   0.00
     8   6    -0.00  -0.02   0.00     0.01  -0.02  -0.02    -0.03  -0.01   0.00
     9   1    -0.05  -0.03   0.09     0.02   0.09  -0.04    -0.04  -0.03   0.02
    10   1    -0.06  -0.07   0.00     0.05   0.09   0.00    -0.04  -0.05  -0.01
    11   1     0.14  -0.07  -0.18     0.40  -0.19  -0.36    -0.08   0.02   0.04
    12   1     0.01   0.19   0.10    -0.05   0.44   0.16    -0.01  -0.08  -0.02
    13   1    -0.15  -0.18   0.07    -0.36  -0.43   0.16     0.03   0.05  -0.03
    14   8     0.01   0.01  -0.11    -0.02  -0.01   0.05     0.13  -0.07   0.10
    15   1     0.22   0.76   0.34    -0.09  -0.10  -0.05     0.30   0.53   0.45
                     10                     11                     12
                      A                      A                      A
 Frequencies --    360.8903               402.2120               546.1796
 Red. masses --      2.9369                 3.3899                 5.6269
 Frc consts  --      0.2254                 0.3231                 0.9890
 IR Inten    --      0.3999                 7.6302                22.0216
  Atom  AN      X      Y      Z        X      Y      Z        X      Y      Z
     1   6     0.04   0.05   0.07    -0.02  -0.02  -0.03    -0.15  -0.18  -0.11
     2   1    -0.05   0.05   0.21     0.08  -0.06  -0.13    -0.36   0.04  -0.18
     3   6     0.17   0.02  -0.10    -0.14   0.03   0.08    -0.04  -0.25  -0.08
     4   6     0.05   0.06  -0.04    -0.09   0.02   0.01     0.01  -0.05  -0.05
     5   8    -0.12  -0.09   0.02    -0.07   0.03   0.03     0.31   0.10  -0.02
     6   8     0.04   0.16  -0.05    -0.10   0.07  -0.17    -0.01   0.16   0.04
     7   6    -0.13  -0.09   0.13     0.14   0.04   0.12    -0.15   0.16   0.19
     8   6     0.01  -0.06  -0.02     0.23  -0.14   0.02    -0.05   0.01  -0.01
     9   1    -0.25  -0.08   0.45     0.19   0.02   0.05    -0.21   0.17   0.34
    10   1    -0.24  -0.40  -0.05     0.22   0.03   0.16    -0.20  -0.05   0.07
    11   1    -0.09  -0.01   0.05     0.45  -0.31   0.03     0.09  -0.10   0.02
    12   1     0.22  -0.32  -0.04     0.39  -0.29   0.03     0.14  -0.16   0.00
    13   1     0.08   0.14  -0.27    -0.00  -0.16  -0.30    -0.21   0.06  -0.33
    14   8    -0.01  -0.01  -0.01    -0.01  -0.00  -0.01     0.03  -0.02   0.03
    15   1    -0.11  -0.07  -0.16     0.05  -0.02   0.06     0.08  -0.04   0.09
                     13                     14                     15
                      A                      A                      A
 Frequencies --    622.3331               643.4584               729.2390
 Red. masses --      4.7934                 1.3572                 1.9808
 Frc consts  --      1.0938                 0.3311                 0.6206
 IR Inten    --      9.8695                25.9795                11.2580
  Atom  AN      X      Y      Z        X      Y      Z        X      Y      Z
     1   6     0.04   0.02   0.05     0.08  -0.12   0.07     0.05  -0.05  -0.13
     2   1    -0.41   0.33   0.22    -0.46   0.73  -0.47    -0.59   0.08   0.65
     3   6     0.31  -0.12  -0.19    -0.04   0.04   0.00    -0.06  -0.04   0.07
     4   6    -0.16   0.09   0.00     0.02  -0.00   0.02    -0.04   0.12  -0.14
     5   8     0.01   0.19   0.09    -0.02  -0.01  -0.01    -0.03   0.01   0.07
     6   8    -0.20  -0.16  -0.03     0.02   0.01  -0.00     0.05   0.02   0.04
     7   6     0.01  -0.02   0.01     0.01  -0.01  -0.01     0.04  -0.04  -0.05
     8   6     0.04  -0.01   0.01     0.00  -0.00  -0.00     0.02  -0.01   0.00
     9   1     0.20  -0.10  -0.25    -0.01  -0.00   0.00    -0.01  -0.03   0.05
    10   1     0.10   0.21   0.14     0.00  -0.02  -0.02    -0.02  -0.07  -0.09
    11   1     0.10  -0.03  -0.05    -0.01   0.01   0.00    -0.03   0.01   0.05
    12   1     0.11  -0.02   0.05    -0.02   0.01  -0.01    -0.09   0.03  -0.03
    13   1    -0.02  -0.03  -0.05     0.02  -0.00   0.03     0.09  -0.03   0.12
    14   8     0.02  -0.03   0.04    -0.02   0.01  -0.02     0.00  -0.02   0.02
    15   1    -0.24   0.19  -0.24    -0.01   0.04  -0.01     0.16  -0.16   0.19
                     16                     17                     18
                      A                      A                      A
 Frequencies --    737.0790               757.9524               815.8563
 Red. masses --      2.2954                 6.1364                 1.1506
 Frc consts  --      0.7347                 2.0771                 0.4512
 IR Inten    --     46.4284                 6.8906                75.8805
  Atom  AN      X      Y      Z        X      Y      Z        X      Y      Z
     1   6     0.12   0.03  -0.07    -0.16  -0.12  -0.10    -0.00   0.01   0.02
     2   1    -0.46   0.08   0.76    -0.14  -0.26   0.08     0.05   0.01  -0.06
     3   6    -0.02   0.08   0.01    -0.01  -0.16  -0.14     0.05   0.00  -0.06
     4   6     0.06  -0.15   0.18     0.07   0.02   0.44     0.00  -0.00   0.02
     5   8     0.03  -0.03  -0.09    -0.14   0.19  -0.02    -0.00   0.01  -0.00
     6   8    -0.05  -0.03  -0.05     0.11   0.14  -0.04    -0.01  -0.00  -0.01
     7   6    -0.05   0.05   0.06     0.10  -0.12  -0.15    -0.01  -0.01   0.01
     8   6    -0.03   0.02  -0.00     0.06  -0.05  -0.01    -0.01  -0.00   0.00
     9   1     0.00   0.04  -0.06    -0.04  -0.06   0.06    -0.01   0.02  -0.13
    10   1     0.03   0.09   0.11    -0.06  -0.20  -0.25     0.09   0.06   0.08
    11   1     0.04  -0.01  -0.06    -0.14   0.06   0.09    -0.04   0.05  -0.10
    12   1     0.11  -0.04   0.04    -0.23   0.11  -0.08     0.10   0.01   0.06
    13   1    -0.10   0.04  -0.15     0.28  -0.09   0.39     0.02   0.03  -0.03
    14   8    -0.01   0.02  -0.03     0.01   0.00   0.01    -0.06   0.02  -0.01
    15   1    -0.02   0.03  -0.03    -0.05   0.11  -0.04     0.54  -0.49   0.62
                     19                     20                     21
                      A                      A                      A
 Frequencies --    816.9225               961.5396              1093.8428
 Red. masses --      1.1672                 2.1914                 4.1386
 Frc consts  --      0.4590                 1.1937                 2.9175
 IR Inten    --     12.6946                18.4905                60.9539
  Atom  AN      X      Y      Z        X      Y      Z        X      Y      Z
     1   6     0.02   0.02   0.02     0.04   0.03   0.02     0.04   0.04   0.03
     2   1     0.02   0.02   0.01     0.03   0.04   0.03     0.03   0.05   0.05
     3   6     0.02   0.02  -0.02     0.02   0.03   0.00     0.01   0.02  -0.00
     4   6    -0.02  -0.03   0.01    -0.07  -0.09  -0.03    -0.17  -0.14  -0.02
     5   8     0.01   0.00  -0.01     0.07  -0.03  -0.03     0.07   0.00  -0.02
     6   8    -0.03  -0.03  -0.00    -0.09   0.09   0.03    -0.09   0.18   0.09
     7   6     0.04   0.06  -0.02    -0.09   0.02  -0.07     0.28  -0.16   0.08
     8   6     0.02   0.03  -0.01     0.15  -0.13   0.03    -0.14  -0.01  -0.16
     9   1     0.13  -0.14   0.46    -0.23   0.14  -0.10     0.30  -0.21   0.23
    10   1    -0.34  -0.15  -0.28    -0.26   0.11  -0.11     0.35  -0.25   0.09
    11   1     0.20  -0.22   0.39    -0.18   0.11   0.06    -0.35   0.17  -0.29
    12   1    -0.37  -0.07  -0.24    -0.05   0.19   0.08    -0.25   0.14  -0.16
    13   1    -0.14  -0.13   0.04     0.53  -0.12   0.58    -0.01   0.04  -0.05
    14   8    -0.01   0.01  -0.01    -0.00   0.01  -0.01    -0.00   0.01  -0.00
    15   1     0.12  -0.11   0.14     0.00  -0.01   0.00    -0.00  -0.00  -0.01
                     22                     23                     24
                      A                      A                      A
 Frequencies --   1139.5421              1178.7635              1280.2117
 Red. masses --      2.3401                 1.8080                 2.5563
 Frc consts  --      1.7904                 1.4801                 2.4685
 IR Inten    --     30.7268                49.0465               335.5426
  Atom  AN      X      Y      Z        X      Y      Z        X      Y      Z
     1   6    -0.01  -0.01  -0.01     0.01   0.01   0.01    -0.03  -0.03  -0.02
     2   1    -0.01  -0.02  -0.01     0.00   0.02   0.02    -0.02  -0.04  -0.04
     3   6    -0.00  -0.01   0.00     0.01  -0.00  -0.00    -0.01   0.00   0.01
     4   6     0.05   0.06  -0.00    -0.08  -0.04   0.01     0.23   0.12  -0.00
     5   8    -0.03   0.00   0.01    -0.02   0.03   0.01     0.01  -0.04  -0.02
     6   8     0.04  -0.09  -0.08     0.05  -0.07  -0.02    -0.18   0.01   0.03
     7   6     0.00   0.09   0.22     0.07   0.17  -0.04     0.11   0.00  -0.03
     8   6     0.01  -0.06  -0.17    -0.07  -0.10   0.04    -0.06  -0.08   0.04
     9   1     0.02   0.12   0.10    -0.12   0.20   0.42     0.23  -0.18   0.32
    10   1    -0.05   0.18   0.25     0.06  -0.44  -0.31    -0.51   0.39  -0.13
    11   1    -0.41   0.19   0.00    -0.20   0.12  -0.34    -0.16   0.10  -0.35
    12   1    -0.43   0.33  -0.21     0.30   0.08   0.29     0.15   0.03   0.18
    13   1     0.27  -0.12   0.38     0.18   0.18  -0.06     0.11   0.14  -0.09
    14   8     0.00  -0.00   0.00    -0.00   0.00  -0.00     0.00  -0.00   0.00
    15   1    -0.00   0.00  -0.00     0.00   0.00   0.00     0.01  -0.00   0.01
                     25                     26                     27
                      A                      A                      A
 Frequencies --   1362.0439              1402.7878              1434.5404
 Red. masses --      1.4027                 1.2578                 1.3622
 Frc consts  --      1.5332                 1.4583                 1.6517
 IR Inten    --    143.7920                25.2860                16.8375
  Atom  AN      X      Y      Z        X      Y      Z        X      Y      Z
     1   6     0.01   0.01   0.01    -0.01  -0.01  -0.00    -0.01  -0.01  -0.00
     2   1     0.00   0.01   0.01    -0.01  -0.01  -0.01    -0.01  -0.01  -0.01
     3   6    -0.00   0.00  -0.00    -0.00  -0.00   0.00    -0.00   0.00   0.00
     4   6    -0.09  -0.05  -0.00     0.04   0.03   0.00     0.03   0.02   0.01
     5   8    -0.01   0.02   0.01     0.00  -0.01  -0.01     0.00  -0.01  -0.01
     6   8     0.11   0.02  -0.03    -0.03   0.00   0.02    -0.02   0.01   0.02
     7   6    -0.04   0.01   0.01    -0.04   0.03  -0.02    -0.11   0.05  -0.06
     8   6    -0.04  -0.03   0.01    -0.07   0.02  -0.09     0.09  -0.05   0.04
     9   1     0.58  -0.47  -0.01     0.21  -0.21   0.16     0.38  -0.38   0.18
    10   1    -0.41   0.44   0.03     0.39  -0.16   0.10     0.50  -0.18   0.12
    11   1    -0.04  -0.01  -0.05     0.21  -0.28   0.29    -0.27   0.22  -0.05
    12   1     0.17   0.00   0.13     0.42  -0.03   0.14    -0.28   0.19  -0.04
    13   1     0.05   0.04   0.03     0.28  -0.01   0.45    -0.14  -0.05  -0.29
    14   8    -0.00   0.00  -0.00     0.00  -0.00   0.00     0.00  -0.00   0.00
    15   1    -0.00   0.00  -0.00     0.00   0.00   0.00    -0.00   0.00  -0.00
                     28                     29                     30
                      A                      A                      A
 Frequencies --   1488.5392              1503.1159              1529.6745
 Red. masses --      1.0378                 1.0473                 1.1006
 Frc consts  --      1.3549                 1.3941                 1.5173
 IR Inten    --      5.6450                 5.1214                 5.3160
  Atom  AN      X      Y      Z        X      Y      Z        X      Y      Z
     1   6     0.00   0.00   0.00    -0.00  -0.00  -0.00     0.00   0.01   0.00
     2   1    -0.00   0.00   0.00    -0.00  -0.00  -0.00     0.01   0.01   0.01
     3   6     0.00   0.00  -0.00    -0.00  -0.00   0.00     0.00  -0.00  -0.00
     4   6    -0.00  -0.00   0.00     0.01   0.00  -0.00    -0.02  -0.02  -0.00
     5   8     0.00  -0.00  -0.00     0.00  -0.00  -0.00    -0.00   0.01   0.00
     6   8     0.00   0.00  -0.00    -0.01   0.01   0.01     0.02  -0.01  -0.01
     7   6    -0.02  -0.01   0.01     0.02  -0.01   0.02     0.01  -0.05  -0.06
     8   6    -0.03  -0.03   0.02     0.00  -0.03  -0.04     0.00  -0.00  -0.01
     9   1    -0.00  -0.02  -0.03     0.04   0.04  -0.26    -0.35   0.08   0.58
    10   1     0.05  -0.00   0.05    -0.16  -0.15  -0.13     0.19   0.54   0.28
    11   1     0.43  -0.29  -0.16    -0.16  -0.07   0.55    -0.04  -0.03   0.21
    12   1    -0.38   0.27  -0.04     0.15   0.55   0.30     0.06   0.19   0.10
    13   1     0.44   0.49  -0.20    -0.09   0.08  -0.31    -0.05   0.02  -0.13
    14   8     0.00  -0.00   0.00    -0.00  -0.00  -0.00    -0.00   0.00  -0.00
    15   1    -0.00  -0.00  -0.00     0.00  -0.00   0.00    -0.00   0.00  -0.00
                     31                     32                     33
                      A                      A                      A
 Frequencies --   1865.9072              2068.0436              3075.2313
 Red. masses --     12.8846                 6.3954                 1.0354
 Frc consts  --     26.4303                16.1153                 5.7691
 IR Inten    --    539.3156                91.3067                12.3655
  Atom  AN      X      Y      Z        X      Y      Z        X      Y      Z
     1   6    -0.03  -0.03  -0.02    -0.27  -0.25  -0.18     0.00   0.00   0.00
     2   1    -0.07  -0.04  -0.02    -0.47  -0.44  -0.31    -0.00  -0.00  -0.00
     3   6     0.05   0.03   0.01     0.34   0.40   0.19    -0.00  -0.00  -0.00
     4   6    -0.44   0.59   0.34    -0.04  -0.10  -0.02     0.00   0.00  -0.00
     5   8     0.27  -0.41  -0.23    -0.01   0.01   0.01    -0.00   0.00   0.00
     6   8     0.04  -0.03  -0.02     0.00  -0.00  -0.00    -0.00  -0.00   0.00
     7   6     0.03  -0.01  -0.01    -0.00  -0.00  -0.00     0.00   0.00   0.00
     8   6    -0.01   0.00   0.00    -0.00   0.00  -0.00    -0.04   0.01  -0.02
     9   1    -0.08   0.05   0.05    -0.02   0.01   0.01    -0.01  -0.01  -0.00
    10   1    -0.02   0.08  -0.00    -0.00   0.00   0.00    -0.00   0.00  -0.00
    11   1     0.00  -0.00   0.01     0.00  -0.00   0.01     0.32   0.47   0.13
    12   1     0.02   0.00   0.01     0.01   0.00   0.00    -0.21  -0.18   0.41
    13   1    -0.02   0.00  -0.02    -0.00  -0.00   0.00     0.37  -0.45  -0.26
    14   8     0.00  -0.01   0.00     0.01  -0.02   0.02     0.00   0.00  -0.00
    15   1     0.01   0.02   0.01     0.01  -0.02   0.01    -0.00   0.00   0.00
                     34                     35                     36
                      A                      A                      A
 Frequencies --   3098.4124              3146.2470              3155.2109
 Red. masses --      1.0610                 1.1046                 1.1011
 Frc consts  --      6.0012                 6.4421                 6.4586
 IR Inten    --     20.8127                 5.4596                11.1169
  Atom  AN      X      Y      Z        X      Y      Z        X      Y      Z
     1   6    -0.00   0.00   0.00     0.00  -0.00  -0.00    -0.00   0.00   0.00
     2   1     0.00   0.00   0.00     0.00   0.00   0.00    -0.00  -0.00  -0.00
     3   6    -0.00   0.00  -0.00     0.00   0.00   0.00    -0.00   0.00  -0.00
     4   6    -0.00   0.00   0.00    -0.00   0.00  -0.00    -0.00   0.00   0.00
     5   8     0.00  -0.00  -0.00    -0.00   0.00   0.00     0.00  -0.00  -0.00
     6   8     0.00  -0.00  -0.00    -0.00   0.00   0.00    -0.00   0.00   0.00
     7   6    -0.00  -0.01  -0.07     0.04   0.05  -0.02    -0.03  -0.04   0.01
     8   6    -0.01   0.00   0.01    -0.01  -0.07  -0.02     0.03  -0.04  -0.06
     9   1     0.32   0.41   0.09    -0.32  -0.41  -0.11     0.33   0.42   0.11
    10   1    -0.33  -0.31   0.70    -0.14  -0.14   0.32     0.08   0.08  -0.19
    11   1    -0.01  -0.01   0.00     0.33   0.47   0.13     0.17   0.22   0.06
    12   1     0.03   0.03  -0.06     0.05   0.03  -0.11    -0.19  -0.18   0.38
    13   1     0.05  -0.07  -0.04    -0.27   0.31   0.19    -0.35   0.42   0.24
    14   8    -0.00  -0.00   0.00     0.00   0.00  -0.00    -0.00  -0.00   0.00
    15   1     0.00  -0.00  -0.00    -0.00  -0.00   0.00     0.00   0.00  -0.00
                     37                     38                     39
                      A                      A                      A
 Frequencies --   3172.4242              3464.8416              3823.4427
 Red. masses --      1.1058                 1.1455                 1.0677
 Frc consts  --      6.5570                 8.1021                 9.1961
 IR Inten    --     14.1275                72.8657                58.8530
  Atom  AN      X      Y      Z        X      Y      Z        X      Y      Z
     1   6     0.00  -0.00  -0.00    -0.07  -0.07  -0.04     0.00   0.00   0.00
     2   1    -0.00  -0.00  -0.00     0.62   0.66   0.40    -0.00  -0.00  -0.00
     3   6     0.00   0.00   0.00     0.02   0.02   0.01    -0.00   0.00  -0.00
     4   6     0.00   0.00  -0.00    -0.00  -0.00   0.00    -0.00  -0.00  -0.00
     5   8    -0.00   0.00   0.00     0.00   0.00  -0.00     0.00   0.00   0.00
     6   8    -0.00  -0.00   0.00     0.00  -0.00  -0.00     0.00   0.00  -0.00
     7   6     0.03   0.03  -0.02    -0.00   0.00   0.00     0.00   0.00   0.00
     8   6     0.05   0.05  -0.04     0.00   0.00  -0.00     0.00   0.00  -0.00
     9   1    -0.23  -0.28  -0.08    -0.00   0.00   0.00    -0.00  -0.00  -0.00
    10   1    -0.11  -0.11   0.26     0.00   0.00  -0.00    -0.00  -0.00   0.00
    11   1    -0.27  -0.38  -0.12    -0.00  -0.00   0.00    -0.00  -0.00   0.00
    12   1    -0.29  -0.26   0.60    -0.00  -0.00   0.00    -0.00  -0.00   0.00
    13   1    -0.07   0.10   0.05     0.00  -0.00  -0.00    -0.00  -0.00   0.00
    14   8     0.00   0.00  -0.00     0.00  -0.00   0.00    -0.05  -0.01   0.04
    15   1    -0.00   0.00   0.00     0.00   0.00  -0.00     0.77   0.15  -0.61

 -------------------
 - Thermochemistry -
 -------------------
 Temperature   298.150 Kelvin.  Pressure   1.00000 Atm.
 Atom     1 has atomic number  6 and mass  12.00000
 Atom     2 has atomic number  1 and mass   1.00783
 Atom     3 has atomic number  6 and mass  12.00000
 Atom     4 has atomic number  6 and mass  12.00000
 Atom     5 has atomic number  8 and mass  15.99491
 Atom     6 has atomic number  8 and mass  15.99491
 Atom     7 has atomic number  6 and mass  12.00000
 Atom     8 has atomic number  6 and mass  12.00000
 Atom     9 has atomic number  1 and mass   1.00783
 Atom    10 has atomic number  1 and mass   1.00783
 Atom    11 has atomic number  1 and mass   1.00783
 Atom    12 has atomic number  1 and mass   1.00783
 Atom    13 has atomic number  1 and mass   1.00783
 Atom    14 has atomic number  8 and mass  15.99491
 Atom    15 has atomic number  1 and mass   1.00783
 Molecular mass:   115.03952 amu.
 Principal axes and moments of inertia in atomic units:
                           1         2         3
     Eigenvalues --   682.460251076.624231401.29175
           X            0.99982   0.01867   0.00292
           Y           -0.01866   0.99981  -0.00471
           Z           -0.00301   0.00465   0.99998
 This molecule is an asymmetric top.
 Rotational symmetry number  1.
 Warning -- assumption of classical behavior for rotation
           may cause significant error
 Rotational temperatures (Kelvin)      0.12691     0.08045     0.06181
 Rotational constants (GHZ):           2.64446     1.67630     1.28791
    1 imaginary frequencies ignored.
 Zero-point vibrational energy     293304.4 (Joules/Mol)
                                   70.10144 (Kcal/Mol)
 Warning -- explicit consideration of  11 degrees of freedom as
           vibrations may cause significant error
 Vibrational temperatures:    124.52   140.17   155.60   249.68   267.05
          (Kelvin)            303.37   331.39   385.22   519.24   578.69
                              785.83   895.40   925.79  1049.21  1060.49
                             1090.52  1173.84  1175.37  1383.44  1573.80
                             1639.55  1695.98  1841.94  1959.68  2018.30
                             2063.98  2141.68  2162.65  2200.86  2684.62
                             2975.45  4424.57  4457.92  4526.75  4539.64
                             4564.41  4985.13  5501.08
 
 Zero-point correction=                           0.111714 (Hartree/Particle)
 Thermal correction to Energy=                    0.121205
 Thermal correction to Enthalpy=                  0.122149
 Thermal correction to Gibbs Free Energy=         0.076701
 Sum of electronic and zero-point Energies=           -420.085264
 Sum of electronic and thermal Energies=              -420.075772
 Sum of electronic and thermal Enthalpies=            -420.074828
 Sum of electronic and thermal Free Energies=         -420.120276
 
                     E (Thermal)             CV                S
                      KCal/Mol        Cal/Mol-Kelvin    Cal/Mol-Kelvin
 Total                   76.057             32.397             95.654
 Electronic               0.000              0.000              1.377
 Translational            0.889              2.981             40.136
 Rotational               0.889              2.981             28.423
 Vibrational             74.280             26.435             25.718
 Vibration     1          0.601              1.959              3.737
 Vibration     2          0.603              1.951              3.505
 Vibration     3          0.606              1.943              3.302
 Vibration     4          0.627              1.875              2.397
 Vibration     5          0.632              1.860              2.271
 Vibration     6          0.643              1.824              2.036
 Vibration     7          0.652              1.795              1.876
 Vibration     8          0.673              1.732              1.611
 Vibration     9          0.735              1.553              1.118
 Vibration    10          0.768              1.465              0.955
 Vibration    11          0.901              1.148              0.552
                       Q            Log10(Q)             Ln(Q)
 Total Bot       0.524748D-35        -35.280050        -81.235316
 Total V=0       0.127253D+17         16.104668         37.082369
 Vib (Bot)       0.148941D-48        -48.826985       -112.428287
 Vib (Bot)    1  0.237709D+01          0.376046          0.865878
 Vib (Bot)    2  0.210758D+01          0.323785          0.745542
 Vib (Bot)    3  0.189455D+01          0.277506          0.638981
 Vib (Bot)    4  0.115992D+01          0.064428          0.148351
 Vib (Bot)    5  0.108000D+01          0.033423          0.076959
 Vib (Bot)    6  0.941628D+00         -0.026121         -0.060145
 Vib (Bot)    7  0.855008D+00         -0.068030         -0.156645
 Vib (Bot)    8  0.722641D+00         -0.141077         -0.324842
 Vib (Bot)    9  0.507583D+00         -0.294493         -0.678096
 Vib (Bot)   10  0.442421D+00         -0.354164         -0.815493
 Vib (Bot)   11  0.288380D+00         -0.540035         -1.243477
 Vib (V=0)       0.361188D+03          2.557733          5.889399
 Vib (V=0)    1  0.292911D+01          0.466736          1.074698
 Vib (V=0)    2  0.266608D+01          0.425873          0.980610
 Vib (V=0)    3  0.245942D+01          0.390832          0.899924
 Vib (V=0)    4  0.176310D+01          0.246276          0.567072
 Vib (V=0)    5  0.169012D+01          0.227919          0.524802
 Vib (V=0)    6  0.156614D+01          0.194832          0.448617
 Vib (V=0)    7  0.149047D+01          0.173324          0.399094
 Vib (V=0)    8  0.137876D+01          0.139487          0.321181
 Vib (V=0)    9  0.121249D+01          0.083678          0.192675
 Vib (V=0)   10  0.116763D+01          0.067307          0.154980
 Vib (V=0)   11  0.107720D+01          0.032297          0.074368
 Electronic      0.200000D+01          0.301030          0.693147
 Translational   0.484981D+08          7.685724         17.697035
 Rotational      0.363229D+06          5.560181         12.802789
 ***** Axes restored to original set *****
 -------------------------------------------------------------------
 Center     Atomic                   Forces (Hartrees/Bohr)
 Number     Number              X              Y              Z
 -------------------------------------------------------------------
      1        6          -0.000345572    0.000465278   -0.000326864
      2        1           0.000048243    0.000144587   -0.000096520
      3        6           0.002542025   -0.003323232    0.004338054
      4        6           0.000039318   -0.000353912    0.000304850
      5        8          -0.000294443   -0.000210152   -0.000411353
      6        8           0.000062817    0.000125096   -0.000209702
      7        6           0.000106939   -0.000011304   -0.000314721
      8        6           0.000130915    0.000039557    0.000218133
      9        1           0.000017151    0.000067269    0.000083201
     10        1          -0.000000938   -0.000027855    0.000104276
     11        1          -0.000024267   -0.000061926   -0.000074058
     12        1          -0.000087623    0.000005388   -0.000068903
     13        1          -0.000039906    0.000001103    0.000003470
     14        8          -0.002131840    0.003058252   -0.003466370
     15        1          -0.000022820    0.000081851   -0.000083493
 -------------------------------------------------------------------
 Cartesian Forces:  Max     0.004338054 RMS     0.001188229

 GradGradGradGradGradGradGradGradGradGradGradGradGradGradGradGradGradGrad
 Berny optimization.
 Search for a local minimum.
 Step number   1 out of a maximum of    2
 All quantities printed in internal units (Hartrees-Bohrs-Radians)
 Second derivative matrix not updated -- analytic derivatives used.
 ITU=  0
     Eigenvalues ---   -0.17857   0.00111   0.00151   0.00179   0.00241
     Eigenvalues ---    0.00359   0.00677   0.00914   0.01379   0.02134
     Eigenvalues ---    0.02570   0.03302   0.03933   0.05614   0.06634
     Eigenvalues ---    0.07097   0.07848   0.08464   0.09519   0.10428
     Eigenvalues ---    0.11542   0.13980   0.16407   0.17867   0.22954
     Eigenvalues ---    0.24437   0.26381   0.35952   0.50332   0.61663
     Eigenvalues ---    0.70015   0.76959   0.78381   0.86446   0.89900
     Eigenvalues ---    0.94668   1.01995   1.77853   2.31481
 Eigenvalue     1 is  -1.79D-01 should be greater than     0.000000 Eigenvector:
                          Z3        Y3        Z14       Y14       X3
   1                    0.55609  -0.45991  -0.39333   0.35667   0.30942
                          X14       Z15       Y1        Z5        X15
   1                   -0.28779  -0.06757   0.06397  -0.04121   0.03285
 Angle between quadratic step and forces=  38.88 degrees.
 Linear search not attempted -- first point.
 B after Tr=    -0.000034    0.000547    0.000056
         Rot=    1.000000   -0.000208   -0.000055   -0.000009 Ang=  -0.02 deg.
 Variable       Old X    -DE/DX   Delta X   Delta X   Delta X     New X
                                 (Linear)    (Quad)   (Total)
    X1       -3.85436  -0.00035   0.00000   0.00134   0.00116  -3.85320
    Y1       -2.09599   0.00047   0.00000   0.00299   0.00414  -2.09185
    Z1       -1.62069  -0.00033   0.00000  -0.00402  -0.00441  -1.62510
    X2       -5.11719   0.00005   0.00000   0.00692   0.00669  -5.11050
    Y2       -3.44119   0.00014   0.00000  -0.00320  -0.00174  -3.44293
    Z2       -2.42928  -0.00010   0.00000  -0.00336  -0.00418  -2.43346
    X3       -2.31975   0.00254   0.00000   0.01400   0.01392  -2.30583
    Y3       -0.72282  -0.00332   0.00000  -0.01900  -0.01826  -0.74108
    Z3       -0.58204   0.00434   0.00000   0.02341   0.02342  -0.55863
    X4       -1.03530   0.00004   0.00000   0.00154   0.00148  -1.03382
    Y4        1.67842  -0.00035   0.00000  -0.00121  -0.00073   1.67769
    Z4        0.10106   0.00030   0.00000   0.00288   0.00375   0.10481
    X5       -2.19344  -0.00029   0.00000   0.00063   0.00065  -2.19279
    Y5        3.35599  -0.00021   0.00000  -0.00409  -0.00403   3.35196
    Z5        1.06783  -0.00041   0.00000   0.00598   0.00767   1.07549
    X6        1.40670   0.00006   0.00000  -0.00071  -0.00082   1.40588
    Y6        1.86233   0.00013   0.00000   0.00342   0.00417   1.86650
    Z6       -0.42118  -0.00021   0.00000  -0.00653  -0.00585  -0.42703
    X7        2.86829   0.00011   0.00000  -0.00066  -0.00086   2.86743
    Y7       -0.17013  -0.00001   0.00000   0.00003   0.00125  -0.16888
    Z7       -1.49222  -0.00031   0.00000  -0.00184  -0.00217  -1.49439
    X8        4.92377   0.00013   0.00000  -0.00384  -0.00381   4.91996
    Y8       -0.90482   0.00004   0.00000   0.00014   0.00063  -0.90419
    Z8        0.35380   0.00022   0.00000   0.00221   0.00134   0.35514
    X9        1.65469   0.00002   0.00000  -0.00287  -0.00308   1.65160
    Y9       -1.77419   0.00007   0.00000   0.00129   0.00267  -1.77152
    Z9       -1.93334   0.00008   0.00000   0.00072  -0.00014  -1.93347
   X10        3.65145  -0.00000   0.00000   0.00133   0.00092   3.65238
   Y10        0.58084  -0.00003   0.00000  -0.00348  -0.00151   0.57933
   Z10       -3.24544   0.00010   0.00000  -0.00183  -0.00193  -3.24737
   X11        6.08381  -0.00002   0.00000   0.00579   0.00583   6.08964
   Y11        0.73205  -0.00006   0.00000  -0.00389  -0.00357   0.72848
   Z11        0.82716  -0.00007   0.00000  -0.00894  -0.00925   0.81791
   X12        4.08448  -0.00009   0.00000  -0.00893  -0.00870   4.07578
   Y12       -1.66529   0.00001   0.00000   0.01538   0.01514  -1.65016
   Z12        2.07389  -0.00007   0.00000   0.00628   0.00520   2.07910
   X13        6.13177  -0.00004   0.00000  -0.01332  -0.01336   6.11841
   Y13       -2.34787   0.00000   0.00000  -0.01262  -0.01176  -2.35962
   Z13       -0.49260   0.00000   0.00000   0.01055   0.00895  -0.48365
   X14       -0.56485  -0.00213   0.00000  -0.01007  -0.00984  -0.57469
   Y14       -2.85982   0.00306   0.00000   0.01945   0.01920  -2.84062
   Z14        1.91942  -0.00347   0.00000  -0.02026  -0.02132   1.89809
   X15       -1.97585  -0.00002   0.00000   0.00947   0.00983  -1.96603
   Y15       -3.13778   0.00008   0.00000  -0.00485  -0.00561  -3.14340
   Z15        3.05361  -0.00008   0.00000  -0.00005  -0.00109   3.05252
         Item               Value     Threshold  Converged?
 Maximum Force            0.004338     0.000450     NO 
 RMS     Force            0.001188     0.000300     NO 
 Maximum Displacement     0.023415     0.001800     NO 
 RMS     Displacement     0.008539     0.001200     NO 
 Predicted change in Energy=-5.288533D-04
 GradGradGradGradGradGradGradGradGradGradGradGradGradGradGradGradGradGrad


 ----------------------------------------------------------------------

 Electric dipole moment (input orientation):
 (Debye = 10**-18 statcoulomb cm , SI units = C m)
                  (au)            (Debye)         (10**-30 SI)
   Tot        0.165027D+01      0.419457D+01      0.139916D+02
   x         -0.118566D+00     -0.301365D+00     -0.100525D+01
   y         -0.145656D+01     -0.370220D+01     -0.123492D+02
   z         -0.766663D+00     -0.194866D+01     -0.650004D+01

 Dipole polarizability, Alpha (input orientation).
 (esu units = cm**3 , SI units = C**2 m**2 J**-1)
 Alpha(0;0):
               (au)            (10**-24 esu)      (10**-40 SI)
   iso        0.754579D+02      0.111817D+02      0.124413D+02
   aniso      0.250875D+02      0.371758D+01      0.413636D+01
   xx         0.869978D+02      0.128917D+02      0.143440D+02
   yx        -0.934932D+00     -0.138543D+00     -0.154149D+00
   yy         0.710090D+02      0.105224D+02      0.117078D+02
   zx         0.102926D+02      0.152521D+01      0.169702D+01
   zy         0.116623D+01      0.172818D+00      0.192286D+00
   zz         0.683670D+02      0.101309D+02      0.112722D+02

 ----------------------------------------------------------------------

 Dipole orientation:
     6         -3.63358289         -0.61621702          2.87980210
     1         -4.77561732         -0.75489510          4.53347728
     6         -2.23846363         -0.27581449          1.07503822
     6         -1.11158228         -0.74127946         -1.45396994
     8         -2.40773992         -0.72340305         -3.30054734
     8          1.35137177         -1.18257999         -1.54912508
     6          2.97275868         -1.11323491          0.63732439
     6          4.92017795          0.94899660          0.28049181
     1          1.86457629         -0.80426695          2.34521453
     1          3.84660614         -2.97827163          0.73272058
     1          5.97124150          0.65081835         -1.46748926
     1          3.99318484          2.78681780          0.21289943
     1          6.24720856          0.92973425          1.86057304
     8         -0.57693630          3.00831377          1.67301143
     1         -2.05241924          4.07839008          1.49281411

 Electric dipole moment (dipole orientation):
 (Debye = 10**-18 statcoulomb cm , SI units = C m)
                  (au)            (Debye)         (10**-30 SI)
   Tot        0.165027D+01      0.419457D+01      0.139916D+02
   x          0.000000D+00      0.000000D+00      0.000000D+00
   y          0.000000D+00      0.000000D+00      0.000000D+00
   z          0.165027D+01      0.419457D+01      0.139916D+02

 Dipole polarizability, Alpha (dipole orientation).
 (esu units = cm**3 , SI units = C**2 m**2 J**-1)
 Alpha(0;0):
               (au)            (10**-24 esu)      (10**-40 SI)
   iso        0.754579D+02      0.111817D+02      0.124413D+02
   aniso      0.250875D+02      0.371758D+01      0.413636D+01
   xx         0.854858D+02      0.126677D+02      0.140947D+02
   yx         0.103103D+02      0.152783D+01      0.169994D+01
   yy         0.688417D+02      0.102013D+02      0.113505D+02
   zx        -0.502772D+01     -0.745032D+00     -0.828959D+00
   zy        -0.476761D+00     -0.706487D-01     -0.786072D-01
   zz         0.720462D+02      0.106761D+02      0.118788D+02

 ----------------------------------------------------------------------
 1\1\GINC-BOSON\Freq\UM062X\6-311++G(d,p)\C5H7O3(2)\LOKI\28-Mar-2025\0\
 \# freq 6-311++g(d,p) m062x\\Title Card Required\\0,2\C,-2.03964,-1.10
 9151,-0.857631\H,-2.707898,-1.821001,-1.28552\C,-1.227561,-0.3825,-0.3
 08003\C,-0.547856,0.88818,0.053481\O,-1.16072,1.775915,0.56507\O,0.744
 396,0.985503,-0.222881\C,1.517834,-0.09003,-0.789651\C,2.605549,-0.478
 81,0.187221\H,0.875622,-0.938861,-1.023077\H,1.932265,0.307369,-1.7174
 13\H,3.219413,0.387382,0.437714\H,2.161413,-0.881236,1.097457\H,3.2447
 93,-1.242439,-0.260674\O,-0.298905,-1.513351,1.015711\H,-1.045576,-1.6
 60443,1.615899\\Version=ES64L-G16RevA.03\State=2-A\HF=-420.1969773\S2=
 0.777768\S2-1=0.\S2A=0.750297\RMSD=5.464e-09\RMSF=1.188e-03\ZeroPoint=
 0.1117138\Thermal=0.1212052\Dipole=-0.1185662,-1.456559,-0.7666629\Dip
 oleDeriv=0.0073996,-0.2571736,0.2543906,0.0765252,-0.3635822,0.1797023
 ,0.1450963,-0.151045,0.0783736,0.2688823,0.0211336,0.0271985,0.0282402
 ,0.2270418,0.0278541,0.025925,0.0338641,0.2306369,-0.5412801,0.2009897
 ,-0.5125827,-0.100227,-0.248419,0.0368071,-0.4225888,0.241193,-0.58529
 66,2.3072871,-0.132111,-0.5507189,0.0632188,1.6318418,0.2738302,-0.414
 2222,0.5181601,0.6550171,-0.8990551,0.2306311,0.2076133,0.3376649,-1.1
 339205,-0.2937224,0.2789751,-0.3698325,-0.5177659,-1.7425991,0.3153351
 ,0.4460382,0.1291671,-0.6125216,-0.0727642,0.3447763,-0.1691416,-0.436
 2574,0.6810339,-0.2094023,-0.1188201,-0.3910519,0.4519004,0.0861911,-0
 .1873203,0.0371878,0.3931849,-0.0496139,0.0360856,-0.0203927,0.0526102
 ,0.0409213,0.0209476,-0.0625084,0.0658173,-0.0605173,-0.0478468,-0.038
 2683,-0.0453608,0.0121713,-0.025229,-0.039392,-0.0356687,-0.0211405,0.
 0329608,-0.024963,0.0190296,0.0483432,0.0107419,0.015506,0.0754213,0.0
 707107,0.0316077,-0.0863642,0.0026868,-0.0478744,-0.04065,-0.1020341,-
 0.0379472,-0.0355029,-0.0352512,-0.0078175,0.0661773,0.0752708,-0.0263
 498,0.0681111,-0.008707,0.0560158,0.0408652,0.0243218,0.0420347,-0.020
 2822,-0.0158152,0.0702978,0.0236692,0.0985643,-0.0073818,-0.0564638,0.
 0408804,-0.0687056,0.0370926,-0.1341116,-0.2127797,0.2363809,-0.185052
 9,-0.30037,-0.2056966,0.131727,-0.1537162,-0.1083369,0.1127243,0.03045
 64,-0.0232198,-0.0218308,0.3061442,-0.038077,0.095147,-0.0284657,0.321
 3772\Polar=86.997798,-0.9349322,71.0089851,10.2926044,1.1662345,68.366
 9863\Quadrupole=4.0175593,-5.349361,1.3318017,5.8070278,0.6542891,-0.8
 266351\PG=C01 [X(C5H7O3)]\NImag=1\\0.60537831,0.54466662,0.58812526,0.
 36191567,0.35686980,0.29331455,-0.17853273,-0.16385094,-0.09820274,0.1
 7116150,-0.17126178,-0.20019756,-0.11111079,0.16655491,0.18917408,-0.0
 9606998,-0.10443921,-0.08790518,0.09941450,0.10752805,0.08002998,-0.39
 363413,-0.35964689,-0.23291920,0.00365883,0.00660850,-0.00113226,0.492
 33230,-0.42083085,-0.41478676,-0.28342492,-0.00170818,0.01008001,-0.00
 251317,0.52068667,0.61619258,-0.21149136,-0.22361632,-0.16571486,-0.00
 014878,0.00361721,0.00471358,0.17211168,0.35827938,0.14628688,0.004186
 92,-0.00209653,0.00084145,0.00312821,-0.00308854,-0.00279545,-0.110527
 41,-0.07571127,-0.02059832,0.68486505,0.01818974,0.01187094,0.01227939
 ,-0.00085219,0.00083236,-0.00082897,-0.08306909,-0.14852523,-0.0459737
 1,-0.16837151,0.76209540,-0.00992318,-0.01067283,-0.00446692,-0.001676
 21,-0.00116051,0.00405467,-0.00340460,-0.02073135,-0.06150813,-0.17794
 462,0.26883971,0.35683125,-0.00121556,-0.00275163,-0.00131048,-0.00019
 033,0.00051158,0.00042731,0.01869048,0.00543167,0.00341596,-0.25431859
 ,0.25145967,0.14465271,0.31775242,-0.00307633,-0.00224405,-0.00095168,
 -0.00076579,0.00084452,0.00116575,0.00994651,-0.06023610,-0.03707623,0
 .26055602,-0.49922483,-0.23464915,-0.30852908,0.54529015,0.00075916,0.
 00107946,0.00138376,-0.00006325,0.00054712,-0.00041093,0.00281486,-0.0
 3358446,0.00383501,0.14869452,-0.23457177,-0.20902439,-0.19492579,0.28
 501820,0.19654231,-0.00510740,-0.00678287,-0.00420815,0.00051314,0.000
 29378,-0.00004470,-0.03168936,-0.01871636,0.01018946,-0.30106891,-0.05
 580360,0.03900669,-0.07929570,0.04476920,0.04144850,0.55261690,-0.0021
 5660,-0.00275027,-0.00168856,0.00061730,-0.00039424,-0.00045358,-0.032
 67856,-0.00956839,-0.00025339,-0.02483640,-0.10959960,-0.01688500,0.05
 985876,0.01072167,-0.01734708,-0.06334904,0.30696430,0.00246797,0.0016
 8302,0.00156662,0.00012253,0.00010423,-0.00063067,-0.00461370,-0.00509
 673,0.01118492,0.04839689,-0.01076449,-0.05894370,0.04761107,-0.013931
 88,-0.00180990,-0.13816624,0.10817570,0.13088797,0.00142096,0.00269154
 ,0.00171348,-0.00021477,-0.00008411,-0.00001606,-0.00393741,0.00157611
 ,-0.00104910,-0.03517191,0.02311252,0.01430687,0.00312697,-0.00294742,
 -0.00065584,-0.09996620,0.02289541,0.02433172,0.53475826,-0.00107756,-
 0.00302176,-0.00254002,0.00010962,-0.00002162,-0.00007026,-0.00486096,
 0.00079330,0.00484327,0.02836991,0.00762573,0.00034275,-0.01314479,0.0
 0699248,0.00349287,0.03930253,-0.15831561,-0.05168884,0.10630428,0.534
 29684,-0.00031062,-0.00111382,-0.00076212,0.00013090,-0.00000650,0.000
 00107,-0.00248990,0.00027788,0.00207584,0.01489010,0.00139556,-0.01935
 373,-0.00244336,0.00021420,0.00924181,0.02951389,-0.04643487,-0.082288
 12,-0.00643684,-0.03011600,0.56477403,-0.00030705,-0.00017726,0.000031
 81,0.00003201,0.00002256,0.00000926,-0.00053477,-0.00012984,0.00009599
 ,0.00078990,0.00284843,-0.00270331,-0.00097222,-0.00003778,0.00127300,
 -0.02588718,0.01684621,-0.00802332,-0.14359893,0.01493059,-0.06472179,
 0.54074757,-0.00046748,0.00027850,0.00027664,0.00006153,0.00001507,-0.
 00001198,0.00062630,0.00009688,0.00003564,-0.00497701,-0.00429908,0.00
 304168,0.00253903,-0.00063697,-0.00207351,0.03647841,-0.01490054,0.010
 50371,0.00914228,-0.08236527,0.01983486,0.01944307,0.58103084,0.000734
 80,0.00070543,0.00054417,0.00002722,0.00000070,0.00000305,-0.00134911,
 0.00059948,-0.00132863,-0.00309274,-0.00382486,0.00252418,0.00215897,-
 0.00056274,-0.00214733,0.01943718,-0.00600956,0.01197053,-0.07500012,0
 .02641658,-0.15052513,-0.04447183,0.01641083,0.55458634,-0.00110766,0.
 00038685,0.00092935,-0.00012489,0.00001687,0.00001277,-0.00530784,0.00
 025070,-0.00007560,0.00516952,0.00335423,0.00038327,-0.00134818,-0.000
 51228,0.00008017,0.00804256,0.02222272,0.00759570,-0.15222503,-0.13269
 998,-0.03336311,-0.01402337,-0.01813332,-0.00474623,0.16883557,-0.0008
 9904,0.00021728,0.00050351,0.00000722,0.00008879,0.00000553,0.00136586
 ,0.00050615,0.00021409,-0.00765463,-0.00063010,0.00094816,0.00167534,-
 0.00010973,-0.00037640,-0.00284558,-0.02791449,-0.01060679,-0.12149356
 ,-0.21087449,-0.04376754,0.00589693,0.01064272,0.00252693,0.13149438,0
 .23428538,0.00014446,0.00039119,0.00019038,-0.00000769,0.00000874,0.00
 012653,0.00118056,-0.00011850,-0.00062123,-0.00447557,-0.00197704,0.00
 179231,0.00107103,0.00024784,-0.00035407,-0.00268797,-0.01657400,-0.00
 614780,-0.02749933,-0.03720104,-0.06195289,-0.01413734,-0.01640535,-0.
 00394055,0.03191591,0.04933677,0.06473889,-0.00033354,-0.00021612,-0.0
 0008138,0.00000955,0.00003538,0.00004831,0.00035289,-0.00036730,-0.000
 06132,0.00345830,0.00139017,0.00336213,-0.00198468,0.00097407,-0.00023
 857,-0.01683961,0.00157170,0.01952446,-0.08704508,-0.04199800,0.080844
 70,0.01088688,0.01002920,-0.02302275,-0.00569238,-0.00731136,0.0159694
 9,0.09959487,0.00026771,0.00049871,0.00037683,0.00001881,0.00001021,0.
 00003584,-0.00009506,-0.00004332,-0.00038740,-0.00494912,-0.00179613,-
 0.00326721,0.00294732,-0.00159742,0.00005897,0.02470935,0.00305947,-0.
 02881657,-0.04852608,-0.09204902,0.09429238,-0.00381855,-0.00227806,0.
 00625923,-0.00804184,-0.00645693,0.02119944,0.03560865,0.09946906,-0.0
 0001301,0.00011215,0.00006924,-0.00001194,-0.00000236,-0.00002215,0.00
 042213,-0.00002438,-0.00009372,-0.00450581,-0.00100245,-0.00137572,0.0
 0153670,-0.00062064,-0.00024437,0.01464802,-0.00363110,-0.00969673,0.0
 8245434,0.08704891,-0.23975493,0.00679111,0.00974066,-0.01724031,-0.00
 308684,-0.00133664,0.00789704,-0.09481692,-0.09093939,0.26047572,0.000
 06448,0.00022238,0.00021749,0.00003385,0.00001231,0.00000777,-0.000023
 41,0.00012696,-0.00031179,-0.00107847,-0.00054766,0.00023489,0.0002939
 0,0.00010472,-0.00001765,0.00268349,-0.00066463,0.00087989,-0.01606832
 ,-0.02008442,-0.00639029,-0.13165171,-0.12149665,-0.03284422,-0.002331
 52,0.00208262,-0.00328001,0.00090678,0.00050867,0.00050163,0.14215401,
 0.00022002,0.00011019,0.00006298,0.00000495,0.00000065,0.00001196,-0.0
 0030838,-0.00001266,-0.00033886,0.00059448,0.00003095,-0.00018744,-0.0
 0021827,0.00012972,0.00017129,-0.00133789,0.00139963,0.00025741,0.0074
 1041,0.00792133,0.00265933,-0.12388957,-0.22302575,-0.04884159,0.00216
 927,0.00008161,0.00129771,-0.00051886,0.00059660,-0.00065882,0.1332548
 3,0.23792501,-0.00034465,-0.00017612,-0.00008765,0.00001351,0.00001119
 ,-0.00000452,0.00060165,-0.00019619,0.00052546,0.00024578,0.00022156,0
 .00011516,-0.00011301,-0.00004356,-0.00004885,0.00180402,0.00026568,0.
 00069187,-0.01365886,-0.02059843,-0.00673518,-0.03315670,-0.04632243,-
 0.06182949,-0.00306342,0.00233730,-0.00216139,0.00065553,-0.00046272,0
 .00055276,0.04040024,0.05216120,0.06479452,-0.00044100,-0.00041319,-0.
 00028751,-0.00003728,-0.00001629,-0.00003640,0.00078352,-0.00017475,0.
 00085489,0.00020621,0.00074180,-0.00000121,-0.00013503,-0.00020347,-0.
 00013260,0.00175423,-0.00160450,0.00122369,0.01035505,0.01053735,-0.02
 416334,-0.09511708,-0.04360563,0.09877267,0.00116121,-0.00031114,0.000
 72531,-0.00377297,0.00174094,-0.00359371,-0.00727758,-0.00443003,0.014
 19935,0.10167414,-0.00002919,-0.00017478,-0.00001690,-0.00001691,0.000
 01726,-0.00000365,0.00008931,-0.00009789,0.00012328,0.00091198,0.00029
 100,0.00045823,-0.00019841,-0.00006217,-0.00012809,-0.00146520,0.00050
 747,-0.00067570,-0.00210675,-0.00437011,0.00785702,-0.04304446,-0.0862
 6254,0.08453802,0.00027454,0.00017196,-0.00079954,0.00119565,0.0007839
 7,0.00096720,-0.00936309,-0.00857873,0.02197449,0.04577271,0.08834818,
 -0.00046321,-0.00036990,-0.00033307,-0.00001995,-0.00000391,-0.0000252
 9,0.00081172,-0.00022069,0.00088095,0.00075564,0.00080752,-0.00012131,
 -0.00039391,-0.00001701,0.00001694,-0.00048429,-0.00102700,0.00237487,
 0.00971337,0.00771298,-0.02179014,0.09399217,0.08451653,-0.23816964,0.
 00047953,-0.00014872,0.00056555,-0.00381342,0.00077748,-0.00125400,-0.
 00390804,-0.00317349,0.00838040,-0.10118298,-0.09370453,0.25935618,-0.
 00006929,-0.00016900,-0.00005342,-0.00000409,0.00003060,0.00001537,-0.
 00003390,-0.00010614,0.00001743,0.00262456,0.00124864,-0.00110483,-0.0
 0099810,0.00031063,0.00076935,-0.00652410,0.00204356,-0.00301183,-0.01
 107588,0.01429435,0.01375375,-0.13927186,0.11072342,0.06345140,0.00019
 792,-0.00077920,0.00027804,0.00081476,0.00005382,-0.00019118,0.0125882
 6,-0.01284467,-0.00780157,-0.00756283,0.00880049,0.00368281,0.14951172
 ,0.00012091,0.00010176,0.00008670,-0.00001358,-0.00000970,-0.00000911,
 0.00001849,0.00011787,-0.00019496,-0.00130100,-0.00038451,0.00083454,0
 .00045607,-0.00023300,-0.00029232,0.00292101,0.00064730,0.00080368,0.0
 0211304,-0.00663086,-0.00475663,0.11131757,-0.17876092,-0.07771679,0.0
 0020946,0.00020844,0.00018455,-0.00026937,0.00005013,0.00031014,0.0159
 2005,-0.01646530,-0.00944037,-0.00807256,0.00982129,0.00432093,-0.1233
 5490,0.19163375,-0.00019609,-0.00016760,-0.00017404,-0.00000682,-0.000
 00710,0.00000038,0.00025442,-0.00008918,0.00036917,0.00105600,0.001392
 14,-0.00093748,-0.00086828,0.00024320,0.00073615,-0.00687080,0.0023033
 7,-0.00120192,-0.00926445,0.01453588,0.01006372,0.06534161,-0.07963117
 ,-0.09464133,0.00042180,-0.00065626,0.00069753,0.00122714,-0.00002753,
 0.00040753,0.00431699,-0.00358156,-0.00397365,0.01411103,-0.02042279,-
 0.00933900,-0.06975331,0.08583907,0.09806411,-0.03243891,-0.01409025,-
 0.02868119,0.00061870,0.00025808,0.00027836,0.02937713,-0.01320221,0.0
 5708000,-0.00076655,0.00739598,-0.00518058,0.00049802,-0.00100896,-0.0
 0017386,-0.00011727,-0.00090292,0.00198594,-0.00034201,-0.00084653,0.0
 0111336,-0.00103247,-0.00028700,0.00003703,-0.00102622,-0.00108617,0.0
 0116056,-0.00027993,-0.00024911,-0.00008939,-0.00019663,-0.00005444,0.
 00012387,-0.00174922,-0.00079534,0.00042215,-0.00016175,-0.00003359,0.
 00017958,0.33088795,0.03534325,0.02108852,0.02880255,-0.00015480,-0.00
 073801,-0.00020431,-0.05206405,0.00758277,-0.06097932,0.00405303,-0.01
 824578,0.01003969,-0.00075921,0.00110512,-0.00049326,0.00100479,0.0004
 4042,0.00012014,-0.00012823,-0.00038463,-0.00003147,-0.00011538,0.0005
 1937,-0.00029485,-0.00086397,-0.00004549,0.00024138,-0.00021439,-0.000
 23521,0.00003079,-0.00002231,-0.00008773,0.00015970,0.00008345,-0.0003
 4376,0.00025030,-0.00022006,-0.00003850,0.00024683,0.07391029,0.006509
 43,-0.04496541,-0.01901273,-0.03562226,0.00067139,0.00052881,0.0003711
 0,0.05953548,-0.01264965,0.05967479,-0.00297312,0.01011727,-0.01031733
 ,-0.00059488,0.00220096,0.00294082,-0.00182115,0.00019838,0.00188249,0
 .00044407,-0.00165861,-0.00242640,-0.00001693,0.00020015,-0.00016726,0
 .00218782,0.00084187,-0.00097158,0.00042781,0.00074887,0.00024632,0.00
 019349,0.00014256,-0.00012812,-0.00057652,-0.00021643,-0.00040007,-0.0
 0001390,-0.00000166,-0.00002168,-0.26324508,-0.03327680,0.19068851,0.0
 0213662,0.00222731,0.00009484,-0.00005171,0.00010614,-0.00011881,0.000
 49308,0.00287478,-0.01002916,-0.00149682,-0.00109714,-0.00000803,0.000
 09661,0.00041997,0.00036801,0.00088540,0.00013699,-0.00032475,-0.00001
 569,0.00086361,0.00007254,-0.00005972,-0.00007614,-0.00009228,-0.00021
 969,-0.00014168,-0.00035746,-0.00007583,-0.00017552,-0.00004513,-0.000
 09715,-0.00005185,0.00009425,0.00015862,-0.00002534,0.00040842,-0.0000
 3542,-0.00003162,0.00005118,-0.32327084,-0.05985243,0.25074692,0.32155
 255,0.00099058,0.00088405,0.00047447,-0.00001195,0.00029817,-0.0002128
 8,-0.00661865,-0.00209921,0.00170731,-0.00149941,-0.00004112,0.0030487
 2,0.00072193,-0.00073939,-0.00150103,0.00082146,-0.00029710,-0.0000669
 0,0.00004056,0.00040369,-0.00030439,-0.00009252,-0.00005424,-0.0002068
 1,-0.00012763,-0.00017111,0.00016784,0.00009059,-0.00001207,0.00000593
 ,-0.00005379,-0.00002552,0.00010870,-0.00004468,-0.00005115,0.00027951
 ,-0.00003155,-0.00005775,0.00002268,-0.04900782,-0.01712650,0.05183701
 ,0.05482290,0.01908925,-0.00224454,-0.00127252,-0.00200264,-0.00024266
 ,-0.00005488,-0.00030161,0.00817625,-0.00050751,-0.00028003,0.00150525
 ,0.00389015,0.00073116,-0.00022404,-0.00123728,-0.00065696,-0.00176448
 ,-0.00063899,0.00015957,0.00061675,-0.00052006,-0.00056784,-0.00030373
 ,-0.00011625,0.00036140,0.00032886,0.00017819,0.00014128,-0.00002520,0
 .00015177,0.00003333,-0.00000040,0.00001731,-0.00009132,0.00008733,0.0
 0004936,-0.00014237,-0.00003811,0.00003223,-0.00004948,0.23498925,0.05
 538862,-0.20574933,-0.24086053,-0.05536016,0.20841483\\0.00034557,-0.0
 0046528,0.00032686,-0.00004824,-0.00014459,0.00009652,-0.00254202,0.00
 332323,-0.00433805,-0.00003932,0.00035391,-0.00030485,0.00029444,0.000
 21015,0.00041135,-0.00006282,-0.00012510,0.00020970,-0.00010694,0.0000
 1130,0.00031472,-0.00013091,-0.00003956,-0.00021813,-0.00001715,-0.000
 06727,-0.00008320,0.00000094,0.00002785,-0.00010428,0.00002427,0.00006
 193,0.00007406,0.00008762,-0.00000539,0.00006890,0.00003991,-0.0000011
 0,-0.00000347,0.00213184,-0.00305825,0.00346637,0.00002282,-0.00008185
 ,0.00008349\\\@


 ... UNTIL SCIENCE IS MIXED WITH EMOTION AND APPEALS TO THE HEART AND
 IMAGINATION , IT IS LIKE DEAD INORGANIC MATTER; AND WHEN IT IS SO MIXED
 AND SO TRANSFORMED IT IS LITERATURE.

                                  -- JOHN BURROUGHS
 Job cpu time:       0 days  0 hours 50 minutes 23.0 seconds.
 Elapsed time:       0 days  0 hours 12 minutes 45.3 seconds.
 File lengths (MBytes):  RWF=    146 Int=      0 D2E=      0 Chk=      5 Scr=      1
 Normal termination of Gaussian 16 at Fri Mar 28 06:46:15 2025.
