 Entering Gaussian System, Link 0=g16
 Initial command:
 /opt/g16/l1.exe "/home/aayush/scratches/g16/Gau-6497.inp" -scrdir="/home/aayush/scratches/g16/"
 Entering Link 1 = /opt/g16/l1.exe PID=      6500.
  
 Copyright (c) 1988,1990,1992,1993,1995,1998,2003,2009,2016,
            Gaussian, Inc.  All Rights Reserved.
  
 This is part of the Gaussian(R) 16 program.  It is based on
 the Gaussian(R) 09 system (copyright 2009, Gaussian, Inc.),
 the Gaussian(R) 03 system (copyright 2003, Gaussian, Inc.),
 the Gaussian(R) 98 system (copyright 1998, Gaussian, Inc.),
 the Gaussian(R) 94 system (copyright 1995, Gaussian, Inc.),
 the Gaussian 92(TM) system (copyright 1992, Gaussian, Inc.),
 the Gaussian 90(TM) system (copyright 1990, Gaussian, Inc.),
 the Gaussian 88(TM) system (copyright 1988, Gaussian, Inc.),
 the Gaussian 86(TM) system (copyright 1986, Carnegie Mellon
 University), and the Gaussian 82(TM) system (copyright 1983,
 Carnegie Mellon University). Gaussian is a federally registered
 trademark of Gaussian, Inc.
  
 This software contains proprietary and confidential information,
 including trade secrets, belonging to Gaussian, Inc.
  
 This software is provided under written license and may be
 used, copied, transmitted, or stored only in accord with that
 written license.
  
 The following legend is applicable only to US Government
 contracts under FAR:
  
                    RESTRICTED RIGHTS LEGEND
  
 Use, reproduction and disclosure by the US Government is
 subject to restrictions as set forth in subparagraphs (a)
 and (c) of the Commercial Computer Software - Restricted
 Rights clause in FAR 52.227-19.
  
 Gaussian, Inc.
 340 Quinnipiac St., Bldg. 40, Wallingford CT 06492
  
  
 ---------------------------------------------------------------
 Warning -- This program may not be used in any manner that
 competes with the business of Gaussian, Inc. or will provide
 assistance to any competitor of Gaussian, Inc.  The licensee
 of this program is prohibited from giving any competitor of
 Gaussian, Inc. access to this program.  By using this program,
 the user acknowledges that Gaussian, Inc. is engaged in the
 business of creating and licensing software in the field of
 computational chemistry and represents and warrants to the
 licensee that it is not a competitor of Gaussian, Inc. and that
 it will not use this program in any manner prohibited above.
 ---------------------------------------------------------------
  

 Cite this work as:
 Gaussian 16, Revision A.03,
 M. J. Frisch, G. W. Trucks, H. B. Schlegel, G. E. Scuseria, 
 M. A. Robb, J. R. Cheeseman, G. Scalmani, V. Barone, 
 G. A. Petersson, H. Nakatsuji, X. Li, M. Caricato, A. V. Marenich, 
 J. Bloino, B. G. Janesko, R. Gomperts, B. Mennucci, H. P. Hratchian, 
 J. V. Ortiz, A. F. Izmaylov, J. L. Sonnenberg, D. Williams-Young, 
 F. Ding, F. Lipparini, F. Egidi, J. Goings, B. Peng, A. Petrone, 
 T. Henderson, D. Ranasinghe, V. G. Zakrzewski, J. Gao, N. Rega, 
 G. Zheng, W. Liang, M. Hada, M. Ehara, K. Toyota, R. Fukuda, 
 J. Hasegawa, M. Ishida, T. Nakajima, Y. Honda, O. Kitao, H. Nakai, 
 T. Vreven, K. Throssell, J. A. Montgomery, Jr., J. E. Peralta, 
 F. Ogliaro, M. J. Bearpark, J. J. Heyd, E. N. Brothers, K. N. Kudin, 
 V. N. Staroverov, T. A. Keith, R. Kobayashi, J. Normand, 
 K. Raghavachari, A. P. Rendell, J. C. Burant, S. S. Iyengar, 
 J. Tomasi, M. Cossi, J. M. Millam, M. Klene, C. Adamo, R. Cammi, 
 J. W. Ochterski, R. L. Martin, K. Morokuma, O. Farkas, 
 J. B. Foresman, and D. J. Fox, Gaussian, Inc., Wallingford CT, 2016.
 
 ******************************************
 Gaussian 16:  ES64L-G16RevA.03 25-Dec-2016
                14-May-2025 
 ******************************************
 %chk=ethyl_propiolate.chk
 %nprocshared=24
 Will use up to   24 processors via shared memory.
 %mem=12GB
 --------------------------
 # ccsd(t)/6-311++g(d,p) sp
 --------------------------
 1/38=1,172=1/1;
 2/12=2,17=6,18=5,40=1/2;
 3/5=4,6=6,7=1111,11=9,25=1,30=1/1,2,3;
 4//1;
 5/5=2,38=5/2;
 8/6=4,9=120000,10=2/1,4;
 9/5=7,14=2/13;
 6/7=2,8=2,9=2,10=2/1;
 99/5=1,9=1/99;
 -------------------
 Title Card Required
 -------------------
 Symbolic Z-matrix:
 Charge =  0 Multiplicity = 2
 C                    -2.04103  -1.12277  -0.86901 
 H                    -2.68273  -1.89115  -1.23322 
 C                    -1.30231  -0.264    -0.46543 
 C                    -0.56333   0.91128   0.0238 
 O                    -1.14994   1.7879    0.58701 
 O                     0.74173   0.98031  -0.21151 
 C                     1.50696  -0.09452  -0.78674 
 C                     2.60501  -0.47776   0.18236 
 H                     0.8594   -0.94318  -1.00833 
 H                     1.91441   0.29519  -1.72114 
 H                     3.21959   0.39057   0.42332 
 H                     2.17281  -0.87417   1.10082 
 H                     3.24162  -1.24298  -0.26649 
 O                    -0.23006  -1.6086    1.12696 
 H                    -1.03984  -1.6628    1.66187 
 
                          Input orientation:                          
 ---------------------------------------------------------------------
 Center     Atomic      Atomic             Coordinates (Angstroms)
 Number     Number       Type             X           Y           Z
 ---------------------------------------------------------------------
      1          6           0       -2.041026   -1.122771   -0.869008
      2          1           0       -2.682725   -1.891151   -1.233215
      3          6           0       -1.302310   -0.263997   -0.465431
      4          6           0       -0.563333    0.911278    0.023795
      5          8           0       -1.149942    1.787899    0.587013
      6          8           0        0.741731    0.980306   -0.211505
      7          6           0        1.506964   -0.094515   -0.786736
      8          6           0        2.605006   -0.477756    0.182360
      9          1           0        0.859399   -0.943177   -1.008331
     10          1           0        1.914406    0.295187   -1.721137
     11          1           0        3.219589    0.390570    0.423317
     12          1           0        2.172813   -0.874174    1.100818
     13          1           0        3.241620   -1.242980   -0.266488
     14          8           0       -0.230063   -1.608602    1.126959
     15          1           0       -1.039843   -1.662798    1.661874
 ---------------------------------------------------------------------
                    Distance matrix (angstroms):
                    1          2          3          4          5
     1  C    0.000000
     2  H    1.065285   0.000000
     3  C    1.202526   2.267745   0.000000
     4  C    2.667963   3.731689   1.471972   0.000000
     5  O    3.374319   4.381559   2.311089   1.195738   0.000000
     6  O    3.549504   4.584327   2.406423   1.327902   2.206414
     7  C    3.694904   4.580474   2.832663   2.440227   3.534094
     8  C    4.806977   5.653462   3.966415   3.463081   4.404154
     9  H    2.909318   3.673673   2.330024   2.555084   3.747179
    10  H    4.287443   5.113879   3.498106   3.092498   4.116549
    11  H    5.624444   6.541228   4.654664   3.839434   4.590439
    12  H    4.658160   5.482536   3.860302   3.440104   4.288511
    13  H    5.318254   6.037595   4.652449   4.382095   5.403749
    14  O    2.738522   3.415524   2.343797   2.770891   3.560047
    15  H    2.774772   3.336577   2.559484   3.088079   3.615903
                    6          7          8          9         10
     6  O    0.000000
     7  C    1.439344   0.000000
     8  C    2.398514   1.513842   0.000000
     9  H    2.085321   1.090262   2.163679   0.000000
    10  H    2.030651   1.091321   2.167411   1.776141   0.000000
    11  H    2.624989   2.152352   1.090762   3.065778   2.512227
    12  H    2.685011   2.148042   1.089726   2.485624   3.065552
    13  H    3.345963   2.144449   1.091929   2.513004   2.498691
    14  O    3.072184   2.995321   3.195105   2.487807   4.041635
    15  H    3.697236   3.865414   4.108310   3.354843   4.899598
                   11         12         13         14         15
    11  H    0.000000
    12  H    1.776042   0.000000
    13  H    1.773359   1.774230   0.000000
    14  O    4.048691   2.512744   3.758717   0.000000
    15  H    4.888057   3.355275   4.714420   0.972016   0.000000
 Stoichiometry    C5H7O3(2)
 Framework group  C1[X(C5H7O3)]
 Deg. of freedom    39
 Full point group                 C1      NOp   1
 Largest Abelian subgroup         C1      NOp   1
 Largest concise Abelian subgroup C1      NOp   1
                         Standard orientation:                         
 ---------------------------------------------------------------------
 Center     Atomic      Atomic             Coordinates (Angstroms)
 Number     Number       Type             X           Y           Z
 ---------------------------------------------------------------------
      1          6           0       -2.095566   -1.083075   -0.869278
      2          1           0       -2.728291   -1.850176   -1.251441
      3          6           0       -1.366935   -0.225210   -0.445919
      4          6           0       -0.642575    0.945949    0.074072
      5          8           0       -1.237001    1.791466    0.675360
      6          8           0        0.657588    1.047349   -0.176160
      7          6           0        1.434014    0.007523   -0.798766
      8          6           0        2.552329   -0.388578    0.141548
      9          1           0        0.798884   -0.844848   -1.041140
     10          1           0        1.821157    0.436878   -1.724377
     11          1           0        3.154402    0.482158    0.404400
     12          1           0        2.140340   -0.824552    1.051326
     13          1           0        3.196335   -1.125817   -0.342232
     14          8           0       -0.248229   -1.604008    1.084046
     15          1           0       -1.049297   -1.691757    1.627557
 ---------------------------------------------------------------------
 Rotational constants (GHZ):           2.5004685           1.6399274           1.2671169
 Standard basis: 6-311++G(d,p) (5D, 7F)
 There are   233 symmetry adapted cartesian basis functions of A   symmetry.
 There are   225 symmetry adapted basis functions of A   symmetry.
   225 basis functions,   351 primitive gaussians,   233 cartesian basis functions
    31 alpha electrons       30 beta electrons
       nuclear repulsion energy       361.6669604211 Hartrees.
 NAtoms=   15 NActive=   15 NUniq=   15 SFac= 1.00D+00 NAtFMM=   60 NAOKFM=F Big=F
 Integral buffers will be    131072 words long.
 Raffenetti 2 integral format.
 Two-electron integral symmetry is turned on.
 One-electron integrals computed using PRISM.
 NBasis=   225 RedAO= T EigKep=  1.35D-06  NBF=   225
 NBsUse=   225 1.00D-06 EigRej= -1.00D+00 NBFU=   225
 ExpMin= 3.60D-02 ExpMax= 8.59D+03 ExpMxC= 1.30D+03 IAcc=3 IRadAn=         5 AccDes= 0.00D+00
 Harris functional with IExCor=  205 and IRadAn=       5 diagonalized for initial guess.
 HarFok:  IExCor=  205 AccDes= 0.00D+00 IRadAn=         5 IDoV= 1 UseB2=F ITyADJ=14
 ICtDFT=  3500011 ScaDFX=  1.000000  1.000000  1.000000  1.000000
 FoFCou: FMM=F IPFlag=           0 FMFlag=      100000 FMFlg1=           0
         NFxFlg=           0 DoJE=T BraDBF=F KetDBF=T FulRan=T
         wScrn=  0.000000 ICntrl=       500 IOpCl=  0 I1Cent=   200000004 NGrid=           0
         NMat0=    1 NMatS0=      1 NMatT0=    0 NMatD0=    1 NMtDS0=    0 NMtDT0=    0
 Petite list used in FoFCou.
 Initial guess <Sx>= 0.0000 <Sy>= 0.0000 <Sz>= 0.5000 <S**2>= 0.7500 S= 0.5000
 Requested convergence on RMS density matrix=1.00D-08 within 128 cycles.
 Requested convergence on MAX density matrix=1.00D-06.
 Requested convergence on             energy=1.00D-06.
 No special actions if energy rises.
 Initial convergence to 1.0D-05 achieved.  Increase integral accuracy.
 Restarting incremental Fock formation.
 SCF Done:  E(UHF) =  -417.981906108     A.U. after   40 cycles
            NFock= 40  Conv=0.49D-08     -V/T= 2.0007
 <Sx>= 0.0000 <Sy>= 0.0000 <Sz>= 0.5000 <S**2>= 0.8186 S= 0.5337
 <L.S>=  0.00000000000    
 Annihilation of the first spin contaminant:
 S**2 before annihilation     0.8186,   after     0.7530
 ExpMin= 3.60D-02 ExpMax= 8.59D+03 ExpMxC= 1.30D+03 IAcc=3 IRadAn=         5 AccDes= 0.00D+00
 HarFok:  IExCor=  205 AccDes= 0.00D+00 IRadAn=         5 IDoV=-2 UseB2=F ITyADJ=14
 ICtDFT= 12500011 ScaDFX=  1.000000  1.000000  1.000000  1.000000
 Range of M.O.s used for correlation:     9   225
 NBasis=   225 NAE=    31 NBE=    30 NFC=     8 NFV=     0
 NROrb=    217 NOA=    23 NOB=    22 NVA=   194 NVB=   195

 **** Warning!!: The largest alpha MO coefficient is  0.25915275D+03


 **** Warning!!: The largest beta MO coefficient is  0.30702143D+03

 Semi-Direct transformation.
 ModeAB=           4 MOrb=            23 LenV=    1609171344
 LASXX=    109339976 LTotXX=   109339976 LenRXX=   221407890
 LTotAB=   112067914 MaxLAS=   131567751 LenRXY=           0
 NonZer=   330747866 LenScr=   498067456 LnRSAI=   131567751
 LnScr1=   198125568 LExtra=           0 Total=   1049168665
 MaxDsk=          -1 SrtSym=           T ITran=            4
 JobTyp=1 Pass  1:  I=   1 to  23.
 (rs|ai) integrals will be sorted in core.
 ModeAB=           4 MOrb=            22 LenV=    1609171344
 LASXX=    104936601 LTotXX=   104936601 LenRXX=   190867446
 LTotAB=    85930845 MaxLAS=   125847414 LenRXY=           0
 NonZer=   295804047 LenScr=   445446144 LnRSAI=   125847414
 LnScr1=   189539840 LExtra=           0 Total=    951700844
 MaxDsk=          -1 SrtSym=           T ITran=            4
 JobTyp=2 Pass  1:  I=   1 to  22.
 (rs|ai) integrals will be sorted in core.
 SymMOI:  orbitals are not symmetric.
 Spin components of T(2) and E(2):
     alpha-alpha T2 =       0.5286341668D-01 E2=     -0.1703601404D+00
     alpha-beta  T2 =       0.2879442434D+00 E2=     -0.9378035245D+00
     beta-beta   T2 =       0.4993700190D-01 E2=     -0.1559166259D+00
 ANorm=    0.1179298377D+01
 E2 =    -0.1264080291D+01 EUMP2 =    -0.41924598639890D+03
 (S**2,0)=  0.81861D+00           (S**2,1)=  0.79748D+00
 E(PUHF)=      -0.41798882007D+03        E(PMP2)=      -0.41925186241D+03
 Keep R2 and R3 ints in memory in canonical form, NReq=652884060.
 CIDS: In Core Option IDoMem=           1.
 Iterations=  50 Convergence= 0.100D-06
 Produce multiple copies of IABC intergrals
 Iteration Nr.   1
 **********************
 DD1Dir will call FoFMem   1 times, MxPair=      1496
 NAB=   506 NAA=   253 NBB=   231.
 E(PMP3)=      -0.41927699945D+03
 MP4(R+Q)=  0.25391480D-01
 E3=       -0.26844552D-01        EUMP3=      -0.41927283095D+03
 E4(DQ)=   -0.55633136D-02        UMP4(DQ)=   -0.41927839426D+03
 E4(SDQ)=  -0.24447629D-01        UMP4(SDQ)=  -0.41929727858D+03
 DE(Corr)=  -1.2648727     E(Corr)=     -419.24677880    
 NORM(A)=   0.11855248D+01
 Iteration Nr.   2
 **********************
 DD1Dir will call FoFMem   1 times, MxPair=      1496
 NAB=   506 NAA=   253 NBB=   231.
 DE(Corr)=  -1.3071172     E(CORR)=     -419.28902326     Delta=-4.22D-02
 NORM(A)=   0.12035708D+01
 Iteration Nr.   3
 **********************
 DD1Dir will call FoFMem   1 times, MxPair=      1496
 NAB=   506 NAA=   253 NBB=   231.
 DE(Corr)=  -1.3085708     E(CORR)=     -419.29047693     Delta=-1.45D-03
 NORM(A)=   0.12105848D+01
 Iteration Nr.   4
 **********************
 DD1Dir will call FoFMem   1 times, MxPair=      1496
 NAB=   506 NAA=   253 NBB=   231.
 DE(Corr)=  -1.3137803     E(CORR)=     -419.29568646     Delta=-5.21D-03
 NORM(A)=   0.12140370D+01
 Iteration Nr.   5
 **********************
 DD1Dir will call FoFMem   1 times, MxPair=      1496
 NAB=   506 NAA=   253 NBB=   231.
 DE(Corr)=  -1.3148344     E(CORR)=     -419.29674046     Delta=-1.05D-03
 NORM(A)=   0.12160574D+01
 Iteration Nr.   6
 **********************
 DD1Dir will call FoFMem   1 times, MxPair=      1496
 NAB=   506 NAA=   253 NBB=   231.
 DE(Corr)=  -1.3151630     E(CORR)=     -419.29706909     Delta=-3.29D-04
 NORM(A)=   0.12165582D+01
 Iteration Nr.   7
 **********************
 DD1Dir will call FoFMem   1 times, MxPair=      1496
 NAB=   506 NAA=   253 NBB=   231.
 DE(Corr)=  -1.3152324     E(CORR)=     -419.29713853     Delta=-6.94D-05
 NORM(A)=   0.12166426D+01
 Iteration Nr.   8
 **********************
 DD1Dir will call FoFMem   1 times, MxPair=      1496
 NAB=   506 NAA=   253 NBB=   231.
 DE(Corr)=  -1.3152235     E(CORR)=     -419.29712961     Delta= 8.92D-06
 NORM(A)=   0.12166878D+01
 Iteration Nr.   9
 **********************
 DD1Dir will call FoFMem   1 times, MxPair=      1496
 NAB=   506 NAA=   253 NBB=   231.
 DE(Corr)=  -1.3152309     E(CORR)=     -419.29713698     Delta=-7.36D-06
 NORM(A)=   0.12166897D+01
 Iteration Nr.  10
 **********************
 DD1Dir will call FoFMem   1 times, MxPair=      1496
 NAB=   506 NAA=   253 NBB=   231.
 DE(Corr)=  -1.3152332     E(CORR)=     -419.29713932     Delta=-2.34D-06
 NORM(A)=   0.12166949D+01
 Iteration Nr.  11
 **********************
 DD1Dir will call FoFMem   1 times, MxPair=      1496
 NAB=   506 NAA=   253 NBB=   231.
 DE(Corr)=  -1.3152393     E(CORR)=     -419.29714541     Delta=-6.10D-06
 NORM(A)=   0.12167021D+01
 Iteration Nr.  12
 **********************
 DD1Dir will call FoFMem   1 times, MxPair=      1496
 NAB=   506 NAA=   253 NBB=   231.
 DE(Corr)=  -1.3152413     E(CORR)=     -419.29714738     Delta=-1.97D-06
 NORM(A)=   0.12167091D+01
 Iteration Nr.  13
 **********************
 DD1Dir will call FoFMem   1 times, MxPair=      1496
 NAB=   506 NAA=   253 NBB=   231.
 DE(Corr)=  -1.3152438     E(CORR)=     -419.29714993     Delta=-2.55D-06
 NORM(A)=   0.12167167D+01
 Iteration Nr.  14
 **********************
 DD1Dir will call FoFMem   1 times, MxPair=      1496
 NAB=   506 NAA=   253 NBB=   231.
 DE(Corr)=  -1.3152453     E(CORR)=     -419.29715144     Delta=-1.50D-06
 NORM(A)=   0.12167245D+01
 Iteration Nr.  15
 **********************
 DD1Dir will call FoFMem   1 times, MxPair=      1496
 NAB=   506 NAA=   253 NBB=   231.
 DE(Corr)=  -1.3152465     E(CORR)=     -419.29715263     Delta=-1.19D-06
 NORM(A)=   0.12167329D+01
 Iteration Nr.  16
 **********************
 DD1Dir will call FoFMem   1 times, MxPair=      1496
 NAB=   506 NAA=   253 NBB=   231.
 DE(Corr)=  -1.3152484     E(CORR)=     -419.29715451     Delta=-1.88D-06
 NORM(A)=   0.12167381D+01
 Iteration Nr.  17
 **********************
 DD1Dir will call FoFMem   1 times, MxPair=      1496
 NAB=   506 NAA=   253 NBB=   231.
 DE(Corr)=  -1.3152487     E(CORR)=     -419.29715486     Delta=-3.51D-07
 NORM(A)=   0.12167381D+01
 Iteration Nr.  18
 **********************
 DD1Dir will call FoFMem   1 times, MxPair=      1496
 NAB=   506 NAA=   253 NBB=   231.
 DE(Corr)=  -1.3152491     E(CORR)=     -419.29715520     Delta=-3.42D-07
 NORM(A)=   0.12167341D+01
 Iteration Nr.  19
 **********************
 DD1Dir will call FoFMem   1 times, MxPair=      1496
 NAB=   506 NAA=   253 NBB=   231.
 DE(Corr)=  -1.3152478     E(CORR)=     -419.29715394     Delta= 1.25D-06
 NORM(A)=   0.12167300D+01
 Iteration Nr.  20
 **********************
 DD1Dir will call FoFMem   1 times, MxPair=      1496
 NAB=   506 NAA=   253 NBB=   231.
 DE(Corr)=  -1.3152471     E(CORR)=     -419.29715325     Delta= 6.98D-07
 NORM(A)=   0.12167274D+01
 Iteration Nr.  21
 **********************
 DD1Dir will call FoFMem   1 times, MxPair=      1496
 NAB=   506 NAA=   253 NBB=   231.
 DE(Corr)=  -1.3152465     E(CORR)=     -419.29715260     Delta= 6.47D-07
 NORM(A)=   0.12167263D+01
 Iteration Nr.  22
 **********************
 DD1Dir will call FoFMem   1 times, MxPair=      1496
 NAB=   506 NAA=   253 NBB=   231.
 DE(Corr)=  -1.3152463     E(CORR)=     -419.29715237     Delta= 2.29D-07
 NORM(A)=   0.12167262D+01
 Iteration Nr.  23
 **********************
 DD1Dir will call FoFMem   1 times, MxPair=      1496
 NAB=   506 NAA=   253 NBB=   231.
 DE(Corr)=  -1.3152463     E(CORR)=     -419.29715242     Delta=-5.23D-08
 NORM(A)=   0.12167267D+01
 Wavefunction amplitudes converged. E(Corr)=     -419.29715242    
 Largest amplitude= 4.25D-02
 Time for triples=    35843.82 seconds.
 T4(CCSD)= -0.56560328D-01
 T5(CCSD)=  0.35324304D-02
 CCSD(T)= -0.41935018032D+03

 S**2, projected HF & approx projected MPn energies after annihilation of
 unwanted spin states (see manual for definitions):

 spins       (S**2,0) (S**2,1)    PUHF        PMP2        PMP3        PMP4
 annihilated
 s+1         0.74822  0.74950 -417.988820 -419.251862 -419.276999
 s+1,s+2     0.75001  0.75000 -417.988646 -419.251702 -419.276854
 s+1 to s+3  0.75000  0.75000 -417.988648 -419.251703 -419.276855
 s+1 to s+4  0.75000  0.75000 -417.988648 -419.251702 -419.276854
 s+1 to s+5  0.75000  0.75000 -417.988648
 s+1 to s+6  0.75000  0.75000 -417.988648

 Discarding MO integrals.

 **********************************************************************

            Population analysis using the SCF density.

 **********************************************************************

 Orbital symmetries:
 Alpha Orbitals:
       Occupied  (A) (A) (A) (A) (A) (A) (A) (A) (A) (A) (A) (A)
                 (A) (A) (A) (A) (A) (A) (A) (A) (A) (A) (A) (A)
                 (A) (A) (A) (A) (A) (A) (A)
       Virtual   (A) (A) (A) (A) (A) (A) (A) (A) (A) (A) (A) (A)
                 (A) (A) (A) (A) (A) (A) (A) (A) (A) (A) (A) (A)
                 (A) (A) (A) (A) (A) (A) (A) (A) (A) (A) (A) (A)
                 (A) (A) (A) (A) (A) (A) (A) (A) (A) (A) (A) (A)
                 (A) (A) (A) (A) (A) (A) (A) (A) (A) (A) (A) (A)
                 (A) (A) (A) (A) (A) (A) (A) (A) (A) (A) (A) (A)
                 (A) (A) (A) (A) (A) (A) (A) (A) (A) (A) (A) (A)
                 (A) (A) (A) (A) (A) (A) (A) (A) (A) (A) (A) (A)
                 (A) (A) (A) (A) (A) (A) (A) (A) (A) (A) (A) (A)
                 (A) (A) (A) (A) (A) (A) (A) (A) (A) (A) (A) (A)
                 (A) (A) (A) (A) (A) (A) (A) (A) (A) (A) (A) (A)
                 (A) (A) (A) (A) (A) (A) (A) (A) (A) (A) (A) (A)
                 (A) (A) (A) (A) (A) (A) (A) (A) (A) (A) (A) (A)
                 (A) (A) (A) (A) (A) (A) (A) (A) (A) (A) (A) (A)
                 (A) (A) (A) (A) (A) (A) (A) (A) (A) (A) (A) (A)
                 (A) (A) (A) (A) (A) (A) (A) (A) (A) (A) (A) (A)
                 (A) (A)
 Beta  Orbitals:
       Occupied  (A) (A) (A) (A) (A) (A) (A) (A) (A) (A) (A) (A)
                 (A) (A) (A) (A) (A) (A) (A) (A) (A) (A) (A) (A)
                 (A) (A) (A) (A) (A) (A)
       Virtual   (A) (A) (A) (A) (A) (A) (A) (A) (A) (A) (A) (A)
                 (A) (A) (A) (A) (A) (A) (A) (A) (A) (A) (A) (A)
                 (A) (A) (A) (A) (A) (A) (A) (A) (A) (A) (A) (A)
                 (A) (A) (A) (A) (A) (A) (A) (A) (A) (A) (A) (A)
                 (A) (A) (A) (A) (A) (A) (A) (A) (A) (A) (A) (A)
                 (A) (A) (A) (A) (A) (A) (A) (A) (A) (A) (A) (A)
                 (A) (A) (A) (A) (A) (A) (A) (A) (A) (A) (A) (A)
                 (A) (A) (A) (A) (A) (A) (A) (A) (A) (A) (A) (A)
                 (A) (A) (A) (A) (A) (A) (A) (A) (A) (A) (A) (A)
                 (A) (A) (A) (A) (A) (A) (A) (A) (A) (A) (A) (A)
                 (A) (A) (A) (A) (A) (A) (A) (A) (A) (A) (A) (A)
                 (A) (A) (A) (A) (A) (A) (A) (A) (A) (A) (A) (A)
                 (A) (A) (A) (A) (A) (A) (A) (A) (A) (A) (A) (A)
                 (A) (A) (A) (A) (A) (A) (A) (A) (A) (A) (A) (A)
                 (A) (A) (A) (A) (A) (A) (A) (A) (A) (A) (A) (A)
                 (A) (A) (A) (A) (A) (A) (A) (A) (A) (A) (A) (A)
                 (A) (A) (A)
 The electronic state is 2-A.
 Alpha  occ. eigenvalues --  -20.64566 -20.60680 -20.55053 -11.41533 -11.29888
 Alpha  occ. eigenvalues --  -11.27634 -11.26766 -11.22367  -1.47323  -1.40164
 Alpha  occ. eigenvalues --   -1.37616  -1.07812  -1.04627  -0.90653  -0.87445
 Alpha  occ. eigenvalues --   -0.76054  -0.73335  -0.70928  -0.68371  -0.67533
 Alpha  occ. eigenvalues --   -0.66410  -0.61237  -0.57303  -0.56952  -0.55914
 Alpha  occ. eigenvalues --   -0.53008  -0.50636  -0.47692  -0.45516  -0.43156
 Alpha  occ. eigenvalues --   -0.42685
 Alpha virt. eigenvalues --    0.03171   0.04632   0.05318   0.06587   0.06894
 Alpha virt. eigenvalues --    0.08466   0.09068   0.10047   0.10649   0.12482
 Alpha virt. eigenvalues --    0.12825   0.13176   0.14532   0.15813   0.15963
 Alpha virt. eigenvalues --    0.17073   0.17630   0.17841   0.18584   0.19391
 Alpha virt. eigenvalues --    0.20027   0.20181   0.20830   0.22040   0.22697
 Alpha virt. eigenvalues --    0.23854   0.24649   0.26687   0.28046   0.29579
 Alpha virt. eigenvalues --    0.30151   0.30840   0.31361   0.32031   0.33468
 Alpha virt. eigenvalues --    0.35197   0.36769   0.36837   0.38403   0.39492
 Alpha virt. eigenvalues --    0.39792   0.41520   0.41925   0.42238   0.42681
 Alpha virt. eigenvalues --    0.43398   0.45563   0.46933   0.47560   0.49880
 Alpha virt. eigenvalues --    0.51519   0.52604   0.58292   0.61566   0.63612
 Alpha virt. eigenvalues --    0.64621   0.65569   0.66633   0.71227   0.72812
 Alpha virt. eigenvalues --    0.73834   0.77137   0.80279   0.83193   0.85218
 Alpha virt. eigenvalues --    0.85448   0.86438   0.86859   0.87688   0.88425
 Alpha virt. eigenvalues --    0.89126   0.91429   0.93150   0.94799   0.96995
 Alpha virt. eigenvalues --    1.02229   1.03168   1.07347   1.13527   1.17786
 Alpha virt. eigenvalues --    1.22570   1.23417   1.26562   1.27275   1.31600
 Alpha virt. eigenvalues --    1.32333   1.36772   1.40759   1.41876   1.42436
 Alpha virt. eigenvalues --    1.43791   1.46815   1.48354   1.49859   1.51992
 Alpha virt. eigenvalues --    1.52383   1.56304   1.57237   1.61395   1.62659
 Alpha virt. eigenvalues --    1.64298   1.67275   1.71912   1.74155   1.75943
 Alpha virt. eigenvalues --    1.80966   1.83354   1.84783   1.85594   1.87693
 Alpha virt. eigenvalues --    1.88676   1.92656   1.95800   1.96730   1.99334
 Alpha virt. eigenvalues --    2.03464   2.05871   2.07632   2.10658   2.13805
 Alpha virt. eigenvalues --    2.16413   2.23175   2.26002   2.28761   2.31574
 Alpha virt. eigenvalues --    2.33902   2.40183   2.42727   2.49003   2.61455
 Alpha virt. eigenvalues --    2.63238   2.71245   2.78233   2.79999   2.83405
 Alpha virt. eigenvalues --    2.83728   2.86716   2.91494   2.92587   2.94812
 Alpha virt. eigenvalues --    2.95922   2.97683   3.01286   3.04429   3.04801
 Alpha virt. eigenvalues --    3.10051   3.12755   3.14935   3.16933   3.22608
 Alpha virt. eigenvalues --    3.24295   3.26022   3.32616   3.34793   3.36595
 Alpha virt. eigenvalues --    3.39074   3.43396   3.43725   3.47000   3.48822
 Alpha virt. eigenvalues --    3.61482   3.64342   3.68427   3.71656   3.75757
 Alpha virt. eigenvalues --    3.78685   3.93602   3.99605   4.14283   4.20269
 Alpha virt. eigenvalues --    4.21732   4.24777   4.27236   4.41554   4.54009
 Alpha virt. eigenvalues --    4.58453   4.68421   5.49752   5.53845   5.62075
 Alpha virt. eigenvalues --    5.65506   5.73555   5.88627   6.02370   6.19106
 Alpha virt. eigenvalues --    6.48435  24.68613  25.01097  25.01214  25.14260
 Alpha virt. eigenvalues --   26.25114  51.50294  51.59955  51.75128
  Beta  occ. eigenvalues --  -20.60645 -20.60468 -20.55379 -11.41324 -11.29899
  Beta  occ. eigenvalues --  -11.27643 -11.26571 -11.22365  -1.47408  -1.38096
  Beta  occ. eigenvalues --   -1.24736  -1.07519  -1.04581  -0.90246  -0.87179
  Beta  occ. eigenvalues --   -0.75886  -0.72954  -0.69694  -0.67189  -0.64764
  Beta  occ. eigenvalues --   -0.61469  -0.57045  -0.56463  -0.53759  -0.51756
  Beta  occ. eigenvalues --   -0.50642  -0.48466  -0.46136  -0.43550  -0.42619
  Beta virt. eigenvalues --    0.03214   0.04171   0.04818   0.06593   0.06844
  Beta virt. eigenvalues --    0.08081   0.08496   0.09238   0.10501   0.11474
  Beta virt. eigenvalues --    0.12376   0.13121   0.13315   0.14810   0.15962
  Beta virt. eigenvalues --    0.16314   0.17146   0.17863   0.17965   0.18606
  Beta virt. eigenvalues --    0.19669   0.20014   0.20296   0.20938   0.22383
  Beta virt. eigenvalues --    0.22850   0.23952   0.24691   0.26761   0.28673
  Beta virt. eigenvalues --    0.29893   0.30917   0.31100   0.32020   0.32226
  Beta virt. eigenvalues --    0.33718   0.35980   0.36859   0.37151   0.38438
  Beta virt. eigenvalues --    0.39544   0.39960   0.41370   0.42195   0.42669
  Beta virt. eigenvalues --    0.42791   0.44260   0.45783   0.47237   0.47746
  Beta virt. eigenvalues --    0.50274   0.51519   0.52689   0.58321   0.61665
  Beta virt. eigenvalues --    0.63685   0.64852   0.65774   0.66686   0.72140
  Beta virt. eigenvalues --    0.73004   0.75685   0.78385   0.80739   0.83227
  Beta virt. eigenvalues --    0.84811   0.85576   0.86496   0.86894   0.87570
  Beta virt. eigenvalues --    0.88640   0.89060   0.91433   0.93009   0.94785
  Beta virt. eigenvalues --    0.97083   1.02732   1.03400   1.07554   1.13771
  Beta virt. eigenvalues --    1.18233   1.23485   1.25257   1.27758   1.30185
  Beta virt. eigenvalues --    1.32590   1.33304   1.37478   1.41106   1.42141
  Beta virt. eigenvalues --    1.43004   1.44091   1.47261   1.48275   1.50418
  Beta virt. eigenvalues --    1.52401   1.55162   1.56891   1.58104   1.62520
  Beta virt. eigenvalues --    1.62889   1.64896   1.69010   1.72375   1.75163
  Beta virt. eigenvalues --    1.76128   1.81162   1.83450   1.84858   1.85585
  Beta virt. eigenvalues --    1.87524   1.88586   1.92681   1.95804   1.96751
  Beta virt. eigenvalues --    1.99473   2.03541   2.05953   2.07910   2.10592
  Beta virt. eigenvalues --    2.14373   2.16474   2.23446   2.26125   2.29073
  Beta virt. eigenvalues --    2.32021   2.35201   2.40237   2.42790   2.49055
  Beta virt. eigenvalues --    2.61509   2.63248   2.71550   2.78171   2.79926
  Beta virt. eigenvalues --    2.83431   2.83762   2.86719   2.91696   2.92659
  Beta virt. eigenvalues --    2.94922   2.95996   2.98258   3.01487   3.04734
  Beta virt. eigenvalues --    3.06139   3.13210   3.15419   3.15899   3.22323
  Beta virt. eigenvalues --    3.25365   3.25611   3.28146   3.33860   3.36251
  Beta virt. eigenvalues --    3.37212   3.39445   3.43960   3.47622   3.48709
  Beta virt. eigenvalues --    3.53000   3.61602   3.65240   3.68494   3.71919
  Beta virt. eigenvalues --    3.75815   3.78173   3.93933   3.99471   4.14088
  Beta virt. eigenvalues --    4.21156   4.21868   4.24814   4.29733   4.41503
  Beta virt. eigenvalues --    4.53964   4.58477   4.68434   5.53207   5.61366
  Beta virt. eigenvalues --    5.64104   5.67042   5.73446   5.88621   6.04909
  Beta virt. eigenvalues --    6.19005   6.48406  24.68605  25.01088  25.01370
  Beta virt. eigenvalues --   25.14264  26.25234  51.52556  51.60033  51.74975
          Condensed to atoms (all electrons):
               1          2          3          4          5          6
     1  C   42.868390   1.107610 -21.181530 -14.287905  -0.242755  -0.126708
     2  H    1.107610   0.421632  -0.599070  -0.142890  -0.004855  -0.003979
     3  C  -21.181530  -0.599070  22.338143   3.597582   0.035215  -0.093223
     4  C  -14.287905  -0.142890   3.597582  15.905958   0.547623   0.146298
     5  O   -0.242755  -0.004855   0.035215   0.547623   8.061611  -0.046987
     6  O   -0.126708  -0.003979  -0.093223   0.146298  -0.046987   8.236281
     7  C    0.001174   0.000502  -0.011116  -0.082300  -0.001824   0.264689
     8  C   -0.119066  -0.001472   0.053420   0.066241   0.003415  -0.169103
     9  H   -0.000869  -0.000732   0.029729  -0.020454   0.001518  -0.042163
    10  H   -0.041926   0.000260  -0.030779   0.063281  -0.000162  -0.059112
    11  H    0.014879   0.000268   0.001837  -0.011321   0.000952  -0.016273
    12  H   -0.015989   0.000115  -0.012127   0.024231  -0.000221   0.002122
    13  H   -0.034146  -0.000470   0.005691   0.019524   0.000022   0.023671
    14  O   -0.034472   0.001497  -0.003624  -0.012938  -0.009326  -0.001801
    15  H    0.048486  -0.000773  -0.007134  -0.008934  -0.002267  -0.000918
               7          8          9         10         11         12
     1  C    0.001174  -0.119066  -0.000869  -0.041926   0.014879  -0.015989
     2  H    0.000502  -0.001472  -0.000732   0.000260   0.000268   0.000115
     3  C   -0.011116   0.053420   0.029729  -0.030779   0.001837  -0.012127
     4  C   -0.082300   0.066241  -0.020454   0.063281  -0.011321   0.024231
     5  O   -0.001824   0.003415   0.001518  -0.000162   0.000952  -0.000221
     6  O    0.264689  -0.169103  -0.042163  -0.059112  -0.016273   0.002122
     7  C    5.492468  -0.047060   0.424848   0.424903  -0.037562  -0.073258
     8  C   -0.047060   5.474995  -0.027299  -0.047087   0.416375   0.425975
     9  H    0.424848  -0.027299   0.514397  -0.029510  -0.003769   0.002010
    10  H    0.424903  -0.047087  -0.029510   0.537221  -0.000533   0.002287
    11  H   -0.037562   0.416375  -0.003769  -0.000533   0.547558  -0.036960
    12  H   -0.073258   0.425975   0.002010   0.002287  -0.036960   0.561158
    13  H   -0.033821   0.399580  -0.011790   0.004648  -0.035145  -0.033474
    14  O    0.000587  -0.013317  -0.012262   0.005462  -0.000781   0.005328
    15  H    0.002535  -0.002861  -0.002836   0.000001  -0.000098  -0.001253
              13         14         15
     1  C   -0.034146  -0.034472   0.048486
     2  H   -0.000470   0.001497  -0.000773
     3  C    0.005691  -0.003624  -0.007134
     4  C    0.019524  -0.012938  -0.008934
     5  O    0.000022  -0.009326  -0.002267
     6  O    0.023671  -0.001801  -0.000918
     7  C   -0.033821   0.000587   0.002535
     8  C    0.399580  -0.013317  -0.002861
     9  H   -0.011790  -0.012262  -0.002836
    10  H    0.004648   0.005462   0.000001
    11  H   -0.035145  -0.000781  -0.000098
    12  H   -0.033474   0.005328  -0.001253
    13  H    0.566413  -0.001172   0.000407
    14  O   -0.001172   8.017719   0.257129
    15  H    0.000407   0.257129   0.459320
          Atomic-Atomic Spin Densities.
               1          2          3          4          5          6
     1  C   -0.675301  -0.080651   0.920981   0.397881   0.024546  -0.006080
     2  H   -0.080651  -0.034176   0.066241   0.014862   0.000254  -0.000224
     3  C    0.920981   0.066241  -1.185386  -0.261171   0.012819   0.011943
     4  C    0.397881   0.014862  -0.261171  -0.065853  -0.015246  -0.028474
     5  O    0.024546   0.000254   0.012819  -0.015246  -0.091061  -0.000642
     6  O   -0.006080  -0.000224   0.011943  -0.028474  -0.000642   0.021672
     7  C   -0.008281  -0.000083   0.006039   0.014978   0.000154  -0.002911
     8  C   -0.003948  -0.000100   0.003582  -0.003908  -0.000052   0.000757
     9  H   -0.015019  -0.000339   0.009852   0.004240   0.000506   0.001034
    10  H   -0.016686  -0.000319   0.004681   0.013332  -0.000016  -0.000040
    11  H    0.000836   0.000015   0.000087  -0.001391  -0.000010   0.000008
    12  H   -0.005282  -0.000119   0.003627   0.001633   0.000051   0.000174
    13  H    0.001239   0.000033  -0.000849  -0.000145  -0.000019  -0.000016
    14  O   -0.141513  -0.001328   0.010006   0.090528   0.000476   0.001000
    15  H    0.038783   0.000615  -0.026443  -0.014645  -0.000100   0.000045
               7          8          9         10         11         12
     1  C   -0.008281  -0.003948  -0.015019  -0.016686   0.000836  -0.005282
     2  H   -0.000083  -0.000100  -0.000339  -0.000319   0.000015  -0.000119
     3  C    0.006039   0.003582   0.009852   0.004681   0.000087   0.003627
     4  C    0.014978  -0.003908   0.004240   0.013332  -0.001391   0.001633
     5  O    0.000154  -0.000052   0.000506  -0.000016  -0.000010   0.000051
     6  O   -0.002911   0.000757   0.001034  -0.000040   0.000008   0.000174
     7  C    0.009286  -0.011005  -0.002623  -0.002159   0.000202  -0.003166
     8  C   -0.011005   0.010520   0.002508  -0.000056  -0.000018   0.002561
     9  H   -0.002623   0.002508   0.002904   0.000261  -0.000059   0.000766
    10  H   -0.002159  -0.000056   0.000261   0.002552   0.000205   0.000262
    11  H    0.000202  -0.000018  -0.000059   0.000205  -0.000334   0.000003
    12  H   -0.003166   0.002561   0.000766   0.000262   0.000003  -0.000567
    13  H    0.001612  -0.001398  -0.000329  -0.000394   0.000183  -0.000182
    14  O   -0.004548   0.001481  -0.003996  -0.000775   0.000416   0.001150
    15  H    0.001889  -0.001258  -0.000028   0.000130  -0.000094   0.000096
              13         14         15
     1  C    0.001239  -0.141513   0.038783
     2  H    0.000033  -0.001328   0.000615
     3  C   -0.000849   0.010006  -0.026443
     4  C   -0.000145   0.090528  -0.014645
     5  O   -0.000019   0.000476  -0.000100
     6  O   -0.000016   0.001000   0.000045
     7  C    0.001612  -0.004548   0.001889
     8  C   -0.001398   0.001481  -0.001258
     9  H   -0.000329  -0.003996  -0.000028
    10  H   -0.000394  -0.000775   0.000130
    11  H    0.000183   0.000416  -0.000094
    12  H   -0.000182   0.001150   0.000096
    13  H    0.000118  -0.000271   0.000046
    14  O   -0.000271   1.027231   0.008423
    15  H    0.000046   0.008423  -0.044854
 Mulliken charges and spin densities:
               1          2
     1  C   -1.955174   0.431505
     2  H    0.222357  -0.035319
     3  C    1.876986  -0.423992
     4  C    0.196004   0.146621
     5  O   -0.341958  -0.068339
     6  O   -0.112794  -0.001753
     7  C   -0.324766  -0.000614
     8  C   -0.412736  -0.000333
     9  H    0.179183  -0.000323
    10  H    0.171045   0.000978
    11  H    0.160572   0.000050
    12  H    0.150055   0.001007
    13  H    0.130062  -0.000372
    14  O   -0.198031   0.988280
    15  H    0.259195  -0.037395
 Sum of Mulliken charges =  -0.00000   1.00000
 Mulliken charges and spin densities with hydrogens summed into heavy atoms:
               1          2
     1  C   -1.732817   0.396185
     3  C    1.876986  -0.423992
     4  C    0.196004   0.146621
     5  O   -0.341958  -0.068339
     6  O   -0.112794  -0.001753
     7  C    0.025462   0.000041
     8  C    0.027953   0.000351
    14  O    0.061164   0.950886
 Electronic spatial extent (au):  <R**2>=           1015.6331
 Charge=             -0.0000 electrons
 Dipole moment (field-independent basis, Debye):
    X=              0.1886    Y=             -4.5455    Z=             -1.4162  Tot=              4.7648
 Quadrupole moment (field-independent basis, Debye-Ang):
   XX=            -42.4676   YY=            -52.1614   ZZ=            -43.7902
   XY=              8.5400   XZ=              0.1310   YZ=             -3.1369
 Traceless Quadrupole moment (field-independent basis, Debye-Ang):
   XX=              3.6721   YY=             -6.0217   ZZ=              2.3495
   XY=              8.5400   XZ=              0.1310   YZ=             -3.1369
 Octapole moment (field-independent basis, Debye-Ang**2):
  XXX=             -0.1364  YYY=            -15.2090  ZZZ=             12.6348  XYY=             -5.3262
  XXY=            -20.9170  XXZ=             -6.1546  XZZ=             -3.2090  YZZ=             -9.0004
  YYZ=             -3.6286  XYZ=              1.7547
 Hexadecapole moment (field-independent basis, Debye-Ang**3):
 XXXX=           -720.0558 YYYY=           -405.7137 ZZZZ=           -176.3796 XXXY=             49.2917
 XXXZ=              8.7843 YYYX=             34.2765 YYYZ=            -12.9564 ZZZX=            -15.8103
 ZZZY=            -19.8138 XXYY=           -165.3893 XXZZ=           -142.3671 YYZZ=            -81.4242
 XXYZ=              7.7179 YYXZ=              9.0231 ZZXY=             17.9076
 N-N= 3.616669604211D+02 E-N=-1.706301910196D+03  KE= 4.176772853510D+02
 1\1\GINC-AJ\SP\UCCSD(T)-FC\6-311++G(d,p)\C5H7O3(2)\AAYUSH\14-May-2025\
 0\\# ccsd(t)/6-311++g(d,p) sp\\Title Card Required\\0,2\C,0,-2.041026,
 -1.122771,-0.869008\H,0,-2.682725,-1.891151,-1.233215\C,0,-1.30231,-0.
 263997,-0.465431\C,0,-0.563333,0.911278,0.023795\O,0,-1.149942,1.78789
 9,0.587013\O,0,0.741731,0.980306,-0.211505\C,0,1.506964,-0.094515,-0.7
 86736\C,0,2.605006,-0.477756,0.18236\H,0,0.859399,-0.943177,-1.008331\
 H,0,1.914406,0.295187,-1.721137\H,0,3.219589,0.39057,0.423317\H,0,2.17
 2813,-0.874174,1.100818\H,0,3.24162,-1.24298,-0.266488\O,0,-0.230063,-
 1.608602,1.126959\H,0,-1.039843,-1.662798,1.661874\\Version=ES64L-G16R
 evA.03\State=2-A\HF=-417.9819061\MP2=-419.2459864\MP3=-419.272831\MP4D
 =-419.3037857\MP4DQ=-419.2783943\PUHF=-417.9888201\PMP2-0=-419.2518624
 \PMP3-0=-419.2769994\MP4SDQ=-419.2972786\CCSD=-419.2971524\CCSD(T)=-41
 9.3501803\S2=0.818615\S2-1=0.79748\S2A=0.752997\RMSD=4.942e-09\PG=C01 
 [X(C5H7O3)]\\@


 IN-LAWS ARE LIKE SEEDS. YOU DON'T NEED THEM
 BUT THEY COME WITH THE TOMATO.
 Job cpu time:       0 days 18 hours 26 minutes 29.9 seconds.
 Elapsed time:       0 days  0 hours 46 minutes 28.3 seconds.
 File lengths (MBytes):  RWF=  44733 Int=      0 D2E=      0 Chk=      6 Scr=      1
 Normal termination of Gaussian 16 at Wed May 14 17:30:59 2025.
