 Entering Gaussian System, Link 0=g16
 Initial command:
 /opt/g16/l1.exe "/home/loki/Research/Transition_states/Addition/ts1_irc_points/Gau-130596.inp" -scrdir="/home/loki/Research/Transition_states/Addition/ts1_irc_points/"
 Entering Link 1 = /opt/g16/l1.exe PID=    130599.
  
 Copyright (c) 1988,1990,1992,1993,1995,1998,2003,2009,2016,
            Gaussian, Inc.  All Rights Reserved.
  
 This is part of the Gaussian(R) 16 program.  It is based on
 the Gaussian(R) 09 system (copyright 2009, Gaussian, Inc.),
 the Gaussian(R) 03 system (copyright 2003, Gaussian, Inc.),
 the Gaussian(R) 98 system (copyright 1998, Gaussian, Inc.),
 the Gaussian(R) 94 system (copyright 1995, Gaussian, Inc.),
 the Gaussian 92(TM) system (copyright 1992, Gaussian, Inc.),
 the Gaussian 90(TM) system (copyright 1990, Gaussian, Inc.),
 the Gaussian 88(TM) system (copyright 1988, Gaussian, Inc.),
 the Gaussian 86(TM) system (copyright 1986, Carnegie Mellon
 University), and the Gaussian 82(TM) system (copyright 1983,
 Carnegie Mellon University). Gaussian is a federally registered
 trademark of Gaussian, Inc.
  
 This software contains proprietary and confidential information,
 including trade secrets, belonging to Gaussian, Inc.
  
 This software is provided under written license and may be
 used, copied, transmitted, or stored only in accord with that
 written license.
  
 The following legend is applicable only to US Government
 contracts under FAR:
  
                    RESTRICTED RIGHTS LEGEND
  
 Use, reproduction and disclosure by the US Government is
 subject to restrictions as set forth in subparagraphs (a)
 and (c) of the Commercial Computer Software - Restricted
 Rights clause in FAR 52.227-19.
  
 Gaussian, Inc.
 340 Quinnipiac St., Bldg. 40, Wallingford CT 06492
  
  
 ---------------------------------------------------------------
 Warning -- This program may not be used in any manner that
 competes with the business of Gaussian, Inc. or will provide
 assistance to any competitor of Gaussian, Inc.  The licensee
 of this program is prohibited from giving any competitor of
 Gaussian, Inc. access to this program.  By using this program,
 the user acknowledges that Gaussian, Inc. is engaged in the
 business of creating and licensing software in the field of
 computational chemistry and represents and warrants to the
 licensee that it is not a competitor of Gaussian, Inc. and that
 it will not use this program in any manner prohibited above.
 ---------------------------------------------------------------
  

 Cite this work as:
 Gaussian 16, Revision A.03,
 M. J. Frisch, G. W. Trucks, H. B. Schlegel, G. E. Scuseria, 
 M. A. Robb, J. R. Cheeseman, G. Scalmani, V. Barone, 
 G. A. Petersson, H. Nakatsuji, X. Li, M. Caricato, A. V. Marenich, 
 J. Bloino, B. G. Janesko, R. Gomperts, B. Mennucci, H. P. Hratchian, 
 J. V. Ortiz, A. F. Izmaylov, J. L. Sonnenberg, D. Williams-Young, 
 F. Ding, F. Lipparini, F. Egidi, J. Goings, B. Peng, A. Petrone, 
 T. Henderson, D. Ranasinghe, V. G. Zakrzewski, J. Gao, N. Rega, 
 G. Zheng, W. Liang, M. Hada, M. Ehara, K. Toyota, R. Fukuda, 
 J. Hasegawa, M. Ishida, T. Nakajima, Y. Honda, O. Kitao, H. Nakai, 
 T. Vreven, K. Throssell, J. A. Montgomery, Jr., J. E. Peralta, 
 F. Ogliaro, M. J. Bearpark, J. J. Heyd, E. N. Brothers, K. N. Kudin, 
 V. N. Staroverov, T. A. Keith, R. Kobayashi, J. Normand, 
 K. Raghavachari, A. P. Rendell, J. C. Burant, S. S. Iyengar, 
 J. Tomasi, M. Cossi, J. M. Millam, M. Klene, C. Adamo, R. Cammi, 
 J. W. Ochterski, R. L. Martin, K. Morokuma, O. Farkas, 
 J. B. Foresman, and D. J. Fox, Gaussian, Inc., Wallingford CT, 2016.
 
 ******************************************
 Gaussian 16:  ES64L-G16RevA.03 25-Dec-2016
                28-Mar-2025 
 ******************************************
 %chk=ethyl_propiolate.chk
 %nprocshared=4
 Will use up to    4 processors via shared memory.
 %mem=10GB
 --------------------------
 # freq 6-311++g(d,p) m062x
 --------------------------
 1/10=4,30=1,38=1/1,3;
 2/12=2,17=6,18=5,40=1/2;
 3/5=4,6=6,7=1111,11=2,25=1,30=1,71=2,74=-55,140=1/1,2,3;
 4//1;
 5/5=2,38=5,98=1/2;
 8/6=4,10=90,11=11/1;
 11/6=1,8=1,9=11,15=111,16=1/1,2,10;
 10/6=1/2;
 6/7=2,8=2,9=2,10=2,28=1/1;
 7/8=1,10=1,25=1/1,2,3,16;
 1/10=4,30=1/3;
 99//99;
 -------------------
 Title Card Required
 -------------------
 Symbolic Z-matrix:
 Charge =  0 Multiplicity = 2
 C                    -2.04005  -1.10703  -0.85835 
 H                    -2.70909  -1.81687  -1.28864 
 C                    -1.21925  -0.39477  -0.29312 
 C                    -0.54729   0.8874    0.05445 
 O                    -1.16135   1.77532   0.56392 
 O                     0.74431   0.98577  -0.22342 
 C                     1.51824  -0.08992  -0.78979 
 C                     2.60557  -0.47882   0.18732 
 H                     0.87662  -0.93902  -1.02358 
 H                     1.9327    0.30785  -1.71737 
 H                     3.21955   0.38727   0.43791 
 H                     2.16076  -0.88154   1.09706 
 H                     3.24476  -1.24243  -0.26074 
 O                    -0.30481  -1.50535   1.0066 
 H                    -1.04616  -1.65719   1.61153 
 

 GradGradGradGradGradGradGradGradGradGradGradGradGradGradGradGradGradGrad
 Berny optimization.
 Initialization pass.
 Trust Radius=3.00D-01 FncErr=1.00D-07 GrdErr=1.00D-07 EigMax=2.50D+02 EigMin=1.00D-04
 Number of steps in this run=      2 maximum allowed number of steps=      2.
 GradGradGradGradGradGradGradGradGradGradGradGradGradGradGradGradGradGrad

                          Input orientation:                          
 ---------------------------------------------------------------------
 Center     Atomic      Atomic             Coordinates (Angstroms)
 Number     Number       Type             X           Y           Z
 ---------------------------------------------------------------------
      1          6           0       -2.040047   -1.107032   -0.858352
      2          1           0       -2.709093   -1.816868   -1.288642
      3          6           0       -1.219247   -0.394766   -0.293118
      4          6           0       -0.547289    0.887403    0.054448
      5          8           0       -1.161351    1.775320    0.563919
      6          8           0        0.744311    0.985765   -0.223417
      7          6           0        1.518238   -0.089923   -0.789792
      8          6           0        2.605572   -0.478822    0.187318
      9          1           0        0.876616   -0.939019   -1.023580
     10          1           0        1.932702    0.307846   -1.717371
     11          1           0        3.219548    0.387267    0.437914
     12          1           0        2.160756   -0.881536    1.097058
     13          1           0        3.244755   -1.242427   -0.260742
     14          8           0       -0.304810   -1.505352    1.006597
     15          1           0       -1.046159   -1.657192    1.611526
 ---------------------------------------------------------------------
                    Distance matrix (angstroms):
                    1          2          3          4          5
     1  C    0.000000
     2  H    1.066133   0.000000
     3  C    1.224959   2.287593   0.000000
     4  C    2.653168   3.713539   1.488720   0.000000
     5  O    3.332104   4.327967   2.333910   1.193746   0.000000
     6  O    3.540564   4.573342   2.401309   1.324807   2.207905
     7  C    3.701433   4.593639   2.798828   2.436044   3.534383
     8  C    4.803108   5.675781   3.855791   3.438715   4.405984
     9  H    2.926167   3.701106   2.285263   2.554499   3.747145
    10  H    4.303781   5.122937   3.529439   3.102513   4.114721
    11  H    5.619304   6.556523   4.566058   3.819194   4.597265
    12  H    4.639097   5.502894   3.686998   3.398483   4.287134
    13  H    5.320207   6.069173   4.543885   4.360633   5.403761
    14  O    2.578321   3.338524   1.938777   2.586631   3.419420
    15  H    2.718600   3.346912   2.291582   3.024620   3.590667
                    6          7          8          9         10
     6  O    0.000000
     7  C    1.441127   0.000000
     8  C    2.403749   1.512707   0.000000
     9  H    2.088674   1.089633   2.160404   0.000000
    10  H    2.025770   1.091056   2.167819   1.775200   0.000000
    11  H    2.631037   2.151611   1.090814   3.063385   2.511480
    12  H    2.690127   2.144687   1.089801   2.479803   3.063927
    13  H    3.349396   2.142200   1.091973   2.506404   2.499319
    14  O    2.969723   2.924715   3.193009   2.416220   3.964108
    15  H    3.682122   3.846920   4.092928   3.340153   4.880220
                   11         12         13         14         15
    11  H    0.000000
    12  H    1.779149   0.000000
    13  H    1.773318   1.774519   0.000000
    14  O    4.040607   2.544866   3.778186   0.000000
    15  H    4.873749   3.339255   4.699932   0.968810   0.000000
 Stoichiometry    C5H7O3(2)
 Framework group  C1[X(C5H7O3)]
 Deg. of freedom    39
 Full point group                 C1      NOp   1
 Largest Abelian subgroup         C1      NOp   1
 Largest concise Abelian subgroup C1      NOp   1
                         Standard orientation:                         
 ---------------------------------------------------------------------
 Center     Atomic      Atomic             Coordinates (Angstroms)
 Number     Number       Type             X           Y           Z
 ---------------------------------------------------------------------
      1          6           0       -2.103342   -1.059682   -0.846805
      2          1           0       -2.773290   -1.770611   -1.273874
      3          6           0       -1.281938   -0.345822   -0.284466
      4          6           0       -0.607376    0.936866    0.056071
      5          8           0       -1.220235    1.829776    0.558212
      6          8           0        0.685104    1.029972   -0.219503
      7          6           0        1.457459   -0.051504   -0.776930
      8          6           0        2.541550   -0.436733    0.205224
      9          1           0        0.814121   -0.900450   -1.006511
     10          1           0        1.875068    0.338973   -1.706194
     11          1           0        3.157248    0.429390    0.451437
     12          1           0        2.093616   -0.832195    1.116614
     13          1           0        3.179720   -1.204991   -0.236278
     14          8           0       -0.373381   -1.450111    1.024703
     15          1           0       -1.116494   -1.595959    1.628942
 ---------------------------------------------------------------------
 Rotational constants (GHZ):           2.6555439           1.6793362           1.2896064
 Standard basis: 6-311++G(d,p) (5D, 7F)
 There are   233 symmetry adapted cartesian basis functions of A   symmetry.
 There are   225 symmetry adapted basis functions of A   symmetry.
   225 basis functions,   351 primitive gaussians,   233 cartesian basis functions
    31 alpha electrons       30 beta electrons
       nuclear repulsion energy       366.4689720443 Hartrees.
 NAtoms=   15 NActive=   15 NUniq=   15 SFac= 1.00D+00 NAtFMM=   60 NAOKFM=F Big=F
 Integral buffers will be    131072 words long.
 Raffenetti 2 integral format.
 Two-electron integral symmetry is turned on.
 One-electron integrals computed using PRISM.
 NBasis=   225 RedAO= T EigKep=  3.85D-06  NBF=   225
 NBsUse=   225 1.00D-06 EigRej= -1.00D+00 NBFU=   225
 ExpMin= 3.60D-02 ExpMax= 8.59D+03 ExpMxC= 1.30D+03 IAcc=3 IRadAn=         5 AccDes= 0.00D+00
 Harris functional with IExCor= 1009 and IRadAn=       5 diagonalized for initial guess.
 HarFok:  IExCor= 1009 AccDes= 0.00D+00 IRadAn=         5 IDoV= 1 UseB2=F ITyADJ=14
 ICtDFT=  3500011 ScaDFX=  1.000000  1.000000  1.000000  1.000000
 FoFCou: FMM=F IPFlag=           0 FMFlag=      100000 FMFlg1=           0
         NFxFlg=           0 DoJE=T BraDBF=F KetDBF=T FulRan=T
         wScrn=  0.000000 ICntrl=       500 IOpCl=  0 I1Cent=   200000004 NGrid=           0
         NMat0=    1 NMatS0=      1 NMatT0=    0 NMatD0=    1 NMtDS0=    0 NMtDT0=    0
 Petite list used in FoFCou.
 Initial guess <Sx>= 0.0000 <Sy>= 0.0000 <Sz>= 0.5000 <S**2>= 0.7500 S= 0.5000
 Keep R1 and R2 ints in memory in canonical form, NReq=652863693.
 Requested convergence on RMS density matrix=1.00D-08 within 128 cycles.
 Requested convergence on MAX density matrix=1.00D-06.
 Requested convergence on             energy=1.00D-06.
 No special actions if energy rises.
 SCF Done:  E(UM062X) =  -420.197569622     A.U. after   22 cycles
            NFock= 22  Conv=0.81D-08     -V/T= 2.0034
 <Sx>= 0.0000 <Sy>= 0.0000 <Sz>= 0.5000 <S**2>= 0.7811 S= 0.5154
 <L.S>=  0.00000000000    
 Annihilation of the first spin contaminant:
 S**2 before annihilation     0.7811,   after     0.7504
 DoSCS=F DFT=T ScalE2(SS,OS)=  1.000000  1.000000
 Range of M.O.s used for correlation:     1   225
 NBasis=   225 NAE=    31 NBE=    30 NFC=     0 NFV=     0
 NROrb=    225 NOA=    31 NOB=    30 NVA=   194 NVB=   195

 **** Warning!!: The largest alpha MO coefficient is  0.14944570D+03


 **** Warning!!: The largest beta MO coefficient is  0.16141317D+03

 Symmetrizing basis deriv contribution to polar:
 IMax=3 JMax=2 DiffMx= 0.00D+00
 G2DrvN: will do    16 centers at a time, making    1 passes.
 Calling FoFCou, ICntrl=  3107 FMM=F I1Cent=   0 AccDes= 0.00D+00.
 End of G2Drv F.D. properties file   721 does not exist.
 End of G2Drv F.D. properties file   722 does not exist.
 End of G2Drv F.D. properties file   788 does not exist.
          IDoAtm=111111111111111
          Differentiating once with respect to electric field.
                with respect to dipole field.
          Differentiating once with respect to nuclear coordinates.
 Keep R1 and R2 ints in memory in canonical form, NReq=652870569.
          There are    48 degrees of freedom in the 1st order CPHF.  IDoFFX=6 NUNeed=     3.
     45 vectors produced by pass  0 Test12= 2.47D-14 2.08D-09 XBig12= 8.97D+01 3.06D+00.
 AX will form    45 AO Fock derivatives at one time.
     45 vectors produced by pass  1 Test12= 2.47D-14 2.08D-09 XBig12= 1.86D+01 4.47D-01.
     45 vectors produced by pass  2 Test12= 2.47D-14 2.08D-09 XBig12= 6.62D-01 1.40D-01.
     45 vectors produced by pass  3 Test12= 2.47D-14 2.08D-09 XBig12= 9.54D-03 1.39D-02.
     45 vectors produced by pass  4 Test12= 2.47D-14 2.08D-09 XBig12= 1.15D-04 1.53D-03.
     45 vectors produced by pass  5 Test12= 2.47D-14 2.08D-09 XBig12= 1.22D-06 1.34D-04.
     42 vectors produced by pass  6 Test12= 2.47D-14 2.08D-09 XBig12= 1.03D-08 8.97D-06.
     20 vectors produced by pass  7 Test12= 2.47D-14 2.08D-09 XBig12= 7.52D-11 8.19D-07.
      4 vectors produced by pass  8 Test12= 2.47D-14 2.08D-09 XBig12= 5.69D-13 6.47D-08.
      3 vectors produced by pass  9 Test12= 2.47D-14 2.08D-09 XBig12= 5.38D-15 7.53D-09.
      1 vectors produced by pass 10 Test12= 2.47D-14 2.08D-09 XBig12= 1.81D-16 2.98D-09.
 InvSVY:  IOpt=1 It=  1 EMax= 1.60D-14
 Solved reduced A of dimension   340 with    48 vectors.
 Isotropic polarizability for W=    0.000000       75.11 Bohr**3.
 End of Minotr F.D. properties file   721 does not exist.
 End of Minotr F.D. properties file   722 does not exist.
 End of Minotr F.D. properties file   788 does not exist.

 **********************************************************************

            Population analysis using the SCF density.

 **********************************************************************

 Orbital symmetries:
 Alpha Orbitals:
       Occupied  (A) (A) (A) (A) (A) (A) (A) (A) (A) (A) (A) (A)
                 (A) (A) (A) (A) (A) (A) (A) (A) (A) (A) (A) (A)
                 (A) (A) (A) (A) (A) (A) (A)
       Virtual   (A) (A) (A) (A) (A) (A) (A) (A) (A) (A) (A) (A)
                 (A) (A) (A) (A) (A) (A) (A) (A) (A) (A) (A) (A)
                 (A) (A) (A) (A) (A) (A) (A) (A) (A) (A) (A) (A)
                 (A) (A) (A) (A) (A) (A) (A) (A) (A) (A) (A) (A)
                 (A) (A) (A) (A) (A) (A) (A) (A) (A) (A) (A) (A)
                 (A) (A) (A) (A) (A) (A) (A) (A) (A) (A) (A) (A)
                 (A) (A) (A) (A) (A) (A) (A) (A) (A) (A) (A) (A)
                 (A) (A) (A) (A) (A) (A) (A) (A) (A) (A) (A) (A)
                 (A) (A) (A) (A) (A) (A) (A) (A) (A) (A) (A) (A)
                 (A) (A) (A) (A) (A) (A) (A) (A) (A) (A) (A) (A)
                 (A) (A) (A) (A) (A) (A) (A) (A) (A) (A) (A) (A)
                 (A) (A) (A) (A) (A) (A) (A) (A) (A) (A) (A) (A)
                 (A) (A) (A) (A) (A) (A) (A) (A) (A) (A) (A) (A)
                 (A) (A) (A) (A) (A) (A) (A) (A) (A) (A) (A) (A)
                 (A) (A) (A) (A) (A) (A) (A) (A) (A) (A) (A) (A)
                 (A) (A) (A) (A) (A) (A) (A) (A) (A) (A) (A) (A)
                 (A) (A)
 Beta  Orbitals:
       Occupied  (A) (A) (A) (A) (A) (A) (A) (A) (A) (A) (A) (A)
                 (A) (A) (A) (A) (A) (A) (A) (A) (A) (A) (A) (A)
                 (A) (A) (A) (A) (A) (A)
       Virtual   (A) (A) (A) (A) (A) (A) (A) (A) (A) (A) (A) (A)
                 (A) (A) (A) (A) (A) (A) (A) (A) (A) (A) (A) (A)
                 (A) (A) (A) (A) (A) (A) (A) (A) (A) (A) (A) (A)
                 (A) (A) (A) (A) (A) (A) (A) (A) (A) (A) (A) (A)
                 (A) (A) (A) (A) (A) (A) (A) (A) (A) (A) (A) (A)
                 (A) (A) (A) (A) (A) (A) (A) (A) (A) (A) (A) (A)
                 (A) (A) (A) (A) (A) (A) (A) (A) (A) (A) (A) (A)
                 (A) (A) (A) (A) (A) (A) (A) (A) (A) (A) (A) (A)
                 (A) (A) (A) (A) (A) (A) (A) (A) (A) (A) (A) (A)
                 (A) (A) (A) (A) (A) (A) (A) (A) (A) (A) (A) (A)
                 (A) (A) (A) (A) (A) (A) (A) (A) (A) (A) (A) (A)
                 (A) (A) (A) (A) (A) (A) (A) (A) (A) (A) (A) (A)
                 (A) (A) (A) (A) (A) (A) (A) (A) (A) (A) (A) (A)
                 (A) (A) (A) (A) (A) (A) (A) (A) (A) (A) (A) (A)
                 (A) (A) (A) (A) (A) (A) (A) (A) (A) (A) (A) (A)
                 (A) (A) (A) (A) (A) (A) (A) (A) (A) (A) (A) (A)
                 (A) (A) (A)
 The electronic state is 2-A.
 Alpha  occ. eigenvalues --  -19.67970 -19.65987 -19.62694 -10.70850 -10.61620
 Alpha  occ. eigenvalues --  -10.60654 -10.60143 -10.53233  -1.25175  -1.16538
 Alpha  occ. eigenvalues --   -1.12215  -0.91470  -0.88121  -0.76694  -0.73950
 Alpha  occ. eigenvalues --   -0.65135  -0.62758  -0.59343  -0.56372  -0.54317
 Alpha  occ. eigenvalues --   -0.53366  -0.49583  -0.47649  -0.47182  -0.44805
 Alpha  occ. eigenvalues --   -0.42154  -0.41168  -0.40471  -0.37569  -0.36763
 Alpha  occ. eigenvalues --   -0.34024
 Alpha virt. eigenvalues --   -0.01165  -0.00769   0.00530   0.01027   0.02051
 Alpha virt. eigenvalues --    0.02434   0.03205   0.04666   0.05538   0.05928
 Alpha virt. eigenvalues --    0.07093   0.07384   0.08570   0.09394   0.09980
 Alpha virt. eigenvalues --    0.11089   0.11177   0.11933   0.12750   0.13558
 Alpha virt. eigenvalues --    0.13722   0.14091   0.14622   0.15097   0.15336
 Alpha virt. eigenvalues --    0.16384   0.17963   0.18559   0.19201   0.20101
 Alpha virt. eigenvalues --    0.20973   0.22035   0.22292   0.23423   0.23837
 Alpha virt. eigenvalues --    0.25558   0.26912   0.27740   0.30179   0.30778
 Alpha virt. eigenvalues --    0.31340   0.32162   0.32748   0.33440   0.33767
 Alpha virt. eigenvalues --    0.34959   0.36672   0.37500   0.37639   0.40320
 Alpha virt. eigenvalues --    0.41015   0.41858   0.46199   0.47742   0.48911
 Alpha virt. eigenvalues --    0.50777   0.52479   0.54173   0.57521   0.59000
 Alpha virt. eigenvalues --    0.60148   0.61220   0.64922   0.65674   0.66957
 Alpha virt. eigenvalues --    0.68826   0.69404   0.70779   0.71604   0.73776
 Alpha virt. eigenvalues --    0.74479   0.75994   0.76968   0.78556   0.79279
 Alpha virt. eigenvalues --    0.81243   0.85088   0.91115   0.92093   0.96940
 Alpha virt. eigenvalues --    1.00177   1.04996   1.06474   1.08141   1.14000
 Alpha virt. eigenvalues --    1.17664   1.19201   1.21087   1.23309   1.25661
 Alpha virt. eigenvalues --    1.27193   1.29306   1.30286   1.30988   1.31811
 Alpha virt. eigenvalues --    1.33019   1.37672   1.40462   1.43552   1.44850
 Alpha virt. eigenvalues --    1.46925   1.47731   1.51976   1.53454   1.56590
 Alpha virt. eigenvalues --    1.58752   1.60655   1.61920   1.62538   1.63971
 Alpha virt. eigenvalues --    1.65745   1.69211   1.72244   1.73890   1.76400
 Alpha virt. eigenvalues --    1.77937   1.80509   1.83722   1.85686   1.90338
 Alpha virt. eigenvalues --    1.92308   1.94712   1.98679   2.02006   2.05660
 Alpha virt. eigenvalues --    2.12059   2.12616   2.14529   2.21548   2.30816
 Alpha virt. eigenvalues --    2.34495   2.34968   2.44257   2.52444   2.52929
 Alpha virt. eigenvalues --    2.54539   2.56448   2.59095   2.62106   2.64527
 Alpha virt. eigenvalues --    2.65244   2.67679   2.70338   2.73791   2.74959
 Alpha virt. eigenvalues --    2.80235   2.81377   2.84802   2.86711   2.90709
 Alpha virt. eigenvalues --    2.93124   2.94932   3.00897   3.02812   3.04744
 Alpha virt. eigenvalues --    3.10669   3.13625   3.16694   3.18829   3.20392
 Alpha virt. eigenvalues --    3.28285   3.32097   3.34081   3.37320   3.41642
 Alpha virt. eigenvalues --    3.44241   3.49307   3.61627   3.76565   3.85226
 Alpha virt. eigenvalues --    3.85940   3.88449   3.95071   4.03037   4.12848
 Alpha virt. eigenvalues --    4.18839   4.29186   5.12065   5.15909   5.18376
 Alpha virt. eigenvalues --    5.21053   5.28469   5.42935   5.62641   5.70437
 Alpha virt. eigenvalues --    5.99394  23.58056  23.92935  23.93997  24.06001
 Alpha virt. eigenvalues --   24.92653  49.97704  50.01463  50.13101
  Beta  occ. eigenvalues --  -19.67964 -19.64779 -19.62719 -10.70819 -10.61711
  Beta  occ. eigenvalues --  -10.60658 -10.59794 -10.53231  -1.25160  -1.16576
  Beta  occ. eigenvalues --   -1.07702  -0.90037  -0.88047  -0.76282  -0.73621
  Beta  occ. eigenvalues --   -0.64746  -0.62293  -0.58905  -0.56308  -0.52859
  Beta  occ. eigenvalues --   -0.52169  -0.47863  -0.47531  -0.44700  -0.42059
  Beta  occ. eigenvalues --   -0.41435  -0.39949  -0.38636  -0.37486  -0.35877
  Beta virt. eigenvalues --   -0.11107  -0.00686  -0.00191   0.00609   0.01311
  Beta virt. eigenvalues --    0.02304   0.02602   0.03427   0.04577   0.05733
  Beta virt. eigenvalues --    0.06037   0.07088   0.07427   0.08498   0.09453
  Beta virt. eigenvalues --    0.10291   0.11267   0.11342   0.11889   0.12874
  Beta virt. eigenvalues --    0.13301   0.13831   0.14617   0.14699   0.15229
  Beta virt. eigenvalues --    0.15444   0.16655   0.17776   0.18607   0.19368
  Beta virt. eigenvalues --    0.20161   0.20929   0.22042   0.22593   0.23411
  Beta virt. eigenvalues --    0.24016   0.25581   0.26939   0.27429   0.30188
  Beta virt. eigenvalues --    0.30843   0.31351   0.32178   0.32729   0.33423
  Beta virt. eigenvalues --    0.33752   0.34824   0.36713   0.37528   0.37714
  Beta virt. eigenvalues --    0.40398   0.41099   0.41827   0.46195   0.47742
  Beta virt. eigenvalues --    0.49036   0.50809   0.52491   0.54197   0.58127
  Beta virt. eigenvalues --    0.59448   0.60286   0.61682   0.64954   0.65503
  Beta virt. eigenvalues --    0.67081   0.68715   0.69344   0.70720   0.71570
  Beta virt. eigenvalues --    0.73716   0.74557   0.75964   0.76832   0.78414
  Beta virt. eigenvalues --    0.79216   0.81122   0.85134   0.91135   0.92609
  Beta virt. eigenvalues --    0.97068   1.00374   1.05027   1.06792   1.08194
  Beta virt. eigenvalues --    1.14697   1.18607   1.20268   1.21377   1.23943
  Beta virt. eigenvalues --    1.25839   1.27706   1.29525   1.30433   1.31667
  Beta virt. eigenvalues --    1.32406   1.34533   1.37803   1.41080   1.43868
  Beta virt. eigenvalues --    1.45033   1.47315   1.49000   1.52517   1.53720
  Beta virt. eigenvalues --    1.56944   1.58991   1.60702   1.61951   1.62560
  Beta virt. eigenvalues --    1.64011   1.65755   1.69282   1.72288   1.73937
  Beta virt. eigenvalues --    1.76459   1.78050   1.80626   1.83870   1.85923
  Beta virt. eigenvalues --    1.90425   1.92757   1.94882   1.98855   2.02355
  Beta virt. eigenvalues --    2.05695   2.12437   2.13127   2.14645   2.21582
  Beta virt. eigenvalues --    2.30863   2.34611   2.35014   2.44317   2.52443
  Beta virt. eigenvalues --    2.53061   2.54763   2.56473   2.59997   2.62165
  Beta virt. eigenvalues --    2.65041   2.65271   2.68169   2.70388   2.74106
  Beta virt. eigenvalues --    2.75329   2.80799   2.83054   2.85574   2.89291
  Beta virt. eigenvalues --    2.90757   2.93223   2.95314   3.01059   3.02848
  Beta virt. eigenvalues --    3.07690   3.10932   3.13870   3.19929   3.20472
  Beta virt. eigenvalues --    3.22742   3.28444   3.32964   3.34373   3.37406
  Beta virt. eigenvalues --    3.42002   3.44219   3.50003   3.61598   3.76566
  Beta virt. eigenvalues --    3.85318   3.86186   3.88453   3.97284   4.03035
  Beta virt. eigenvalues --    4.12617   4.18833   4.29185   5.13061   5.17621
  Beta virt. eigenvalues --    5.21081   5.23696   5.28837   5.42941   5.64911
  Beta virt. eigenvalues --    5.70404   5.99384  23.58150  23.92943  23.93997
  Beta virt. eigenvalues --   24.06002  24.93262  49.97368  50.01143  50.13123
          Condensed to atoms (all electrons):
               1          2          3          4          5          6
     1  C   13.784224   0.460845  -3.561323  -3.498437  -0.130486  -0.034439
     2  H    0.460845   0.421682  -0.109400  -0.000929  -0.001545  -0.001779
     3  C   -3.561323  -0.109400   9.331520  -0.024090  -0.092683  -0.195052
     4  C   -3.498437  -0.000929  -0.024090   8.708772   0.568437   0.102513
     5  O   -0.130486  -0.001545  -0.092683   0.568437   7.990374  -0.077322
     6  O   -0.034439  -0.001779  -0.195052   0.102513  -0.077322   8.181418
     7  C   -0.328436  -0.001225  -0.032633   0.285033  -0.006987   0.268657
     8  C   -0.010812  -0.000438   0.071138  -0.065550   0.010411  -0.173446
     9  H    0.060837  -0.001309   0.056117  -0.111937  -0.002573  -0.027353
    10  H   -0.030376   0.001086  -0.059750   0.070680   0.000394  -0.055516
    11  H    0.003554   0.000052  -0.001882   0.003888   0.001301  -0.019151
    12  H   -0.017331   0.000139  -0.029546   0.031850  -0.000998   0.004598
    13  H   -0.001772   0.000125   0.000035  -0.004652  -0.000067   0.022918
    14  O   -0.417212  -0.004744   0.353361  -0.063419  -0.009779   0.029386
    15  H    0.053004   0.000282   0.021207  -0.016914  -0.002869  -0.002787
               7          8          9         10         11         12
     1  C   -0.328436  -0.010812   0.060837  -0.030376   0.003554  -0.017331
     2  H   -0.001225  -0.000438  -0.001309   0.001086   0.000052   0.000139
     3  C   -0.032633   0.071138   0.056117  -0.059750  -0.001882  -0.029546
     4  C    0.285033  -0.065550  -0.111937   0.070680   0.003888   0.031850
     5  O   -0.006987   0.010411  -0.002573   0.000394   0.001301  -0.000998
     6  O    0.268657  -0.173446  -0.027353  -0.055516  -0.019151   0.004598
     7  C    5.488984   0.019407   0.375098   0.428040  -0.037960  -0.049835
     8  C    0.019407   5.461573  -0.021445  -0.053226   0.419332   0.406841
     9  H    0.375098  -0.021445   0.544739  -0.034627  -0.000178  -0.002292
    10  H    0.428040  -0.053226  -0.034627   0.513992  -0.004958   0.005663
    11  H   -0.037960   0.419332  -0.000178  -0.004958   0.535271  -0.036762
    12  H   -0.049835   0.406841  -0.002292   0.005663  -0.036762   0.528665
    13  H   -0.027177   0.386152  -0.011919   0.003794  -0.038121  -0.029932
    14  O   -0.022203  -0.005108  -0.008216   0.004242  -0.001680   0.003959
    15  H    0.002217  -0.003412  -0.004106   0.000211  -0.000010   0.000166
              13         14         15
     1  C   -0.001772  -0.417212   0.053004
     2  H    0.000125  -0.004744   0.000282
     3  C    0.000035   0.353361   0.021207
     4  C   -0.004652  -0.063419  -0.016914
     5  O   -0.000067  -0.009779  -0.002869
     6  O    0.022918   0.029386  -0.002787
     7  C   -0.027177  -0.022203   0.002217
     8  C    0.386152  -0.005108  -0.003412
     9  H   -0.011919  -0.008216  -0.004106
    10  H    0.003794   0.004242   0.000211
    11  H   -0.038121  -0.001680  -0.000010
    12  H   -0.029932   0.003959   0.000166
    13  H    0.548664   0.001310   0.000161
    14  O    0.001310   8.197541   0.226867
    15  H    0.000161   0.226867   0.476197
          Atomic-Atomic Spin Densities.
               1          2          3          4          5          6
     1  C    1.706227   0.041672  -0.696396  -0.227277   0.009557  -0.016504
     2  H    0.041672  -0.013351  -0.041149  -0.007212  -0.000055  -0.000297
     3  C   -0.696396  -0.041149   0.301811   0.175635   0.010322   0.007891
     4  C   -0.227277  -0.007212   0.175635   0.042316  -0.014354   0.000755
     5  O    0.009557  -0.000055   0.010322  -0.014354  -0.017592   0.000044
     6  O   -0.016504  -0.000297   0.007891   0.000755   0.000044   0.006759
     7  C    0.053731   0.000800   0.006871  -0.052037  -0.000493   0.000619
     8  C   -0.044914  -0.000588  -0.002590   0.037873  -0.000206   0.000378
     9  H    0.000255   0.000137  -0.001077   0.009842   0.000683  -0.001401
    10  H    0.016051   0.000351  -0.002509  -0.012399  -0.000033  -0.000356
    11  H   -0.000821  -0.000021   0.001389  -0.000591  -0.000029   0.000247
    12  H    0.008698   0.000149   0.000046  -0.008112  -0.000016  -0.000453
    13  H   -0.000765   0.000003  -0.000817   0.001614  -0.000001   0.000037
    14  O   -0.327253  -0.005685   0.074770   0.102359   0.001702   0.001862
    15  H    0.040981   0.000719  -0.023172  -0.013897  -0.000100   0.000252
               7          8          9         10         11         12
     1  C    0.053731  -0.044914   0.000255   0.016051  -0.000821   0.008698
     2  H    0.000800  -0.000588   0.000137   0.000351  -0.000021   0.000149
     3  C    0.006871  -0.002590  -0.001077  -0.002509   0.001389   0.000046
     4  C   -0.052037   0.037873   0.009842  -0.012399  -0.000591  -0.008112
     5  O   -0.000493  -0.000206   0.000683  -0.000033  -0.000029  -0.000016
     6  O    0.000619   0.000378  -0.001401  -0.000356   0.000247  -0.000453
     7  C   -0.011895  -0.003963   0.008867   0.001296  -0.001552   0.002451
     8  C   -0.003963   0.017262  -0.004494  -0.003077   0.000908  -0.001190
     9  H    0.008867  -0.004494  -0.003197   0.000781   0.000022   0.000714
    10  H    0.001296  -0.003077   0.000781   0.002119  -0.000524   0.000706
    11  H   -0.001552   0.000908   0.000022  -0.000524   0.000531  -0.000763
    12  H    0.002451  -0.001190   0.000714   0.000706  -0.000763  -0.001912
    13  H    0.001246  -0.001379  -0.000460  -0.000040   0.000390   0.000003
    14  O    0.003337   0.001978  -0.007911  -0.001331   0.000371   0.000359
    15  H   -0.000456  -0.000782   0.001028   0.000102  -0.000045   0.000046
              13         14         15
     1  C   -0.000765  -0.327253   0.040981
     2  H    0.000003  -0.005685   0.000719
     3  C   -0.000817   0.074770  -0.023172
     4  C    0.001614   0.102359  -0.013897
     5  O   -0.000001   0.001702  -0.000100
     6  O    0.000037   0.001862   0.000252
     7  C    0.001246   0.003337  -0.000456
     8  C   -0.001379   0.001978  -0.000782
     9  H   -0.000460  -0.007911   0.001028
    10  H   -0.000040  -0.001331   0.000102
    11  H    0.000390   0.000371  -0.000045
    12  H    0.000003   0.000359   0.000046
    13  H    0.000056  -0.000279   0.000044
    14  O   -0.000279   0.780451   0.005561
    15  H    0.000044   0.005561  -0.022942
 Mulliken charges and spin densities:
               1          2
     1  C   -0.331839   0.563243
     2  H    0.237157  -0.024527
     3  C    0.272982  -0.188974
     4  C    0.014755   0.034514
     5  O   -0.245608  -0.010574
     6  O   -0.022646  -0.000167
     7  C   -0.360981   0.008823
     8  C   -0.441416  -0.004784
     9  H    0.189164   0.003790
    10  H    0.210350   0.001135
    11  H    0.177305  -0.000487
    12  H    0.184816   0.000726
    13  H    0.150482  -0.000349
    14  O   -0.284305   0.630292
    15  H    0.249783  -0.012661
 Sum of Mulliken charges =  -0.00000   1.00000
 Mulliken charges and spin densities with hydrogens summed into heavy atoms:
               1          2
     1  C   -0.094681   0.538716
     3  C    0.272982  -0.188974
     4  C    0.014755   0.034514
     5  O   -0.245608  -0.010574
     6  O   -0.022646  -0.000167
     7  C    0.038533   0.013748
     8  C    0.071187  -0.004895
    14  O   -0.034522   0.617631
 APT charges:
               1
     1  C   -0.092928
     2  H    0.242847
     3  C   -0.402112
     4  C    1.525305
     5  O   -0.848853
     6  O   -0.931895
     7  C    0.509692
     8  C   -0.023270
     9  H   -0.013446
    10  H   -0.032180
    11  H    0.010132
    12  H    0.037942
    13  H    0.004570
    14  O   -0.229137
    15  H    0.243334
 Sum of APT charges =  -0.00000
 APT charges with hydrogens summed into heavy atoms:
               1
     1  C    0.149919
     3  C   -0.402112
     4  C    1.525305
     5  O   -0.848853
     6  O   -0.931895
     7  C    0.464066
     8  C    0.029374
    14  O    0.014196
 Electronic spatial extent (au):  <R**2>=            991.5527
 Charge=             -0.0000 electrons
 Dipole moment (field-independent basis, Debye):
    X=             -0.3553    Y=             -3.6706    Z=             -1.9974  Tot=              4.1939
 Quadrupole moment (field-independent basis, Debye-Ang):
   XX=            -40.2492   YY=            -53.1152   ZZ=            -44.0250
   XY=              7.7785   XZ=              0.9045   YZ=             -0.9280
 Traceless Quadrupole moment (field-independent basis, Debye-Ang):
   XX=              5.5473   YY=             -7.3188   ZZ=              1.7715
   XY=              7.7785   XZ=              0.9045   YZ=             -0.9280
 Octapole moment (field-independent basis, Debye-Ang**2):
  XXX=             -5.5300  YYY=            -10.1517  ZZZ=              8.2258  XYY=             -4.3262
  XXY=            -20.3204  XXZ=             -8.0001  XZZ=             -5.2630  YZZ=             -5.7449
  YYZ=             -4.6099  XYZ=              0.2649
 Hexadecapole moment (field-independent basis, Debye-Ang**3):
 XXXX=           -698.9566 YYYY=           -402.0025 ZZZZ=           -167.0292 XXXY=             47.8156
 XXXZ=             14.7632 YYYX=             28.4644 YYYZ=             -5.6871 ZZZX=            -12.9699
 ZZZY=            -12.9599 XXYY=           -164.3109 XXZZ=           -136.2785 YYZZ=            -81.0891
 XXYZ=             10.5701 YYXZ=              8.5585 ZZXY=             16.6984
 N-N= 3.664689720443D+02 E-N=-1.717494750581D+03  KE= 4.187596725323D+02
  Exact polarizability:  86.680  -0.883  70.721  10.027   1.264  67.916
 Approx polarizability:  94.050   0.510  84.333  11.320   6.358  80.834
                          Isotropic Fermi Contact Couplings
        Atom                 a.u.       MegaHertz       Gauss      10(-4) cm-1
     1  C(13)              0.07308      82.15969      29.31662      27.40552
     2  H(1)              -0.00899     -40.18401     -14.33865     -13.40394
     3  C(13)              0.00627       7.05276       2.51660       2.35255
     4  C(13)              0.01857      20.87807       7.44981       6.96417
     5  O(17)             -0.00454       2.75372       0.98260       0.91854
     6  O(17)              0.00069      -0.41541      -0.14823      -0.13857
     7  C(13)             -0.00191      -2.14842      -0.76661      -0.71664
     8  C(13)              0.00065       0.73066       0.26072       0.24372
     9  H(1)               0.00018       0.80061       0.28568       0.26705
    10  H(1)               0.00013       0.59943       0.21389       0.19995
    11  H(1)              -0.00002      -0.08404      -0.02999      -0.02803
    12  H(1)               0.00011       0.48426       0.17280       0.16153
    13  H(1)              -0.00003      -0.14039      -0.05009      -0.04683
    14  O(17)              0.13129     -79.58854     -28.39917     -26.54788
    15  H(1)              -0.01097     -49.03971     -17.49859     -16.35789
 --------------------------------------------------------
       Center         ----  Spin Dipole Couplings  ----
                      3XX-RR        3YY-RR        3ZZ-RR
 --------------------------------------------------------
     1   Atom       -0.171276      0.111668      0.059608
     2   Atom        0.000389      0.011075     -0.011463
     3   Atom       -0.004220      0.035905     -0.031685
     4   Atom       -0.013981      0.024014     -0.010033
     5   Atom        0.003375      0.054934     -0.058309
     6   Atom        0.006563      0.008762     -0.015325
     7   Atom        0.001101     -0.002094      0.000994
     8   Atom        0.003711     -0.002652     -0.001059
     9   Atom        0.001310     -0.006446      0.005136
    10   Atom        0.000956     -0.000853     -0.000103
    11   Atom        0.001972     -0.000540     -0.001432
    12   Atom        0.009997     -0.004723     -0.005274
    13   Atom        0.003140     -0.001878     -0.001262
    14   Atom        0.194328     -0.833189      0.638861
    15   Atom        0.050353     -0.080780      0.030427
 --------------------------------------------------------
                        XY            XZ            YZ
 --------------------------------------------------------
     1   Atom       -0.239527      0.143490     -0.371858
     2   Atom        0.027615      0.030060      0.009905
     3   Atom        0.075144      0.038715      0.031777
     4   Atom        0.009040      0.004698     -0.008599
     5   Atom        0.008805     -0.051764     -0.018628
     6   Atom        0.021172     -0.016095     -0.008353
     7   Atom        0.001448     -0.003921     -0.003414
     8   Atom        0.003217     -0.003146     -0.001983
     9   Atom        0.002562     -0.006324     -0.003748
    10   Atom        0.001475     -0.001631     -0.001263
    11   Atom        0.001943     -0.000332     -0.000245
    12   Atom        0.004923     -0.000243     -0.000535
    13   Atom        0.000327     -0.001573     -0.000111
    14   Atom       -0.823221      1.710505     -0.930289
    15   Atom        0.013002     -0.077284     -0.034596
 --------------------------------------------------------


 ---------------------------------------------------------------------------------
              Anisotropic Spin Dipole Couplings in Principal Axis System
 ---------------------------------------------------------------------------------

       Atom             a.u.   MegaHertz   Gauss  10(-4) cm-1        Axes

              Baa    -0.3356   -45.031   -16.068   -15.021  0.6236  0.6695  0.4036
     1 C(13)  Bbb    -0.2252   -30.223   -10.784   -10.081  0.6985 -0.2454 -0.6722
              Bcc     0.5608    75.254    26.853    25.102 -0.3510  0.7011 -0.6207
 
              Baa    -0.0388   -20.678    -7.378    -6.897  0.6947 -0.2510 -0.6741
     2 H(1)   Bbb    -0.0083    -4.418    -1.576    -1.474 -0.3078  0.7432 -0.5940
              Bcc     0.0470    25.096     8.955     8.371  0.6501  0.6202  0.4391
 
              Baa    -0.0679    -9.114    -3.252    -3.040  0.7796 -0.4228 -0.4621
     3 C(13)  Bbb    -0.0425    -5.707    -2.036    -1.904  0.2025 -0.5281  0.8247
              Bcc     0.1105    14.821     5.289     4.944  0.5927  0.7365  0.3261
 
              Baa    -0.0205    -2.754    -0.983    -0.919  0.7782 -0.2677 -0.5681
     4 C(13)  Bbb    -0.0070    -0.941    -0.336    -0.314  0.5994  0.0468  0.7991
              Bcc     0.0275     3.695     1.318     1.232  0.1873  0.9624 -0.1969
 
              Baa    -0.0887     6.419     2.291     2.141  0.4822  0.0835  0.8721
     5 O(17)  Bbb     0.0240    -1.734    -0.619    -0.579  0.7937 -0.4630 -0.3945
              Bcc     0.0647    -4.685    -1.672    -1.563  0.3708  0.8824 -0.2896
 
              Baa    -0.0242     1.748     0.624     0.583  0.5268 -0.1255  0.8407
     6 O(17)  Bbb    -0.0106     0.770     0.275     0.257 -0.5112  0.7434  0.4313
              Bcc     0.0348    -2.519    -0.899    -0.840  0.6791  0.6570 -0.3275
 
              Baa    -0.0045    -0.608    -0.217    -0.203  0.2503  0.7343  0.6310
     7 C(13)  Bbb    -0.0019    -0.249    -0.089    -0.083  0.7473 -0.5609  0.3563
              Bcc     0.0064     0.857     0.306     0.286 -0.6155 -0.3824  0.6891
 
              Baa    -0.0042    -0.566    -0.202    -0.189 -0.2362  0.9115  0.3368
     8 C(13)  Bbb    -0.0026    -0.343    -0.123    -0.115  0.5126 -0.1776  0.8400
              Bcc     0.0068     0.910     0.325     0.303  0.8255  0.3710 -0.4253
 
              Baa    -0.0076    -4.072    -1.453    -1.358 -0.1174  0.9671  0.2258
     9 H(1)   Bbb    -0.0034    -1.802    -0.643    -0.601  0.8101 -0.0382  0.5850
              Bcc     0.0110     5.874     2.096     1.959 -0.5744 -0.2516  0.7790
 
              Baa    -0.0018    -0.981    -0.350    -0.327 -0.1990  0.8718  0.4476
    10 H(1)   Bbb    -0.0013    -0.669    -0.239    -0.223  0.6683 -0.2134  0.7127
              Bcc     0.0031     1.650     0.589     0.550  0.7168  0.4409 -0.5402
 
              Baa    -0.0016    -0.864    -0.308    -0.288 -0.4205  0.8371  0.3500
    11 H(1)   Bbb    -0.0014    -0.773    -0.276    -0.258  0.2427 -0.2679  0.9324
              Bcc     0.0031     1.636     0.584     0.546  0.8742  0.4770 -0.0905
 
              Baa    -0.0064    -3.411    -1.217    -1.138 -0.2623  0.8916  0.3691
    12 H(1)   Bbb    -0.0051    -2.725    -0.972    -0.909  0.1280 -0.3470  0.9291
              Bcc     0.0115     6.136     2.190     2.047  0.9565  0.2910 -0.0231
 
              Baa    -0.0019    -1.014    -0.362    -0.338 -0.0461  0.9971  0.0599
    13 H(1)   Bbb    -0.0018    -0.942    -0.336    -0.314  0.3076 -0.0429  0.9505
              Bcc     0.0037     1.956     0.698     0.652  0.9504  0.0622 -0.3047
 
              Baa    -1.3090    94.718    33.798    31.595  0.7779  0.1553 -0.6089
    14 O(17)  Bbb    -1.2830    92.837    33.126    30.967  0.0979  0.9272  0.3616
              Bcc     2.5920  -187.555   -66.924   -62.562  0.6207 -0.3409  0.7060
 
              Baa    -0.0915   -48.798   -17.412   -16.277  0.0906  0.9415  0.3247
    15 H(1)   Bbb    -0.0321   -17.131    -6.113    -5.714  0.6775 -0.2973  0.6728
              Bcc     0.1236    65.929    23.525    21.991  0.7300  0.1590 -0.6647
 

 ---------------------------------------------------------------------------------

 Calling FoFJK, ICntrl=    100127 FMM=F ISym2X=0 I1Cent= 0 IOpClX= 1 NMat=1 NMatS=1 NMatT=0.
 Full mass-weighted force constant matrix:
 Low frequencies --- -642.5675   -0.0012   -0.0009   -0.0008    8.4786   24.9143
 Low frequencies ---   36.4642   87.2433  104.7073
 ******    1 imaginary frequencies (negative Signs) ****** 
 Diagonal vibrational polarizability:
       21.0709741      58.4351831      29.5221568
 Harmonic frequencies (cm**-1), IR intensities (KM/Mole), Raman scattering
 activities (A**4/AMU), depolarization ratios for plane and unpolarized
 incident light, reduced masses (AMU), force constants (mDyne/A),
 and normal coordinates:
                      1                      2                      3
                      A                      A                      A
 Frequencies --   -642.5675                87.1867               103.8667
 Red. masses --     12.2792                 6.1043                 3.7247
 Frc consts  --      2.9872                 0.0273                 0.0237
 IR Inten    --     39.0213                 0.3405                 3.6312
  Atom  AN      X      Y      Z        X      Y      Z        X      Y      Z
     1   6    -0.02   0.09  -0.04    -0.05   0.01   0.06    -0.09   0.01   0.19
     2   1    -0.02   0.11  -0.09    -0.07   0.01   0.07    -0.16   0.02   0.29
     3   6     0.32  -0.47   0.58    -0.03   0.01   0.02     0.02   0.00   0.04
     4   6     0.01  -0.03   0.03    -0.05   0.03   0.00    -0.00   0.04  -0.04
     5   8    -0.02  -0.02  -0.04    -0.14   0.12  -0.28    -0.03   0.05  -0.10
     6   8    -0.00   0.01  -0.02     0.04  -0.09   0.38    -0.00   0.07  -0.03
     7   6     0.01   0.01  -0.01    -0.02   0.02   0.08     0.03   0.07   0.01
     8   6     0.00   0.00   0.00     0.19  -0.06  -0.19    -0.16  -0.12   0.15
     9   1     0.04  -0.01  -0.02    -0.02   0.01   0.11     0.01   0.15  -0.22
    10   1     0.02   0.02   0.00    -0.22   0.15   0.04     0.22   0.16   0.13
    11   1     0.00  -0.00   0.01     0.17  -0.05  -0.16    -0.13  -0.19   0.34
    12   1    -0.02  -0.01  -0.01     0.38  -0.23  -0.17    -0.33  -0.19   0.03
    13   1     0.00   0.00   0.00     0.16   0.06  -0.43    -0.14  -0.11   0.16
    14   8    -0.22   0.30  -0.34     0.04  -0.02  -0.04     0.20  -0.10  -0.16
    15   1    -0.02   0.13  -0.16     0.04  -0.17  -0.08     0.26  -0.24  -0.12
                      4                      5                      6
                      A                      A                      A
 Frequencies --    108.7882               183.6210               191.3334
 Red. masses --      3.0810                 2.6362                 3.1050
 Frc consts  --      0.0215                 0.0524                 0.0670
 IR Inten    --      2.2770                40.9797                 3.2116
  Atom  AN      X      Y      Z        X      Y      Z        X      Y      Z
     1   6    -0.18   0.10   0.07    -0.00   0.01  -0.08    -0.20   0.00   0.05
     2   1    -0.28   0.17   0.11     0.01   0.04  -0.16    -0.33   0.04   0.21
     3   6    -0.05   0.01   0.00    -0.05   0.01  -0.02    -0.03  -0.02  -0.16
     4   6     0.01  -0.02  -0.02    -0.04  -0.00   0.02     0.01  -0.07  -0.05
     5   8     0.05   0.00  -0.01    -0.01  -0.00   0.05    -0.01  -0.15   0.05
     6   8     0.00  -0.05  -0.05    -0.04  -0.06   0.01     0.02  -0.04   0.04
     7   6     0.02  -0.10   0.07    -0.07  -0.11   0.05     0.10   0.04  -0.00
     8   6     0.13   0.21   0.08    -0.02  -0.03   0.02     0.05  -0.02   0.03
     9   1     0.07  -0.20   0.31    -0.08  -0.12   0.15     0.13   0.04  -0.13
    10   1    -0.08  -0.26  -0.04    -0.12  -0.18  -0.00     0.15   0.14   0.06
    11   1     0.07   0.32  -0.15     0.12  -0.06  -0.22    -0.15   0.05   0.32
    12   1     0.22   0.38   0.20     0.02   0.22   0.15     0.03  -0.34  -0.12
    13   1     0.17   0.16   0.22    -0.17  -0.21   0.13     0.27   0.23  -0.10
    14   8    -0.01  -0.13  -0.12     0.19   0.20  -0.03     0.02   0.21  -0.02
    15   1     0.02  -0.12  -0.08     0.06  -0.62  -0.38     0.08   0.43   0.11
                      7                      8                      9
                      A                      A                      A
 Frequencies --    210.9738               232.7470               273.8735
 Red. masses --      1.3554                 1.5709                 2.6185
 Frc consts  --      0.0355                 0.0501                 0.1157
 IR Inten    --     35.7544                 0.9963                12.6878
  Atom  AN      X      Y      Z        X      Y      Z        X      Y      Z
     1   6     0.04  -0.06   0.01    -0.07   0.04   0.03    -0.04   0.21  -0.15
     2   1     0.10  -0.15   0.07    -0.17   0.12   0.07    -0.16   0.45  -0.37
     3   6    -0.01   0.03  -0.03     0.05  -0.04  -0.04     0.04  -0.06   0.07
     4   6    -0.01   0.02  -0.00     0.03  -0.03  -0.02    -0.01  -0.04   0.02
     5   8    -0.01   0.01   0.03    -0.05  -0.08  -0.02    -0.07  -0.04  -0.05
     6   8    -0.01  -0.00   0.04     0.04   0.06   0.02    -0.02  -0.00  -0.03
     7   6    -0.04  -0.03   0.04     0.05   0.08  -0.01    -0.04  -0.03   0.01
     8   6    -0.01  -0.02   0.01     0.01  -0.02  -0.02    -0.03  -0.01   0.00
     9   1    -0.05  -0.03   0.09     0.03   0.10  -0.06    -0.04  -0.03   0.03
    10   1    -0.07  -0.08   0.00     0.06   0.11   0.01    -0.04  -0.06  -0.01
    11   1     0.17  -0.08  -0.21     0.40  -0.20  -0.34    -0.08   0.02   0.04
    12   1     0.01   0.22   0.12    -0.05   0.43   0.15    -0.01  -0.08  -0.02
    13   1    -0.18  -0.21   0.09    -0.35  -0.42   0.15     0.03   0.05  -0.03
    14   8     0.03   0.01  -0.11    -0.03  -0.01   0.06     0.15  -0.06   0.11
    15   1     0.24   0.72   0.33    -0.11  -0.11  -0.06     0.30   0.45   0.43
                     10                     11                     12
                      A                      A                      A
 Frequencies --    364.6833               403.3006               545.9854
 Red. masses --      2.9434                 3.4036                 5.2076
 Frc consts  --      0.2306                 0.3262                 0.9146
 IR Inten    --      0.5453                 7.4789                23.7887
  Atom  AN      X      Y      Z        X      Y      Z        X      Y      Z
     1   6     0.04   0.04   0.07    -0.02  -0.02  -0.04    -0.14  -0.18  -0.10
     2   1    -0.04   0.03   0.22     0.08  -0.06  -0.15    -0.40   0.14  -0.25
     3   6     0.17   0.02  -0.09    -0.14   0.03   0.09    -0.04  -0.24  -0.08
     4   6     0.05   0.06  -0.04    -0.10   0.02   0.01     0.01  -0.05  -0.05
     5   8    -0.12  -0.09   0.02    -0.06   0.04   0.03     0.29   0.10  -0.01
     6   8     0.04   0.16  -0.06    -0.10   0.06  -0.17    -0.01   0.15   0.03
     7   6    -0.13  -0.09   0.13     0.14   0.05   0.12    -0.14   0.16   0.18
     8   6     0.02  -0.07  -0.02     0.23  -0.14   0.02    -0.05   0.01  -0.01
     9   1    -0.24  -0.07   0.45     0.20   0.02   0.03    -0.20   0.16   0.32
    10   1    -0.23  -0.40  -0.04     0.23   0.05   0.16    -0.19  -0.05   0.07
    11   1    -0.07  -0.02   0.04     0.46  -0.31   0.03     0.09  -0.09   0.01
    12   1     0.23  -0.32  -0.03     0.38  -0.28   0.04     0.13  -0.15   0.00
    13   1     0.08   0.13  -0.28    -0.00  -0.17  -0.28    -0.20   0.05  -0.31
    14   8    -0.02  -0.01  -0.02    -0.00  -0.00  -0.01     0.03  -0.02   0.04
    15   1    -0.12  -0.06  -0.16     0.06  -0.02   0.07     0.07  -0.03   0.08
                     13                     14                     15
                      A                      A                      A
 Frequencies --    609.1319               624.1301               727.8908
 Red. masses --      1.3525                 5.2988                 1.6191
 Frc consts  --      0.2957                 1.2161                 0.5054
 IR Inten    --     31.7219                 3.3530                20.2748
  Atom  AN      X      Y      Z        X      Y      Z        X      Y      Z
     1   6     0.08  -0.11   0.09     0.01   0.07   0.01     0.07  -0.04  -0.13
     2   1    -0.44   0.73  -0.47    -0.23   0.02   0.47    -0.63   0.12   0.68
     3   6     0.01   0.03  -0.02     0.34  -0.13  -0.20    -0.06  -0.02   0.06
     4   6    -0.00   0.01   0.02    -0.17   0.09  -0.01    -0.02   0.08  -0.09
     5   8    -0.03   0.01   0.01     0.02   0.19   0.10    -0.03   0.01   0.05
     6   8    -0.01  -0.01  -0.01    -0.21  -0.16  -0.02     0.04   0.02   0.03
     7   6     0.01  -0.02  -0.02     0.01  -0.02   0.01     0.03  -0.03  -0.04
     8   6     0.01  -0.00   0.00     0.04  -0.01   0.01     0.02  -0.01   0.00
     9   1     0.02  -0.02  -0.04     0.20  -0.10  -0.26    -0.01  -0.02   0.03
    10   1     0.02   0.01  -0.00     0.10   0.22   0.15    -0.01  -0.05  -0.06
    11   1    -0.00   0.01  -0.00     0.10  -0.04  -0.05    -0.02   0.01   0.03
    12   1    -0.01   0.01   0.00     0.12  -0.02   0.05    -0.06   0.02  -0.02
    13   1     0.02  -0.01   0.03    -0.03  -0.03  -0.07     0.06  -0.02   0.09
    14   8    -0.02   0.01  -0.03     0.03  -0.04   0.06     0.00  -0.01   0.01
    15   1    -0.04   0.06  -0.04    -0.25   0.17  -0.23     0.11  -0.11   0.13
                     16                     17                     18
                      A                      A                      A
 Frequencies --    736.0229               757.0055               816.9257
 Red. masses --      3.2225                 6.5363                 1.1467
 Frc consts  --      1.0286                 2.2069                 0.4509
 IR Inten    --     37.2369                 6.9185                 8.3618
  Atom  AN      X      Y      Z        X      Y      Z        X      Y      Z
     1   6     0.13   0.04  -0.04    -0.16  -0.12  -0.10     0.02   0.02   0.01
     2   1    -0.40   0.11   0.68    -0.13  -0.24   0.03     0.01   0.02   0.03
     3   6    -0.01   0.10  -0.01     0.00  -0.16  -0.15     0.01   0.02  -0.00
     4   6     0.08  -0.20   0.24     0.08   0.02   0.47    -0.02  -0.03   0.01
     5   8     0.05  -0.04  -0.12    -0.14   0.19  -0.03     0.01  -0.00  -0.01
     6   8    -0.08  -0.04  -0.07     0.10   0.14  -0.05    -0.03  -0.03  -0.00
     7   6    -0.06   0.06   0.09     0.10  -0.12  -0.15     0.04   0.06  -0.02
     8   6    -0.04   0.03  -0.00     0.06  -0.05  -0.01     0.02   0.03  -0.01
     9   1     0.00   0.06  -0.09    -0.04  -0.06   0.04     0.12  -0.14   0.47
    10   1     0.04   0.13   0.16    -0.06  -0.19  -0.24    -0.35  -0.16  -0.29
    11   1     0.05  -0.01  -0.08    -0.14   0.07   0.08     0.20  -0.22   0.40
    12   1     0.16  -0.05   0.06    -0.23   0.11  -0.07    -0.38  -0.07  -0.25
    13   1    -0.15   0.06  -0.21     0.28  -0.08   0.39    -0.14  -0.13   0.05
    14   8    -0.02   0.03  -0.04     0.01   0.01   0.01     0.00   0.00  -0.00
    15   1    -0.05   0.07  -0.06    -0.03   0.10  -0.02    -0.00   0.01  -0.01
                     19                     20                     21
                      A                      A                      A
 Frequencies --    853.8694               961.2307              1093.2538
 Red. masses --      1.1512                 2.1920                 4.1624
 Frc consts  --      0.4945                 1.1933                 2.9311
 IR Inten    --     75.2955                18.7965                61.2276
  Atom  AN      X      Y      Z        X      Y      Z        X      Y      Z
     1   6     0.00   0.01   0.02     0.04   0.03   0.02     0.04   0.04   0.03
     2   1     0.04   0.01  -0.04     0.03   0.04   0.03     0.03   0.05   0.05
     3   6     0.05   0.00  -0.06     0.02   0.03  -0.00     0.01   0.02  -0.01
     4   6     0.00  -0.00   0.02    -0.07  -0.09  -0.03    -0.17  -0.14  -0.02
     5   8    -0.00   0.01  -0.00     0.07  -0.03  -0.03     0.07   0.00  -0.02
     6   8    -0.01  -0.01  -0.01    -0.09   0.10   0.03    -0.09   0.18   0.09
     7   6    -0.00   0.00   0.00    -0.09   0.02  -0.07     0.28  -0.16   0.08
     8   6    -0.00   0.00  -0.00     0.15  -0.13   0.03    -0.14  -0.01  -0.16
     9   1     0.02  -0.01  -0.02    -0.23   0.14  -0.10     0.30  -0.21   0.23
    10   1     0.01   0.02   0.02    -0.26   0.11  -0.11     0.35  -0.25   0.09
    11   1     0.01  -0.00  -0.01    -0.18   0.11   0.06    -0.34   0.17  -0.30
    12   1     0.01  -0.00   0.00    -0.05   0.19   0.07    -0.24   0.14  -0.16
    13   1    -0.01   0.00  -0.02     0.53  -0.12   0.59    -0.02   0.04  -0.06
    14   8    -0.06   0.02  -0.01    -0.01   0.01  -0.01    -0.00   0.01  -0.00
    15   1     0.57  -0.51   0.64     0.01  -0.02   0.01    -0.00  -0.00  -0.00
                     22                     23                     24
                      A                      A                      A
 Frequencies --   1139.4812              1178.9312              1279.8786
 Red. masses --      2.3247                 1.8103                 2.5524
 Frc consts  --      1.7784                 1.4825                 2.4634
 IR Inten    --     29.7555                49.7470               333.8364
  Atom  AN      X      Y      Z        X      Y      Z        X      Y      Z
     1   6    -0.01  -0.01  -0.01     0.01   0.01   0.01    -0.03  -0.03  -0.02
     2   1    -0.01  -0.01  -0.01     0.00   0.02   0.02    -0.02  -0.04  -0.04
     3   6    -0.00  -0.01   0.00     0.01  -0.00  -0.01    -0.01   0.00   0.01
     4   6     0.05   0.06  -0.00    -0.08  -0.04   0.01     0.23   0.12  -0.01
     5   8    -0.03   0.00   0.01    -0.02   0.03   0.01     0.01  -0.04  -0.02
     6   8     0.03  -0.09  -0.08     0.05  -0.07  -0.02    -0.18   0.01   0.03
     7   6     0.01   0.09   0.22     0.07   0.17  -0.04     0.11   0.00  -0.03
     8   6     0.01  -0.06  -0.17    -0.07  -0.10   0.04    -0.06  -0.08   0.04
     9   1     0.02   0.12   0.10    -0.12   0.20   0.41     0.23  -0.18   0.32
    10   1    -0.04   0.18   0.25     0.06  -0.44  -0.31    -0.50   0.39  -0.13
    11   1    -0.41   0.19  -0.00    -0.20   0.12  -0.34    -0.16   0.10  -0.35
    12   1    -0.43   0.33  -0.21     0.30   0.08   0.29     0.15   0.03   0.18
    13   1     0.27  -0.12   0.38     0.18   0.18  -0.06     0.11   0.14  -0.09
    14   8     0.00  -0.00   0.00    -0.00   0.00  -0.00     0.00  -0.00   0.00
    15   1    -0.00   0.00  -0.01     0.00   0.00   0.00     0.01  -0.00   0.01
                     25                     26                     27
                      A                      A                      A
 Frequencies --   1362.3006              1402.5928              1434.3924
 Red. masses --      1.4030                 1.2578                 1.3623
 Frc consts  --      1.5341                 1.4579                 1.6515
 IR Inten    --    143.8529                25.0450                16.8870
  Atom  AN      X      Y      Z        X      Y      Z        X      Y      Z
     1   6     0.01   0.01   0.01    -0.01  -0.01  -0.00    -0.01  -0.01  -0.00
     2   1     0.00   0.01   0.01    -0.01  -0.01  -0.01    -0.01  -0.01  -0.01
     3   6    -0.00   0.00  -0.00    -0.00  -0.00   0.00    -0.00   0.00   0.00
     4   6    -0.09  -0.05  -0.00     0.04   0.03   0.00     0.03   0.02   0.01
     5   8    -0.01   0.02   0.01     0.00  -0.01  -0.01     0.00  -0.01  -0.01
     6   8     0.11   0.02  -0.03    -0.03   0.00   0.02    -0.02   0.01   0.02
     7   6    -0.05   0.01   0.01    -0.04   0.03  -0.02    -0.11   0.05  -0.06
     8   6    -0.04  -0.03   0.01    -0.07   0.02  -0.09     0.09  -0.05   0.04
     9   1     0.58  -0.47  -0.00     0.21  -0.21   0.16     0.37  -0.38   0.19
    10   1    -0.40   0.44   0.03     0.39  -0.16   0.10     0.50  -0.18   0.12
    11   1    -0.04  -0.01  -0.05     0.20  -0.28   0.29    -0.27   0.22  -0.05
    12   1     0.17   0.00   0.13     0.42  -0.03   0.14    -0.29   0.19  -0.04
    13   1     0.05   0.04   0.03     0.28  -0.01   0.45    -0.14  -0.05  -0.29
    14   8    -0.00   0.00  -0.00     0.00  -0.00   0.00     0.00  -0.00   0.00
    15   1    -0.00   0.00  -0.00     0.00   0.00   0.00    -0.00   0.00  -0.00
                     28                     29                     30
                      A                      A                      A
 Frequencies --   1488.5787              1503.3091              1530.8727
 Red. masses --      1.0378                 1.0469                 1.1003
 Frc consts  --      1.3550                 1.3939                 1.5193
 IR Inten    --      5.6026                 5.0753                 5.1485
  Atom  AN      X      Y      Z        X      Y      Z        X      Y      Z
     1   6     0.00   0.00   0.00    -0.00  -0.00  -0.00     0.01   0.01   0.00
     2   1    -0.00   0.00   0.00    -0.00  -0.00  -0.00     0.01   0.01   0.01
     3   6     0.00   0.00  -0.00    -0.00  -0.00   0.00     0.00  -0.00  -0.00
     4   6    -0.00  -0.00   0.00     0.01   0.00  -0.00    -0.02  -0.02  -0.00
     5   8     0.00  -0.00  -0.00     0.00  -0.00  -0.00    -0.00   0.01   0.00
     6   8     0.00   0.00  -0.00    -0.01   0.01   0.00     0.02  -0.01  -0.01
     7   6    -0.02  -0.01   0.01     0.02  -0.01   0.02     0.01  -0.05  -0.06
     8   6    -0.03  -0.03   0.02     0.00  -0.03  -0.04     0.00  -0.00  -0.01
     9   1    -0.00  -0.02  -0.03     0.03   0.04  -0.25    -0.36   0.08   0.58
    10   1     0.05   0.00   0.05    -0.16  -0.14  -0.13     0.19   0.54   0.28
    11   1     0.44  -0.29  -0.17    -0.15  -0.08   0.55    -0.04  -0.03   0.20
    12   1    -0.38   0.26  -0.04     0.14   0.56   0.30     0.05   0.18   0.10
    13   1     0.44   0.49  -0.19    -0.08   0.08  -0.32    -0.05   0.02  -0.13
    14   8     0.00  -0.00   0.00    -0.00  -0.00  -0.00    -0.00   0.00  -0.00
    15   1    -0.00  -0.00  -0.00     0.00  -0.00   0.00    -0.00   0.00  -0.00
                     31                     32                     33
                      A                      A                      A
 Frequencies --   1866.6790              2033.7616              3075.1295
 Red. masses --     12.8516                 6.5251                 1.0354
 Frc consts  --     26.3844                15.9014                 5.7688
 IR Inten    --    538.9956                79.1513                12.5650
  Atom  AN      X      Y      Z        X      Y      Z        X      Y      Z
     1   6    -0.04  -0.04  -0.03    -0.27  -0.25  -0.18     0.00   0.00   0.00
     2   1    -0.08  -0.05  -0.03    -0.47  -0.42  -0.31    -0.00  -0.00  -0.00
     3   6     0.05   0.04   0.01     0.34   0.40   0.19     0.00  -0.00  -0.00
     4   6    -0.44   0.59   0.34    -0.03  -0.10  -0.03     0.00  -0.00  -0.00
     5   8     0.27  -0.41  -0.23    -0.01   0.01   0.01    -0.00   0.00   0.00
     6   8     0.04  -0.03  -0.02     0.00  -0.00  -0.00    -0.00  -0.00   0.00
     7   6     0.03  -0.01  -0.01    -0.00  -0.00  -0.00     0.00   0.00   0.00
     8   6    -0.01   0.01   0.00    -0.00   0.00  -0.00    -0.04   0.01  -0.02
     9   1    -0.08   0.05   0.05    -0.02   0.01   0.01    -0.01  -0.01  -0.00
    10   1    -0.02   0.09  -0.00     0.00   0.01   0.00    -0.00   0.00   0.00
    11   1     0.00  -0.00   0.01     0.00  -0.00   0.01     0.32   0.47   0.13
    12   1     0.02   0.00   0.01     0.01   0.00   0.00    -0.21  -0.18   0.41
    13   1    -0.02   0.00  -0.02    -0.00  -0.00   0.00     0.37  -0.45  -0.26
    14   8     0.00  -0.01   0.00     0.01  -0.02   0.02     0.00   0.00  -0.00
    15   1     0.01   0.02   0.01     0.01  -0.02   0.01    -0.00   0.00   0.00
                     34                     35                     36
                      A                      A                      A
 Frequencies --   3098.7155              3146.4283              3155.5173
 Red. masses --      1.0612                 1.1044                 1.1011
 Frc consts  --      6.0034                 6.4417                 6.4596
 IR Inten    --     20.9905                 5.8859                10.7926
  Atom  AN      X      Y      Z        X      Y      Z        X      Y      Z
     1   6    -0.00   0.00   0.00     0.00  -0.00  -0.00    -0.00   0.00   0.00
     2   1     0.00   0.00   0.00     0.00   0.00   0.00    -0.00  -0.00  -0.00
     3   6    -0.00   0.00  -0.00     0.00   0.00   0.00    -0.00   0.00  -0.00
     4   6    -0.00   0.00   0.00    -0.00   0.00  -0.00    -0.00   0.00   0.00
     5   8     0.00  -0.00  -0.00    -0.00   0.00   0.00     0.00  -0.00  -0.00
     6   8     0.00  -0.00  -0.00    -0.00   0.00   0.00    -0.00   0.00   0.00
     7   6     0.00  -0.01  -0.07     0.04   0.04  -0.02    -0.04  -0.04   0.01
     8   6    -0.01   0.00   0.01    -0.01  -0.07  -0.02     0.03  -0.04  -0.05
     9   1     0.32   0.41   0.09    -0.30  -0.39  -0.10     0.35   0.44   0.12
    10   1    -0.33  -0.31   0.71    -0.14  -0.13   0.31     0.09   0.08  -0.20
    11   1    -0.01  -0.01  -0.00     0.34   0.48   0.13     0.15   0.20   0.05
    12   1     0.03   0.03  -0.06     0.05   0.03  -0.10    -0.19  -0.18   0.39
    13   1     0.05  -0.06  -0.04    -0.28   0.33   0.19    -0.33   0.40   0.23
    14   8    -0.00  -0.00   0.00     0.00   0.00  -0.00    -0.00  -0.00   0.00
    15   1     0.00  -0.00  -0.00    -0.00  -0.00   0.00     0.00   0.00  -0.00
                     37                     38                     39
                      A                      A                      A
 Frequencies --   3172.8210              3461.0082              3827.8188
 Red. masses --      1.1058                 1.1416                 1.0677
 Frc consts  --      6.5589                 8.0566                 9.2177
 IR Inten    --     13.7097                74.5033                61.4529
  Atom  AN      X      Y      Z        X      Y      Z        X      Y      Z
     1   6     0.00  -0.00  -0.00    -0.07  -0.07  -0.04     0.00   0.00   0.00
     2   1    -0.00  -0.00  -0.00     0.62   0.66   0.40    -0.00  -0.00  -0.00
     3   6     0.00   0.00   0.00     0.02   0.02   0.01    -0.00   0.00  -0.00
     4   6     0.00   0.00  -0.00    -0.00  -0.00   0.00    -0.00  -0.00  -0.00
     5   8    -0.00   0.00   0.00     0.00   0.00  -0.00     0.00   0.00   0.00
     6   8    -0.00  -0.00   0.00     0.00  -0.00  -0.00     0.00   0.00  -0.00
     7   6     0.03   0.03  -0.02    -0.00   0.00   0.00     0.00   0.00   0.00
     8   6     0.05   0.04  -0.04     0.00   0.00  -0.00     0.00   0.00  -0.00
     9   1    -0.23  -0.29  -0.08    -0.00   0.00   0.00    -0.00  -0.00  -0.00
    10   1    -0.11  -0.11   0.26     0.00   0.00  -0.00    -0.00  -0.00   0.00
    11   1    -0.26  -0.38  -0.12    -0.00  -0.00   0.00    -0.00  -0.00   0.00
    12   1    -0.29  -0.26   0.60    -0.00  -0.00   0.00    -0.00  -0.00   0.00
    13   1    -0.07   0.10   0.05     0.00  -0.00  -0.00    -0.00  -0.00   0.00
    14   8     0.00   0.00  -0.00     0.00  -0.00   0.00    -0.05  -0.01   0.04
    15   1    -0.00   0.00   0.00     0.00   0.00  -0.00     0.77   0.15  -0.62

 -------------------
 - Thermochemistry -
 -------------------
 Temperature   298.150 Kelvin.  Pressure   1.00000 Atm.
 Atom     1 has atomic number  6 and mass  12.00000
 Atom     2 has atomic number  1 and mass   1.00783
 Atom     3 has atomic number  6 and mass  12.00000
 Atom     4 has atomic number  6 and mass  12.00000
 Atom     5 has atomic number  8 and mass  15.99491
 Atom     6 has atomic number  8 and mass  15.99491
 Atom     7 has atomic number  6 and mass  12.00000
 Atom     8 has atomic number  6 and mass  12.00000
 Atom     9 has atomic number  1 and mass   1.00783
 Atom    10 has atomic number  1 and mass   1.00783
 Atom    11 has atomic number  1 and mass   1.00783
 Atom    12 has atomic number  1 and mass   1.00783
 Atom    13 has atomic number  1 and mass   1.00783
 Atom    14 has atomic number  8 and mass  15.99491
 Atom    15 has atomic number  1 and mass   1.00783
 Molecular mass:   115.03952 amu.
 Principal axes and moments of inertia in atomic units:
                           1         2         3
     Eigenvalues --   679.612631074.675371399.45123
           X            0.99983   0.01821   0.00309
           Y           -0.01819   0.99982  -0.00453
           Z           -0.00318   0.00448   0.99998
 This molecule is an asymmetric top.
 Rotational symmetry number  1.
 Warning -- assumption of classical behavior for rotation
           may cause significant error
 Rotational temperatures (Kelvin)      0.12745     0.08060     0.06189
 Rotational constants (GHZ):           2.65554     1.67934     1.28961
    1 imaginary frequencies ignored.
 Zero-point vibrational energy     293348.5 (Joules/Mol)
                                   70.11197 (Kcal/Mol)
 Warning -- explicit consideration of  12 degrees of freedom as
           vibrations may cause significant error
 Vibrational temperatures:    125.44   149.44   156.52   264.19   275.29
          (Kelvin)            303.54   334.87   394.04   524.70   580.26
                              785.55   876.40   897.98  1047.27  1058.97
                             1089.16  1175.37  1228.53  1383.00  1572.95
                             1639.46  1696.22  1841.46  1960.05  2018.02
                             2063.77  2141.73  2162.93  2202.58  2685.73
                             2926.13  4424.43  4458.36  4527.01  4540.09
                             4564.98  4979.62  5507.38
 
 Zero-point correction=                           0.111731 (Hartree/Particle)
 Thermal correction to Energy=                    0.121173
 Thermal correction to Enthalpy=                  0.122117
 Thermal correction to Gibbs Free Energy=         0.076845
 Sum of electronic and zero-point Energies=           -420.085839
 Sum of electronic and thermal Energies=              -420.076397
 Sum of electronic and thermal Enthalpies=            -420.075453
 Sum of electronic and thermal Free Energies=         -420.120725
 
                     E (Thermal)             CV                S
                      KCal/Mol        Cal/Mol-Kelvin    Cal/Mol-Kelvin
 Total                   76.037             32.362             95.283
 Electronic               0.000              0.000              1.377
 Translational            0.889              2.981             40.136
 Rotational               0.889              2.981             28.415
 Vibrational             74.260             26.401             25.354
 Vibration     1          0.601              1.958              3.722
 Vibration     2          0.605              1.946              3.380
 Vibration     3          0.606              1.942              3.290
 Vibration     4          0.631              1.862              2.291
 Vibration     5          0.634              1.852              2.215
 Vibration     6          0.643              1.824              2.035
 Vibration     7          0.653              1.791              1.858
 Vibration     8          0.676              1.722              1.572
 Vibration     9          0.738              1.545              1.102
 Vibration    10          0.769              1.463              0.951
 Vibration    11          0.901              1.148              0.553
 Vibration    12          0.968              1.012              0.434
                       Q            Log10(Q)             Ln(Q)
 Total Bot       0.450637D-35        -35.346173        -81.387571
 Total V=0       0.111240D+17         16.046261         36.947882
 Vib (Bot)       0.128374D-48        -48.891521       -112.576888
 Vib (Bot)    1  0.235935D+01          0.372792          0.858386
 Vib (Bot)    2  0.197437D+01          0.295428          0.680249
 Vib (Bot)    3  0.188315D+01          0.274884          0.632943
 Vib (Bot)    4  0.109245D+01          0.038403          0.088426
 Vib (Bot)    5  0.104552D+01          0.019332          0.044514
 Vib (Bot)    6  0.941057D+00         -0.026384         -0.060752
 Vib (Bot)    7  0.845211D+00         -0.073035         -0.168169
 Vib (Bot)    8  0.704257D+00         -0.152269         -0.350611
 Vib (Bot)    9  0.501027D+00         -0.300139         -0.691094
 Vib (Bot)   10  0.440873D+00         -0.355686         -0.818998
 Vib (Bot)   11  0.288536D+00         -0.539800         -1.242936
 Vib (Bot)   12  0.242830D+00         -0.614698         -1.415395
 Vib (V=0)       0.316893D+03          2.500913          5.758565
 Vib (V=0)    1  0.291175D+01          0.464154          1.068754
 Vib (V=0)    2  0.253670D+01          0.404269          0.930863
 Vib (V=0)    3  0.244839D+01          0.388881          0.895432
 Vib (V=0)    4  0.170144D+01          0.230816          0.531474
 Vib (V=0)    5  0.165893D+01          0.219827          0.506171
 Vib (V=0)    6  0.156564D+01          0.194692          0.448294
 Vib (V=0)    7  0.148203D+01          0.170857          0.393412
 Vib (V=0)    8  0.136370D+01          0.134719          0.310202
 Vib (V=0)    9  0.120783D+01          0.082007          0.188828
 Vib (V=0)   10  0.116661D+01          0.066926          0.154102
 Vib (V=0)   11  0.107728D+01          0.032329          0.074440
 Vib (V=0)   12  0.105585D+01          0.023601          0.054344
 Electronic      0.200000D+01          0.301030          0.693147
 Translational   0.484981D+08          7.685724         17.697035
 Rotational      0.361904D+06          5.558594         12.799135
 ***** Axes restored to original set *****
 -------------------------------------------------------------------
 Center     Atomic                   Forces (Hartrees/Bohr)
 Number     Number              X              Y              Z
 -------------------------------------------------------------------
      1        6          -0.000630830    0.001161807   -0.000732834
      2        1           0.000046330    0.000238202   -0.000157222
      3        6           0.005456453   -0.007377256    0.009363072
      4        6           0.000112129   -0.000647100    0.000488291
      5        8          -0.000549561   -0.000407739   -0.000846017
      6        8           0.000062617    0.000241531   -0.000418283
      7        6           0.000225384    0.000028380   -0.000351735
      8        6           0.000138855    0.000037836    0.000240469
      9        1           0.000051765    0.000068061    0.000063573
     10        1           0.000009833   -0.000017004    0.000107975
     11        1          -0.000024053   -0.000061567   -0.000064812
     12        1          -0.000109271    0.000002738   -0.000074036
     13        1          -0.000038764    0.000004863    0.000008464
     14        8          -0.004750532    0.006543440   -0.007399058
     15        1          -0.000000356    0.000183808   -0.000227846
 -------------------------------------------------------------------
 Cartesian Forces:  Max     0.009363072 RMS     0.002568372

 GradGradGradGradGradGradGradGradGradGradGradGradGradGradGradGradGradGrad
 Berny optimization.
 Search for a local minimum.
 Step number   1 out of a maximum of    2
 All quantities printed in internal units (Hartrees-Bohrs-Radians)
 Second derivative matrix not updated -- analytic derivatives used.
 ITU=  0
     Eigenvalues ---   -0.20385   0.00110   0.00160   0.00180   0.00244
     Eigenvalues ---    0.00363   0.00739   0.00947   0.01575   0.02175
     Eigenvalues ---    0.02592   0.03323   0.04100   0.05612   0.06626
     Eigenvalues ---    0.06939   0.07854   0.08486   0.09677   0.10563
     Eigenvalues ---    0.11546   0.14016   0.16418   0.17902   0.22989
     Eigenvalues ---    0.24393   0.26446   0.35942   0.50306   0.61541
     Eigenvalues ---    0.69767   0.76993   0.78366   0.86461   0.89889
     Eigenvalues ---    0.94690   1.02402   1.78019   2.24520
 Eigenvalue     1 is  -2.04D-01 should be greater than     0.000000 Eigenvector:
                          Z3        Y3        Z14       Y14       X3
   1                    0.55964  -0.46549  -0.38329   0.35126   0.31588
                          X14       Y1        Z15       Z1        Z5
   1                   -0.28421   0.07441  -0.06621  -0.04123  -0.03727
 Angle between quadratic step and forces=  26.04 degrees.
 Linear search not attempted -- first point.
 B after Tr=    -0.000225    0.001161   -0.000650
         Rot=    1.000000   -0.000146   -0.000026    0.000041 Ang=  -0.02 deg.
 Variable       Old X    -DE/DX   Delta X   Delta X   Delta X     New X
                                 (Linear)    (Quad)   (Total)
    X1       -3.85513  -0.00063   0.00000  -0.00114  -0.00162  -3.85675
    Y1       -2.09199   0.00116   0.00000   0.00513   0.00709  -2.08490
    Z1       -1.62205  -0.00073   0.00000  -0.00322  -0.00428  -1.62633
    X2       -5.11944   0.00005   0.00000   0.00476   0.00413  -5.11532
    Y2       -3.43338   0.00024   0.00000  -0.00442  -0.00213  -3.43551
    Z2       -2.43518  -0.00016   0.00000   0.00172   0.00033  -2.43486
    X3       -2.30404   0.00546   0.00000   0.02603   0.02571  -2.27833
    Y3       -0.74600  -0.00738   0.00000  -0.03601  -0.03451  -0.78051
    Z3       -0.55391   0.00936   0.00000   0.04450   0.04374  -0.51018
    X4       -1.03423   0.00011   0.00000   0.00232   0.00224  -1.03199
    Y4        1.67695  -0.00065   0.00000  -0.00158  -0.00037   1.67658
    Z4        0.10289   0.00049   0.00000   0.00260   0.00249   0.10538
    X5       -2.19464  -0.00055   0.00000   0.00041   0.00052  -2.19411
    Y5        3.35487  -0.00041   0.00000  -0.00458  -0.00355   3.35132
    Z5        1.06565  -0.00085   0.00000   0.00432   0.00477   1.07042
    X6        1.40654   0.00006   0.00000  -0.00028  -0.00038   1.40617
    Y6        1.86283   0.00024   0.00000   0.00468   0.00585   1.86868
    Z6       -0.42220  -0.00042   0.00000  -0.00849  -0.00867  -0.43087
    X7        2.86905   0.00023   0.00000   0.00048   0.00016   2.86922
    Y7       -0.16993   0.00003   0.00000   0.00046   0.00183  -0.16810
    Z7       -1.49249  -0.00035   0.00000  -0.00201  -0.00286  -1.49535
    X8        4.92382   0.00014   0.00000  -0.00453  -0.00481   4.91900
    Y8       -0.90484   0.00004   0.00000  -0.00023   0.00042  -0.90442
    Z8        0.35398   0.00024   0.00000   0.00380   0.00263   0.35661
    X9        1.65656   0.00005   0.00000  -0.00250  -0.00297   1.65359
    Y9       -1.77449   0.00007   0.00000   0.00245   0.00404  -1.77045
    Z9       -1.93429   0.00006   0.00000  -0.00050  -0.00175  -1.93604
   X10        3.65228   0.00001   0.00000   0.00383   0.00348   3.65576
   Y10        0.58174  -0.00002   0.00000  -0.00317  -0.00136   0.58039
   Z10       -3.24536   0.00011   0.00000  -0.00126  -0.00193  -3.24729
   X11        6.08406  -0.00002   0.00000   0.00467   0.00455   6.08861
   Y11        0.73183  -0.00006   0.00000  -0.00443  -0.00402   0.72781
   Z11        0.82754  -0.00006   0.00000  -0.00601  -0.00676   0.82078
   X12        4.08324  -0.00011   0.00000  -0.01117  -0.01142   4.07182
   Y12       -1.66586   0.00000   0.00000   0.01483   0.01504  -1.65082
   Z12        2.07314  -0.00007   0.00000   0.00706   0.00572   2.07886
   X13        6.13170  -0.00004   0.00000  -0.01355  -0.01399   6.11771
   Y13       -2.34785   0.00000   0.00000  -0.01302  -0.01222  -2.36007
   Z13       -0.49273   0.00001   0.00000   0.01294   0.01128  -0.48145
   X14       -0.57601  -0.00475   0.00000  -0.02090  -0.02126  -0.59727
   Y14       -2.84470   0.00654   0.00000   0.03481   0.03547  -2.80923
   Z14        1.90219  -0.00740   0.00000  -0.03950  -0.04094   1.86125
   X15       -1.97695  -0.00000   0.00000   0.01599   0.01566  -1.96129
   Y15       -3.13164   0.00018   0.00000  -0.01203  -0.01160  -3.14323
   Z15        3.04534  -0.00023   0.00000  -0.00228  -0.00374   3.04160
         Item               Value     Threshold  Converged?
 Maximum Force            0.009363     0.000450     NO 
 RMS     Force            0.002568     0.000300     NO 
 Maximum Displacement     0.043735     0.001800     NO 
 RMS     Displacement     0.014006     0.001200     NO 
 Predicted change in Energy=-2.169464D-03
 GradGradGradGradGradGradGradGradGradGradGradGradGradGradGradGradGradGrad


 ----------------------------------------------------------------------

 Electric dipole moment (input orientation):
 (Debye = 10**-18 statcoulomb cm , SI units = C m)
                  (au)            (Debye)         (10**-30 SI)
   Tot        0.165002D+01      0.419394D+01      0.139895D+02
   x         -0.137767D+00     -0.350169D+00     -0.116804D+01
   y         -0.143922D+01     -0.365813D+01     -0.122022D+02
   z         -0.795139D+00     -0.202104D+01     -0.674147D+01

 Dipole polarizability, Alpha (input orientation).
 (esu units = cm**3 , SI units = C**2 m**2 J**-1)
 Alpha(0;0):
               (au)            (10**-24 esu)      (10**-40 SI)
   iso        0.751059D+02      0.111295D+02      0.123833D+02
   aniso      0.248209D+02      0.367807D+01      0.409241D+01
   xx         0.867301D+02      0.128521D+02      0.142999D+02
   yx        -0.904805D+00     -0.134078D+00     -0.149182D+00
   yy         0.706995D+02      0.104766D+02      0.116568D+02
   zx         0.997508D+01      0.147815D+01      0.164467D+01
   zy         0.131112D+01      0.194287D+00      0.216174D+00
   zz         0.678880D+02      0.100600D+02      0.111932D+02

 ----------------------------------------------------------------------

 Dipole orientation:
     6         -3.59875317         -0.58631742          2.92825773
     1         -4.72330538         -0.70497462          4.59568539
     6         -2.21029380         -0.23337348          1.10999397
     6         -1.12036469         -0.77708297         -1.42593567
     8         -2.43816017         -0.81082640         -3.25655003
     8          1.34363045         -1.20558462         -1.53881750
     6          2.98852242         -1.07812629          0.62789539
     6          4.91556724          0.99103060          0.20755027
     1          1.89747902         -0.74228762          2.34159333
     1          3.87747501         -2.93432621          0.75155951
     1          5.95038292          0.66470330         -1.54510140
     1          3.97280140          2.81955489          0.11307105
     1          6.25937691          1.01402071          1.77337387
     8         -0.59231805          3.01509600          1.61270332
     1         -2.06801912          4.08297330          1.42907264

 Electric dipole moment (dipole orientation):
 (Debye = 10**-18 statcoulomb cm , SI units = C m)
                  (au)            (Debye)         (10**-30 SI)
   Tot        0.165002D+01      0.419394D+01      0.139895D+02
   x          0.000000D+00      0.000000D+00      0.000000D+00
   y          0.000000D+00      0.000000D+00      0.000000D+00
   z          0.165002D+01      0.419394D+01      0.139895D+02

 Dipole polarizability, Alpha (dipole orientation).
 (esu units = cm**3 , SI units = C**2 m**2 J**-1)
 Alpha(0;0):
               (au)            (10**-24 esu)      (10**-40 SI)
   iso        0.751059D+02      0.111295D+02      0.123833D+02
   aniso      0.248209D+02      0.367807D+01      0.409241D+01
   xx         0.850014D+02      0.125959D+02      0.140148D+02
   yx         0.100451D+02      0.148854D+01      0.165622D+01
   yy         0.683847D+02      0.101336D+02      0.112751D+02
   zx        -0.525176D+01     -0.778231D+00     -0.865899D+00
   zy        -0.534721D+00     -0.792374D-01     -0.881635D-01
   zz         0.719315D+02      0.106591D+02      0.118599D+02

 ----------------------------------------------------------------------
 1\1\GINC-BOSON\Freq\UM062X\6-311++G(d,p)\C5H7O3(2)\LOKI\28-Mar-2025\0\
 \# freq 6-311++g(d,p) m062x\\Title Card Required\\0,2\C,-2.040047,-1.1
 07032,-0.858352\H,-2.709093,-1.816868,-1.288642\C,-1.219247,-0.394766,
 -0.293118\C,-0.547289,0.887403,0.054448\O,-1.161351,1.77532,0.563919\O
 ,0.744311,0.985765,-0.223417\C,1.518238,-0.089923,-0.789792\C,2.605572
 ,-0.478822,0.187318\H,0.876616,-0.939019,-1.02358\H,1.932702,0.307846,
 -1.717371\H,3.219548,0.387267,0.437914\H,2.160756,-0.881536,1.097058\H
 ,3.244755,-1.242427,-0.260742\O,-0.30481,-1.505352,1.006597\H,-1.04615
 9,-1.657192,1.611526\\Version=ES64L-G16RevA.03\State=2-A\HF=-420.19756
 96\S2=0.781078\S2-1=0.\S2A=0.750376\RMSD=8.076e-09\RMSF=2.568e-03\Zero
 Point=0.1117305\Thermal=0.1211727\Dipole=-0.1377673,-1.4392196,-0.7951
 393\DipoleDeriv=-0.0019359,-0.2506642,0.2372592,0.0602386,-0.347852,0.
 1556055,0.1410137,-0.1523349,0.0710031,0.2701439,0.0225091,0.0269799,0
 .0255591,0.2260388,0.0253797,0.0270953,0.0361191,0.2323587,-0.4844064,
 0.1855092,-0.4480467,-0.1108115,-0.2199935,0.0137673,-0.3708466,0.2124
 196,-0.5019352,2.3028024,-0.1455183,-0.552614,0.0735132,1.6265307,0.28
 58434,-0.4242089,0.5073906,0.6465817,-0.8991245,0.2336559,0.2082313,0.
 3349576,-1.1327028,-0.2958103,0.2811076,-0.3640711,-0.5147322,-1.74595
 69,0.3181929,0.442395,0.1259441,-0.6138992,-0.0746342,0.3460249,-0.169
 0876,-0.4358296,0.6825828,-0.2100351,-0.1180431,-0.391886,0.4534235,0.
 084495,-0.1874983,0.0370184,0.3930705,-0.0497397,0.0362521,-0.0198787,
 0.052002,0.040696,0.0211211,-0.060339,0.0663127,-0.0607662,-0.0487844,
 -0.0387037,-0.0451353,0.0118523,-0.0251718,-0.0396807,-0.0354915,-0.02
 17709,0.0336175,-0.0251439,0.0188605,0.0483981,0.0109886,0.0150985,0.0
 760344,0.0706093,0.0316793,-0.0864944,0.0027085,-0.048058,-0.0406156,-
 0.1020333,-0.0382074,-0.0354115,-0.0358375,-0.0078274,0.0658934,0.0764
 202,-0.0255252,0.0665954,-0.0079479,0.0567714,0.0401877,0.02251,0.0413
 182,-0.0193643,-0.0157174,0.0704041,0.0236982,0.0987369,-0.007358,-0.0
 565364,0.040642,-0.068781,0.0367848,-0.1698418,-0.2008971,0.1973261,-0
 .1615144,-0.3366487,-0.1634692,0.0935806,-0.121461,-0.1809212,0.105993
 ,0.0340177,-0.0265493,-0.0195994,0.3032744,-0.0368918,0.0916384,-0.026
 9239,0.3207334\Polar=86.7301003,-0.9048052,70.6995271,9.9750815,1.3111
 165,67.8879617\Quadrupole=4.0968257,-5.4011706,1.3043449,5.8020755,0.7
 066262,-0.7461481\PG=C01 [X(C5H7O3)]\NImag=1\\0.59571649,0.52773626,0.
 56086691,0.35941676,0.35047670,0.29331525,-0.17819348,-0.16353484,-0.0
 9834946,0.17126781,-0.17169054,-0.19758544,-0.11272243,0.16635900,0.18
 706179,-0.09587723,-0.10522325,-0.08734580,0.09988291,0.10831649,0.080
 24436,-0.37982754,-0.34219181,-0.22576688,0.00303989,0.00718733,-0.001
 95469,0.47499300,-0.40797567,-0.39141494,-0.27992730,-0.00173419,0.009
 69174,-0.00236869,0.50837067,0.59170874,-0.20248985,-0.21519147,-0.160
 36579,-0.00068423,0.00438038,0.00371763,0.15448703,0.35514141,0.133815
 40,0.00273702,-0.00321711,0.00013987,0.00312269,-0.00301323,-0.0028680
 2,-0.10671702,-0.07472919,-0.01670682,0.68448623,0.01782464,0.01137713
 ,0.01231614,-0.00081581,0.00075208,-0.00075545,-0.08042954,-0.14751210
 ,-0.04369473,-0.17080773,0.76345213,-0.01169849,-0.01178936,-0.0059942
 0,-0.00172518,-0.00102955,0.00400049,0.00012536,-0.02028484,-0.0578613
 0,-0.17908084,0.26604891,0.35515285,-0.00117275,-0.00255704,-0.0013117
 2,-0.00018847,0.00050192,0.00043559,0.01839979,0.00564732,0.00335106,-
 0.25525929,0.25258384,0.14456227,0.31896355,-0.00249556,-0.00207340,-0
 .00058509,-0.00075180,0.00081939,0.00118278,0.00929606,-0.05931913,-0.
 03758564,0.26151348,-0.50036203,-0.23395845,-0.30982281,0.54587523,0.0
 0116106,0.00128834,0.00173980,-0.00003223,0.00048848,-0.00040651,0.002
 41501,-0.03209516,0.00343904,0.14834389,-0.23406092,-0.20793113,-0.194
 92844,0.28357222,0.19495314,-0.00481181,-0.00650478,-0.00401757,0.0005
 1708,0.00028593,-0.00002197,-0.03210631,-0.01799301,0.00945319,-0.3015
 0514,-0.05645292,0.03955067,-0.07947735,0.04488801,0.04149278,0.552542
 15,-0.00206724,-0.00274267,-0.00156617,0.00062200,-0.00038783,-0.00046
 576,-0.03306578,-0.00974364,-0.00033536,-0.02506457,-0.10986580,-0.016
 52521,0.05986950,0.01082217,-0.01740928,-0.06289325,0.30716112,0.00276
 316,0.00185256,0.00177427,0.00011536,0.00009733,-0.00061664,-0.0046000
 1,-0.00476801,0.01077243,0.04879150,-0.01051612,-0.05895453,0.04757206
 ,-0.01396901,-0.00184697,-0.13897764,0.10751010,0.13082498,0.00135298,
 0.00261812,0.00171489,-0.00021195,-0.00008114,-0.00002346,-0.00395130,
 0.00143810,-0.00092553,-0.03517301,0.02312806,0.01432957,0.00316046,-0
 .00297488,-0.00065468,-0.09978846,0.02278710,0.02431948,0.53465997,-0.
 00102195,-0.00290477,-0.00253097,0.00010470,-0.00001877,-0.00006894,-0
 .00505139,0.00097181,0.00471527,0.02826637,0.00764523,0.00025863,-0.01
 317878,0.00700847,0.00352668,0.03915092,-0.15820543,-0.05154945,0.1065
 3899,0.53433482,-0.00028998,-0.00107528,-0.00073796,0.00013449,-0.0000
 1390,-0.00000069,-0.00250993,0.00039100,0.00206792,0.01478612,0.001346
 23,-0.01937843,-0.00242579,0.00022510,0.00925222,0.02948617,-0.0462699
 4,-0.08222238,-0.00633921,-0.03021785,0.56478029,-0.00029276,-0.000159
 16,0.00003793,0.00003386,0.00002078,0.00000960,-0.00057503,-0.00011402
 ,0.00006100,0.00077462,0.00284683,-0.00270180,-0.00097073,-0.00004324,
 0.00127140,-0.02585489,0.01683781,-0.00803351,-0.14360572,0.01494271,-
 0.06477222,0.54089001,-0.00048051,0.00026770,0.00026589,0.00006498,0.0
 0001860,-0.00001440,0.00063015,0.00008002,0.00001400,-0.00496313,-0.00
 430832,0.00306351,0.00254189,-0.00063195,-0.00208117,0.03645316,-0.014
 86991,0.01051373,0.00916536,-0.08236892,0.01986874,0.01958712,0.581021
 29,0.00072213,0.00067205,0.00054562,0.00002691,-0.00000124,0.00000088,
 -0.00131859,0.00055438,-0.00125133,-0.00302796,-0.00379786,0.00255193,
 0.00214910,-0.00057176,-0.00215724,0.01939658,-0.00599188,0.01197309,-
 0.07504785,0.02642550,-0.15062642,-0.04450903,0.01632984,0.55468569,-0
 .00106775,0.00037489,0.00100694,-0.00012446,0.00001784,0.00001117,-0.0
 0543409,0.00028898,-0.00008364,0.00518708,0.00332782,0.00034128,-0.001
 34199,-0.00051735,0.00008997,0.00803806,0.02225379,0.00761825,-0.15216
 369,-0.13271335,-0.03337025,-0.01403656,-0.01815540,-0.00476046,0.1689
 9766,-0.00089943,0.00022404,0.00051820,0.00001362,0.00009006,0.0000011
 7,0.00133482,0.00053685,0.00016512,-0.00762771,-0.00063390,0.00097347,
 0.00167199,-0.00010748,-0.00037881,-0.00283986,-0.02784363,-0.01058047
 ,-0.12152494,-0.21106048,-0.04390588,0.00588400,0.01062531,0.00253402,
 0.13160559,0.23443156,0.00009623,0.00034864,0.00016543,-0.00000745,0.0
 0000694,0.00012672,0.00141308,-0.00023486,-0.00048498,-0.00448022,-0.0
 0193803,0.00181055,0.00107644,0.00024092,-0.00036024,-0.00267647,-0.01
 655705,-0.00615062,-0.02750420,-0.03729532,-0.06198443,-0.01415301,-0.
 01641721,-0.00395105,0.03175689,0.04938672,0.06486339,-0.00032504,-0.0
 0021461,-0.00007577,0.00000908,0.00003471,0.00005044,0.00036772,-0.000
 36934,-0.00006992,0.00345605,0.00139873,0.00335481,-0.00198408,0.00096
 766,-0.00023780,-0.01686274,0.00156872,0.01953375,-0.08705753,-0.04204
 389,0.08083056,0.01090168,0.01003407,-0.02301528,-0.00569944,-0.007314
 42,0.01595824,0.09962013,0.00025117,0.00047362,0.00037350,0.00001950,0
 .00000883,0.00003549,-0.00002781,-0.00009562,-0.00032173,-0.00493267,-
 0.00178806,-0.00324837,0.00295208,-0.00160243,0.00005165,0.02473002,0.
 00305448,-0.02881838,-0.04859290,-0.09210745,0.09432734,-0.00381891,-0
 .00228265,0.00626450,-0.00805737,-0.00646069,0.02120227,0.03566172,0.0
 9955989,-0.00001560,0.00010879,0.00006507,-0.00001263,-0.00000101,-0.0
 0002222,0.00042913,-0.00004211,-0.00009395,-0.00449617,-0.00100177,-0.
 00136137,0.00153907,-0.00062465,-0.00024917,0.01464939,-0.00360736,-0.
 00969902,0.08245113,0.08709030,-0.23968010,0.00680449,0.00974657,-0.01
 723276,-0.00309699,-0.00133648,0.00790360,-0.09482015,-0.09099681,0.26
 038130,0.00005936,0.00021415,0.00021528,0.00003500,0.00001184,0.000007
 19,-0.00000653,0.00011107,-0.00029497,-0.00106653,-0.00054321,0.000240
 75,0.00029276,0.00010305,-0.00002112,0.00267568,-0.00065590,0.00088406
 ,-0.01606301,-0.02008281,-0.00639050,-0.13167607,-0.12148995,-0.032862
 45,-0.00233346,0.00207789,-0.00328220,0.00090516,0.00050964,0.00050097
 ,0.14217943,0.00022194,0.00010407,0.00006671,0.00000472,-0.00000063,0.
 00001250,-0.00030298,-0.00001638,-0.00032243,0.00059403,0.00003372,-0.
 00019147,-0.00021819,0.00012894,0.00017218,-0.00134192,0.00139545,0.00
 025504,0.00741767,0.00792177,0.00266738,-0.12387917,-0.22296020,-0.048
 85017,0.00217135,0.00008495,0.00130015,-0.00051869,0.00059698,-0.00065
 980,0.13324783,0.23785522,-0.00034468,-0.00016389,-0.00008963,0.000014
 68,0.00001263,-0.00000487,0.00059348,-0.00018588,0.00049123,0.00023799
 ,0.00021054,0.00011419,-0.00011229,-0.00003901,-0.00004829,0.00180316,
 0.00027006,0.00069612,-0.01365651,-0.02060282,-0.00674425,-0.03316936,
 -0.04631003,-0.06186855,-0.00307245,0.00233340,-0.00216315,0.00065636,
 -0.00046335,0.00055338,0.04043404,0.05218152,0.06480563,-0.00042013,-0
 .00038725,-0.00028283,-0.00003784,-0.00001346,-0.00003703,0.00071356,-
 0.00013123,0.00075895,0.00022044,0.00073963,-0.00000960,-0.00014381,-0
 .00019921,-0.00012769,0.00173507,-0.00160434,0.00122507,0.01036463,0.0
 1054734,-0.02419285,-0.09525576,-0.04372679,0.09894774,0.00116467,-0.0
 0030504,0.00071759,-0.00377769,0.00174628,-0.00359702,-0.00726821,-0.0
 0441964,0.01416414,0.10175289,-0.00001797,-0.00016111,-0.00001018,-0.0
 0001722,0.00001565,-0.00000284,0.00007474,-0.00008031,0.00009999,0.000
 93316,0.00029142,0.00045723,-0.00020554,-0.00006094,-0.00012468,-0.001
 48553,0.00051101,-0.00067628,-0.00209259,-0.00437890,0.00786037,-0.043
 14608,-0.08637739,0.08460900,0.00027770,0.00017428,-0.00080472,0.00119
 230,0.00078780,0.00096859,-0.00935335,-0.00857402,0.02194552,0.0458130
 6,0.08846164,-0.00046956,-0.00035308,-0.00034499,-0.00001982,-0.000000
 49,-0.00002467,0.00079602,-0.00020619,0.00084178,0.00071585,0.00078656
 ,-0.00011961,-0.00038487,-0.00001199,0.00001629,-0.00045679,-0.0010329
 9,0.00237239,0.00970092,0.00773462,-0.02178977,0.09408975,0.08456043,-
 0.23812725,0.00047635,-0.00014993,0.00056904,-0.00380647,0.00077367,-0
 .00125701,-0.00393622,-0.00319005,0.00842776,-0.10126746,-0.09373996,0
 .25928604,-0.00005954,-0.00015988,-0.00004842,-0.00000394,0.00002892,0
 .00001660,-0.00003905,-0.00009079,0.00000715,0.00261780,0.00124810,-0.
 00111301,-0.00099879,0.00031035,0.00077218,-0.00652090,0.00203829,-0.0
 0301172,-0.01108579,0.01429641,0.01375534,-0.13924544,0.11068933,0.063
 45262,0.00019878,-0.00077717,0.00027634,0.00081354,0.00005442,-0.00019
 101,0.01258830,-0.01285067,-0.00780311,-0.00756155,0.00882114,0.003678
 33,0.14949547,0.00011711,0.00009722,0.00008337,-0.00001403,-0.00000977
 ,-0.00000910,0.00002240,0.00010843,-0.00018218,-0.00129079,-0.00038133
 ,0.00083929,0.00045527,-0.00023364,-0.00029432,0.00291323,0.00065365,0
 .00080794,0.00213108,-0.00664740,-0.00476174,0.11128316,-0.17871590,-0
 .07771922,0.00020908,0.00020882,0.00018403,-0.00027132,0.00005101,0.00
 030975,0.01591267,-0.01646734,-0.00943994,-0.00806475,0.00983134,0.004
 31383,-0.12332815,0.19159677,-0.00019200,-0.00016228,-0.00017363,-0.00
 000681,-0.00000604,0.00000019,0.00024096,-0.00007625,0.00034749,0.0010
 4040,0.00138829,-0.00094544,-0.00086709,0.00024392,0.00073873,-0.00686
 474,0.00230254,-0.00120434,-0.00927830,0.01454286,0.01005618,0.0653536
 2,-0.07964812,-0.09466982,0.00042239,-0.00065335,0.00069808,0.00122800
 ,-0.00002844,0.00040891,0.00432202,-0.00358617,-0.00397834,0.01409515,
 -0.02043435,-0.00932283,-0.06974935,0.08585030,0.09809148,-0.03594016,
 -0.01429334,-0.03297709,0.00080411,0.00022961,0.00048064,0.03026018,-0
 .01597555,0.06419752,-0.00113384,0.00709167,-0.00610564,0.00057739,-0.
 00075329,0.00005322,0.00045197,-0.00074168,0.00210371,-0.00038853,-0.0
 0063269,0.00125511,-0.00102674,-0.00027534,-0.00004055,-0.00115879,-0.
 00117533,0.00118561,-0.00029533,-0.00031281,-0.00010353,-0.00021881,-0
 .00006707,0.00014621,-0.00166737,-0.00077159,0.00044687,-0.00016281,-0
 .00004087,0.00019892,0.33087584,0.03923815,0.02241880,0.03262610,-0.00
 030408,-0.00074285,-0.00043816,-0.05814065,0.00742775,-0.06871653,0.00
 560533,-0.01865622,0.01218552,-0.00094302,0.00055912,-0.00109944,0.000
 33889,0.00035611,-0.00007358,-0.00004688,-0.00058244,-0.00012840,-0.00
 015250,0.00055624,-0.00026932,-0.00093508,-0.00008510,0.00037600,-0.00
 021558,-0.00019145,0.00004080,-0.00001497,-0.00008000,0.00015071,0.000
 05694,-0.00039335,0.00025819,-0.00025063,-0.00003702,0.00025026,0.0769
 9787,0.00792018,-0.05009039,-0.01939242,-0.04035202,0.00090101,0.00051
 075,0.00062512,0.06610632,-0.01532918,0.06481429,-0.00464870,0.0097876
 5,-0.01170461,-0.00045855,0.00304368,0.00347709,-0.00108921,0.00034964
 ,0.00207450,0.00033479,-0.00148870,-0.00236340,0.00002085,0.00022326,-
 0.00019990,0.00231786,0.00088578,-0.00117338,0.00042840,0.00069397,0.0
 0024265,0.00019058,0.00013368,-0.00011681,-0.00048818,-0.00019190,-0.0
 0042494,-0.00000098,-0.00001098,-0.00000373,-0.26538993,-0.03353325,0.
 19503030,0.00224511,0.00227640,0.00029805,-0.00006936,0.00012049,-0.00
 011175,0.00088274,0.00325685,-0.01106094,-0.00174710,-0.00114014,-0.00
 007014,0.00014330,0.00047954,0.00040247,0.00096760,0.00011555,-0.00030
 352,-0.00004905,0.00087742,0.00004294,-0.00006046,-0.00007494,-0.00011
 292,-0.00022602,-0.00012401,-0.00037688,-0.00007152,-0.00018236,-0.000
 04106,-0.00010309,-0.00005922,0.00010835,0.00018110,-0.00002223,0.0004
 3712,-0.00003608,-0.00003410,0.00005683,-0.32097710,-0.06123380,0.2518
 6612,0.31891993,0.00125960,0.00105285,0.00061552,-0.00001653,0.0002871
 5,-0.00020184,-0.00770622,-0.00234321,0.00183392,-0.00126624,-0.000043
 96,0.00320068,0.00070155,-0.00082232,-0.00155578,0.00075109,-0.0002950
 7,-0.00008539,0.00008884,0.00039245,-0.00031318,-0.00008933,-0.0000539
 2,-0.00018784,-0.00014848,-0.00018459,0.00020152,0.00008995,-0.0000042
 7,0.00000519,-0.00004797,-0.00002252,0.00010055,-0.00005154,-0.0000471
 2,0.00025738,-0.00002968,-0.00005484,0.00001684,-0.04927960,-0.0184697
 9,0.05431802,0.05574455,0.02060917,-0.00269156,-0.00139606,-0.00220143
 ,-0.00023753,-0.00003834,-0.00029399,0.00954371,-0.00056830,-0.0002498
 4,0.00125310,0.00388055,0.00062063,-0.00019682,-0.00116302,-0.00061674
 ,-0.00172754,-0.00067134,0.00020671,0.00057894,-0.00053982,-0.00062878
 ,-0.00030969,-0.00011503,0.00032712,0.00034269,0.00020703,0.00013105,-
 0.00001516,0.00015469,0.00004068,-0.00000744,0.00001093,-0.00007441,0.
 00009401,0.00004421,-0.00010221,-0.00004097,0.00002899,-0.00004292,0.2
 3454893,0.05837111,-0.20992515,-0.24113467,-0.05820559,0.21280928\\0.0
 0063083,-0.00116181,0.00073283,-0.00004633,-0.00023820,0.00015722,-0.0
 0545645,0.00737726,-0.00936307,-0.00011213,0.00064710,-0.00048829,0.00
 054956,0.00040774,0.00084602,-0.00006262,-0.00024153,0.00041828,-0.000
 22538,-0.00002838,0.00035174,-0.00013886,-0.00003784,-0.00024047,-0.00
 005177,-0.00006806,-0.00006357,-0.00000983,0.00001700,-0.00010798,0.00
 002405,0.00006157,0.00006481,0.00010927,-0.00000274,0.00007404,0.00003
 876,-0.00000486,-0.00000846,0.00475053,-0.00654344,0.00739906,0.000000
 36,-0.00018381,0.00022785\\\@


 ON INDUCTION, OR "WHY DO YOU BELIEVE THE SUN WILL RISE TOMORROW?":

 ... THE FARMER WHO HAS FED THE CHICKEN EVERY DAY THROUGHOUT ITS
 LIFE AT LAST WRINGS ITS NECK INSTEAD, SHOWING THAT MORE REFINED VIEWS
 AS TO THE UNIFORMITY OF NATURE WOULD HAVE BEEN USEFUL TO THE CHICKEN.

                               -- BERTRAND RUSSELL
 Job cpu time:       0 days  0 hours 50 minutes 16.0 seconds.
 Elapsed time:       0 days  0 hours 12 minutes 43.3 seconds.
 File lengths (MBytes):  RWF=    146 Int=      0 D2E=      0 Chk=      5 Scr=      1
 Normal termination of Gaussian 16 at Fri Mar 28 06:33:29 2025.
