 Entering Gaussian System, Link 0=g16
 Initial command:
 /opt/g16/l1.exe "/home/aayush/scratches/g16/Gau-8569.inp" -scrdir="/home/aayush/scratches/g16/"
 Entering Link 1 = /opt/g16/l1.exe PID=      8572.
  
 Copyright (c) 1988,1990,1992,1993,1995,1998,2003,2009,2016,
            Gaussian, Inc.  All Rights Reserved.
  
 This is part of the Gaussian(R) 16 program.  It is based on
 the Gaussian(R) 09 system (copyright 2009, Gaussian, Inc.),
 the Gaussian(R) 03 system (copyright 2003, Gaussian, Inc.),
 the Gaussian(R) 98 system (copyright 1998, Gaussian, Inc.),
 the Gaussian(R) 94 system (copyright 1995, Gaussian, Inc.),
 the Gaussian 92(TM) system (copyright 1992, Gaussian, Inc.),
 the Gaussian 90(TM) system (copyright 1990, Gaussian, Inc.),
 the Gaussian 88(TM) system (copyright 1988, Gaussian, Inc.),
 the Gaussian 86(TM) system (copyright 1986, Carnegie Mellon
 University), and the Gaussian 82(TM) system (copyright 1983,
 Carnegie Mellon University). Gaussian is a federally registered
 trademark of Gaussian, Inc.
  
 This software contains proprietary and confidential information,
 including trade secrets, belonging to Gaussian, Inc.
  
 This software is provided under written license and may be
 used, copied, transmitted, or stored only in accord with that
 written license.
  
 The following legend is applicable only to US Government
 contracts under FAR:
  
                    RESTRICTED RIGHTS LEGEND
  
 Use, reproduction and disclosure by the US Government is
 subject to restrictions as set forth in subparagraphs (a)
 and (c) of the Commercial Computer Software - Restricted
 Rights clause in FAR 52.227-19.
  
 Gaussian, Inc.
 340 Quinnipiac St., Bldg. 40, Wallingford CT 06492
  
  
 ---------------------------------------------------------------
 Warning -- This program may not be used in any manner that
 competes with the business of Gaussian, Inc. or will provide
 assistance to any competitor of Gaussian, Inc.  The licensee
 of this program is prohibited from giving any competitor of
 Gaussian, Inc. access to this program.  By using this program,
 the user acknowledges that Gaussian, Inc. is engaged in the
 business of creating and licensing software in the field of
 computational chemistry and represents and warrants to the
 licensee that it is not a competitor of Gaussian, Inc. and that
 it will not use this program in any manner prohibited above.
 ---------------------------------------------------------------
  

 Cite this work as:
 Gaussian 16, Revision A.03,
 M. J. Frisch, G. W. Trucks, H. B. Schlegel, G. E. Scuseria, 
 M. A. Robb, J. R. Cheeseman, G. Scalmani, V. Barone, 
 G. A. Petersson, H. Nakatsuji, X. Li, M. Caricato, A. V. Marenich, 
 J. Bloino, B. G. Janesko, R. Gomperts, B. Mennucci, H. P. Hratchian, 
 J. V. Ortiz, A. F. Izmaylov, J. L. Sonnenberg, D. Williams-Young, 
 F. Ding, F. Lipparini, F. Egidi, J. Goings, B. Peng, A. Petrone, 
 T. Henderson, D. Ranasinghe, V. G. Zakrzewski, J. Gao, N. Rega, 
 G. Zheng, W. Liang, M. Hada, M. Ehara, K. Toyota, R. Fukuda, 
 J. Hasegawa, M. Ishida, T. Nakajima, Y. Honda, O. Kitao, H. Nakai, 
 T. Vreven, K. Throssell, J. A. Montgomery, Jr., J. E. Peralta, 
 F. Ogliaro, M. J. Bearpark, J. J. Heyd, E. N. Brothers, K. N. Kudin, 
 V. N. Staroverov, T. A. Keith, R. Kobayashi, J. Normand, 
 K. Raghavachari, A. P. Rendell, J. C. Burant, S. S. Iyengar, 
 J. Tomasi, M. Cossi, J. M. Millam, M. Klene, C. Adamo, R. Cammi, 
 J. W. Ochterski, R. L. Martin, K. Morokuma, O. Farkas, 
 J. B. Foresman, and D. J. Fox, Gaussian, Inc., Wallingford CT, 2016.
 
 ******************************************
 Gaussian 16:  ES64L-G16RevA.03 25-Dec-2016
                10-May-2025 
 ******************************************
 %chk=ethyl_propiolate.chk
 %nprocshared=24
 Will use up to   24 processors via shared memory.
 %mem=12GB
 --------------------------
 # ccsd(t)/6-311++g(d,p) sp
 --------------------------
 1/38=1,172=1/1;
 2/12=2,17=6,18=5,40=1/2;
 3/5=4,6=6,7=1111,11=9,25=1,30=1/1,2,3;
 4//1;
 5/5=2,38=5/2;
 8/6=4,9=120000,10=2/1,4;
 9/5=7,14=2/13;
 6/7=2,8=2,9=2,10=2/1;
 99/5=1,9=1/99;
 -------------------
 Title Card Required
 -------------------
 Symbolic Z-matrix:
 Charge =  0 Multiplicity = 2
 C                     1.76443  -0.07264   1.04986 
 H                     2.59281  -0.45953   1.59749 
 C                     0.76121   0.45569   0.62828 
 C                    -0.3697    1.09607  -0.04654 
 O                    -0.24138   2.14988  -0.59847 
 O                    -1.53804   0.45676  -0.00874 
 C                    -1.63383  -0.874     0.53681 
 C                    -1.15028  -1.91143  -0.45685 
 H                    -1.0815   -0.92246   1.47768 
 H                    -2.6947   -0.98921   0.75235 
 H                    -1.70679  -1.82424  -1.39128 
 H                    -0.08406  -1.79877  -0.66335 
 H                    -1.31424  -2.91103  -0.04867 
 O                     2.36581  -1.04879  -0.70543 
 H                     2.46159  -0.26501  -1.27095 
 
                          Input orientation:                          
 ---------------------------------------------------------------------
 Center     Atomic      Atomic             Coordinates (Angstroms)
 Number     Number       Type             X           Y           Z
 ---------------------------------------------------------------------
      1          6           0        1.764431   -0.072635    1.049861
      2          1           0        2.592810   -0.459525    1.597487
      3          6           0        0.761209    0.455690    0.628283
      4          6           0       -0.369699    1.096073   -0.046535
      5          8           0       -0.241381    2.149880   -0.598469
      6          8           0       -1.538036    0.456759   -0.008741
      7          6           0       -1.633829   -0.874004    0.536807
      8          6           0       -1.150284   -1.911432   -0.456854
      9          1           0       -1.081505   -0.922456    1.477682
     10          1           0       -2.694699   -0.989206    0.752350
     11          1           0       -1.706794   -1.824239   -1.391280
     12          1           0       -0.084062   -1.798774   -0.663353
     13          1           0       -1.314242   -2.911029   -0.048665
     14          8           0        2.365807   -1.048788   -0.705430
     15          1           0        2.461590   -0.265009   -1.270953
 ---------------------------------------------------------------------
                    Distance matrix (angstroms):
                    1          2          3          4          5
     1  C    0.000000
     2  H    1.065734   0.000000
     3  C    1.209673   2.265334   0.000000
     4  C    2.668796   3.728157   1.464385   0.000000
     5  O    3.417579   4.434395   2.319566   1.196497   0.000000
     6  O    3.508160   4.525863   2.385860   1.332352   2.212635
     7  C    3.528964   4.377364   2.740923   2.412367   3.517334
     8  C    3.761240   4.509890   3.230262   3.134128   4.164182
     9  H    3.000763   3.705300   2.452827   2.627616   3.802034
    10  H    4.562067   5.380759   3.747855   3.223698   4.206821
    11  H    4.590936   5.411263   3.920172   3.482009   4.309247
    12  H    3.054764   3.751084   2.732291   2.973582   3.952319
    13  H    4.329142   4.897422   4.012549   4.116920   5.202510
    14  O    2.096562   2.387925   2.572349   3.538017   4.127996
    15  H    2.430888   2.878021   2.649113   3.371638   3.686458
                    6          7          8          9         10
     6  O    0.000000
     7  C    1.441433   0.000000
     8  C    2.441206   1.515729   0.000000
     9  H    2.078487   1.092088   2.173760   0.000000
    10  H    2.001985   1.088658   2.167462   1.770016   0.000000
    11  H    2.672610   2.150765   1.091081   3.071668   2.503674
    12  H    2.762243   2.167340   1.091862   2.519297   3.078155
    13  H    3.375452   2.143451   1.092106   2.517603   2.498137
    14  O    4.241702   4.191753   3.628890   4.082389   5.266630
    15  H    4.255718   4.517890   4.052049   4.532191   5.586191
                   11         12         13         14         15
    11  H    0.000000
    12  H    1.778703   0.000000
    13  H    1.771391   1.768699   0.000000
    14  O    4.202118   2.562442   4.176367   0.000000
    15  H    4.452090   3.033473   4.769939   0.971236   0.000000
 Stoichiometry    C5H7O3(2)
 Framework group  C1[X(C5H7O3)]
 Deg. of freedom    39
 Full point group                 C1      NOp   1
 Largest Abelian subgroup         C1      NOp   1
 Largest concise Abelian subgroup C1      NOp   1
                         Standard orientation:                         
 ---------------------------------------------------------------------
 Center     Atomic      Atomic             Coordinates (Angstroms)
 Number     Number       Type             X           Y           Z
 ---------------------------------------------------------------------
      1          6           0        1.777070    0.013679    1.049864
      2          1           0        2.605728   -0.367405    1.601127
      3          6           0        0.772790    0.536183    0.623578
      4          6           0       -0.359062    1.169004   -0.056770
      5          8           0       -0.233473    2.220498   -0.613720
      6          8           0       -1.525117    0.525584   -0.018171
      7          6           0       -1.617149   -0.802772    0.533850
      8          6           0       -1.127733   -1.843377   -0.453596
      9          1           0       -1.066604   -0.844473    1.476090
     10          1           0       -2.678033   -0.920803    0.747786
     11          1           0       -1.682619   -1.762919   -1.389590
     12          1           0       -0.061506   -1.727825   -0.658464
     13          1           0       -1.288862   -2.841514   -0.040734
     14          8           0        2.385672   -0.969033   -0.699265
     15          1           0        2.479746   -0.187750   -1.268516
 ---------------------------------------------------------------------
 Rotational constants (GHZ):           2.2171794           1.7049558           1.1743571
 Standard basis: 6-311++G(d,p) (5D, 7F)
 There are   233 symmetry adapted cartesian basis functions of A   symmetry.
 There are   225 symmetry adapted basis functions of A   symmetry.
   225 basis functions,   351 primitive gaussians,   233 cartesian basis functions
    31 alpha electrons       30 beta electrons
       nuclear repulsion energy       357.9014125107 Hartrees.
 NAtoms=   15 NActive=   15 NUniq=   15 SFac= 1.00D+00 NAtFMM=   60 NAOKFM=F Big=F
 Integral buffers will be    131072 words long.
 Raffenetti 2 integral format.
 Two-electron integral symmetry is turned on.
 One-electron integrals computed using PRISM.
 NBasis=   225 RedAO= T EigKep=  2.76D-06  NBF=   225
 NBsUse=   225 1.00D-06 EigRej= -1.00D+00 NBFU=   225
 ExpMin= 3.60D-02 ExpMax= 8.59D+03 ExpMxC= 1.30D+03 IAcc=3 IRadAn=         5 AccDes= 0.00D+00
 Harris functional with IExCor=  205 and IRadAn=       5 diagonalized for initial guess.
 HarFok:  IExCor=  205 AccDes= 0.00D+00 IRadAn=         5 IDoV= 1 UseB2=F ITyADJ=14
 ICtDFT=  3500011 ScaDFX=  1.000000  1.000000  1.000000  1.000000
 FoFCou: FMM=F IPFlag=           0 FMFlag=      100000 FMFlg1=           0
         NFxFlg=           0 DoJE=T BraDBF=F KetDBF=T FulRan=T
         wScrn=  0.000000 ICntrl=       500 IOpCl=  0 I1Cent=   200000004 NGrid=           0
         NMat0=    1 NMatS0=      1 NMatT0=    0 NMatD0=    1 NMtDS0=    0 NMtDT0=    0
 Petite list used in FoFCou.
 Initial guess <Sx>= 0.0000 <Sy>= 0.0000 <Sz>= 0.5000 <S**2>= 0.7500 S= 0.5000
 Requested convergence on RMS density matrix=1.00D-08 within 128 cycles.
 Requested convergence on MAX density matrix=1.00D-06.
 Requested convergence on             energy=1.00D-06.
 No special actions if energy rises.
 Initial convergence to 1.5D-05 achieved.  Increase integral accuracy.
 SCF Done:  E(UHF) =  -417.974913246     A.U. after   39 cycles
            NFock= 39  Conv=0.83D-08     -V/T= 2.0006
 <Sx>= 0.0000 <Sy>= 0.0000 <Sz>= 0.5000 <S**2>= 0.9592 S= 0.5996
 <L.S>=  0.00000000000    
 Annihilation of the first spin contaminant:
 S**2 before annihilation     0.9592,   after     0.7778
 ExpMin= 3.60D-02 ExpMax= 8.59D+03 ExpMxC= 1.30D+03 IAcc=3 IRadAn=         5 AccDes= 0.00D+00
 HarFok:  IExCor=  205 AccDes= 0.00D+00 IRadAn=         5 IDoV=-2 UseB2=F ITyADJ=14
 ICtDFT= 12500011 ScaDFX=  1.000000  1.000000  1.000000  1.000000
 Range of M.O.s used for correlation:     9   225
 NBasis=   225 NAE=    31 NBE=    30 NFC=     8 NFV=     0
 NROrb=    217 NOA=    23 NOB=    22 NVA=   194 NVB=   195

 **** Warning!!: The largest alpha MO coefficient is  0.25458950D+03


 **** Warning!!: The largest beta MO coefficient is  0.26330198D+03

 Semi-Direct transformation.
 ModeAB=           4 MOrb=            23 LenV=    1609170278
 LASXX=    109339976 LTotXX=   109339976 LenRXX=   221407890
 LTotAB=   112067914 MaxLAS=   131158489 LenRXY=           0
 NonZer=   330747866 LenScr=   498067456 LnRSAI=   131158489
 LnScr1=   197510144 LExtra=           0 Total=   1048143979
 MaxDsk=          -1 SrtSym=           T ITran=            4
 JobTyp=1 Pass  1:  I=   1 to  23.
 (rs|ai) integrals will be sorted in core.
 ModeAB=           4 MOrb=            22 LenV=    1609170278
 LASXX=    104936601 LTotXX=   104936601 LenRXX=   190867446
 LTotAB=    85930845 MaxLAS=   125455946 LenRXY=           0
 NonZer=   295804047 LenScr=   445446144 LnRSAI=   125455946
 LnScr1=   188953600 LExtra=           0 Total=    950723136
 MaxDsk=          -1 SrtSym=           T ITran=            4
 JobTyp=2 Pass  1:  I=   1 to  22.
 (rs|ai) integrals will be sorted in core.
 SymMOI:  orbitals are not symmetric.
 Spin components of T(2) and E(2):
     alpha-alpha T2 =       0.5128581014D-01 E2=     -0.1684455209D+00
     alpha-beta  T2 =       0.2836209078D+00 E2=     -0.9318689992D+00
     beta-beta   T2 =       0.5127815983D-01 E2=     -0.1583878402D+00
 ANorm=    0.1177363528D+01
 E2 =    -0.1258702360D+01 EUMP2 =    -0.41923361560628D+03
 (S**2,0)=  0.95915D+00           (S**2,1)=  0.90152D+00
 E(PUHF)=      -0.41799191796D+03        E(PMP2)=      -0.41924844654D+03
 Keep R2 and R3 ints in memory in canonical form, NReq=652884060.
 CIDS: In Core Option IDoMem=           1.
 Iterations=  50 Convergence= 0.100D-06
 Produce multiple copies of IABC intergrals
 Iteration Nr.   1
 **********************
 DD1Dir will call FoFMem   1 times, MxPair=      1496
 NAB=   506 NAA=   253 NBB=   231.
 E(PMP3)=      -0.41927395192D+03
 MP4(R+Q)=  0.25027425D-01
 E3=       -0.29303069D-01        EUMP3=      -0.41926291868D+03
 E4(DQ)=   -0.53667278D-02        UMP4(DQ)=   -0.41926828540D+03
 E4(SDQ)=  -0.26097559D-01        UMP4(SDQ)=  -0.41928901623D+03
 DE(Corr)=  -1.2626213     E(Corr)=     -419.23753454    
 NORM(A)=   0.11861757D+01
 Iteration Nr.   2
 **********************
 DD1Dir will call FoFMem   1 times, MxPair=      1496
 NAB=   506 NAA=   253 NBB=   231.
 DE(Corr)=  -1.3058609     E(CORR)=     -419.28077416     Delta=-4.32D-02
 NORM(A)=   0.12070783D+01
 Iteration Nr.   3
 **********************
 DD1Dir will call FoFMem   1 times, MxPair=      1496
 NAB=   506 NAA=   253 NBB=   231.
 DE(Corr)=  -1.3087005     E(CORR)=     -419.28361371     Delta=-2.84D-03
 NORM(A)=   0.12185925D+01
 Iteration Nr.   4
 **********************
 DD1Dir will call FoFMem   1 times, MxPair=      1496
 NAB=   506 NAA=   253 NBB=   231.
 DE(Corr)=  -1.3157471     E(CORR)=     -419.29066035     Delta=-7.05D-03
 NORM(A)=   0.12261637D+01
 Iteration Nr.   5
 **********************
 DD1Dir will call FoFMem   1 times, MxPair=      1496
 NAB=   506 NAA=   253 NBB=   231.
 DE(Corr)=  -1.3177791     E(CORR)=     -419.29269231     Delta=-2.03D-03
 NORM(A)=   0.12301801D+01
 Iteration Nr.   6
 **********************
 DD1Dir will call FoFMem   1 times, MxPair=      1496
 NAB=   506 NAA=   253 NBB=   231.
 DE(Corr)=  -1.3184322     E(CORR)=     -419.29334549     Delta=-6.53D-04
 NORM(A)=   0.12308921D+01
 Iteration Nr.   7
 **********************
 DD1Dir will call FoFMem   1 times, MxPair=      1496
 NAB=   506 NAA=   253 NBB=   231.
 DE(Corr)=  -1.3185279     E(CORR)=     -419.29344120     Delta=-9.57D-05
 NORM(A)=   0.12310069D+01
 Iteration Nr.   8
 **********************
 DD1Dir will call FoFMem   1 times, MxPair=      1496
 NAB=   506 NAA=   253 NBB=   231.
 DE(Corr)=  -1.3185102     E(CORR)=     -419.29342344     Delta= 1.78D-05
 NORM(A)=   0.12310326D+01
 Iteration Nr.   9
 **********************
 DD1Dir will call FoFMem   1 times, MxPair=      1496
 NAB=   506 NAA=   253 NBB=   231.
 DE(Corr)=  -1.3185205     E(CORR)=     -419.29343375     Delta=-1.03D-05
 NORM(A)=   0.12310095D+01
 Iteration Nr.  10
 **********************
 DD1Dir will call FoFMem   1 times, MxPair=      1496
 NAB=   506 NAA=   253 NBB=   231.
 DE(Corr)=  -1.3185123     E(CORR)=     -419.29342552     Delta= 8.23D-06
 NORM(A)=   0.12309921D+01
 Iteration Nr.  11
 **********************
 DD1Dir will call FoFMem   1 times, MxPair=      1496
 NAB=   506 NAA=   253 NBB=   231.
 DE(Corr)=  -1.3185241     E(CORR)=     -419.29343733     Delta=-1.18D-05
 NORM(A)=   0.12309966D+01
 Iteration Nr.  12
 **********************
 DD1Dir will call FoFMem   1 times, MxPair=      1496
 NAB=   506 NAA=   253 NBB=   231.
 DE(Corr)=  -1.3185217     E(CORR)=     -419.29343497     Delta= 2.37D-06
 NORM(A)=   0.12310307D+01
 Iteration Nr.  13
 **********************
 DD1Dir will call FoFMem   1 times, MxPair=      1496
 NAB=   506 NAA=   253 NBB=   231.
 DE(Corr)=  -1.3185322     E(CORR)=     -419.29344548     Delta=-1.05D-05
 NORM(A)=   0.12310900D+01
 Iteration Nr.  14
 **********************
 DD1Dir will call FoFMem   1 times, MxPair=      1496
 NAB=   506 NAA=   253 NBB=   231.
 DE(Corr)=  -1.3185418     E(CORR)=     -419.29345502     Delta=-9.54D-06
 NORM(A)=   0.12311506D+01
 Iteration Nr.  15
 **********************
 DD1Dir will call FoFMem   1 times, MxPair=      1496
 NAB=   506 NAA=   253 NBB=   231.
 DE(Corr)=  -1.3185492     E(CORR)=     -419.29346246     Delta=-7.44D-06
 NORM(A)=   0.12311870D+01
 Iteration Nr.  16
 **********************
 DD1Dir will call FoFMem   1 times, MxPair=      1496
 NAB=   506 NAA=   253 NBB=   231.
 DE(Corr)=  -1.3185565     E(CORR)=     -419.29346972     Delta=-7.26D-06
 NORM(A)=   0.12311956D+01
 Iteration Nr.  17
 **********************
 DD1Dir will call FoFMem   1 times, MxPair=      1496
 NAB=   506 NAA=   253 NBB=   231.
 DE(Corr)=  -1.3185548     E(CORR)=     -419.29346808     Delta= 1.64D-06
 NORM(A)=   0.12311928D+01
 Iteration Nr.  18
 **********************
 DD1Dir will call FoFMem   1 times, MxPair=      1496
 NAB=   506 NAA=   253 NBB=   231.
 DE(Corr)=  -1.3185547     E(CORR)=     -419.29346791     Delta= 1.72D-07
 NORM(A)=   0.12311861D+01
 Iteration Nr.  19
 **********************
 DD1Dir will call FoFMem   1 times, MxPair=      1496
 NAB=   506 NAA=   253 NBB=   231.
 DE(Corr)=  -1.3185525     E(CORR)=     -419.29346575     Delta= 2.16D-06
 NORM(A)=   0.12311807D+01
 Iteration Nr.  20
 **********************
 DD1Dir will call FoFMem   1 times, MxPair=      1496
 NAB=   506 NAA=   253 NBB=   231.
 DE(Corr)=  -1.3185514     E(CORR)=     -419.29346467     Delta= 1.08D-06
 NORM(A)=   0.12311773D+01
 Iteration Nr.  21
 **********************
 DD1Dir will call FoFMem   1 times, MxPair=      1496
 NAB=   506 NAA=   253 NBB=   231.
 DE(Corr)=  -1.3185507     E(CORR)=     -419.29346398     Delta= 6.90D-07
 NORM(A)=   0.12311762D+01
 Iteration Nr.  22
 **********************
 DD1Dir will call FoFMem   1 times, MxPair=      1496
 NAB=   506 NAA=   253 NBB=   231.
 DE(Corr)=  -1.3185504     E(CORR)=     -419.29346368     Delta= 2.95D-07
 NORM(A)=   0.12311767D+01
 Iteration Nr.  23
 **********************
 DD1Dir will call FoFMem   1 times, MxPair=      1496
 NAB=   506 NAA=   253 NBB=   231.
 DE(Corr)=  -1.3185507     E(CORR)=     -419.29346390     Delta=-2.22D-07
 NORM(A)=   0.12311784D+01
 Iteration Nr.  24
 **********************
 DD1Dir will call FoFMem   1 times, MxPair=      1496
 NAB=   506 NAA=   253 NBB=   231.
 DE(Corr)=  -1.3185509     E(CORR)=     -419.29346412     Delta=-2.13D-07
 NORM(A)=   0.12311807D+01
 Iteration Nr.  25
 **********************
 DD1Dir will call FoFMem   1 times, MxPair=      1496
 NAB=   506 NAA=   253 NBB=   231.
 DE(Corr)=  -1.3185514     E(CORR)=     -419.29346461     Delta=-4.91D-07
 NORM(A)=   0.12311830D+01
 Iteration Nr.  26
 **********************
 DD1Dir will call FoFMem   1 times, MxPair=      1496
 NAB=   506 NAA=   253 NBB=   231.
 DE(Corr)=  -1.3185516     E(CORR)=     -419.29346487     Delta=-2.64D-07
 NORM(A)=   0.12311843D+01
 Iteration Nr.  27
 **********************
 DD1Dir will call FoFMem   1 times, MxPair=      1496
 NAB=   506 NAA=   253 NBB=   231.
 DE(Corr)=  -1.3185518     E(CORR)=     -419.29346500     Delta=-1.32D-07
 NORM(A)=   0.12311845D+01
 Iteration Nr.  28
 **********************
 DD1Dir will call FoFMem   1 times, MxPair=      1496
 NAB=   506 NAA=   253 NBB=   231.
 DE(Corr)=  -1.3185517     E(CORR)=     -419.29346494     Delta= 6.56D-08
 NORM(A)=   0.12311839D+01
 Wavefunction amplitudes converged. E(Corr)=     -419.29346494    
 Largest amplitude= 6.63D-02
 Time for triples=    35950.09 seconds.
 T4(CCSD)= -0.58052953D-01
 T5(CCSD)=  0.40214589D-02
 CCSD(T)= -0.41934749643D+03

 S**2, projected HF & approx projected MPn energies after annihilation of
 unwanted spin states (see manual for definitions):

 spins       (S**2,0) (S**2,1)    PUHF        PMP2        PMP3        PMP4
 annihilated
 s+1         0.73374  0.74399 -417.991918 -419.248447 -419.273952
 s+1,s+2     0.75033  0.74996 -417.990755 -419.247352 -419.272950
 s+1 to s+3  0.75000  0.75000 -417.990780 -419.247370 -419.272957
 s+1 to s+4  0.75000  0.75000 -417.990780 -419.247370 -419.272957
 s+1 to s+5  0.75000  0.75000 -417.990780
 s+1 to s+6  0.75000  0.75000 -417.990780

 Discarding MO integrals.

 **********************************************************************

            Population analysis using the SCF density.

 **********************************************************************

 Orbital symmetries:
 Alpha Orbitals:
       Occupied  (A) (A) (A) (A) (A) (A) (A) (A) (A) (A) (A) (A)
                 (A) (A) (A) (A) (A) (A) (A) (A) (A) (A) (A) (A)
                 (A) (A) (A) (A) (A) (A) (A)
       Virtual   (A) (A) (A) (A) (A) (A) (A) (A) (A) (A) (A) (A)
                 (A) (A) (A) (A) (A) (A) (A) (A) (A) (A) (A) (A)
                 (A) (A) (A) (A) (A) (A) (A) (A) (A) (A) (A) (A)
                 (A) (A) (A) (A) (A) (A) (A) (A) (A) (A) (A) (A)
                 (A) (A) (A) (A) (A) (A) (A) (A) (A) (A) (A) (A)
                 (A) (A) (A) (A) (A) (A) (A) (A) (A) (A) (A) (A)
                 (A) (A) (A) (A) (A) (A) (A) (A) (A) (A) (A) (A)
                 (A) (A) (A) (A) (A) (A) (A) (A) (A) (A) (A) (A)
                 (A) (A) (A) (A) (A) (A) (A) (A) (A) (A) (A) (A)
                 (A) (A) (A) (A) (A) (A) (A) (A) (A) (A) (A) (A)
                 (A) (A) (A) (A) (A) (A) (A) (A) (A) (A) (A) (A)
                 (A) (A) (A) (A) (A) (A) (A) (A) (A) (A) (A) (A)
                 (A) (A) (A) (A) (A) (A) (A) (A) (A) (A) (A) (A)
                 (A) (A) (A) (A) (A) (A) (A) (A) (A) (A) (A) (A)
                 (A) (A) (A) (A) (A) (A) (A) (A) (A) (A) (A) (A)
                 (A) (A) (A) (A) (A) (A) (A) (A) (A) (A) (A) (A)
                 (A) (A)
 Beta  Orbitals:
       Occupied  (A) (A) (A) (A) (A) (A) (A) (A) (A) (A) (A) (A)
                 (A) (A) (A) (A) (A) (A) (A) (A) (A) (A) (A) (A)
                 (A) (A) (A) (A) (A) (A)
       Virtual   (A) (A) (A) (A) (A) (A) (A) (A) (A) (A) (A) (A)
                 (A) (A) (A) (A) (A) (A) (A) (A) (A) (A) (A) (A)
                 (A) (A) (A) (A) (A) (A) (A) (A) (A) (A) (A) (A)
                 (A) (A) (A) (A) (A) (A) (A) (A) (A) (A) (A) (A)
                 (A) (A) (A) (A) (A) (A) (A) (A) (A) (A) (A) (A)
                 (A) (A) (A) (A) (A) (A) (A) (A) (A) (A) (A) (A)
                 (A) (A) (A) (A) (A) (A) (A) (A) (A) (A) (A) (A)
                 (A) (A) (A) (A) (A) (A) (A) (A) (A) (A) (A) (A)
                 (A) (A) (A) (A) (A) (A) (A) (A) (A) (A) (A) (A)
                 (A) (A) (A) (A) (A) (A) (A) (A) (A) (A) (A) (A)
                 (A) (A) (A) (A) (A) (A) (A) (A) (A) (A) (A) (A)
                 (A) (A) (A) (A) (A) (A) (A) (A) (A) (A) (A) (A)
                 (A) (A) (A) (A) (A) (A) (A) (A) (A) (A) (A) (A)
                 (A) (A) (A) (A) (A) (A) (A) (A) (A) (A) (A) (A)
                 (A) (A) (A) (A) (A) (A) (A) (A) (A) (A) (A) (A)
                 (A) (A) (A) (A) (A) (A) (A) (A) (A) (A) (A) (A)
                 (A) (A) (A)
 The electronic state is 2-A.
 Alpha  occ. eigenvalues --  -20.63716 -20.61132 -20.56324 -11.41351 -11.30583
 Alpha  occ. eigenvalues --  -11.27755 -11.27283 -11.22954  -1.47954  -1.39423
 Alpha  occ. eigenvalues --   -1.38959  -1.08831  -1.04963  -0.91576  -0.87429
 Alpha  occ. eigenvalues --   -0.75982  -0.73426  -0.70061  -0.68378  -0.67606
 Alpha  occ. eigenvalues --   -0.65893  -0.63523  -0.58798  -0.56733  -0.56140
 Alpha  occ. eigenvalues --   -0.54231  -0.51067  -0.49035  -0.47196  -0.43521
 Alpha  occ. eigenvalues --   -0.42915
 Alpha virt. eigenvalues --    0.03521   0.04555   0.05267   0.06369   0.07144
 Alpha virt. eigenvalues --    0.08171   0.09815   0.10727   0.10963   0.11699
 Alpha virt. eigenvalues --    0.13314   0.13786   0.14440   0.15214   0.15911
 Alpha virt. eigenvalues --    0.16913   0.17188   0.17709   0.18660   0.19262
 Alpha virt. eigenvalues --    0.20100   0.20279   0.21105   0.22150   0.22786
 Alpha virt. eigenvalues --    0.23481   0.23631   0.26275   0.28215   0.29332
 Alpha virt. eigenvalues --    0.29654   0.31079   0.31871   0.32805   0.34197
 Alpha virt. eigenvalues --    0.35302   0.35551   0.36877   0.38023   0.38770
 Alpha virt. eigenvalues --    0.39647   0.40144   0.40484   0.41112   0.42620
 Alpha virt. eigenvalues --    0.44157   0.44571   0.46226   0.47428   0.49871
 Alpha virt. eigenvalues --    0.51078   0.52144   0.57397   0.59007   0.61132
 Alpha virt. eigenvalues --    0.63689   0.64546   0.65888   0.70285   0.71318
 Alpha virt. eigenvalues --    0.75745   0.77178   0.79149   0.79585   0.81829
 Alpha virt. eigenvalues --    0.84775   0.85061   0.86793   0.88654   0.89497
 Alpha virt. eigenvalues --    0.89728   0.90613   0.92619   0.94666   0.98382
 Alpha virt. eigenvalues --    1.01288   1.03502   1.09738   1.11554   1.15710
 Alpha virt. eigenvalues --    1.16649   1.23260   1.23755   1.25690   1.27934
 Alpha virt. eigenvalues --    1.32517   1.36903   1.38225   1.39690   1.41181
 Alpha virt. eigenvalues --    1.43495   1.46543   1.47067   1.50146   1.52041
 Alpha virt. eigenvalues --    1.54197   1.55515   1.58504   1.61526   1.66252
 Alpha virt. eigenvalues --    1.68318   1.68881   1.71029   1.72805   1.74095
 Alpha virt. eigenvalues --    1.81788   1.84021   1.84823   1.85383   1.86479
 Alpha virt. eigenvalues --    1.90752   1.93261   1.94330   1.94429   2.00619
 Alpha virt. eigenvalues --    2.03347   2.04936   2.05922   2.09328   2.11836
 Alpha virt. eigenvalues --    2.17037   2.19484   2.24611   2.29578   2.32548
 Alpha virt. eigenvalues --    2.33383   2.36880   2.41962   2.47690   2.58606
 Alpha virt. eigenvalues --    2.63150   2.67741   2.76739   2.81269   2.83270
 Alpha virt. eigenvalues --    2.84275   2.85396   2.88399   2.92430   2.93999
 Alpha virt. eigenvalues --    2.95818   2.98140   3.00375   3.05745   3.07071
 Alpha virt. eigenvalues --    3.10765   3.12661   3.16467   3.17394   3.22044
 Alpha virt. eigenvalues --    3.23000   3.26532   3.31726   3.34177   3.39892
 Alpha virt. eigenvalues --    3.40584   3.42886   3.46856   3.47441   3.48950
 Alpha virt. eigenvalues --    3.59557   3.60805   3.66304   3.71365   3.75161
 Alpha virt. eigenvalues --    3.77348   3.86720   3.98625   4.11903   4.21125
 Alpha virt. eigenvalues --    4.21880   4.22802   4.23280   4.41498   4.50932
 Alpha virt. eigenvalues --    4.51497   4.70463   5.52808   5.55293   5.60225
 Alpha virt. eigenvalues --    5.61731   5.72151   5.89282   5.99732   6.17046
 Alpha virt. eigenvalues --    6.46665  24.69096  24.98754  25.01288  25.14212
 Alpha virt. eigenvalues --   26.18749  51.51322  51.59562  51.72643
  Beta  occ. eigenvalues --  -20.61210 -20.59791 -20.55564 -11.41802 -11.30570
  Beta  occ. eigenvalues --  -11.28894 -11.25893 -11.22958  -1.47708  -1.37837
  Beta  occ. eigenvalues --   -1.25074  -1.07275  -1.04952  -0.91949  -0.87545
  Beta  occ. eigenvalues --   -0.75859  -0.73355  -0.69375  -0.66837  -0.64635
  Beta  occ. eigenvalues --   -0.63100  -0.58129  -0.55110  -0.54820  -0.51800
  Beta  occ. eigenvalues --   -0.50569  -0.47810  -0.46301  -0.43607  -0.43457
  Beta virt. eigenvalues --    0.03384   0.04308   0.04599   0.06367   0.06517
  Beta virt. eigenvalues --    0.07166   0.08402   0.10024   0.10766   0.11825
  Beta virt. eigenvalues --    0.12452   0.13884   0.14260   0.14524   0.15078
  Beta virt. eigenvalues --    0.15947   0.17005   0.17269   0.17627   0.18693
  Beta virt. eigenvalues --    0.19250   0.20346   0.20475   0.21192   0.21821
  Beta virt. eigenvalues --    0.22986   0.23485   0.23793   0.26475   0.28350
  Beta virt. eigenvalues --    0.29425   0.31088   0.31596   0.32656   0.33348
  Beta virt. eigenvalues --    0.34430   0.35575   0.36837   0.36979   0.38404
  Beta virt. eigenvalues --    0.38805   0.40074   0.40315   0.40922   0.41212
  Beta virt. eigenvalues --    0.43003   0.44190   0.44853   0.46496   0.47624
  Beta virt. eigenvalues --    0.49968   0.51479   0.52259   0.57471   0.59180
  Beta virt. eigenvalues --    0.61129   0.63782   0.64582   0.66092   0.70708
  Beta virt. eigenvalues --    0.71489   0.76359   0.76894   0.78622   0.79722
  Beta virt. eigenvalues --    0.81245   0.85020   0.85927   0.86963   0.88964
  Beta virt. eigenvalues --    0.89597   0.89891   0.91594   0.92827   0.94865
  Beta virt. eigenvalues --    0.98371   1.01719   1.03777   1.09634   1.11164
  Beta virt. eigenvalues --    1.16326   1.18091   1.23551   1.24942   1.27615
  Beta virt. eigenvalues --    1.28008   1.34795   1.38770   1.40539   1.40931
  Beta virt. eigenvalues --    1.42364   1.44231   1.47170   1.47886   1.50142
  Beta virt. eigenvalues --    1.52511   1.55072   1.55473   1.57831   1.61545
  Beta virt. eigenvalues --    1.66286   1.68367   1.70277   1.71675   1.72916
  Beta virt. eigenvalues --    1.76703   1.81809   1.84270   1.85005   1.85876
  Beta virt. eigenvalues --    1.87005   1.90957   1.93344   1.94399   1.94570
  Beta virt. eigenvalues --    2.00825   2.03425   2.05153   2.06192   2.09487
  Beta virt. eigenvalues --    2.12041   2.17196   2.19432   2.24610   2.29567
  Beta virt. eigenvalues --    2.33006   2.34686   2.36835   2.41998   2.47691
  Beta virt. eigenvalues --    2.58638   2.63166   2.68012   2.76761   2.81229
  Beta virt. eigenvalues --    2.83262   2.84310   2.85359   2.89026   2.92950
  Beta virt. eigenvalues --    2.94112   2.95901   2.98244   3.00872   3.05856
  Beta virt. eigenvalues --    3.06864   3.10897   3.15433   3.18005   3.22817
  Beta virt. eigenvalues --    3.23508   3.26446   3.29124   3.32313   3.36899
  Beta virt. eigenvalues --    3.41891   3.42935   3.47030   3.47909   3.48955
  Beta virt. eigenvalues --    3.53683   3.59771   3.61174   3.66344   3.71544
  Beta virt. eigenvalues --    3.75222   3.78514   3.86643   3.98916   4.12459
  Beta virt. eigenvalues --    4.21216   4.22678   4.23233   4.25366   4.41630
  Beta virt. eigenvalues --    4.51116   4.51493   4.70445   5.57321   5.60225
  Beta virt. eigenvalues --    5.63622   5.65567   5.72616   5.89312   6.02289
  Beta virt. eigenvalues --    6.17260   6.46765  24.69271  24.98588  25.01133
  Beta virt. eigenvalues --   25.14210  26.18771  51.53560  51.59584  51.73022
          Condensed to atoms (all electrons):
               1          2          3          4          5          6
     1  C   14.756870   0.584931  -4.973205  -3.448042  -0.004895   0.041776
     2  H    0.584931   0.400802  -0.234236  -0.010315  -0.001944  -0.001035
     3  C   -4.973205  -0.234236  10.426806  -0.041047  -0.018281  -0.147845
     4  C   -3.448042  -0.010315  -0.041047   9.155954   0.382288   0.116815
     5  O   -0.004895  -0.001944  -0.018281   0.382288   8.051918  -0.069643
     6  O    0.041776  -0.001035  -0.147845   0.116815  -0.069643   8.210455
     7  C   -0.274828  -0.002467  -0.072985   0.214854  -0.007731   0.228332
     8  C    0.341404   0.002106   0.014803  -0.300901   0.009262  -0.149082
     9  H   -0.052619  -0.001507   0.039113   0.008309  -0.001081  -0.010732
    10  H   -0.027727  -0.000892   0.002508   0.025961   0.000215  -0.078582
    11  H   -0.012147   0.000415   0.011088  -0.000521   0.000429  -0.001340
    12  H   -0.071867  -0.005866   0.056442  -0.004820   0.002995  -0.013771
    13  H   -0.004839   0.000170  -0.003473   0.002752   0.000250   0.013513
    14  O   -0.094690  -0.009960   0.036946  -0.030732  -0.002272  -0.001888
    15  H    0.161397   0.005750  -0.101562  -0.037092  -0.001382  -0.000149
               7          8          9         10         11         12
     1  C   -0.274828   0.341404  -0.052619  -0.027727  -0.012147  -0.071867
     2  H   -0.002467   0.002106  -0.001507  -0.000892   0.000415  -0.005866
     3  C   -0.072985   0.014803   0.039113   0.002508   0.011088   0.056442
     4  C    0.214854  -0.300901   0.008309   0.025961  -0.000521  -0.004820
     5  O   -0.007731   0.009262  -0.001081   0.000215   0.000429   0.002995
     6  O    0.228332  -0.149082  -0.010732  -0.078582  -0.001340  -0.013771
     7  C    5.547961  -0.107724   0.422298   0.446758  -0.056339  -0.029967
     8  C   -0.107724   5.520624  -0.045250  -0.056801   0.435235   0.356648
     9  H    0.422298  -0.045250   0.555553  -0.039803   0.003435  -0.010377
    10  H    0.446758  -0.056801  -0.039803   0.536477  -0.008930   0.014267
    11  H   -0.056339   0.435235   0.003435  -0.008930   0.555628  -0.054919
    12  H   -0.029967   0.356648  -0.010377   0.014267  -0.054919   0.611590
    13  H   -0.045284   0.412423  -0.005283   0.002591  -0.035761  -0.034718
    14  O   -0.013021  -0.001241   0.001928  -0.000103  -0.000920   0.012367
    15  H   -0.002926   0.004777   0.000428  -0.000050   0.000120  -0.006918
              13         14         15
     1  C   -0.004839  -0.094690   0.161397
     2  H    0.000170  -0.009960   0.005750
     3  C   -0.003473   0.036946  -0.101562
     4  C    0.002752  -0.030732  -0.037092
     5  O    0.000250  -0.002272  -0.001382
     6  O    0.013513  -0.001888  -0.000149
     7  C   -0.045284  -0.013021  -0.002926
     8  C    0.412423  -0.001241   0.004777
     9  H   -0.005283   0.001928   0.000428
    10  H    0.002591  -0.000103  -0.000050
    11  H   -0.035761  -0.000920   0.000120
    12  H   -0.034718   0.012367  -0.006918
    13  H    0.572853  -0.001921   0.000301
    14  O   -0.001921   8.006891   0.292684
    15  H    0.000301   0.292684   0.443942
          Atomic-Atomic Spin Densities.
               1          2          3          4          5          6
     1  C   -0.685700   0.029373  -0.072256   0.003509  -0.015279   0.004923
     2  H    0.029373   0.045845  -0.019258  -0.003615  -0.000364   0.000301
     3  C   -0.072256  -0.019258   0.859836   0.103856  -0.017061  -0.028396
     4  C    0.003509  -0.003615   0.103856  -0.321248  -0.016913   0.055243
     5  O   -0.015279  -0.000364  -0.017061  -0.016913   0.211199   0.002897
     6  O    0.004923   0.000301  -0.028396   0.055243   0.002897  -0.042418
     7  C   -0.028160  -0.001484   0.020218   0.012028  -0.001220   0.002736
     8  C    0.024905   0.000488  -0.004748  -0.028537   0.000907   0.000395
     9  H    0.010517   0.000983  -0.013425   0.001024  -0.000273   0.000035
    10  H   -0.004272  -0.000139   0.008363  -0.003169  -0.000144   0.001020
    11  H    0.001275   0.000101  -0.006570   0.002228   0.000199  -0.000018
    12  H   -0.026193  -0.000571   0.032860   0.008815  -0.000381   0.000145
    13  H    0.001838  -0.000065   0.001630  -0.001917  -0.000022  -0.000040
    14  O    0.064242   0.009199  -0.107741   0.009479   0.000213   0.000884
    15  H   -0.015640  -0.001522   0.014238   0.001260   0.000078  -0.000111
               7          8          9         10         11         12
     1  C   -0.028160   0.024905   0.010517  -0.004272   0.001275  -0.026193
     2  H   -0.001484   0.000488   0.000983  -0.000139   0.000101  -0.000571
     3  C    0.020218  -0.004748  -0.013425   0.008363  -0.006570   0.032860
     4  C    0.012028  -0.028537   0.001024  -0.003169   0.002228   0.008815
     5  O   -0.001220   0.000907  -0.000273  -0.000144   0.000199  -0.000381
     6  O    0.002736   0.000395   0.000035   0.001020  -0.000018   0.000145
     7  C    0.018998  -0.015843  -0.002262   0.002456   0.001279  -0.000343
     8  C   -0.015843   0.015082   0.001865  -0.001784  -0.001294  -0.001998
     9  H   -0.002262   0.001865   0.001413  -0.001061  -0.000335  -0.000947
    10  H    0.002456  -0.001784  -0.001061  -0.001057   0.000902  -0.001196
    11  H    0.001279  -0.001294  -0.000335   0.000902  -0.000855   0.002070
    12  H   -0.000343  -0.001998  -0.000947  -0.001196   0.002070  -0.000675
    13  H   -0.000953   0.000683   0.000397  -0.000247   0.000295  -0.001276
    14  O   -0.012471   0.012628   0.002338  -0.000812   0.000192  -0.011916
    15  H    0.001412  -0.001001  -0.000288   0.000097  -0.000052   0.000971
              13         14         15
     1  C    0.001838   0.064242  -0.015640
     2  H   -0.000065   0.009199  -0.001522
     3  C    0.001630  -0.107741   0.014238
     4  C   -0.001917   0.009479   0.001260
     5  O   -0.000022   0.000213   0.000078
     6  O   -0.000040   0.000884  -0.000111
     7  C   -0.000953  -0.012471   0.001412
     8  C    0.000683   0.012628  -0.001001
     9  H    0.000397   0.002338  -0.000288
    10  H   -0.000247  -0.000812   0.000097
    11  H    0.000295   0.000192  -0.000052
    12  H   -0.001276  -0.011916   0.000971
    13  H    0.000445  -0.000110   0.000074
    14  O   -0.000110   0.950228   0.011150
    15  H    0.000074   0.011150  -0.042126
 Mulliken charges and spin densities:
               1          2
     1  C   -0.921519  -0.706920
     2  H    0.274048   0.059271
     3  C    1.004926   0.771544
     4  C   -0.033463  -0.177959
     5  O   -0.340128   0.163835
     6  O   -0.136827  -0.002403
     7  C   -0.246930  -0.003609
     8  C   -0.436285   0.001751
     9  H    0.135589  -0.000019
    10  H    0.184111  -0.001044
    11  H    0.164529  -0.000583
    12  H    0.178914  -0.000635
    13  H    0.126425   0.000730
    14  O   -0.194068   0.927501
    15  H    0.240680  -0.031461
 Sum of Mulliken charges =  -0.00000   1.00000
 Mulliken charges and spin densities with hydrogens summed into heavy atoms:
               1          2
     1  C   -0.647471  -0.647649
     3  C    1.004926   0.771544
     4  C   -0.033463  -0.177959
     5  O   -0.340128   0.163835
     6  O   -0.136827  -0.002403
     7  C    0.072770  -0.004672
     8  C    0.033583   0.001263
    14  O    0.046611   0.896039
 Electronic spatial extent (au):  <R**2>=           1050.5736
 Charge=             -0.0000 electrons
 Dipole moment (field-independent basis, Debye):
    X=              1.0976    Y=             -3.3819    Z=              1.6458  Tot=              3.9180
 Quadrupole moment (field-independent basis, Debye-Ang):
   XX=            -42.7978   YY=            -56.7971   ZZ=            -43.9410
   XY=              5.5161   XZ=             -1.2615   YZ=              0.9058
 Traceless Quadrupole moment (field-independent basis, Debye-Ang):
   XX=              5.0475   YY=             -8.9518   ZZ=              3.9043
   XY=              5.5161   XZ=             -1.2615   YZ=              0.9058
 Octapole moment (field-independent basis, Debye-Ang**2):
  XXX=             12.0984  YYY=            -19.2795  ZZZ=             -7.5116  XYY=             -4.7467
  XXY=             -1.5595  XXZ=              3.0953  XZZ=             10.9225  YZZ=             -2.7434
  YYZ=              6.7408  XYZ=             -4.8904
 Hexadecapole moment (field-independent basis, Debye-Ang**3):
 XXXX=           -609.5946 YYYY=           -547.7153 ZZZZ=           -166.0518 XXXY=             11.8271
 XXXZ=             -5.4397 YYYX=             -2.0935 YYYZ=              9.7423 ZZZX=             -9.8723
 ZZZY=             -4.2497 XXYY=           -203.2949 XXZZ=           -101.8778 YYZZ=           -117.6672
 XXYZ=            -11.5273 YYXZ=             -5.3269 ZZXY=             -6.6873
 N-N= 3.579014125107D+02 E-N=-1.698596376182D+03  KE= 4.177289660082D+02
 1\1\GINC-AJ\SP\UCCSD(T)-FC\6-311++G(d,p)\C5H7O3(2)\AAYUSH\10-May-2025\
 0\\# ccsd(t)/6-311++g(d,p) sp\\Title Card Required\\0,2\C,0,1.764431,-
 0.072635,1.049861\H,0,2.59281,-0.459525,1.597487\C,0,0.761209,0.45569,
 0.628283\C,0,-0.369699,1.096073,-0.046535\O,0,-0.241381,2.14988,-0.598
 469\O,0,-1.538036,0.456759,-0.008741\C,0,-1.633829,-0.874004,0.536807\
 C,0,-1.150284,-1.911432,-0.456854\H,0,-1.081505,-0.922456,1.477682\H,0
 ,-2.694699,-0.989206,0.75235\H,0,-1.706794,-1.824239,-1.39128\H,0,-0.0
 84062,-1.798774,-0.663353\H,0,-1.314242,-2.911029,-0.048665\O,0,2.3658
 07,-1.048788,-0.70543\H,0,2.46159,-0.265009,-1.270953\\Version=ES64L-G
 16RevA.03\State=2-A\HF=-417.9749132\MP2=-419.2336156\MP3=-419.2629187\
 MP4D=-419.2933128\MP4DQ=-419.2682854\PUHF=-417.991918\PMP2-0=-419.2484
 465\PMP3-0=-419.2739519\MP4SDQ=-419.2890162\CCSD=-419.2934649\CCSD(T)=
 -419.3474964\S2=0.959152\S2-1=0.901522\S2A=0.77783\RMSD=8.327e-09\PG=C
 01 [X(C5H7O3)]\\@


 STEINBACH'S GUIDELINES FOR SYSTEMS PROGRAMMING:
 NEVER TEST FOR AN ERROR CONDITION YOU DON'T KNOW HOW
 TO HANDLE.
 Job cpu time:       0 days 20 hours 13 minutes 52.2 seconds.
 Elapsed time:       0 days  0 hours 50 minutes 49.4 seconds.
 File lengths (MBytes):  RWF=  44733 Int=      0 D2E=      0 Chk=      6 Scr=      1
 Normal termination of Gaussian 16 at Sat May 10 08:07:27 2025.
