 Entering Gaussian System, Link 0=g16
 Initial command:
 /opt/g16/l1.exe "/home/aayush/scratches/g16/Gau-10436.inp" -scrdir="/home/aayush/scratches/g16/"
 Entering Link 1 = /opt/g16/l1.exe PID=     10439.
  
 Copyright (c) 1988,1990,1992,1993,1995,1998,2003,2009,2016,
            Gaussian, Inc.  All Rights Reserved.
  
 This is part of the Gaussian(R) 16 program.  It is based on
 the Gaussian(R) 09 system (copyright 2009, Gaussian, Inc.),
 the Gaussian(R) 03 system (copyright 2003, Gaussian, Inc.),
 the Gaussian(R) 98 system (copyright 1998, Gaussian, Inc.),
 the Gaussian(R) 94 system (copyright 1995, Gaussian, Inc.),
 the Gaussian 92(TM) system (copyright 1992, Gaussian, Inc.),
 the Gaussian 90(TM) system (copyright 1990, Gaussian, Inc.),
 the Gaussian 88(TM) system (copyright 1988, Gaussian, Inc.),
 the Gaussian 86(TM) system (copyright 1986, Carnegie Mellon
 University), and the Gaussian 82(TM) system (copyright 1983,
 Carnegie Mellon University). Gaussian is a federally registered
 trademark of Gaussian, Inc.
  
 This software contains proprietary and confidential information,
 including trade secrets, belonging to Gaussian, Inc.
  
 This software is provided under written license and may be
 used, copied, transmitted, or stored only in accord with that
 written license.
  
 The following legend is applicable only to US Government
 contracts under FAR:
  
                    RESTRICTED RIGHTS LEGEND
  
 Use, reproduction and disclosure by the US Government is
 subject to restrictions as set forth in subparagraphs (a)
 and (c) of the Commercial Computer Software - Restricted
 Rights clause in FAR 52.227-19.
  
 Gaussian, Inc.
 340 Quinnipiac St., Bldg. 40, Wallingford CT 06492
  
  
 ---------------------------------------------------------------
 Warning -- This program may not be used in any manner that
 competes with the business of Gaussian, Inc. or will provide
 assistance to any competitor of Gaussian, Inc.  The licensee
 of this program is prohibited from giving any competitor of
 Gaussian, Inc. access to this program.  By using this program,
 the user acknowledges that Gaussian, Inc. is engaged in the
 business of creating and licensing software in the field of
 computational chemistry and represents and warrants to the
 licensee that it is not a competitor of Gaussian, Inc. and that
 it will not use this program in any manner prohibited above.
 ---------------------------------------------------------------
  

 Cite this work as:
 Gaussian 16, Revision A.03,
 M. J. Frisch, G. W. Trucks, H. B. Schlegel, G. E. Scuseria, 
 M. A. Robb, J. R. Cheeseman, G. Scalmani, V. Barone, 
 G. A. Petersson, H. Nakatsuji, X. Li, M. Caricato, A. V. Marenich, 
 J. Bloino, B. G. Janesko, R. Gomperts, B. Mennucci, H. P. Hratchian, 
 J. V. Ortiz, A. F. Izmaylov, J. L. Sonnenberg, D. Williams-Young, 
 F. Ding, F. Lipparini, F. Egidi, J. Goings, B. Peng, A. Petrone, 
 T. Henderson, D. Ranasinghe, V. G. Zakrzewski, J. Gao, N. Rega, 
 G. Zheng, W. Liang, M. Hada, M. Ehara, K. Toyota, R. Fukuda, 
 J. Hasegawa, M. Ishida, T. Nakajima, Y. Honda, O. Kitao, H. Nakai, 
 T. Vreven, K. Throssell, J. A. Montgomery, Jr., J. E. Peralta, 
 F. Ogliaro, M. J. Bearpark, J. J. Heyd, E. N. Brothers, K. N. Kudin, 
 V. N. Staroverov, T. A. Keith, R. Kobayashi, J. Normand, 
 K. Raghavachari, A. P. Rendell, J. C. Burant, S. S. Iyengar, 
 J. Tomasi, M. Cossi, J. M. Millam, M. Klene, C. Adamo, R. Cammi, 
 J. W. Ochterski, R. L. Martin, K. Morokuma, O. Farkas, 
 J. B. Foresman, and D. J. Fox, Gaussian, Inc., Wallingford CT, 2016.
 
 ******************************************
 Gaussian 16:  ES64L-G16RevA.03 25-Dec-2016
                10-May-2025 
 ******************************************
 %chk=ethyl_propiolate.chk
 %nprocshared=24
 Will use up to   24 processors via shared memory.
 %mem=12GB
 --------------------------
 # ccsd(t)/6-311++g(d,p) sp
 --------------------------
 1/38=1,172=1/1;
 2/12=2,17=6,18=5,40=1/2;
 3/5=4,6=6,7=1111,11=9,25=1,30=1/1,2,3;
 4//1;
 5/5=2,38=5/2;
 8/6=4,9=120000,10=2/1,4;
 9/5=7,14=2/13;
 6/7=2,8=2,9=2,10=2/1;
 99/5=1,9=1/99;
 -------------------
 Title Card Required
 -------------------
 Symbolic Z-matrix:
 Charge =  0 Multiplicity = 2
 C                     1.72974  -0.01588   1.16281 
 H                     2.57868  -0.43284   1.65213 
 C                     0.75696   0.46357   0.64338 
 C                    -0.37027   1.09765  -0.04605 
 O                    -0.24302   2.14912  -0.60168 
 O                    -1.53775   0.4561   -0.01103 
 C                    -1.63396  -0.87349   0.53669 
 C                    -1.15144  -1.91177  -0.45662 
 H                    -1.08116  -0.92134   1.47704 
 H                    -2.69486  -0.98852   0.75227 
 H                    -1.7073   -1.8242   -1.39139 
 H                    -0.08519  -1.80008  -0.6632 
 H                    -1.31583  -2.91133  -0.04857 
 O                     2.39784  -1.0986   -0.79808 
 H                     2.47758  -0.26869  -1.29843 
 
                          Input orientation:                          
 ---------------------------------------------------------------------
 Center     Atomic      Atomic             Coordinates (Angstroms)
 Number     Number       Type             X           Y           Z
 ---------------------------------------------------------------------
      1          6           0        1.729742   -0.015877    1.162810
      2          1           0        2.578684   -0.432840    1.652129
      3          6           0        0.756959    0.463568    0.643384
      4          6           0       -0.370265    1.097653   -0.046052
      5          8           0       -0.243024    2.149119   -0.601679
      6          8           0       -1.537752    0.456096   -0.011028
      7          6           0       -1.633964   -0.873490    0.536693
      8          6           0       -1.151443   -1.911769   -0.456617
      9          1           0       -1.081160   -0.921338    1.477038
     10          1           0       -2.694864   -0.988517    0.752272
     11          1           0       -1.707295   -1.824197   -1.391387
     12          1           0       -0.085185   -1.800079   -0.663201
     13          1           0       -1.315830   -2.911333   -0.048572
     14          8           0        2.397837   -1.098603   -0.798081
     15          1           0        2.477580   -0.268693   -1.298425
 ---------------------------------------------------------------------
                    Distance matrix (angstroms):
                    1          2          3          4          5
     1  C    0.000000
     2  H    1.064891   0.000000
     3  C    1.202488   2.267112   0.000000
     4  C    2.666707   3.731290   1.465612   0.000000
     5  O    3.419420   4.439392   2.321902   1.196032   0.000000
     6  O    3.503879   4.527841   2.386212   1.332609   2.211677
     7  C    3.527328   4.380043   2.741463   2.412868   3.516642
     8  C    3.810273   4.532978   3.239479   3.136148   4.163782
     9  H    2.969810   3.696450   2.447780   2.627071   3.801479
    10  H    4.548814   5.378553   3.746397   3.223847   4.205884
    11  H    4.648351   5.437691   3.930230   3.483502   4.307548
    12  H    3.132356   3.785009   2.745991   2.976406   3.952830
    13  H    4.373399   4.919609   4.020599   4.118989   5.202405
    14  O    2.337464   2.545481   2.685271   3.612683   4.190515
    15  H    2.584735   2.956845   2.695805   3.397876   3.705800
                    6          7          8          9         10
     6  O    0.000000
     7  C    1.441199   0.000000
     8  C    2.440199   1.515755   0.000000
     9  H    2.078495   1.091847   2.173687   0.000000
    10  H    2.002109   1.088675   2.167015   1.770265   0.000000
    11  H    2.670931   2.150980   1.091071   3.071655   2.503783
    12  H    2.761450   2.167263   1.091814   2.518884   3.077762
    13  H    3.374943   2.143956   1.092086   2.518459   2.498061
    14  O    4.304115   4.252966   3.657215   4.160650   5.324595
    15  H    4.278505   4.542932   4.071627   4.560019   5.610497
                   11         12         13         14         15
    11  H    0.000000
    12  H    1.778223   0.000000
    13  H    1.771514   1.768373   0.000000
    14  O    4.210773   2.583730   4.199890   0.000000
    15  H    4.465581   3.052281   4.789117   0.972344   0.000000
 Stoichiometry    C5H7O3(2)
 Framework group  C1[X(C5H7O3)]
 Deg. of freedom    39
 Full point group                 C1      NOp   1
 Largest Abelian subgroup         C1      NOp   1
 Largest concise Abelian subgroup C1      NOp   1
                         Standard orientation:                         
 ---------------------------------------------------------------------
 Center     Atomic      Atomic             Coordinates (Angstroms)
 Number     Number       Type             X           Y           Z
 ---------------------------------------------------------------------
      1          6           0        1.730723    0.122282    1.174659
      2          1           0        2.582061   -0.265357    1.683535
      3          6           0        0.754724    0.569218    0.632763
      4          6           0       -0.376764    1.163272   -0.084770
      5          8           0       -0.263326    2.201879   -0.666937
      6          8           0       -1.532334    0.500787   -0.044506
      7          6           0       -1.609456   -0.815412    0.537496
      8          6           0       -1.097000   -1.870278   -0.422796
      9          1           0       -1.065913   -0.827815    1.484353
     10          1           0       -2.670253   -0.944837    0.745274
     11          1           0       -1.644394   -1.818082   -1.365172
     12          1           0       -0.030879   -1.743848   -0.621440
     13          1           0       -1.246974   -2.861626    0.010086
     14          8           0        2.439862   -0.999110   -0.749747
     15          1           0        2.509375   -0.181380   -1.271224
 ---------------------------------------------------------------------
 Rotational constants (GHZ):           2.1501920           1.6654251           1.1669831
 Standard basis: 6-311++G(d,p) (5D, 7F)
 There are   233 symmetry adapted cartesian basis functions of A   symmetry.
 There are   225 symmetry adapted basis functions of A   symmetry.
   225 basis functions,   351 primitive gaussians,   233 cartesian basis functions
    31 alpha electrons       30 beta electrons
       nuclear repulsion energy       355.3868547541 Hartrees.
 NAtoms=   15 NActive=   15 NUniq=   15 SFac= 1.00D+00 NAtFMM=   60 NAOKFM=F Big=F
 Integral buffers will be    131072 words long.
 Raffenetti 2 integral format.
 Two-electron integral symmetry is turned on.
 One-electron integrals computed using PRISM.
 NBasis=   225 RedAO= T EigKep=  1.52D-06  NBF=   225
 NBsUse=   225 1.00D-06 EigRej= -1.00D+00 NBFU=   225
 ExpMin= 3.60D-02 ExpMax= 8.59D+03 ExpMxC= 1.30D+03 IAcc=3 IRadAn=         5 AccDes= 0.00D+00
 Harris functional with IExCor=  205 and IRadAn=       5 diagonalized for initial guess.
 HarFok:  IExCor=  205 AccDes= 0.00D+00 IRadAn=         5 IDoV= 1 UseB2=F ITyADJ=14
 ICtDFT=  3500011 ScaDFX=  1.000000  1.000000  1.000000  1.000000
 FoFCou: FMM=F IPFlag=           0 FMFlag=      100000 FMFlg1=           0
         NFxFlg=           0 DoJE=T BraDBF=F KetDBF=T FulRan=T
         wScrn=  0.000000 ICntrl=       500 IOpCl=  0 I1Cent=   200000004 NGrid=           0
         NMat0=    1 NMatS0=      1 NMatT0=    0 NMatD0=    1 NMtDS0=    0 NMtDT0=    0
 Petite list used in FoFCou.
 Initial guess <Sx>= 0.0000 <Sy>= 0.0000 <Sz>= 0.5000 <S**2>= 0.7500 S= 0.5000
 Requested convergence on RMS density matrix=1.00D-08 within 128 cycles.
 Requested convergence on MAX density matrix=1.00D-06.
 Requested convergence on             energy=1.00D-06.
 No special actions if energy rises.
 Initial convergence to 1.0D-05 achieved.  Increase integral accuracy.
 Restarting incremental Fock formation.
 SCF Done:  E(UHF) =  -417.983518656     A.U. after   39 cycles
            NFock= 39  Conv=0.62D-08     -V/T= 2.0007
 <Sx>= 0.0000 <Sy>= 0.0000 <Sz>= 0.5000 <S**2>= 0.8322 S= 0.5403
 <L.S>=  0.00000000000    
 Annihilation of the first spin contaminant:
 S**2 before annihilation     0.8322,   after     0.7543
 ExpMin= 3.60D-02 ExpMax= 8.59D+03 ExpMxC= 1.30D+03 IAcc=3 IRadAn=         5 AccDes= 0.00D+00
 HarFok:  IExCor=  205 AccDes= 0.00D+00 IRadAn=         5 IDoV=-2 UseB2=F ITyADJ=14
 ICtDFT= 12500011 ScaDFX=  1.000000  1.000000  1.000000  1.000000
 Range of M.O.s used for correlation:     9   225
 NBasis=   225 NAE=    31 NBE=    30 NFC=     8 NFV=     0
 NROrb=    217 NOA=    23 NOB=    22 NVA=   194 NVB=   195

 **** Warning!!: The largest alpha MO coefficient is  0.26442238D+03


 **** Warning!!: The largest beta MO coefficient is  0.30314543D+03

 Semi-Direct transformation.
 ModeAB=           4 MOrb=            23 LenV=    1609170722
 LASXX=    109339976 LTotXX=   109339976 LenRXX=   221407890
 LTotAB=   112067914 MaxLAS=   131073642 LenRXY=           0
 NonZer=   330747866 LenScr=   498067456 LnRSAI=   131073642
 LnScr1=   197382144 LExtra=           0 Total=   1047931132
 MaxDsk=          -1 SrtSym=           T ITran=            4
 JobTyp=1 Pass  1:  I=   1 to  23.
 (rs|ai) integrals will be sorted in core.
 ModeAB=           4 MOrb=            22 LenV=    1609170722
 LASXX=    104936601 LTotXX=   104936601 LenRXX=   190867446
 LTotAB=    85930845 MaxLAS=   125374788 LenRXY=           0
 NonZer=   295804047 LenScr=   445446144 LnRSAI=   125374788
 LnScr1=   188829696 LExtra=           0 Total=    950518074
 MaxDsk=          -1 SrtSym=           T ITran=            4
 JobTyp=2 Pass  1:  I=   1 to  22.
 (rs|ai) integrals will be sorted in core.
 SymMOI:  orbitals are not symmetric.
 Spin components of T(2) and E(2):
     alpha-alpha T2 =       0.5199771966D-01 E2=     -0.1690687987D+00
     alpha-beta  T2 =       0.2872975565D+00 E2=     -0.9364947091D+00
     beta-beta   T2 =       0.5063292904D-01 E2=     -0.1567331265D+00
 ANorm=    0.1178952164D+01
 E2 =    -0.1262296634D+01 EUMP2 =    -0.41924581528989D+03
 (S**2,0)=  0.83217D+00           (S**2,1)=  0.80782D+00
 E(PUHF)=      -0.41799125997D+03        E(PMP2)=      -0.41925244390D+03
 Keep R2 and R3 ints in memory in canonical form, NReq=652884060.
 CIDS: In Core Option IDoMem=           1.
 Iterations=  50 Convergence= 0.100D-06
 Produce multiple copies of IABC intergrals
 Iteration Nr.   1
 **********************
 DD1Dir will call FoFMem   1 times, MxPair=      1496
 NAB=   506 NAA=   253 NBB=   231.
 E(PMP3)=      -0.41927782871D+03
 MP4(R+Q)=  0.25368840D-01
 E3=       -0.27271231D-01        EUMP3=      -0.41927308652D+03
 E4(DQ)=   -0.54562731D-02        UMP4(DQ)=   -0.41927854279D+03
 E4(SDQ)=  -0.24397013D-01        UMP4(SDQ)=  -0.41929748353D+03
 DE(Corr)=  -1.2635865     E(Corr)=     -419.24710512    
 NORM(A)=   0.11854032D+01
 Iteration Nr.   2
 **********************
 DD1Dir will call FoFMem   1 times, MxPair=      1496
 NAB=   506 NAA=   253 NBB=   231.
 DE(Corr)=  -1.3057966     E(CORR)=     -419.28931523     Delta=-4.22D-02
 NORM(A)=   0.12037009D+01
 Iteration Nr.   3
 **********************
 DD1Dir will call FoFMem   1 times, MxPair=      1496
 NAB=   506 NAA=   253 NBB=   231.
 DE(Corr)=  -1.3073892     E(CORR)=     -419.29090790     Delta=-1.59D-03
 NORM(A)=   0.12111255D+01
 Iteration Nr.   4
 **********************
 DD1Dir will call FoFMem   1 times, MxPair=      1496
 NAB=   506 NAA=   253 NBB=   231.
 DE(Corr)=  -1.3127530     E(CORR)=     -419.29627162     Delta=-5.36D-03
 NORM(A)=   0.12150049D+01
 Iteration Nr.   5
 **********************
 DD1Dir will call FoFMem   1 times, MxPair=      1496
 NAB=   506 NAA=   253 NBB=   231.
 DE(Corr)=  -1.3139034     E(CORR)=     -419.29742201     Delta=-1.15D-03
 NORM(A)=   0.12173232D+01
 Iteration Nr.   6
 **********************
 DD1Dir will call FoFMem   1 times, MxPair=      1496
 NAB=   506 NAA=   253 NBB=   231.
 DE(Corr)=  -1.3142773     E(CORR)=     -419.29779598     Delta=-3.74D-04
 NORM(A)=   0.12178682D+01
 Iteration Nr.   7
 **********************
 DD1Dir will call FoFMem   1 times, MxPair=      1496
 NAB=   506 NAA=   253 NBB=   231.
 DE(Corr)=  -1.3143524     E(CORR)=     -419.29787104     Delta=-7.51D-05
 NORM(A)=   0.12179637D+01
 Iteration Nr.   8
 **********************
 DD1Dir will call FoFMem   1 times, MxPair=      1496
 NAB=   506 NAA=   253 NBB=   231.
 DE(Corr)=  -1.3143432     E(CORR)=     -419.29786183     Delta= 9.21D-06
 NORM(A)=   0.12180067D+01
 Iteration Nr.   9
 **********************
 DD1Dir will call FoFMem   1 times, MxPair=      1496
 NAB=   506 NAA=   253 NBB=   231.
 DE(Corr)=  -1.3143516     E(CORR)=     -419.29787022     Delta=-8.39D-06
 NORM(A)=   0.12180082D+01
 Iteration Nr.  10
 **********************
 DD1Dir will call FoFMem   1 times, MxPair=      1496
 NAB=   506 NAA=   253 NBB=   231.
 DE(Corr)=  -1.3143536     E(CORR)=     -419.29787225     Delta=-2.03D-06
 NORM(A)=   0.12180137D+01
 Iteration Nr.  11
 **********************
 DD1Dir will call FoFMem   1 times, MxPair=      1496
 NAB=   506 NAA=   253 NBB=   231.
 DE(Corr)=  -1.3143598     E(CORR)=     -419.29787844     Delta=-6.19D-06
 NORM(A)=   0.12180204D+01
 Iteration Nr.  12
 **********************
 DD1Dir will call FoFMem   1 times, MxPair=      1496
 NAB=   506 NAA=   253 NBB=   231.
 DE(Corr)=  -1.3143615     E(CORR)=     -419.29788016     Delta=-1.72D-06
 NORM(A)=   0.12180269D+01
 Iteration Nr.  13
 **********************
 DD1Dir will call FoFMem   1 times, MxPair=      1496
 NAB=   506 NAA=   253 NBB=   231.
 DE(Corr)=  -1.3143638     E(CORR)=     -419.29788245     Delta=-2.29D-06
 NORM(A)=   0.12180326D+01
 Iteration Nr.  14
 **********************
 DD1Dir will call FoFMem   1 times, MxPair=      1496
 NAB=   506 NAA=   253 NBB=   231.
 DE(Corr)=  -1.3143648     E(CORR)=     -419.29788350     Delta=-1.05D-06
 NORM(A)=   0.12180366D+01
 Iteration Nr.  15
 **********************
 DD1Dir will call FoFMem   1 times, MxPair=      1496
 NAB=   506 NAA=   253 NBB=   231.
 DE(Corr)=  -1.3143655     E(CORR)=     -419.29788412     Delta=-6.15D-07
 NORM(A)=   0.12180395D+01
 Iteration Nr.  16
 **********************
 DD1Dir will call FoFMem   1 times, MxPair=      1496
 NAB=   506 NAA=   253 NBB=   231.
 DE(Corr)=  -1.3143661     E(CORR)=     -419.29788471     Delta=-5.91D-07
 NORM(A)=   0.12180408D+01
 Iteration Nr.  17
 **********************
 DD1Dir will call FoFMem   1 times, MxPair=      1496
 NAB=   506 NAA=   253 NBB=   231.
 DE(Corr)=  -1.3143662     E(CORR)=     -419.29788487     Delta=-1.65D-07
 NORM(A)=   0.12180413D+01
 Iteration Nr.  18
 **********************
 DD1Dir will call FoFMem   1 times, MxPair=      1496
 NAB=   506 NAA=   253 NBB=   231.
 DE(Corr)=  -1.3143664     E(CORR)=     -419.29788502     Delta=-1.45D-07
 NORM(A)=   0.12180415D+01
 Iteration Nr.  19
 **********************
 DD1Dir will call FoFMem   1 times, MxPair=      1496
 NAB=   506 NAA=   253 NBB=   231.
 DE(Corr)=  -1.3143664     E(CORR)=     -419.29788502     Delta=-2.30D-09
 NORM(A)=   0.12180415D+01
 Wavefunction amplitudes converged. E(Corr)=     -419.29788502    
 Largest amplitude= 6.14D-02
 Time for triples=    36321.70 seconds.
 T4(CCSD)= -0.56483196D-01
 T5(CCSD)=  0.35512940D-02
 CCSD(T)= -0.41935081692D+03

 S**2, projected HF & approx projected MPn energies after annihilation of
 unwanted spin states (see manual for definitions):

 spins       (S**2,0) (S**2,1)    PUHF        PMP2        PMP3        PMP4
 annihilated
 s+1         0.74746  0.74923 -417.991260 -419.252444 -419.277829
 s+1,s+2     0.75003  0.74999 -417.991028 -419.252229 -419.277635
 s+1 to s+3  0.75000  0.75000 -417.991030 -419.252230 -419.277635
 s+1 to s+4  0.75000  0.75000 -417.991030 -419.252230 -419.277635
 s+1 to s+5  0.75000  0.75000 -417.991030
 s+1 to s+6  0.75000  0.75000 -417.991030

 Discarding MO integrals.

 **********************************************************************

            Population analysis using the SCF density.

 **********************************************************************

 Orbital symmetries:
 Alpha Orbitals:
       Occupied  (A) (A) (A) (A) (A) (A) (A) (A) (A) (A) (A) (A)
                 (A) (A) (A) (A) (A) (A) (A) (A) (A) (A) (A) (A)
                 (A) (A) (A) (A) (A) (A) (A)
       Virtual   (A) (A) (A) (A) (A) (A) (A) (A) (A) (A) (A) (A)
                 (A) (A) (A) (A) (A) (A) (A) (A) (A) (A) (A) (A)
                 (A) (A) (A) (A) (A) (A) (A) (A) (A) (A) (A) (A)
                 (A) (A) (A) (A) (A) (A) (A) (A) (A) (A) (A) (A)
                 (A) (A) (A) (A) (A) (A) (A) (A) (A) (A) (A) (A)
                 (A) (A) (A) (A) (A) (A) (A) (A) (A) (A) (A) (A)
                 (A) (A) (A) (A) (A) (A) (A) (A) (A) (A) (A) (A)
                 (A) (A) (A) (A) (A) (A) (A) (A) (A) (A) (A) (A)
                 (A) (A) (A) (A) (A) (A) (A) (A) (A) (A) (A) (A)
                 (A) (A) (A) (A) (A) (A) (A) (A) (A) (A) (A) (A)
                 (A) (A) (A) (A) (A) (A) (A) (A) (A) (A) (A) (A)
                 (A) (A) (A) (A) (A) (A) (A) (A) (A) (A) (A) (A)
                 (A) (A) (A) (A) (A) (A) (A) (A) (A) (A) (A) (A)
                 (A) (A) (A) (A) (A) (A) (A) (A) (A) (A) (A) (A)
                 (A) (A) (A) (A) (A) (A) (A) (A) (A) (A) (A) (A)
                 (A) (A) (A) (A) (A) (A) (A) (A) (A) (A) (A) (A)
                 (A) (A)
 Beta  Orbitals:
       Occupied  (A) (A) (A) (A) (A) (A) (A) (A) (A) (A) (A) (A)
                 (A) (A) (A) (A) (A) (A) (A) (A) (A) (A) (A) (A)
                 (A) (A) (A) (A) (A) (A)
       Virtual   (A) (A) (A) (A) (A) (A) (A) (A) (A) (A) (A) (A)
                 (A) (A) (A) (A) (A) (A) (A) (A) (A) (A) (A) (A)
                 (A) (A) (A) (A) (A) (A) (A) (A) (A) (A) (A) (A)
                 (A) (A) (A) (A) (A) (A) (A) (A) (A) (A) (A) (A)
                 (A) (A) (A) (A) (A) (A) (A) (A) (A) (A) (A) (A)
                 (A) (A) (A) (A) (A) (A) (A) (A) (A) (A) (A) (A)
                 (A) (A) (A) (A) (A) (A) (A) (A) (A) (A) (A) (A)
                 (A) (A) (A) (A) (A) (A) (A) (A) (A) (A) (A) (A)
                 (A) (A) (A) (A) (A) (A) (A) (A) (A) (A) (A) (A)
                 (A) (A) (A) (A) (A) (A) (A) (A) (A) (A) (A) (A)
                 (A) (A) (A) (A) (A) (A) (A) (A) (A) (A) (A) (A)
                 (A) (A) (A) (A) (A) (A) (A) (A) (A) (A) (A) (A)
                 (A) (A) (A) (A) (A) (A) (A) (A) (A) (A) (A) (A)
                 (A) (A) (A) (A) (A) (A) (A) (A) (A) (A) (A) (A)
                 (A) (A) (A) (A) (A) (A) (A) (A) (A) (A) (A) (A)
                 (A) (A) (A) (A) (A) (A) (A) (A) (A) (A) (A) (A)
                 (A) (A) (A)
 The electronic state is 2-A.
 Alpha  occ. eigenvalues --  -20.64160 -20.61261 -20.56100 -11.41633 -11.30578
 Alpha  occ. eigenvalues --  -11.27533 -11.27148 -11.22984  -1.47954  -1.39639
 Alpha  occ. eigenvalues --   -1.38761  -1.08395  -1.04989  -0.91682  -0.87451
 Alpha  occ. eigenvalues --   -0.75833  -0.73394  -0.69913  -0.68800  -0.67501
 Alpha  occ. eigenvalues --   -0.66393  -0.63454  -0.58664  -0.57012  -0.55961
 Alpha  occ. eigenvalues --   -0.54331  -0.51046  -0.48722  -0.46962  -0.43409
 Alpha  occ. eigenvalues --   -0.42984
 Alpha virt. eigenvalues --    0.03486   0.04548   0.05301   0.06372   0.07121
 Alpha virt. eigenvalues --    0.08158   0.09272   0.10405   0.10735   0.11692
 Alpha virt. eigenvalues --    0.13223   0.13833   0.14333   0.15500   0.15917
 Alpha virt. eigenvalues --    0.16496   0.17057   0.17685   0.18754   0.19177
 Alpha virt. eigenvalues --    0.19957   0.20577   0.21016   0.22111   0.22882
 Alpha virt. eigenvalues --    0.23473   0.23754   0.26377   0.28564   0.29371
 Alpha virt. eigenvalues --    0.29498   0.30798   0.31871   0.32761   0.33786
 Alpha virt. eigenvalues --    0.35055   0.35317   0.36732   0.37719   0.38781
 Alpha virt. eigenvalues --    0.39230   0.40107   0.40491   0.41199   0.42273
 Alpha virt. eigenvalues --    0.44268   0.44848   0.46323   0.47442   0.49942
 Alpha virt. eigenvalues --    0.50571   0.52945   0.57765   0.59471   0.61715
 Alpha virt. eigenvalues --    0.63981   0.65264   0.65860   0.70574   0.71227
 Alpha virt. eigenvalues --    0.75718   0.77203   0.79259   0.80479   0.82241
 Alpha virt. eigenvalues --    0.84804   0.86169   0.87129   0.88683   0.88885
 Alpha virt. eigenvalues --    0.90040   0.90799   0.92779   0.94515   0.98580
 Alpha virt. eigenvalues --    1.02144   1.03681   1.09494   1.13104   1.15262
 Alpha virt. eigenvalues --    1.22211   1.23079   1.25029   1.26297   1.29398
 Alpha virt. eigenvalues --    1.32346   1.34258   1.38234   1.39456   1.41059
 Alpha virt. eigenvalues --    1.41436   1.43659   1.46984   1.50000   1.53070
 Alpha virt. eigenvalues --    1.54225   1.54844   1.57565   1.61747   1.62540
 Alpha virt. eigenvalues --    1.64646   1.67523   1.70684   1.72404   1.74204
 Alpha virt. eigenvalues --    1.81588   1.83865   1.84258   1.85291   1.87749
 Alpha virt. eigenvalues --    1.89253   1.91188   1.94298   1.94942   1.99543
 Alpha virt. eigenvalues --    2.01030   2.03664   2.06410   2.09502   2.11527
 Alpha virt. eigenvalues --    2.16447   2.19961   2.25166   2.28411   2.31635
 Alpha virt. eigenvalues --    2.33219   2.36801   2.41999   2.47804   2.58989
 Alpha virt. eigenvalues --    2.63395   2.71140   2.77980   2.79696   2.82939
 Alpha virt. eigenvalues --    2.84266   2.85182   2.88995   2.93037   2.93880
 Alpha virt. eigenvalues --    2.95757   2.98512   2.99730   3.05734   3.05898
 Alpha virt. eigenvalues --    3.10319   3.10988   3.16788   3.18111   3.21461
 Alpha virt. eigenvalues --    3.23127   3.26249   3.31009   3.33770   3.38174
 Alpha virt. eigenvalues --    3.40336   3.42315   3.45065   3.46426   3.47708
 Alpha virt. eigenvalues --    3.58947   3.61472   3.66380   3.70938   3.74893
 Alpha virt. eigenvalues --    3.77702   3.90198   3.99634   4.12431   4.20526
 Alpha virt. eigenvalues --    4.21232   4.22839   4.23350   4.41660   4.51474
 Alpha virt. eigenvalues --    4.53303   4.70523   5.50870   5.53859   5.60097
 Alpha virt. eigenvalues --    5.61970   5.72432   5.89216   5.97721   6.17183
 Alpha virt. eigenvalues --    6.46814  24.69480  24.99062  25.01514  25.14050
 Alpha virt. eigenvalues --   26.26155  51.49677  51.59440  51.73114
  Beta  occ. eigenvalues --  -20.61308 -20.60070 -20.55654 -11.41900 -11.30571
  Beta  occ. eigenvalues --  -11.28275 -11.26239 -11.22987  -1.47818  -1.38103
  Beta  occ. eigenvalues --   -1.24197  -1.07528  -1.04985  -0.91932  -0.87558
  Beta  occ. eigenvalues --   -0.75828  -0.73404  -0.69493  -0.66899  -0.64508
  Beta  occ. eigenvalues --   -0.63172  -0.58277  -0.55352  -0.54858  -0.51794
  Beta  occ. eigenvalues --   -0.50650  -0.48004  -0.46388  -0.43487  -0.43294
  Beta virt. eigenvalues --    0.03435   0.04514   0.04730   0.06360   0.07001
  Beta virt. eigenvalues --    0.07232   0.08327   0.09549   0.10747   0.11769
  Beta virt. eigenvalues --    0.11996   0.13601   0.14032   0.14407   0.15308
  Beta virt. eigenvalues --    0.15969   0.16509   0.17314   0.17632   0.18851
  Beta virt. eigenvalues --    0.19228   0.20100   0.20728   0.21143   0.21898
  Beta virt. eigenvalues --    0.23019   0.23616   0.23800   0.26554   0.28877
  Beta virt. eigenvalues --    0.29412   0.30975   0.31518   0.32074   0.33107
  Beta virt. eigenvalues --    0.34266   0.35187   0.36553   0.37002   0.37894
  Beta virt. eigenvalues --    0.38850   0.39952   0.40237   0.40782   0.41262
  Beta virt. eigenvalues --    0.42600   0.44289   0.45028   0.46503   0.47567
  Beta virt. eigenvalues --    0.50072   0.51032   0.53370   0.57831   0.59553
  Beta virt. eigenvalues --    0.61716   0.64060   0.65271   0.65963   0.71168
  Beta virt. eigenvalues --    0.71424   0.76170   0.76816   0.78811   0.80030
  Beta virt. eigenvalues --    0.82798   0.85456   0.86303   0.87161   0.88756
  Beta virt. eigenvalues --    0.89037   0.90036   0.91337   0.92994   0.94836
  Beta virt. eigenvalues --    0.98560   1.02756   1.03991   1.09601   1.13510
  Beta virt. eigenvalues --    1.17003   1.22356   1.24701   1.25959   1.28851
  Beta virt. eigenvalues --    1.29842   1.33187   1.35944   1.39080   1.40315
  Beta virt. eigenvalues --    1.41392   1.43430   1.44047   1.47215   1.49908
  Beta virt. eigenvalues --    1.53308   1.54686   1.56005   1.57464   1.61813
  Beta virt. eigenvalues --    1.62956   1.65113   1.69128   1.70631   1.72743
  Beta virt. eigenvalues --    1.76377   1.81606   1.84043   1.84489   1.85287
  Beta virt. eigenvalues --    1.88167   1.89528   1.91377   1.94314   1.95148
  Beta virt. eigenvalues --    1.99803   2.01308   2.03750   2.06453   2.09773
  Beta virt. eigenvalues --    2.11677   2.16605   2.19848   2.25154   2.28476
  Beta virt. eigenvalues --    2.32336   2.34425   2.36768   2.42022   2.47807
  Beta virt. eigenvalues --    2.58992   2.63401   2.71206   2.78002   2.79683
  Beta virt. eigenvalues --    2.83000   2.84288   2.85171   2.89391   2.93542
  Beta virt. eigenvalues --    2.94153   2.95859   2.98608   2.99921   3.05909
  Beta virt. eigenvalues --    3.06054   3.10669   3.15475   3.18122   3.22406
  Beta virt. eigenvalues --    3.23793   3.27128   3.30287   3.32104   3.34439
  Beta virt. eigenvalues --    3.39697   3.41846   3.44035   3.47354   3.48488
  Beta virt. eigenvalues --    3.53019   3.59136   3.61675   3.66431   3.70978
  Beta virt. eigenvalues --    3.74952   3.78388   3.90172   3.99810   4.12773
  Beta virt. eigenvalues --    4.21118   4.22812   4.23359   4.24316   4.41728
  Beta virt. eigenvalues --    4.51478   4.53389   4.70513   5.55834   5.60036
  Beta virt. eigenvalues --    5.63054   5.64469   5.72708   5.89239   6.00336
  Beta virt. eigenvalues --    6.17308   6.46873  24.69609  24.98987  25.01400
  Beta virt. eigenvalues --   25.14048  26.26160  51.52024  51.59449  51.73339
          Condensed to atoms (all electrons):
               1          2          3          4          5          6
     1  C   26.589474   0.824048 -11.406342  -8.189903  -0.081752   0.010317
     2  H    0.824048   0.407966  -0.393738  -0.072115  -0.003397  -0.002051
     3  C  -11.406342  -0.393738  14.845820   1.351922   0.028783  -0.174090
     4  C   -8.189903  -0.072115   1.351922  12.361838   0.417969   0.170977
     5  O   -0.081752  -0.003397   0.028783   0.417969   8.052910  -0.066524
     6  O    0.010317  -0.002051  -0.174090   0.170977  -0.066524   8.205726
     7  C   -0.427048  -0.006192   0.028210   0.272210  -0.008852   0.234535
     8  C    0.488920   0.004689  -0.056737  -0.378638   0.009264  -0.147685
     9  H   -0.053606  -0.001774   0.033400   0.012987  -0.000555  -0.011781
    10  H   -0.055648  -0.001299   0.008437   0.047365   0.000011  -0.077803
    11  H   -0.009883   0.000384   0.007103   0.000249   0.000678  -0.002420
    12  H   -0.060969  -0.003228   0.040899   0.002221   0.002208  -0.012683
    13  H   -0.001982   0.000233  -0.004044   0.000926   0.000222   0.014014
    14  O    0.096716   0.000146  -0.059648  -0.082832  -0.002288  -0.002108
    15  H    0.097535   0.001953  -0.059645  -0.018726  -0.001112  -0.000066
               7          8          9         10         11         12
     1  C   -0.427048   0.488920  -0.053606  -0.055648  -0.009883  -0.060969
     2  H   -0.006192   0.004689  -0.001774  -0.001299   0.000384  -0.003228
     3  C    0.028210  -0.056737   0.033400   0.008437   0.007103   0.040899
     4  C    0.272210  -0.378638   0.012987   0.047365   0.000249   0.002221
     5  O   -0.008852   0.009264  -0.000555   0.000011   0.000678   0.002208
     6  O    0.234535  -0.147685  -0.011781  -0.077803  -0.002420  -0.012683
     7  C    5.528019  -0.094312   0.427774   0.444327  -0.055740  -0.029181
     8  C   -0.094312   5.507991  -0.050565  -0.054887   0.437528   0.354817
     9  H    0.427774  -0.050565   0.554227  -0.038144   0.003327  -0.009253
    10  H    0.444327  -0.054887  -0.038144   0.536243  -0.009494   0.013668
    11  H   -0.055740   0.437528   0.003327  -0.009494   0.554511  -0.055451
    12  H   -0.029181   0.354817  -0.009253   0.013668  -0.055451   0.608058
    13  H   -0.047301   0.411799  -0.005147   0.002888  -0.035559  -0.033630
    14  O   -0.012758  -0.001251   0.001396  -0.000016  -0.001440   0.011871
    15  H   -0.002049   0.003968   0.000571  -0.000046   0.000303  -0.006854
              13         14         15
     1  C   -0.001982   0.096716   0.097535
     2  H    0.000233   0.000146   0.001953
     3  C   -0.004044  -0.059648  -0.059645
     4  C    0.000926  -0.082832  -0.018726
     5  O    0.000222  -0.002288  -0.001112
     6  O    0.014014  -0.002108  -0.000066
     7  C   -0.047301  -0.012758  -0.002049
     8  C    0.411799  -0.001251   0.003968
     9  H   -0.005147   0.001396   0.000571
    10  H    0.002888  -0.000016  -0.000046
    11  H   -0.035559  -0.001440   0.000303
    12  H   -0.033630   0.011871  -0.006854
    13  H    0.572545  -0.001302   0.000178
    14  O   -0.001302   7.960020   0.291191
    15  H    0.000178   0.291191   0.451475
          Atomic-Atomic Spin Densities.
               1          2          3          4          5          6
     1  C   -0.334869   0.045302  -0.166473   0.056642  -0.018579   0.005717
     2  H    0.045302   0.030459  -0.034721  -0.005881  -0.000409   0.000124
     3  C   -0.166473  -0.034721   0.587532   0.103982  -0.008835  -0.013821
     4  C    0.056642  -0.005881   0.103982  -0.285915  -0.003550   0.027198
     5  O   -0.018579  -0.000409  -0.008835  -0.003550   0.125010   0.001825
     6  O    0.005717   0.000124  -0.013821   0.027198   0.001825  -0.025505
     7  C   -0.050651  -0.001733   0.021139   0.023055   0.000143   0.001791
     8  C    0.029064   0.000322  -0.003890  -0.025839   0.000398   0.000166
     9  H    0.015832   0.000737  -0.010325  -0.004631  -0.000331  -0.000079
    10  H   -0.008178  -0.000183   0.004217   0.002593   0.000089   0.000410
    11  H    0.001069   0.000092  -0.004479   0.001974   0.000056   0.000176
    12  H   -0.019564  -0.000167   0.020679   0.005485   0.000047  -0.000162
    13  H    0.001436  -0.000053   0.000813  -0.001344  -0.000002  -0.000041
    14  O    0.077735   0.006859  -0.100299  -0.004887   0.000080   0.000543
    15  H   -0.012304  -0.001045   0.009224   0.003175   0.000129  -0.000074
               7          8          9         10         11         12
     1  C   -0.050651   0.029064   0.015832  -0.008178   0.001069  -0.019564
     2  H   -0.001733   0.000322   0.000737  -0.000183   0.000092  -0.000167
     3  C    0.021139  -0.003890  -0.010325   0.004217  -0.004479   0.020679
     4  C    0.023055  -0.025839  -0.004631   0.002593   0.001974   0.005485
     5  O    0.000143   0.000398  -0.000331   0.000089   0.000056   0.000047
     6  O    0.001791   0.000166  -0.000079   0.000410   0.000176  -0.000162
     7  C    0.020766  -0.015764  -0.003275   0.003393   0.000266   0.004464
     8  C   -0.015764   0.014554   0.002399  -0.002300  -0.000971  -0.004101
     9  H   -0.003275   0.002399   0.002006  -0.001604   0.000108  -0.002157
    10  H    0.003393  -0.002300  -0.001604   0.001065   0.000177   0.000173
    11  H    0.000266  -0.000971   0.000108   0.000177  -0.000169   0.001007
    12  H    0.004464  -0.004101  -0.002157   0.000173   0.001007   0.001556
    13  H   -0.000508   0.000496   0.000170  -0.000131   0.000189  -0.000849
    14  O   -0.008639   0.010524   0.001584  -0.000555   0.000199  -0.010751
    15  H    0.000987  -0.000699  -0.000228   0.000096  -0.000092   0.000717
              13         14         15
     1  C    0.001436   0.077735  -0.012304
     2  H   -0.000053   0.006859  -0.001045
     3  C    0.000813  -0.100299   0.009224
     4  C   -0.001344  -0.004887   0.003175
     5  O   -0.000002   0.000080   0.000129
     6  O   -0.000041   0.000543  -0.000074
     7  C   -0.000508  -0.008639   0.000987
     8  C    0.000496   0.010524  -0.000699
     9  H    0.000170   0.001584  -0.000228
    10  H   -0.000131  -0.000555   0.000096
    11  H    0.000189   0.000199  -0.000092
    12  H   -0.000849  -0.010751   0.000717
    13  H    0.000322  -0.000103   0.000089
    14  O   -0.000103   1.001636   0.011432
    15  H    0.000089   0.011432  -0.045510
 Mulliken charges and spin densities:
               1          2
     1  C   -1.819876  -0.377820
     2  H    0.244374   0.039704
     3  C    1.809669   0.404742
     4  C    0.103551  -0.107943
     5  O   -0.347561   0.096070
     6  O   -0.138358  -0.001732
     7  C   -0.251642  -0.004565
     8  C   -0.434902   0.004357
     9  H    0.137145   0.000206
    10  H    0.184400  -0.000738
    11  H    0.165904  -0.000398
    12  H    0.177507  -0.003624
    13  H    0.126162   0.000485
    14  O   -0.197698   0.985359
    15  H    0.241326  -0.034103
 Sum of Mulliken charges =  -0.00000   1.00000
 Mulliken charges and spin densities with hydrogens summed into heavy atoms:
               1          2
     1  C   -1.575502  -0.338117
     3  C    1.809669   0.404742
     4  C    0.103551  -0.107943
     5  O   -0.347561   0.096070
     6  O   -0.138358  -0.001732
     7  C    0.069902  -0.005097
     8  C    0.034671   0.000821
    14  O    0.043628   0.951256
 Electronic spatial extent (au):  <R**2>=           1065.9615
 Charge=             -0.0000 electrons
 Dipole moment (field-independent basis, Debye):
    X=              1.1844    Y=             -3.3408    Z=              1.7234  Tot=              3.9413
 Quadrupole moment (field-independent basis, Debye-Ang):
   XX=            -42.6032   YY=            -56.7747   ZZ=            -44.0310
   XY=              5.7411   XZ=             -1.3433   YZ=              1.0883
 Traceless Quadrupole moment (field-independent basis, Debye-Ang):
   XX=              5.1997   YY=             -8.9717   ZZ=              3.7720
   XY=              5.7411   XZ=             -1.3433   YZ=              1.0883
 Octapole moment (field-independent basis, Debye-Ang**2):
  XXX=             13.1907  YYY=            -19.4467  ZZZ=             -7.5763  XYY=             -5.0731
  XXY=             -0.9770  XXZ=              3.0976  XZZ=             11.9435  YZZ=             -3.3137
  YYZ=              6.6889  XYZ=             -4.8008
 Hexadecapole moment (field-independent basis, Debye-Ang**3):
 XXXX=           -607.6855 YYYY=           -551.2756 ZZZZ=           -179.8685 XXXY=             13.1237
 XXXZ=             -7.1525 YYYX=             -2.5683 YYYZ=              9.9149 ZZZX=             -8.9148
 ZZZY=             -4.4034 XXYY=           -204.5672 XXZZ=           -101.3988 YYZZ=           -122.1252
 XXYZ=            -10.2017 YYXZ=             -6.5158 ZZXY=             -6.3130
 N-N= 3.553868547541D+02 E-N=-1.693533246533D+03  KE= 4.176843175838D+02
 1\1\GINC-AJ\SP\UCCSD(T)-FC\6-311++G(d,p)\C5H7O3(2)\AAYUSH\10-May-2025\
 0\\# ccsd(t)/6-311++g(d,p) sp\\Title Card Required\\0,2\C,0,1.729742,-
 0.015877,1.16281\H,0,2.578684,-0.43284,1.652129\C,0,0.756959,0.463568,
 0.643384\C,0,-0.370265,1.097653,-0.046052\O,0,-0.243024,2.149119,-0.60
 1679\O,0,-1.537752,0.456096,-0.011028\C,0,-1.633964,-0.87349,0.536693\
 C,0,-1.151443,-1.911769,-0.456617\H,0,-1.08116,-0.921338,1.477038\H,0,
 -2.694864,-0.988517,0.752272\H,0,-1.707295,-1.824197,-1.391387\H,0,-0.
 085185,-1.800079,-0.663201\H,0,-1.31583,-2.911333,-0.048572\O,0,2.3978
 37,-1.098603,-0.798081\H,0,2.47758,-0.268693,-1.298425\\Version=ES64L-
 G16RevA.03\State=2-A\HF=-417.9835187\MP2=-419.2458153\MP3=-419.2730865
 \MP4D=-419.3039116\MP4DQ=-419.2785428\PUHF=-417.99126\PMP2-0=-419.2524
 439\PMP3-0=-419.2778287\MP4SDQ=-419.2974835\CCSD=-419.297885\CCSD(T)=-
 419.3508169\S2=0.832168\S2-1=0.807817\S2A=0.754295\RMSD=6.168e-09\PG=C
 01 [X(C5H7O3)]\\@


 A COMPLEXITY IS MERELY A DISARRANGEMENT OF SIMPLICITIES.

                                    -- G. O. ABELL IN "EXPLORATION OF THE UNIVERSE"
 Job cpu time:       0 days 17 hours 28 minutes  8.5 seconds.
 Elapsed time:       0 days  0 hours 43 minutes 52.0 seconds.
 File lengths (MBytes):  RWF=  44733 Int=      0 D2E=      0 Chk=      6 Scr=      1
 Normal termination of Gaussian 16 at Sat May 10 11:40:36 2025.
