 Entering Gaussian System, Link 0=g16
 Initial command:
 /opt/g16/l1.exe "/home/aayush/scratches/g16/Gau-8974.inp" -scrdir="/home/aayush/scratches/g16/"
 Entering Link 1 = /opt/g16/l1.exe PID=      8977.
  
 Copyright (c) 1988,1990,1992,1993,1995,1998,2003,2009,2016,
            Gaussian, Inc.  All Rights Reserved.
  
 This is part of the Gaussian(R) 16 program.  It is based on
 the Gaussian(R) 09 system (copyright 2009, Gaussian, Inc.),
 the Gaussian(R) 03 system (copyright 2003, Gaussian, Inc.),
 the Gaussian(R) 98 system (copyright 1998, Gaussian, Inc.),
 the Gaussian(R) 94 system (copyright 1995, Gaussian, Inc.),
 the Gaussian 92(TM) system (copyright 1992, Gaussian, Inc.),
 the Gaussian 90(TM) system (copyright 1990, Gaussian, Inc.),
 the Gaussian 88(TM) system (copyright 1988, Gaussian, Inc.),
 the Gaussian 86(TM) system (copyright 1986, Carnegie Mellon
 University), and the Gaussian 82(TM) system (copyright 1983,
 Carnegie Mellon University). Gaussian is a federally registered
 trademark of Gaussian, Inc.
  
 This software contains proprietary and confidential information,
 including trade secrets, belonging to Gaussian, Inc.
  
 This software is provided under written license and may be
 used, copied, transmitted, or stored only in accord with that
 written license.
  
 The following legend is applicable only to US Government
 contracts under FAR:
  
                    RESTRICTED RIGHTS LEGEND
  
 Use, reproduction and disclosure by the US Government is
 subject to restrictions as set forth in subparagraphs (a)
 and (c) of the Commercial Computer Software - Restricted
 Rights clause in FAR 52.227-19.
  
 Gaussian, Inc.
 340 Quinnipiac St., Bldg. 40, Wallingford CT 06492
  
  
 ---------------------------------------------------------------
 Warning -- This program may not be used in any manner that
 competes with the business of Gaussian, Inc. or will provide
 assistance to any competitor of Gaussian, Inc.  The licensee
 of this program is prohibited from giving any competitor of
 Gaussian, Inc. access to this program.  By using this program,
 the user acknowledges that Gaussian, Inc. is engaged in the
 business of creating and licensing software in the field of
 computational chemistry and represents and warrants to the
 licensee that it is not a competitor of Gaussian, Inc. and that
 it will not use this program in any manner prohibited above.
 ---------------------------------------------------------------
  

 Cite this work as:
 Gaussian 16, Revision A.03,
 M. J. Frisch, G. W. Trucks, H. B. Schlegel, G. E. Scuseria, 
 M. A. Robb, J. R. Cheeseman, G. Scalmani, V. Barone, 
 G. A. Petersson, H. Nakatsuji, X. Li, M. Caricato, A. V. Marenich, 
 J. Bloino, B. G. Janesko, R. Gomperts, B. Mennucci, H. P. Hratchian, 
 J. V. Ortiz, A. F. Izmaylov, J. L. Sonnenberg, D. Williams-Young, 
 F. Ding, F. Lipparini, F. Egidi, J. Goings, B. Peng, A. Petrone, 
 T. Henderson, D. Ranasinghe, V. G. Zakrzewski, J. Gao, N. Rega, 
 G. Zheng, W. Liang, M. Hada, M. Ehara, K. Toyota, R. Fukuda, 
 J. Hasegawa, M. Ishida, T. Nakajima, Y. Honda, O. Kitao, H. Nakai, 
 T. Vreven, K. Throssell, J. A. Montgomery, Jr., J. E. Peralta, 
 F. Ogliaro, M. J. Bearpark, J. J. Heyd, E. N. Brothers, K. N. Kudin, 
 V. N. Staroverov, T. A. Keith, R. Kobayashi, J. Normand, 
 K. Raghavachari, A. P. Rendell, J. C. Burant, S. S. Iyengar, 
 J. Tomasi, M. Cossi, J. M. Millam, M. Klene, C. Adamo, R. Cammi, 
 J. W. Ochterski, R. L. Martin, K. Morokuma, O. Farkas, 
 J. B. Foresman, and D. J. Fox, Gaussian, Inc., Wallingford CT, 2016.
 
 ******************************************
 Gaussian 16:  ES64L-G16RevA.03 25-Dec-2016
                10-May-2025 
 ******************************************
 %chk=ethyl_propiolate.chk
 %nprocshared=24
 Will use up to   24 processors via shared memory.
 %mem=12GB
 --------------------------
 # ccsd(t)/6-311++g(d,p) sp
 --------------------------
 1/38=1,172=1/1;
 2/12=2,17=6,18=5,40=1/2;
 3/5=4,6=6,7=1111,11=9,25=1,30=1/1,2,3;
 4//1;
 5/5=2,38=5/2;
 8/6=4,9=120000,10=2/1,4;
 9/5=7,14=2/13;
 6/7=2,8=2,9=2,10=2/1;
 99/5=1,9=1/99;
 -------------------
 Title Card Required
 -------------------
 Symbolic Z-matrix:
 Charge =  0 Multiplicity = 2
 C                     1.78156  -0.09968   0.99693 
 H                     2.58451  -0.45267   1.60519 
 C                     0.7599    0.45681   0.62946 
 C                    -0.36979   1.09547  -0.04607 
 O                    -0.24058   2.14996  -0.59805 
 O                    -1.53825   0.45677  -0.00847 
 C                    -1.63397  -0.87417   0.53675 
 C                    -1.14988  -1.91129  -0.45681 
 H                    -1.08205  -0.92255   1.47811 
 H                    -2.69479  -0.98923   0.75256 
 H                    -1.70664  -1.82399  -1.39108 
 H                    -0.08349  -1.79836  -0.66356 
 H                    -1.31384  -2.9109   -0.04869 
 O                     2.35398  -1.02965  -0.66928 
 H                     2.45725  -0.26154  -1.25299 
 
                          Input orientation:                          
 ---------------------------------------------------------------------
 Center     Atomic      Atomic             Coordinates (Angstroms)
 Number     Number       Type             X           Y           Z
 ---------------------------------------------------------------------
      1          6           0        1.781564   -0.099675    0.996926
      2          1           0        2.584505   -0.452671    1.605194
      3          6           0        0.759899    0.456813    0.629463
      4          6           0       -0.369793    1.095466   -0.046074
      5          8           0       -0.240579    2.149959   -0.598054
      6          8           0       -1.538248    0.456768   -0.008468
      7          6           0       -1.633969   -0.874170    0.536750
      8          6           0       -1.149879   -1.911294   -0.456812
      9          1           0       -1.082055   -0.922550    1.478114
     10          1           0       -2.694785   -0.989230    0.752559
     11          1           0       -1.706643   -1.823991   -1.391079
     12          1           0       -0.083493   -1.798363   -0.663556
     13          1           0       -1.313841   -2.910901   -0.048688
     14          8           0        2.353984   -1.029649   -0.669281
     15          1           0        2.457249   -0.261538   -1.252992
 ---------------------------------------------------------------------
                    Distance matrix (angstroms):
                    1          2          3          4          5
     1  C    0.000000
     2  H    1.067385   0.000000
     3  C    1.220044   2.260177   0.000000
     4  C    2.672929   3.721732   1.463021   0.000000
     5  O    3.419631   4.428215   2.318296   1.197219   0.000000
     6  O    3.513061   4.519743   2.385044   1.332155   2.213245
     7  C    3.532346   4.372043   2.740568   2.411906   3.517765
     8  C    3.740144   4.508334   3.230352   3.133344   4.164199
     9  H    3.018109   3.698729   2.452681   2.627328   3.802482
    10  H    4.570418   5.374550   3.747137   3.223253   4.207350
    11  H    4.565460   5.410372   3.920266   3.481298   4.309352
    12  H    3.020129   3.751843   2.732952   2.972793   3.951989
    13  H    4.310201   4.896460   4.012703   4.116092   5.202499
    14  O    1.992175   2.357813   2.537206   3.510479   4.104478
    15  H    2.354757   2.867395   2.634514   3.360101   3.677300
                    6          7          8          9         10
     6  O    0.000000
     7  C    1.441465   0.000000
     8  C    2.441221   1.515630   0.000000
     9  H    2.078595   1.092298   2.173972   0.000000
    10  H    2.001912   1.088643   2.167836   1.769682   0.000000
    11  H    2.672421   2.150341   1.091083   3.071640   2.503684
    12  H    2.762439   2.167681   1.092097   2.520104   3.078786
    13  H    3.375377   2.143244   1.092091   2.517616   2.498364
    14  O    4.218481   4.169227   3.619323   4.053287   5.245315
    15  H    4.246033   4.507389   4.045611   4.519132   5.576309
                   11         12         13         14         15
    11  H    0.000000
    12  H    1.778922   0.000000
    13  H    1.771350   1.769056   0.000000
    14  O    4.200079   2.555826   4.168595   0.000000
    15  H    4.449531   3.027315   4.763464   0.970246   0.000000
 Stoichiometry    C5H7O3(2)
 Framework group  C1[X(C5H7O3)]
 Deg. of freedom    39
 Full point group                 C1      NOp   1
 Largest Abelian subgroup         C1      NOp   1
 Largest concise Abelian subgroup C1      NOp   1
                         Standard orientation:                         
 ---------------------------------------------------------------------
 Center     Atomic      Atomic             Coordinates (Angstroms)
 Number     Number       Type             X           Y           Z
 ---------------------------------------------------------------------
      1          6           0        1.797432   -0.030729    0.991230
      2          1           0        2.600364   -0.386565    1.597854
      3          6           0        0.776367    0.528399    0.626115
      4          6           0       -0.352888    1.170615   -0.046770
      5          8           0       -0.222399    2.226202   -0.596354
      6          8           0       -1.522407    0.533846   -0.009530
      7          6           0       -1.619888   -0.798226    0.532598
      8          6           0       -1.138574   -1.833802   -0.463923
      9          1           0       -1.067127   -0.849811    1.473294
     10          1           0       -2.680687   -0.911972    0.749185
     11          1           0       -1.696111   -1.743303   -1.397424
     12          1           0       -0.072200   -1.722217   -0.671456
     13          1           0       -1.303859   -2.834099   -0.058028
     14          8           0        2.366595   -0.957699   -0.677765
     15          1           0        2.470609   -0.188372   -1.259739
 ---------------------------------------------------------------------
 Rotational constants (GHZ):           2.2427336           1.7193347           1.1766190
 Standard basis: 6-311++G(d,p) (5D, 7F)
 There are   233 symmetry adapted cartesian basis functions of A   symmetry.
 There are   225 symmetry adapted basis functions of A   symmetry.
   225 basis functions,   351 primitive gaussians,   233 cartesian basis functions
    31 alpha electrons       30 beta electrons
       nuclear repulsion energy       358.8675620121 Hartrees.
 NAtoms=   15 NActive=   15 NUniq=   15 SFac= 1.00D+00 NAtFMM=   60 NAOKFM=F Big=F
 Integral buffers will be    131072 words long.
 Raffenetti 2 integral format.
 Two-electron integral symmetry is turned on.
 One-electron integrals computed using PRISM.
 NBasis=   225 RedAO= T EigKep=  4.21D-06  NBF=   225
 NBsUse=   225 1.00D-06 EigRej= -1.00D+00 NBFU=   225
 ExpMin= 3.60D-02 ExpMax= 8.59D+03 ExpMxC= 1.30D+03 IAcc=3 IRadAn=         5 AccDes= 0.00D+00
 Harris functional with IExCor=  205 and IRadAn=       5 diagonalized for initial guess.
 HarFok:  IExCor=  205 AccDes= 0.00D+00 IRadAn=         5 IDoV= 1 UseB2=F ITyADJ=14
 ICtDFT=  3500011 ScaDFX=  1.000000  1.000000  1.000000  1.000000
 FoFCou: FMM=F IPFlag=           0 FMFlag=      100000 FMFlg1=           0
         NFxFlg=           0 DoJE=T BraDBF=F KetDBF=T FulRan=T
         wScrn=  0.000000 ICntrl=       500 IOpCl=  0 I1Cent=   200000004 NGrid=           0
         NMat0=    1 NMatS0=      1 NMatT0=    0 NMatD0=    1 NMtDS0=    0 NMtDT0=    0
 Petite list used in FoFCou.
 Initial guess <Sx>= 0.0000 <Sy>= 0.0000 <Sz>= 0.5000 <S**2>= 0.7500 S= 0.5000
 Requested convergence on RMS density matrix=1.00D-08 within 128 cycles.
 Requested convergence on MAX density matrix=1.00D-06.
 Requested convergence on             energy=1.00D-06.
 No special actions if energy rises.
 Initial convergence to 1.0D-05 achieved.  Increase integral accuracy.
 SCF Done:  E(UHF) =  -417.971237714     A.U. after   35 cycles
            NFock= 35  Conv=0.99D-08     -V/T= 2.0006
 <Sx>= 0.0000 <Sy>= 0.0000 <Sz>= 0.5000 <S**2>= 1.0514 S= 0.6408
 <L.S>=  0.00000000000    
 Annihilation of the first spin contaminant:
 S**2 before annihilation     1.0514,   after     0.8117
 ExpMin= 3.60D-02 ExpMax= 8.59D+03 ExpMxC= 1.30D+03 IAcc=3 IRadAn=         5 AccDes= 0.00D+00
 HarFok:  IExCor=  205 AccDes= 0.00D+00 IRadAn=         5 IDoV=-2 UseB2=F ITyADJ=14
 ICtDFT= 12500011 ScaDFX=  1.000000  1.000000  1.000000  1.000000
 Range of M.O.s used for correlation:     9   225
 NBasis=   225 NAE=    31 NBE=    30 NFC=     8 NFV=     0
 NROrb=    217 NOA=    23 NOB=    22 NVA=   194 NVB=   195

 **** Warning!!: The largest alpha MO coefficient is  0.21442108D+03


 **** Warning!!: The largest beta MO coefficient is  0.19899043D+03

 Semi-Direct transformation.
 ModeAB=           4 MOrb=            23 LenV=    1609169951
 LASXX=    109339976 LTotXX=   109339976 LenRXX=   221407890
 LTotAB=   112067914 MaxLAS=   131398057 LenRXY=           0
 NonZer=   330747866 LenScr=   498067456 LnRSAI=   131398057
 LnScr1=   197870592 LExtra=           0 Total=   1048743995
 MaxDsk=          -1 SrtSym=           T ITran=            4
 JobTyp=1 Pass  1:  I=   1 to  23.
 (rs|ai) integrals will be sorted in core.
 ModeAB=           4 MOrb=            22 LenV=    1609169951
 LASXX=    104936601 LTotXX=   104936601 LenRXX=   190867446
 LTotAB=    85930845 MaxLAS=   125685098 LenRXY=           0
 NonZer=   295804047 LenScr=   445446144 LnRSAI=   125685098
 LnScr1=   189288960 LExtra=           0 Total=    951287648
 MaxDsk=          -1 SrtSym=           T ITran=            4
 JobTyp=2 Pass  1:  I=   1 to  22.
 (rs|ai) integrals will be sorted in core.
 SymMOI:  orbitals are not symmetric.
 Spin components of T(2) and E(2):
     alpha-alpha T2 =       0.5087881257D-01 E2=     -0.1680719501D+00
     alpha-beta  T2 =       0.2813047610D+00 E2=     -0.9287475252D+00
     beta-beta   T2 =       0.5164086699D-01 E2=     -0.1594677049D+00
 ANorm=    0.1176360676D+01
 E2 =    -0.1256287180D+01 EUMP2 =    -0.41922752489449D+03
 (S**2,0)=  0.10514D+01           (S**2,1)=  0.96948D+00
 E(PUHF)=      -0.41799576404D+03        E(PMP2)=      -0.41924907343D+03
 Keep R2 and R3 ints in memory in canonical form, NReq=652884060.
 CIDS: In Core Option IDoMem=           1.
 Iterations=  50 Convergence= 0.100D-06
 Produce multiple copies of IABC intergrals
 Iteration Nr.   1
 **********************
 DD1Dir will call FoFMem   1 times, MxPair=      1496
 NAB=   506 NAA=   253 NBB=   231.
 E(PMP3)=      -0.41927456353D+03
 MP4(R+Q)=  0.24776388D-01
 E3=       -0.30606237D-01        EUMP3=      -0.41925813113D+03
 E4(DQ)=   -0.54511150D-02        UMP4(DQ)=   -0.41926358225D+03
 E4(SDQ)=  -0.27322016D-01        UMP4(SDQ)=  -0.41928545315D+03
 DE(Corr)=  -1.2619116     E(Corr)=     -419.23314931    
 NORM(A)=   0.11866739D+01
 Iteration Nr.   2
 **********************
 DD1Dir will call FoFMem   1 times, MxPair=      1496
 NAB=   506 NAA=   253 NBB=   231.
 DE(Corr)=  -1.3058925     E(CORR)=     -419.27713024     Delta=-4.40D-02
 NORM(A)=   0.12093333D+01
 Iteration Nr.   3
 **********************
 DD1Dir will call FoFMem   1 times, MxPair=      1496
 NAB=   506 NAA=   253 NBB=   231.
 DE(Corr)=  -1.3096285     E(CORR)=     -419.28086624     Delta=-3.74D-03
 NORM(A)=   0.12237530D+01
 Iteration Nr.   4
 **********************
 DD1Dir will call FoFMem   1 times, MxPair=      1496
 NAB=   506 NAA=   253 NBB=   231.
 DE(Corr)=  -1.3178950     E(CORR)=     -419.28913273     Delta=-8.27D-03
 NORM(A)=   0.12336961D+01
 Iteration Nr.   5
 **********************
 DD1Dir will call FoFMem   1 times, MxPair=      1496
 NAB=   506 NAA=   253 NBB=   231.
 DE(Corr)=  -1.3205176     E(CORR)=     -419.29175536     Delta=-2.62D-03
 NORM(A)=   0.12384338D+01
 Iteration Nr.   6
 **********************
 DD1Dir will call FoFMem   1 times, MxPair=      1496
 NAB=   506 NAA=   253 NBB=   231.
 DE(Corr)=  -1.3213053     E(CORR)=     -419.29254298     Delta=-7.88D-04
 NORM(A)=   0.12391716D+01
 Iteration Nr.   7
 **********************
 DD1Dir will call FoFMem   1 times, MxPair=      1496
 NAB=   506 NAA=   253 NBB=   231.
 DE(Corr)=  -1.3214076     E(CORR)=     -419.29264532     Delta=-1.02D-04
 NORM(A)=   0.12392995D+01
 Iteration Nr.   8
 **********************
 DD1Dir will call FoFMem   1 times, MxPair=      1496
 NAB=   506 NAA=   253 NBB=   231.
 DE(Corr)=  -1.3213832     E(CORR)=     -419.29262087     Delta= 2.45D-05
 NORM(A)=   0.12393137D+01
 Iteration Nr.   9
 **********************
 DD1Dir will call FoFMem   1 times, MxPair=      1496
 NAB=   506 NAA=   253 NBB=   231.
 DE(Corr)=  -1.3213975     E(CORR)=     -419.29263521     Delta=-1.43D-05
 NORM(A)=   0.12392709D+01
 Iteration Nr.  10
 **********************
 DD1Dir will call FoFMem   1 times, MxPair=      1496
 NAB=   506 NAA=   253 NBB=   231.
 DE(Corr)=  -1.3213778     E(CORR)=     -419.29261547     Delta= 1.97D-05
 NORM(A)=   0.12392521D+01
 Iteration Nr.  11
 **********************
 DD1Dir will call FoFMem   1 times, MxPair=      1496
 NAB=   506 NAA=   253 NBB=   231.
 DE(Corr)=  -1.3213974     E(CORR)=     -419.29263512     Delta=-1.96D-05
 NORM(A)=   0.12392863D+01
 Iteration Nr.  12
 **********************
 DD1Dir will call FoFMem   1 times, MxPair=      1496
 NAB=   506 NAA=   253 NBB=   231.
 DE(Corr)=  -1.3213964     E(CORR)=     -419.29263409     Delta= 1.02D-06
 NORM(A)=   0.12393715D+01
 Iteration Nr.  13
 **********************
 DD1Dir will call FoFMem   1 times, MxPair=      1496
 NAB=   506 NAA=   253 NBB=   231.
 DE(Corr)=  -1.3214159     E(CORR)=     -419.29265361     Delta=-1.95D-05
 NORM(A)=   0.12394732D+01
 Iteration Nr.  14
 **********************
 DD1Dir will call FoFMem   1 times, MxPair=      1496
 NAB=   506 NAA=   253 NBB=   231.
 DE(Corr)=  -1.3214333     E(CORR)=     -419.29267098     Delta=-1.74D-05
 NORM(A)=   0.12395535D+01
 Iteration Nr.  15
 **********************
 DD1Dir will call FoFMem   1 times, MxPair=      1496
 NAB=   506 NAA=   253 NBB=   231.
 DE(Corr)=  -1.3214433     E(CORR)=     -419.29268106     Delta=-1.01D-05
 NORM(A)=   0.12395945D+01
 Iteration Nr.  16
 **********************
 DD1Dir will call FoFMem   1 times, MxPair=      1496
 NAB=   506 NAA=   253 NBB=   231.
 DE(Corr)=  -1.3214519     E(CORR)=     -419.29268963     Delta=-8.57D-06
 NORM(A)=   0.12396046D+01
 Iteration Nr.  17
 **********************
 DD1Dir will call FoFMem   1 times, MxPair=      1496
 NAB=   506 NAA=   253 NBB=   231.
 DE(Corr)=  -1.3214507     E(CORR)=     -419.29268840     Delta= 1.23D-06
 NORM(A)=   0.12396022D+01
 Iteration Nr.  18
 **********************
 DD1Dir will call FoFMem   1 times, MxPair=      1496
 NAB=   506 NAA=   253 NBB=   231.
 DE(Corr)=  -1.3214504     E(CORR)=     -419.29268815     Delta= 2.48D-07
 NORM(A)=   0.12395959D+01
 Iteration Nr.  19
 **********************
 DD1Dir will call FoFMem   1 times, MxPair=      1496
 NAB=   506 NAA=   253 NBB=   231.
 DE(Corr)=  -1.3214485     E(CORR)=     -419.29268624     Delta= 1.91D-06
 NORM(A)=   0.12395909D+01
 Iteration Nr.  20
 **********************
 DD1Dir will call FoFMem   1 times, MxPair=      1496
 NAB=   506 NAA=   253 NBB=   231.
 DE(Corr)=  -1.3214474     E(CORR)=     -419.29268508     Delta= 1.16D-06
 NORM(A)=   0.12395876D+01
 Iteration Nr.  21
 **********************
 DD1Dir will call FoFMem   1 times, MxPair=      1496
 NAB=   506 NAA=   253 NBB=   231.
 DE(Corr)=  -1.3214467     E(CORR)=     -419.29268440     Delta= 6.82D-07
 NORM(A)=   0.12395872D+01
 Iteration Nr.  22
 **********************
 DD1Dir will call FoFMem   1 times, MxPair=      1496
 NAB=   506 NAA=   253 NBB=   231.
 DE(Corr)=  -1.3214464     E(CORR)=     -419.29268413     Delta= 2.62D-07
 NORM(A)=   0.12395891D+01
 Iteration Nr.  23
 **********************
 DD1Dir will call FoFMem   1 times, MxPair=      1496
 NAB=   506 NAA=   253 NBB=   231.
 DE(Corr)=  -1.3214468     E(CORR)=     -419.29268453     Delta=-3.97D-07
 NORM(A)=   0.12395928D+01
 Iteration Nr.  24
 **********************
 DD1Dir will call FoFMem   1 times, MxPair=      1496
 NAB=   506 NAA=   253 NBB=   231.
 DE(Corr)=  -1.3214473     E(CORR)=     -419.29268503     Delta=-5.00D-07
 NORM(A)=   0.12395964D+01
 Iteration Nr.  25
 **********************
 DD1Dir will call FoFMem   1 times, MxPair=      1496
 NAB=   506 NAA=   253 NBB=   231.
 DE(Corr)=  -1.3214480     E(CORR)=     -419.29268568     Delta=-6.47D-07
 NORM(A)=   0.12395989D+01
 Iteration Nr.  26
 **********************
 DD1Dir will call FoFMem   1 times, MxPair=      1496
 NAB=   506 NAA=   253 NBB=   231.
 DE(Corr)=  -1.3214483     E(CORR)=     -419.29268599     Delta=-3.14D-07
 NORM(A)=   0.12395999D+01
 Iteration Nr.  27
 **********************
 DD1Dir will call FoFMem   1 times, MxPair=      1496
 NAB=   506 NAA=   253 NBB=   231.
 DE(Corr)=  -1.3214483     E(CORR)=     -419.29268605     Delta=-5.75D-08
 NORM(A)=   0.12395996D+01
 Wavefunction amplitudes converged. E(Corr)=     -419.29268605    
 Largest amplitude= 5.94D-02
 Time for triples=    35651.31 seconds.
 T4(CCSD)= -0.59116211D-01
 T5(CCSD)=  0.43083174D-02
 CCSD(T)= -0.41934749394D+03

 S**2, projected HF & approx projected MPn energies after annihilation of
 unwanted spin states (see manual for definitions):

 spins       (S**2,0) (S**2,1)    PUHF        PMP2        PMP3        PMP4
 annihilated
 s+1         0.71417  0.73620 -417.995764 -419.249073 -419.274564
 s+1,s+2     0.75103  0.74993 -417.993364 -419.246800 -419.272466
 s+1 to s+3  0.74999  0.75001 -417.993436 -419.246851 -419.272486
 s+1 to s+4  0.75000  0.75000 -417.993435 -419.246851 -419.272485
 s+1 to s+5  0.75000  0.75000 -417.993435
 s+1 to s+6  0.75000  0.75000 -417.993435

 Discarding MO integrals.

 **********************************************************************

            Population analysis using the SCF density.

 **********************************************************************

 Orbital symmetries:
 Alpha Orbitals:
       Occupied  (A) (A) (A) (A) (A) (A) (A) (A) (A) (A) (A) (A)
                 (A) (A) (A) (A) (A) (A) (A) (A) (A) (A) (A) (A)
                 (A) (A) (A) (A) (A) (A) (A)
       Virtual   (A) (A) (A) (A) (A) (A) (A) (A) (A) (A) (A) (A)
                 (A) (A) (A) (A) (A) (A) (A) (A) (A) (A) (A) (A)
                 (A) (A) (A) (A) (A) (A) (A) (A) (A) (A) (A) (A)
                 (A) (A) (A) (A) (A) (A) (A) (A) (A) (A) (A) (A)
                 (A) (A) (A) (A) (A) (A) (A) (A) (A) (A) (A) (A)
                 (A) (A) (A) (A) (A) (A) (A) (A) (A) (A) (A) (A)
                 (A) (A) (A) (A) (A) (A) (A) (A) (A) (A) (A) (A)
                 (A) (A) (A) (A) (A) (A) (A) (A) (A) (A) (A) (A)
                 (A) (A) (A) (A) (A) (A) (A) (A) (A) (A) (A) (A)
                 (A) (A) (A) (A) (A) (A) (A) (A) (A) (A) (A) (A)
                 (A) (A) (A) (A) (A) (A) (A) (A) (A) (A) (A) (A)
                 (A) (A) (A) (A) (A) (A) (A) (A) (A) (A) (A) (A)
                 (A) (A) (A) (A) (A) (A) (A) (A) (A) (A) (A) (A)
                 (A) (A) (A) (A) (A) (A) (A) (A) (A) (A) (A) (A)
                 (A) (A) (A) (A) (A) (A) (A) (A) (A) (A) (A) (A)
                 (A) (A) (A) (A) (A) (A) (A) (A) (A) (A) (A) (A)
                 (A) (A)
 Beta  Orbitals:
       Occupied  (A) (A) (A) (A) (A) (A) (A) (A) (A) (A) (A) (A)
                 (A) (A) (A) (A) (A) (A) (A) (A) (A) (A) (A) (A)
                 (A) (A) (A) (A) (A) (A)
       Virtual   (A) (A) (A) (A) (A) (A) (A) (A) (A) (A) (A) (A)
                 (A) (A) (A) (A) (A) (A) (A) (A) (A) (A) (A) (A)
                 (A) (A) (A) (A) (A) (A) (A) (A) (A) (A) (A) (A)
                 (A) (A) (A) (A) (A) (A) (A) (A) (A) (A) (A) (A)
                 (A) (A) (A) (A) (A) (A) (A) (A) (A) (A) (A) (A)
                 (A) (A) (A) (A) (A) (A) (A) (A) (A) (A) (A) (A)
                 (A) (A) (A) (A) (A) (A) (A) (A) (A) (A) (A) (A)
                 (A) (A) (A) (A) (A) (A) (A) (A) (A) (A) (A) (A)
                 (A) (A) (A) (A) (A) (A) (A) (A) (A) (A) (A) (A)
                 (A) (A) (A) (A) (A) (A) (A) (A) (A) (A) (A) (A)
                 (A) (A) (A) (A) (A) (A) (A) (A) (A) (A) (A) (A)
                 (A) (A) (A) (A) (A) (A) (A) (A) (A) (A) (A) (A)
                 (A) (A) (A) (A) (A) (A) (A) (A) (A) (A) (A) (A)
                 (A) (A) (A) (A) (A) (A) (A) (A) (A) (A) (A) (A)
                 (A) (A) (A) (A) (A) (A) (A) (A) (A) (A) (A) (A)
                 (A) (A) (A) (A) (A) (A) (A) (A) (A) (A) (A) (A)
                 (A) (A) (A)
 The electronic state is 2-A.
 Alpha  occ. eigenvalues --  -20.63235 -20.61105 -20.56621 -11.41243 -11.30629
 Alpha  occ. eigenvalues --  -11.28246 -11.27682 -11.22963  -1.48040  -1.39166
 Alpha  occ. eigenvalues --   -1.38933  -1.09222  -1.04987  -0.91591  -0.87516
 Alpha  occ. eigenvalues --   -0.76059  -0.73359  -0.70240  -0.68044  -0.67568
 Alpha  occ. eigenvalues --   -0.65251  -0.63616  -0.58932  -0.56438  -0.56217
 Alpha  occ. eigenvalues --   -0.54146  -0.51129  -0.49345  -0.47403  -0.43700
 Alpha  occ. eigenvalues --   -0.43106
 Alpha virt. eigenvalues --    0.03556   0.04576   0.05282   0.06374   0.07144
 Alpha virt. eigenvalues --    0.08167   0.09925   0.10741   0.11350   0.11690
 Alpha virt. eigenvalues --    0.13364   0.13767   0.14477   0.15193   0.15870
 Alpha virt. eigenvalues --    0.16870   0.17357   0.17743   0.18597   0.19257
 Alpha virt. eigenvalues --    0.19862   0.20378   0.21124   0.22078   0.22680
 Alpha virt. eigenvalues --    0.23448   0.23605   0.26235   0.27608   0.29274
 Alpha virt. eigenvalues --    0.29778   0.31170   0.31867   0.32817   0.34425
 Alpha virt. eigenvalues --    0.35427   0.35642   0.36949   0.38137   0.38750
 Alpha virt. eigenvalues --    0.39878   0.40031   0.40444   0.41124   0.42698
 Alpha virt. eigenvalues --    0.44060   0.44446   0.46115   0.47422   0.49804
 Alpha virt. eigenvalues --    0.51168   0.51789   0.57311   0.58952   0.61058
 Alpha virt. eigenvalues --    0.63491   0.64405   0.65840   0.70172   0.71430
 Alpha virt. eigenvalues --    0.74828   0.76031   0.77708   0.79699   0.82307
 Alpha virt. eigenvalues --    0.84557   0.85002   0.86575   0.88415   0.89321
 Alpha virt. eigenvalues --    0.89730   0.90317   0.92625   0.94437   0.98105
 Alpha virt. eigenvalues --    1.00251   1.03437   1.09617   1.10133   1.14910
 Alpha virt. eigenvalues --    1.17321   1.23274   1.23596   1.25778   1.26868
 Alpha virt. eigenvalues --    1.33334   1.37103   1.38188   1.39678   1.41092
 Alpha virt. eigenvalues --    1.43441   1.46522   1.47959   1.50206   1.52013
 Alpha virt. eigenvalues --    1.54995   1.56043   1.59023   1.61426   1.66836
 Alpha virt. eigenvalues --    1.69170   1.69327   1.72023   1.73237   1.75760
 Alpha virt. eigenvalues --    1.81822   1.82969   1.84551   1.85714   1.86235
 Alpha virt. eigenvalues --    1.91303   1.93699   1.93754   1.94510   2.00985
 Alpha virt. eigenvalues --    2.03367   2.04930   2.05819   2.09743   2.11777
 Alpha virt. eigenvalues --    2.17356   2.19318   2.24503   2.30502   2.33576
 Alpha virt. eigenvalues --    2.34308   2.36995   2.41937   2.47568   2.57580
 Alpha virt. eigenvalues --    2.61989   2.64207   2.74828   2.81783   2.83731
 Alpha virt. eigenvalues --    2.84231   2.84990   2.88026   2.91861   2.93882
 Alpha virt. eigenvalues --    2.95952   2.98303   3.01332   3.05521   3.06655
 Alpha virt. eigenvalues --    3.10748   3.11484   3.15809   3.17470   3.20605
 Alpha virt. eigenvalues --    3.22602   3.25993   3.31608   3.34171   3.39149
 Alpha virt. eigenvalues --    3.42240   3.43420   3.47452   3.47886   3.51304
 Alpha virt. eigenvalues --    3.60129   3.62627   3.66041   3.71463   3.75593
 Alpha virt. eigenvalues --    3.77122   3.86076   3.97992   4.11342   4.21169
 Alpha virt. eigenvalues --    4.22193   4.22938   4.23394   4.41196   4.49079
 Alpha virt. eigenvalues --    4.51341   4.70382   5.52899   5.56211   5.60163
 Alpha virt. eigenvalues --    5.61493   5.71825   5.89234   6.00704   6.16826
 Alpha virt. eigenvalues --    6.46530  24.68810  24.98604  25.01197  25.14230
 Alpha virt. eigenvalues --   26.09253  51.52538  51.59540  51.72188
  Beta  occ. eigenvalues --  -20.61202 -20.59519 -20.55667 -11.41805 -11.30612
  Beta  occ. eigenvalues --  -11.29632 -11.25992 -11.22967  -1.47716  -1.37755
  Beta  occ. eigenvalues --   -1.25712  -1.07098  -1.04971  -0.92032  -0.87615
  Beta  occ. eigenvalues --   -0.75857  -0.73278  -0.69390  -0.66880  -0.64640
  Beta  occ. eigenvalues --   -0.63109  -0.58073  -0.55029  -0.54799  -0.51751
  Beta  occ. eigenvalues --   -0.50526  -0.47828  -0.46452  -0.43790  -0.43637
  Beta virt. eigenvalues --    0.03366   0.03993   0.04589   0.06150   0.06431
  Beta virt. eigenvalues --    0.07168   0.08420   0.10206   0.10771   0.11869
  Beta virt. eigenvalues --    0.12560   0.13881   0.14353   0.14478   0.15459
  Beta virt. eigenvalues --    0.15912   0.17130   0.17201   0.17686   0.18598
  Beta virt. eigenvalues --    0.19199   0.20234   0.20496   0.21190   0.21694
  Beta virt. eigenvalues --    0.22936   0.23351   0.23818   0.26418   0.27681
  Beta virt. eigenvalues --    0.29363   0.30995   0.31679   0.32765   0.33625
  Beta virt. eigenvalues --    0.34584   0.35829   0.36868   0.37092   0.38604
  Beta virt. eigenvalues --    0.38823   0.40108   0.40276   0.40920   0.41277
  Beta virt. eigenvalues --    0.43137   0.44141   0.44750   0.46437   0.47670
  Beta virt. eigenvalues --    0.49884   0.51496   0.51827   0.57384   0.59145
  Beta virt. eigenvalues --    0.61070   0.63562   0.64478   0.66139   0.70546
  Beta virt. eigenvalues --    0.71591   0.75064   0.76666   0.78051   0.78870
  Beta virt. eigenvalues --    0.81364   0.84748   0.85895   0.86880   0.88831
  Beta virt. eigenvalues --    0.89373   0.90169   0.91472   0.92851   0.94644
  Beta virt. eigenvalues --    0.98172   1.00669   1.03612   1.09195   1.09717
  Beta virt. eigenvalues --    1.15138   1.18560   1.23373   1.24711   1.26392
  Beta virt. eigenvalues --    1.27439   1.36622   1.39298   1.40132   1.41202
  Beta virt. eigenvalues --    1.43119   1.44425   1.47122   1.48986   1.50211
  Beta virt. eigenvalues --    1.51916   1.55608   1.56332   1.58090   1.61387
  Beta virt. eigenvalues --    1.66858   1.69149   1.70733   1.73049   1.73976
  Beta virt. eigenvalues --    1.77540   1.81847   1.83901   1.84639   1.86034
  Beta virt. eigenvalues --    1.86747   1.91454   1.93808   1.93869   1.94473
  Beta virt. eigenvalues --    2.01184   2.03400   2.05174   2.06206   2.09728
  Beta virt. eigenvalues --    2.12038   2.17435   2.19347   2.24527   2.30503
  Beta virt. eigenvalues --    2.34300   2.35158   2.36991   2.41985   2.47573
  Beta virt. eigenvalues --    2.57743   2.62120   2.64375   2.74840   2.81857
  Beta virt. eigenvalues --    2.83691   2.84271   2.84968   2.88694   2.92135
  Beta virt. eigenvalues --    2.93999   2.96011   2.98377   3.01927   3.05759
  Beta virt. eigenvalues --    3.06536   3.10926   3.14619   3.16077   3.22745
  Beta virt. eigenvalues --    3.23717   3.24139   3.28456   3.31754   3.36483
  Beta virt. eigenvalues --    3.41880   3.43334   3.47381   3.49159   3.51612
  Beta virt. eigenvalues --    3.53905   3.60082   3.64066   3.66068   3.71924
  Beta virt. eigenvalues --    3.75779   3.78488   3.85933   3.98345   4.12026
  Beta virt. eigenvalues --    4.21224   4.22530   4.23200   4.25924   4.41390
  Beta virt. eigenvalues --    4.49302   4.51339   4.70359   5.58266   5.60317
  Beta virt. eigenvalues --    5.63742   5.64880   5.72407   5.89269   6.03112
  Beta virt. eigenvalues --    6.17096   6.46654  24.68982  24.98383  25.01016
  Beta virt. eigenvalues --   25.14228  26.09303  51.54641  51.59575  51.72659
          Condensed to atoms (all electrons):
               1          2          3          4          5          6
     1  C   10.874453   0.486274  -2.718183  -2.021822   0.024235   0.037555
     2  H    0.486274   0.392437  -0.153864   0.009275  -0.001055  -0.000720
     3  C   -2.718183  -0.153864   8.803582  -0.494339  -0.041888  -0.134069
     4  C   -2.021822   0.009275  -0.494339   8.232270   0.372887   0.109190
     5  O    0.024235  -0.001055  -0.041888   0.372887   8.048409  -0.071046
     6  O    0.037555  -0.000720  -0.134069   0.109190  -0.071046   8.212653
     7  C   -0.166305   0.001148  -0.162160   0.188236  -0.007341   0.223947
     8  C    0.233876  -0.000377   0.072316  -0.249004   0.009268  -0.148562
     9  H   -0.054299  -0.001415   0.043684   0.006601  -0.001382  -0.010145
    10  H   -0.007234  -0.000398  -0.005909   0.013878   0.000324  -0.079031
    11  H   -0.016791   0.000263   0.014653   0.001102   0.000364  -0.001360
    12  H   -0.034797  -0.005354   0.038326  -0.025400   0.003193  -0.013980
    13  H   -0.002704   0.000262  -0.005671   0.002517   0.000277   0.013398
    14  O   -0.089767  -0.012311   0.016126  -0.027448  -0.002290  -0.001671
    15  H    0.149886   0.006487  -0.090278  -0.034759  -0.001492  -0.000151
               7          8          9         10         11         12
     1  C   -0.166305   0.233876  -0.054299  -0.007234  -0.016791  -0.034797
     2  H    0.001148  -0.000377  -0.001415  -0.000398   0.000263  -0.005354
     3  C   -0.162160   0.072316   0.043684  -0.005909   0.014653   0.038326
     4  C    0.188236  -0.249004   0.006601   0.013878   0.001102  -0.025400
     5  O   -0.007341   0.009268  -0.001382   0.000324   0.000364   0.003193
     6  O    0.223947  -0.148562  -0.010145  -0.079031  -0.001360  -0.013980
     7  C    5.567567  -0.118616   0.417517   0.449370  -0.057954  -0.030464
     8  C   -0.118616   5.530399  -0.041523  -0.059479   0.435892   0.355653
     9  H    0.417517  -0.041523   0.557868  -0.041215   0.003668  -0.011271
    10  H    0.449370  -0.059479  -0.041215   0.537465  -0.008891   0.014824
    11  H   -0.057954   0.435892   0.003668  -0.008891   0.555444  -0.054187
    12  H   -0.030464   0.355653  -0.011271   0.014824  -0.054187   0.613182
    13  H   -0.043245   0.411873  -0.005467   0.002495  -0.035802  -0.035760
    14  O   -0.013642  -0.001870   0.001920  -0.000129  -0.000529   0.013453
    15  H   -0.003503   0.005485   0.000393  -0.000064   0.000028  -0.007252
              13         14         15
     1  C   -0.002704  -0.089767   0.149886
     2  H    0.000262  -0.012311   0.006487
     3  C   -0.005671   0.016126  -0.090278
     4  C    0.002517  -0.027448  -0.034759
     5  O    0.000277  -0.002290  -0.001492
     6  O    0.013398  -0.001671  -0.000151
     7  C   -0.043245  -0.013642  -0.003503
     8  C    0.411873  -0.001870   0.005485
     9  H   -0.005467   0.001920   0.000393
    10  H    0.002495  -0.000129  -0.000064
    11  H   -0.035802  -0.000529   0.000028
    12  H   -0.035760   0.013453  -0.007252
    13  H    0.572935  -0.002495   0.000365
    14  O   -0.002495   8.029210   0.292947
    15  H    0.000365   0.292947   0.441523
          Atomic-Atomic Spin Densities.
               1          2          3          4          5          6
     1  C   -1.021396   0.015500   0.116593   0.036336  -0.011258   0.002786
     2  H    0.015500   0.052520  -0.003335  -0.001261  -0.000222   0.000373
     3  C    0.116593  -0.003335   0.901784   0.055315  -0.025159  -0.036705
     4  C    0.036336  -0.001261   0.055315  -0.382236  -0.022967   0.073562
     5  O   -0.011258  -0.000222  -0.025159  -0.022967   0.263419   0.003530
     6  O    0.002786   0.000373  -0.036705   0.073562   0.003530  -0.052999
     7  C   -0.029977  -0.001500   0.023225   0.016125  -0.002335   0.003812
     8  C    0.030286   0.000664  -0.008848  -0.033439   0.001198   0.000468
     9  H    0.007217   0.000980  -0.014634   0.003157  -0.000131  -0.000031
    10  H   -0.005955  -0.000170   0.011299  -0.003125  -0.000326   0.001427
    11  H    0.002233   0.000105  -0.007386   0.001445   0.000264  -0.000167
    12  H   -0.034690  -0.000751   0.039606   0.014061  -0.000554   0.000284
    13  H    0.001846  -0.000073   0.002097  -0.002134  -0.000034  -0.000026
    14  O    0.012197   0.006737  -0.068584   0.028600   0.000431   0.001117
    15  H   -0.009864  -0.001432   0.011409  -0.001892  -0.000028  -0.000138
               7          8          9         10         11         12
     1  C   -0.029977   0.030286   0.007217  -0.005955   0.002233  -0.034690
     2  H   -0.001500   0.000664   0.000980  -0.000170   0.000105  -0.000751
     3  C    0.023225  -0.008848  -0.014634   0.011299  -0.007386   0.039606
     4  C    0.016125  -0.033439   0.003157  -0.003125   0.001445   0.014061
     5  O   -0.002335   0.001198  -0.000131  -0.000326   0.000264  -0.000554
     6  O    0.003812   0.000468  -0.000031   0.001427  -0.000167   0.000284
     7  C    0.015873  -0.015325  -0.000249   0.001639   0.001755  -0.002649
     8  C   -0.015325   0.014391   0.001160  -0.001320  -0.001395  -0.000102
     9  H   -0.000249   0.001160   0.000357  -0.000350  -0.000630  -0.000204
    10  H    0.001639  -0.001320  -0.000350  -0.002528   0.001333  -0.002006
    11  H    0.001755  -0.001395  -0.000630   0.001333  -0.001193   0.002573
    12  H   -0.002649  -0.000102  -0.000204  -0.002006   0.002573  -0.002753
    13  H   -0.001315   0.000755   0.000522  -0.000286   0.000327  -0.001295
    14  O   -0.013175   0.013198   0.002594  -0.000932   0.000186  -0.012421
    15  H    0.001435  -0.001118  -0.000282   0.000089  -0.000012   0.001109
              13         14         15
     1  C    0.001846   0.012197  -0.009864
     2  H   -0.000073   0.006737  -0.001432
     3  C    0.002097  -0.068584   0.011409
     4  C   -0.002134   0.028600  -0.001892
     5  O   -0.000034   0.000431  -0.000028
     6  O   -0.000026   0.001117  -0.000138
     7  C   -0.001315  -0.013175   0.001435
     8  C    0.000755   0.013198  -0.001118
     9  H    0.000522   0.002594  -0.000282
    10  H   -0.000286  -0.000932   0.000089
    11  H    0.000327   0.000186  -0.000012
    12  H   -0.001295  -0.012421   0.001109
    13  H    0.000482  -0.000027   0.000049
    14  O   -0.000027   0.891116   0.010245
    15  H    0.000049   0.010245  -0.038897
 Mulliken charges and spin densities:
               1          2
     1  C   -0.694377  -0.888147
     2  H    0.279349   0.068137
     3  C    0.817673   0.996678
     4  C   -0.083185  -0.218456
     5  O   -0.332463   0.205829
     6  O   -0.136009  -0.002706
     7  C   -0.244554  -0.002662
     8  C   -0.435331   0.000573
     9  H    0.135065  -0.000523
    10  H    0.183994  -0.001211
    11  H    0.164099  -0.000562
    12  H    0.179835   0.000208
    13  H    0.127021   0.000889
    14  O   -0.201503   0.871280
    15  H    0.240384  -0.029327
 Sum of Mulliken charges =  -0.00000   1.00000
 Mulliken charges and spin densities with hydrogens summed into heavy atoms:
               1          2
     1  C   -0.415027  -0.820010
     3  C    0.817673   0.996678
     4  C   -0.083185  -0.218456
     5  O   -0.332463   0.205829
     6  O   -0.136009  -0.002706
     7  C    0.074505  -0.004396
     8  C    0.035624   0.001108
    14  O    0.038881   0.841953
 Electronic spatial extent (au):  <R**2>=           1045.4603
 Charge=             -0.0000 electrons
 Dipole moment (field-independent basis, Debye):
    X=              0.9531    Y=             -3.2710    Z=              1.7315  Tot=              3.8218
 Quadrupole moment (field-independent basis, Debye-Ang):
   XX=            -43.3231   YY=            -56.8071   ZZ=            -43.8417
   XY=              5.7232   XZ=             -1.0112   YZ=              0.8173
 Traceless Quadrupole moment (field-independent basis, Debye-Ang):
   XX=              4.6675   YY=             -8.8165   ZZ=              4.1489
   XY=              5.7232   XZ=             -1.0112   YZ=              0.8173
 Octapole moment (field-independent basis, Debye-Ang**2):
  XXX=             10.1124  YYY=            -18.8228  ZZZ=             -6.9646  XYY=             -5.0068
  XXY=             -0.9248  XXZ=              3.5143  XZZ=             10.5389  YZZ=             -2.3571
  YYZ=              6.8219  XYZ=             -4.9838
 Hexadecapole moment (field-independent basis, Debye-Ang**3):
 XXXX=           -615.5162 YYYY=           -546.1000 ZZZZ=           -160.2668 XXXY=             13.8789
 XXXZ=             -3.9162 YYYX=             -1.3401 YYYZ=              9.4194 ZZZX=             -9.1002
 ZZZY=             -4.1759 XXYY=           -203.8121 XXZZ=           -102.3906 YYZZ=           -116.1272
 XXYZ=            -12.2101 YYXZ=             -4.5635 ZZXY=             -6.3366
 N-N= 3.588675620121D+02 E-N=-1.700488965759D+03  KE= 4.177220302803D+02
 1\1\GINC-AJ\SP\UCCSD(T)-FC\6-311++G(d,p)\C5H7O3(2)\AAYUSH\10-May-2025\
 0\\# ccsd(t)/6-311++g(d,p) sp\\Title Card Required\\0,2\C,0,1.781564,-
 0.099675,0.996926\H,0,2.584505,-0.452671,1.605194\C,0,0.759899,0.45681
 3,0.629463\C,0,-0.369793,1.095466,-0.046074\O,0,-0.240579,2.149959,-0.
 598054\O,0,-1.538248,0.456768,-0.008468\C,0,-1.633969,-0.87417,0.53675
 \C,0,-1.149879,-1.911294,-0.456812\H,0,-1.082055,-0.92255,1.478114\H,0
 ,-2.694785,-0.98923,0.752559\H,0,-1.706643,-1.823991,-1.391079\H,0,-0.
 083493,-1.798363,-0.663556\H,0,-1.313841,-2.910901,-0.048688\O,0,2.353
 984,-1.029649,-0.669281\H,0,2.457249,-0.261538,-1.252992\\Version=ES64
 L-G16RevA.03\State=2-A\HF=-417.9712377\MP2=-419.2275249\MP3=-419.25813
 11\MP4D=-419.2883586\MP4DQ=-419.2635822\PUHF=-417.995764\PMP2-0=-419.2
 490734\PMP3-0=-419.2745635\MP4SDQ=-419.2854531\CCSD=-419.292686\CCSD(T
 )=-419.3474939\S2=1.051358\S2-1=0.96948\S2A=0.811727\RMSD=9.894e-09\PG
 =C01 [X(C5H7O3)]\\@


 TIME IS NATURE'S WAY OF MAKING SURE EVERYTHING
 DOESN'T HAPPEN AT ONCE.
                     - WOODY ALLEN
 Job cpu time:       0 days 19 hours 50 minutes 24.2 seconds.
 Elapsed time:       0 days  0 hours 50 minutes 25.4 seconds.
 File lengths (MBytes):  RWF=  44733 Int=      0 D2E=      0 Chk=      6 Scr=      1
 Normal termination of Gaussian 16 at Sat May 10 09:03:04 2025.
