 Entering Link 1 = C:\G09W\l1.exe PID=     20828.
  
 Copyright (c) 1988,1990,1992,1993,1995,1998,2003,2009,2013,
            Gaussian, Inc.  All Rights Reserved.
  
 This is part of the Gaussian(R) 09 program.  It is based on
 the Gaussian(R) 03 system (copyright 2003, Gaussian, Inc.),
 the Gaussian(R) 98 system (copyright 1998, Gaussian, Inc.),
 the Gaussian(R) 94 system (copyright 1995, Gaussian, Inc.),
 the Gaussian 92(TM) system (copyright 1992, Gaussian, Inc.),
 the Gaussian 90(TM) system (copyright 1990, Gaussian, Inc.),
 the Gaussian 88(TM) system (copyright 1988, Gaussian, Inc.),
 the Gaussian 86(TM) system (copyright 1986, Carnegie Mellon
 University), and the Gaussian 82(TM) system (copyright 1983,
 Carnegie Mellon University). Gaussian is a federally registered
 trademark of Gaussian, Inc.
  
 This software contains proprietary and confidential information,
 including trade secrets, belonging to Gaussian, Inc.
  
 This software is provided under written license and may be
 used, copied, transmitted, or stored only in accord with that
 written license.
  
 The following legend is applicable only to US Government
 contracts under FAR:
  
                    RESTRICTED RIGHTS LEGEND
  
 Use, reproduction and disclosure by the US Government is
 subject to restrictions as set forth in subparagraphs (a)
 and (c) of the Commercial Computer Software - Restricted
 Rights clause in FAR 52.227-19.
  
 Gaussian, Inc.
 340 Quinnipiac St., Bldg. 40, Wallingford CT 06492
  
  
 ---------------------------------------------------------------
 Warning -- This program may not be used in any manner that
 competes with the business of Gaussian, Inc. or will provide
 assistance to any competitor of Gaussian, Inc.  The licensee
 of this program is prohibited from giving any competitor of
 Gaussian, Inc. access to this program.  By using this program,
 the user acknowledges that Gaussian, Inc. is engaged in the
 business of creating and licensing software in the field of
 computational chemistry and represents and warrants to the
 licensee that it is not a competitor of Gaussian, Inc. and that
 it will not use this program in any manner prohibited above.
 ---------------------------------------------------------------
  

 Cite this work as:
 Gaussian 09, Revision D.01,
 M. J. Frisch, G. W. Trucks, H. B. Schlegel, G. E. Scuseria, 
 M. A. Robb, J. R. Cheeseman, G. Scalmani, V. Barone, B. Mennucci, 
 G. A. Petersson, H. Nakatsuji, M. Caricato, X. Li, H. P. Hratchian, 
 A. F. Izmaylov, J. Bloino, G. Zheng, J. L. Sonnenberg, M. Hada, 
 M. Ehara, K. Toyota, R. Fukuda, J. Hasegawa, M. Ishida, T. Nakajima, 
 Y. Honda, O. Kitao, H. Nakai, T. Vreven, J. A. Montgomery, Jr., 
 J. E. Peralta, F. Ogliaro, M. Bearpark, J. J. Heyd, E. Brothers, 
 K. N. Kudin, V. N. Staroverov, T. Keith, R. Kobayashi, J. Normand, 
 K. Raghavachari, A. Rendell, J. C. Burant, S. S. Iyengar, J. Tomasi, 
 M. Cossi, N. Rega, J. M. Millam, M. Klene, J. E. Knox, J. B. Cross, 
 V. Bakken, C. Adamo, J. Jaramillo, R. Gomperts, R. E. Stratmann, 
 O. Yazyev, A. J. Austin, R. Cammi, C. Pomelli, J. W. Ochterski, 
 R. L. Martin, K. Morokuma, V. G. Zakrzewski, G. A. Voth, 
 P. Salvador, J. J. Dannenberg, S. Dapprich, A. D. Daniels, 
 O. Farkas, J. B. Foresman, J. V. Ortiz, J. Cioslowski, 
 and D. J. Fox, Gaussian, Inc., Wallingford CT, 2013.
 
 ******************************************
 Gaussian 09:  IA32W-G09RevD.01 24-Apr-2013
                10-Mar-2025 
 ******************************************
 %nprocshared=4
 Will use up to    4 processors via shared memory.
 %mem=150MW
 %chk=ethyl_propiolate.chk
 --------------------------
 # ccsd(t)/6-311++g(d,p) sp
 --------------------------
 1/38=1/1;
 2/12=2,17=6,18=5,40=1/2;
 3/5=4,6=6,7=1111,11=9,16=1,25=1,30=1/1,2,3;
 4//1;
 5/5=2,38=5/2;
 8/6=4,9=120000,10=2/1,4;
 9/5=7,14=2/13;
 6/7=2,8=2,9=2,10=2/1;
 99/5=1,9=1/99;
 -------------------
 Title Card Required
 -------------------
 Symbolic Z-matrix:
 Charge =  0 Multiplicity = 2
 C                     2.06726   1.63026  -0.03253 
 H                     2.62235   2.53923  -0.0497 
 C                     1.4482    0.60399  -0.01619 
 C                     0.76926  -0.68759   0.00042 
 O                     1.35543  -1.72588   0.01433 
 O                    -0.57997  -0.65809  -0.00589 
 C                    -1.29148   0.52186   0.02495 
 C                    -2.75661   0.32505  -0.04043 
 H                    -0.82522   1.35205   0.53986 
 H                    -3.02342  -0.29097  -0.90234 
 H                    -3.13959  -0.17901   0.85663 
 H                    -3.25758   1.28911  -0.12934 
 
                          Input orientation:                          
 ---------------------------------------------------------------------
 Center     Atomic      Atomic             Coordinates (Angstroms)
 Number     Number       Type             X           Y           Z
 ---------------------------------------------------------------------
      1          6           0        2.067260    1.630257   -0.032531
      2          1           0        2.622348    2.539225   -0.049701
      3          6           0        1.448201    0.603989   -0.016185
      4          6           0        0.769259   -0.687588    0.000418
      5          8           0        1.355426   -1.725877    0.014332
      6          8           0       -0.579968   -0.658094   -0.005889
      7          6           0       -1.291475    0.521858    0.024949
      8          6           0       -2.756612    0.325045   -0.040426
      9          1           0       -0.825218    1.352047    0.539859
     10          1           0       -3.023416   -0.290966   -0.902336
     11          1           0       -3.139592   -0.179010    0.856627
     12          1           0       -3.257582    1.289108   -0.129341
 ---------------------------------------------------------------------
                    Distance matrix (angstroms):
                    1          2          3          4          5
     1  C    0.000000
     2  H    1.065195   0.000000
     3  C    1.198636   2.263820   0.000000
     4  C    2.656746   3.721394   1.459249   0.000000
     5  O    3.431113   4.449751   2.331912   1.192405   0.000000
     6  O    3.499297   4.525439   2.388813   1.349564   2.210502
     7  C    3.537365   4.403788   2.741215   2.389558   3.472537
     8  C    4.997337   5.816863   4.214125   3.668632   4.595447
     9  H    2.961665   3.693600   2.457073   2.644516   3.808543
    10  H    5.510231   6.372725   4.645596   3.918757   4.698245
    11  H    5.583490   6.435075   4.735265   4.033716   4.827778
    12  H    5.336637   6.011881   4.756741   4.487718   5.512769
                    6          7          8          9         10
     6  O    0.000000
     7  C    1.378216   0.000000
     8  C    2.388626   1.479742   0.000000
     9  H    2.097297   1.082470   2.263128   0.000000
    10  H    2.628467   2.126067   1.092494   3.100241   0.000000
    11  H    2.743197   2.144398   1.097930   2.792992   1.766347
    12  H    3.313073   2.116141   1.090089   2.523526   1.774539
                   11         12
    11  H    0.000000
    12  H    1.772407   0.000000
 Stoichiometry    C5H5O2(2)
 Framework group  C1[X(C5H5O2)]
 Deg. of freedom    30
 Full point group                 C1      NOp   1
 Largest Abelian subgroup         C1      NOp   1
 Largest concise Abelian subgroup C1      NOp   1
                         Standard orientation:                         
 ---------------------------------------------------------------------
 Center     Atomic      Atomic             Coordinates (Angstroms)
 Number     Number       Type             X           Y           Z
 ---------------------------------------------------------------------
      1          6           0        2.067260    1.630257   -0.032531
      2          1           0        2.622348    2.539225   -0.049701
      3          6           0        1.448201    0.603989   -0.016185
      4          6           0        0.769259   -0.687588    0.000418
      5          8           0        1.355426   -1.725877    0.014332
      6          8           0       -0.579968   -0.658094   -0.005889
      7          6           0       -1.291475    0.521858    0.024949
      8          6           0       -2.756612    0.325045   -0.040426
      9          1           0       -0.825218    1.352047    0.539859
     10          1           0       -3.023416   -0.290966   -0.902336
     11          1           0       -3.139592   -0.179010    0.856627
     12          1           0       -3.257582    1.289108   -0.129341
 ---------------------------------------------------------------------
 Rotational constants (GHZ):      4.4786731      1.8833456      1.3392838
 Standard basis: 6-311++G(d,p) (5D, 7F)
 There are   196 symmetry adapted cartesian basis functions of A   symmetry.
 There are   189 symmetry adapted basis functions of A   symmetry.
   189 basis functions,   297 primitive gaussians,   196 cartesian basis functions
    26 alpha electrons       25 beta electrons
       nuclear repulsion energy       263.8763753288 Hartrees.
 NAtoms=   12 NActive=   12 NUniq=   12 SFac= 1.00D+00 NAtFMM=   60 NAOKFM=F Big=F
 Integral buffers will be    262144 words long.
 Raffenetti 2 integral format.
 Two-electron integral symmetry is turned on.
 One-electron integrals computed using PRISM.
 NBasis=   189 RedAO= T EigKep=  1.72D-06  NBF=   189
 NBsUse=   189 1.00D-06 EigRej= -1.00D+00 NBFU=   189
 ExpMin= 3.60D-02 ExpMax= 8.59D+03 ExpMxC= 1.30D+03 IAcc=3 IRadAn=         5 AccDes= 0.00D+00
 Harris functional with IExCor=  205 and IRadAn=       5 diagonalized for initial guess.
 HarFok:  IExCor=  205 AccDes= 0.00D+00 IRadAn=         5 IDoV= 1 UseB2=F ITyADJ=14
 ICtDFT=  3500011 ScaDFX=  1.000000  1.000000  1.000000  1.000000
 FoFCou: FMM=F IPFlag=           0 FMFlag=      100000 FMFlg1=           0
         NFxFlg=           0 DoJE=T BraDBF=F KetDBF=T FulRan=T
         wScrn=  0.000000 ICntrl=     500 IOpCl=  0 I1Cent=   200000004 NGrid=           0
         NMat0=    1 NMatS0=      1 NMatT0=    0 NMatD0=    1 NMtDS0=    0 NMtDT0=    0
 Petite list used in FoFCou.
 Initial guess <Sx>= 0.0000 <Sy>= 0.0000 <Sz>= 0.5000 <S**2>= 0.7500 S= 0.5000
 Requested convergence on RMS density matrix=1.00D-08 within 128 cycles.
 Requested convergence on MAX density matrix=1.00D-06.
 Requested convergence on             energy=1.00D-06.
 No special actions if energy rises.
 Initial convergence to 1.0D-05 achieved.  Increase integral accuracy.
 SCF Done:  E(UHF) =  -341.949426275     A.U. after   36 cycles
            NFock= 36  Conv=0.64D-08     -V/T= 2.0009
 <Sx>= 0.0000 <Sy>= 0.0000 <Sz>= 0.5000 <S**2>= 0.7715 S= 0.5107
 <L.S>= 0.000000000000E+00
 Annihilation of the first spin contaminant:
 S**2 before annihilation     0.7715,   after     0.7504
 ExpMin= 3.60D-02 ExpMax= 8.59D+03 ExpMxC= 1.30D+03 IAcc=3 IRadAn=         5 AccDes= 0.00D+00
 HarFok:  IExCor=  205 AccDes= 0.00D+00 IRadAn=         5 IDoV=-2 UseB2=F ITyADJ=14
 ICtDFT= 12500011 ScaDFX=  1.000000  1.000000  1.000000  1.000000
 Range of M.O.s used for correlation:     8   189
 NBasis=   189 NAE=    26 NBE=    25 NFC=     7 NFV=     0
 NROrb=    182 NOA=    19 NOB=    18 NVA=   163 NVB=   164

 **** Warning!!: The largest alpha MO coefficient is  0.18389543D+03


 **** Warning!!: The largest beta MO coefficient is  0.20140958D+03

 Semi-Direct transformation.
 ModeAB=           4 MOrb=            19 LenV=     156483585
 LASXX=     53283106 LTotXX=    53283106 LenRXX=   108021517
 LTotAB=    54738411 MaxLAS=    64298052 LenRXY=           0
 NonZer=   161304623 LenScr=   242970624 LnRSAI=    64298052
 LnScr1=    97469952 LExtra=           0 Total=    512760145
 MaxDsk=          -1 SrtSym=           T ITran=            4
 JobTyp=1 Pass  1:  I=   1 to  19.
 (rs|ai) integrals will be sorted in core.
 ModeAB=           4 MOrb=            18 LenV=     156483585
 LASXX=     50679171 LTotXX=    50679171 LenRXX=    92421189
 LTotAB=    41742018 MaxLAS=    60913944 LenRXY=           0
 NonZer=   143100360 LenScr=   215690240 LnRSAI=    60913944
 LnScr1=    92390400 LExtra=           0 Total=    461415773
 MaxDsk=          -1 SrtSym=           T ITran=            4
 JobTyp=2 Pass  1:  I=   1 to  18.
 (rs|ai) integrals will be sorted in core.
 SymMOI:  orbitals are not symmetric.
 Spin components of T(2) and E(2):
     alpha-alpha T2 =       0.4630809635D-01 E2=     -0.1428465652D+00
     alpha-beta  T2 =       0.2490718276D+00 E2=     -0.7807258935D+00
     beta-beta   T2 =       0.4397806190D-01 E2=     -0.1338198952D+00
 ANorm=    0.1157306349D+01
 E2 =    -0.1057392354D+01 EUMP2 =    -0.34300681862905D+03
 (S**2,0)=  0.77154D+00           (S**2,1)=  0.76047D+00
 E(PUHF)=      -0.34195304534D+03        E(PMP2)=      -0.34300951803D+03
 Would need an additional       168918295 words for in-memory AO integral storage.
 Iterations=  50 Convergence= 0.100D-06
 Iteration Nr.   1
 **********************
 DD1Dir will call FoFJK   2 times, MxPair=       504
 NAB=   342 NAA=   171 NBB=   153 NumPrc=  4.
 FoFJK:  IHMeth= 1 ICntrl=     200 DoSepK=F KAlg= 0 I1Cent=   0 FoldK=F
 IRaf= 990000000 NMat= 504 IRICut=     630 DoRegI=T DoRafI=T ISym2E= 2.
 FoFCou: FMM=F IPFlag=           0 FMFlag=      100000 FMFlg1=           0
         NFxFlg=           0 DoJE=F BraDBF=F KetDBF=F FulRan=T
         wScrn=  0.000000 ICntrl=     200 IOpCl=  0 I1Cent=           0 NGrid=           0
         NMat0=  504 NMatS0=      0 NMatT0=  252 NMatD0=  504 NMtDS0=    0 NMtDT0=    0
 Integrals replicated using symmetry in FoFCou.
 E(PMP3)=      -0.34302488160D+03
 MP4(R+Q)=  0.22523399D-01
 E3=       -0.16269821D-01        EUMP3=      -0.34302308845D+03
 E4(DQ)=   -0.46327149D-02        UMP4(DQ)=   -0.34302772116D+03
 E4(SDQ)=  -0.21150776D-01        UMP4(SDQ)=  -0.34304423923D+03
 DE(Corr)=  -1.0504007     E(Corr)=     -342.99982693    
 NORM(A)=   0.11608701D+01
 Iteration Nr.   2
 **********************
 DD1Dir will call FoFJK   2 times, MxPair=       504
 NAB=   342 NAA=   171 NBB=   153 NumPrc=  4.
 DE(Corr)=  -1.0873206     E(CORR)=     -343.03674686     Delta=-3.69D-02
 NORM(A)=   0.11765700D+01
 Iteration Nr.   3
 **********************
 DD1Dir will call FoFJK   2 times, MxPair=       504
 NAB=   342 NAA=   171 NBB=   153 NumPrc=  4.
 DE(Corr)=  -1.0880430     E(CORR)=     -343.03746932     Delta=-7.22D-04
 NORM(A)=   0.11819453D+01
 Iteration Nr.   4
 **********************
 DD1Dir will call FoFJK   2 times, MxPair=       504
 NAB=   342 NAA=   171 NBB=   153 NumPrc=  4.
 DE(Corr)=  -1.0921511     E(CORR)=     -343.04157733     Delta=-4.11D-03
 NORM(A)=   0.11839625D+01
 Iteration Nr.   5
 **********************
 DD1Dir will call FoFJK   2 times, MxPair=       504
 NAB=   342 NAA=   171 NBB=   153 NumPrc=  4.
 DE(Corr)=  -1.0927923     E(CORR)=     -343.04221854     Delta=-6.41D-04
 NORM(A)=   0.11849084D+01
 Iteration Nr.   6
 **********************
 DD1Dir will call FoFJK   2 times, MxPair=       504
 NAB=   342 NAA=   171 NBB=   153 NumPrc=  4.
 DE(Corr)=  -1.0929334     E(CORR)=     -343.04235972     Delta=-1.41D-04
 NORM(A)=   0.11851202D+01
 Iteration Nr.   7
 **********************
 DD1Dir will call FoFJK   2 times, MxPair=       504
 NAB=   342 NAA=   171 NBB=   153 NumPrc=  4.
 DE(Corr)=  -1.0929577     E(CORR)=     -343.04238394     Delta=-2.42D-05
 NORM(A)=   0.11851536D+01
 Iteration Nr.   8
 **********************
 DD1Dir will call FoFJK   2 times, MxPair=       504
 NAB=   342 NAA=   171 NBB=   153 NumPrc=  4.
 DE(Corr)=  -1.0929497     E(CORR)=     -343.04237601     Delta= 7.93D-06
 NORM(A)=   0.11851906D+01
 Iteration Nr.   9
 **********************
 DD1Dir will call FoFJK   2 times, MxPair=       504
 NAB=   342 NAA=   171 NBB=   153 NumPrc=  4.
 DE(Corr)=  -1.0929519     E(CORR)=     -343.04237818     Delta=-2.17D-06
 NORM(A)=   0.11851947D+01
 Iteration Nr.  10
 **********************
 DD1Dir will call FoFJK   2 times, MxPair=       504
 NAB=   342 NAA=   171 NBB=   153 NumPrc=  4.
 DE(Corr)=  -1.0929541     E(CORR)=     -343.04238042     Delta=-2.24D-06
 NORM(A)=   0.11852023D+01
 Iteration Nr.  11
 **********************
 DD1Dir will call FoFJK   2 times, MxPair=       504
 NAB=   342 NAA=   171 NBB=   153 NumPrc=  4.
 DE(Corr)=  -1.0929581     E(CORR)=     -343.04238433     Delta=-3.92D-06
 NORM(A)=   0.11852077D+01
 Iteration Nr.  12
 **********************
 DD1Dir will call FoFJK   2 times, MxPair=       504
 NAB=   342 NAA=   171 NBB=   153 NumPrc=  4.
 DE(Corr)=  -1.0929595     E(CORR)=     -343.04238576     Delta=-1.43D-06
 NORM(A)=   0.11852114D+01
 Iteration Nr.  13
 **********************
 DD1Dir will call FoFJK   2 times, MxPair=       504
 NAB=   342 NAA=   171 NBB=   153 NumPrc=  4.
 DE(Corr)=  -1.0929608     E(CORR)=     -343.04238703     Delta=-1.27D-06
 NORM(A)=   0.11852137D+01
 Iteration Nr.  14
 **********************
 DD1Dir will call FoFJK   2 times, MxPair=       504
 NAB=   342 NAA=   171 NBB=   153 NumPrc=  4.
 DE(Corr)=  -1.0929612     E(CORR)=     -343.04238749     Delta=-4.66D-07
 NORM(A)=   0.11852148D+01
 Iteration Nr.  15
 **********************
 DD1Dir will call FoFJK   2 times, MxPair=       504
 NAB=   342 NAA=   171 NBB=   153 NumPrc=  4.
 DE(Corr)=  -1.0929613     E(CORR)=     -343.04238762     Delta=-1.32D-07
 NORM(A)=   0.11852153D+01
 Iteration Nr.  16
 **********************
 DD1Dir will call FoFJK   2 times, MxPair=       504
 NAB=   342 NAA=   171 NBB=   153 NumPrc=  4.
 DE(Corr)=  -1.0929614     E(CORR)=     -343.04238770     Delta=-7.97D-08
 NORM(A)=   0.11852155D+01
 Iteration Nr.  17
 **********************
 DD1Dir will call FoFJK   2 times, MxPair=       504
 NAB=   342 NAA=   171 NBB=   153 NumPrc=  4.
 DE(Corr)=  -1.0929614     E(CORR)=     -343.04238768     Delta= 2.11D-08
 NORM(A)=   0.11852156D+01
 Iteration Nr.  18
 **********************
 DD1Dir will call FoFJK   2 times, MxPair=       504
 NAB=   342 NAA=   171 NBB=   153 NumPrc=  4.
 DE(Corr)=  -1.0929614     E(CORR)=     -343.04238770     Delta=-1.67D-08
 NORM(A)=   0.11852156D+01
 Iteration Nr.  19
 **********************
 DD1Dir will call FoFJK   2 times, MxPair=       504
 NAB=   342 NAA=   171 NBB=   153 NumPrc=  4.
 DE(Corr)=  -1.0929614     E(CORR)=     -343.04238769     Delta= 4.30D-09
 NORM(A)=   0.11852157D+01
 Largest amplitude= 4.01D-02
 Time for triples=     4616.00 seconds.
 T4(CCSD)= -0.50121740D-01
 T5(CCSD)=  0.31525557D-02
 CCSD(T)= -0.34308935688D+03

 S**2, projected HF & approx projected MPn energies after annihilation of
 unwanted spin states (see manual for definitions):

 spins       (S**2,0) (S**2,1)    PUHF        PMP2        PMP3        PMP4
 annihilated
 s+1         0.74976  0.75001 -341.953045 -343.009518 -343.024882
 s+1,s+2     0.75000  0.75000 -341.953014 -343.009489 -343.024854
 s+1 to s+3  0.75000  0.75000 -341.953015 -343.009489 -343.024854
 s+1 to s+4  0.75000  0.75000 -341.953015 -343.009489 -343.024854
 s+1 to s+5  0.75000  0.75000 -341.953015
 s+1 to s+6  0.75000  0.75000 -341.953015

 Discarding MO integrals.

 **********************************************************************

            Population analysis using the SCF density.

 **********************************************************************

 Orbital symmetries:
 Alpha Orbitals:
       Occupied  (A) (A) (A) (A) (A) (A) (A) (A) (A) (A) (A) (A)
                 (A) (A) (A) (A) (A) (A) (A) (A) (A) (A) (A) (A)
                 (A) (A)
       Virtual   (A) (A) (A) (A) (A) (A) (A) (A) (A) (A) (A) (A)
                 (A) (A) (A) (A) (A) (A) (A) (A) (A) (A) (A) (A)
                 (A) (A) (A) (A) (A) (A) (A) (A) (A) (A) (A) (A)
                 (A) (A) (A) (A) (A) (A) (A) (A) (A) (A) (A) (A)
                 (A) (A) (A) (A) (A) (A) (A) (A) (A) (A) (A) (A)
                 (A) (A) (A) (A) (A) (A) (A) (A) (A) (A) (A) (A)
                 (A) (A) (A) (A) (A) (A) (A) (A) (A) (A) (A) (A)
                 (A) (A) (A) (A) (A) (A) (A) (A) (A) (A) (A) (A)
                 (A) (A) (A) (A) (A) (A) (A) (A) (A) (A) (A) (A)
                 (A) (A) (A) (A) (A) (A) (A) (A) (A) (A) (A) (A)
                 (A) (A) (A) (A) (A) (A) (A) (A) (A) (A) (A) (A)
                 (A) (A) (A) (A) (A) (A) (A) (A) (A) (A) (A) (A)
                 (A) (A) (A) (A) (A) (A) (A) (A) (A) (A) (A) (A)
                 (A) (A) (A) (A) (A) (A) (A)
 Beta  Orbitals:
       Occupied  (A) (A) (A) (A) (A) (A) (A) (A) (A) (A) (A) (A)
                 (A) (A) (A) (A) (A) (A) (A) (A) (A) (A) (A) (A)
                 (A)
       Virtual   (A) (A) (A) (A) (A) (A) (A) (A) (A) (A) (A) (A)
                 (A) (A) (A) (A) (A) (A) (A) (A) (A) (A) (A) (A)
                 (A) (A) (A) (A) (A) (A) (A) (A) (A) (A) (A) (A)
                 (A) (A) (A) (A) (A) (A) (A) (A) (A) (A) (A) (A)
                 (A) (A) (A) (A) (A) (A) (A) (A) (A) (A) (A) (A)
                 (A) (A) (A) (A) (A) (A) (A) (A) (A) (A) (A) (A)
                 (A) (A) (A) (A) (A) (A) (A) (A) (A) (A) (A) (A)
                 (A) (A) (A) (A) (A) (A) (A) (A) (A) (A) (A) (A)
                 (A) (A) (A) (A) (A) (A) (A) (A) (A) (A) (A) (A)
                 (A) (A) (A) (A) (A) (A) (A) (A) (A) (A) (A) (A)
                 (A) (A) (A) (A) (A) (A) (A) (A) (A) (A) (A) (A)
                 (A) (A) (A) (A) (A) (A) (A) (A) (A) (A) (A) (A)
                 (A) (A) (A) (A) (A) (A) (A) (A) (A) (A) (A) (A)
                 (A) (A) (A) (A) (A) (A) (A) (A)
 The electronic state is 2-A.
 Alpha  occ. eigenvalues --  -20.63034 -20.56978 -11.42474 -11.30894 -11.27923
 Alpha  occ. eigenvalues --  -11.27356 -11.23748  -1.49628  -1.40311  -1.08384
 Alpha  occ. eigenvalues --   -1.06025  -0.91695  -0.88189  -0.77212  -0.73975
 Alpha  occ. eigenvalues --   -0.69419  -0.68980  -0.61250  -0.60061  -0.57571
 Alpha  occ. eigenvalues --   -0.54238  -0.52509  -0.49270  -0.43997  -0.43739
 Alpha  occ. eigenvalues --   -0.35368
 Alpha virt. eigenvalues --    0.03163   0.04339   0.06360   0.06994   0.07321
 Alpha virt. eigenvalues --    0.08215   0.09593   0.11033   0.11808   0.12341
 Alpha virt. eigenvalues --    0.13722   0.14013   0.15481   0.15774   0.16322
 Alpha virt. eigenvalues --    0.17420   0.18080   0.18533   0.18873   0.20309
 Alpha virt. eigenvalues --    0.20549   0.21327   0.22693   0.23848   0.25930
 Alpha virt. eigenvalues --    0.26903   0.28937   0.29549   0.29717   0.31257
 Alpha virt. eigenvalues --    0.32062   0.34890   0.37174   0.37920   0.38935
 Alpha virt. eigenvalues --    0.39524   0.40043   0.40369   0.42127   0.42619
 Alpha virt. eigenvalues --    0.45325   0.46269   0.49325   0.52099   0.57602
 Alpha virt. eigenvalues --    0.58286   0.62384   0.63431   0.65922   0.69053
 Alpha virt. eigenvalues --    0.70507   0.71776   0.74647   0.77775   0.78315
 Alpha virt. eigenvalues --    0.82056   0.84186   0.84694   0.85543   0.86030
 Alpha virt. eigenvalues --    0.87261   0.89486   0.93569   0.94717   0.97997
 Alpha virt. eigenvalues --    1.01216   1.05700   1.06779   1.12455   1.14955
 Alpha virt. eigenvalues --    1.21463   1.26224   1.28680   1.29591   1.36067
 Alpha virt. eigenvalues --    1.36377   1.37912   1.40762   1.41248   1.45234
 Alpha virt. eigenvalues --    1.46200   1.49501   1.51058   1.52897   1.52957
 Alpha virt. eigenvalues --    1.63724   1.64696   1.67216   1.70944   1.78819
 Alpha virt. eigenvalues --    1.81144   1.82584   1.85084   1.85840   1.87333
 Alpha virt. eigenvalues --    1.88924   1.91912   1.96527   1.99668   2.04056
 Alpha virt. eigenvalues --    2.07498   2.09066   2.13182   2.15742   2.18898
 Alpha virt. eigenvalues --    2.26558   2.29319   2.29800   2.37681   2.47878
 Alpha virt. eigenvalues --    2.56152   2.62736   2.70794   2.79272   2.81640
 Alpha virt. eigenvalues --    2.83706   2.85863   2.89595   2.90610   2.91106
 Alpha virt. eigenvalues --    2.94961   2.96386   3.02197   3.03850   3.11270
 Alpha virt. eigenvalues --    3.14664   3.16524   3.23548   3.26454   3.29278
 Alpha virt. eigenvalues --    3.35281   3.37421   3.39391   3.41509   3.45234
 Alpha virt. eigenvalues --    3.55557   3.60719   3.67987   3.73639   3.77104
 Alpha virt. eigenvalues --    3.78828   3.91219   4.00584   4.12327   4.18897
 Alpha virt. eigenvalues --    4.22309   4.38246   4.50245   4.55652   4.65540
 Alpha virt. eigenvalues --    5.52897   5.60021   5.71350   5.88325   6.17557
 Alpha virt. eigenvalues --    6.46245  24.67774  24.93658  25.00280  25.12693
 Alpha virt. eigenvalues --   26.27239  51.56929  51.72468
  Beta  occ. eigenvalues --  -20.62787 -20.56617 -11.42628 -11.28315 -11.28160
  Beta  occ. eigenvalues --  -11.27126 -11.24039  -1.48771  -1.39281  -1.08177
  Beta  occ. eigenvalues --   -1.03039  -0.91665  -0.86308  -0.75472  -0.73469
  Beta  occ. eigenvalues --   -0.68479  -0.65287  -0.60168  -0.57519  -0.56935
  Beta  occ. eigenvalues --   -0.53336  -0.49781  -0.48828  -0.43734  -0.43505
  Beta virt. eigenvalues --    0.03166   0.04357   0.06340   0.06965   0.07410
  Beta virt. eigenvalues --    0.08262   0.09650   0.09694   0.11789   0.12150
  Beta virt. eigenvalues --    0.12408   0.14001   0.14390   0.15558   0.15963
  Beta virt. eigenvalues --    0.16809   0.17479   0.18484   0.18962   0.20175
  Beta virt. eigenvalues --    0.20614   0.21390   0.21685   0.22856   0.24200
  Beta virt. eigenvalues --    0.26200   0.27041   0.29092   0.29758   0.29929
  Beta virt. eigenvalues --    0.32282   0.33174   0.35159   0.37808   0.38235
  Beta virt. eigenvalues --    0.39297   0.39924   0.40438   0.40811   0.42655
  Beta virt. eigenvalues --    0.43006   0.46097   0.47535   0.49604   0.52645
  Beta virt. eigenvalues --    0.58404   0.59410   0.62654   0.63543   0.66194
  Beta virt. eigenvalues --    0.69683   0.71597   0.73638   0.76644   0.77426
  Beta virt. eigenvalues --    0.82103   0.82873   0.84425   0.85043   0.86056
  Beta virt. eigenvalues --    0.86917   0.87826   0.90216   0.94123   0.95582
  Beta virt. eigenvalues --    0.98321   1.01242   1.06058   1.07655   1.13573
  Beta virt. eigenvalues --    1.15809   1.23706   1.26984   1.28757   1.31194
  Beta virt. eigenvalues --    1.36169   1.36526   1.39017   1.41227   1.41713
  Beta virt. eigenvalues --    1.45261   1.46300   1.49666   1.51449   1.52895
  Beta virt. eigenvalues --    1.54140   1.64478   1.66093   1.68955   1.71371
  Beta virt. eigenvalues --    1.79405   1.81648   1.83028   1.85789   1.86871
  Beta virt. eigenvalues --    1.87491   1.90208   1.92716   1.99115   1.99972
  Beta virt. eigenvalues --    2.04454   2.07575   2.09353   2.15457   2.16399
  Beta virt. eigenvalues --    2.19708   2.28558   2.29578   2.30012   2.37848
  Beta virt. eigenvalues --    2.48819   2.57183   2.63462   2.70796   2.79421
  Beta virt. eigenvalues --    2.81827   2.84159   2.86111   2.90103   2.90713
  Beta virt. eigenvalues --    2.91393   2.95097   2.96905   3.02440   3.04021
  Beta virt. eigenvalues --    3.11588   3.15725   3.20190   3.24510   3.27346
  Beta virt. eigenvalues --    3.30419   3.35431   3.37792   3.39855   3.42106
  Beta virt. eigenvalues --    3.46510   3.55734   3.62007   3.68010   3.74400
  Beta virt. eigenvalues --    3.77870   3.79091   3.91265   4.00860   4.12656
  Beta virt. eigenvalues --    4.19139   4.22328   4.39014   4.50535   4.55869
  Beta virt. eigenvalues --    4.66377   5.53947   5.61128   5.71557   5.88569
  Beta virt. eigenvalues --    6.17812   6.46451  24.67790  24.95421  25.00215
  Beta virt. eigenvalues --   25.12489  26.27222  51.57079  51.72672
          Condensed to atoms (all electrons):
               1          2          3          4          5          6
     1  C   27.761785   0.936237 -12.129931  -8.129960  -0.128973  -0.103888
     2  H    0.936237   0.408913  -0.430612  -0.108444  -0.004173  -0.004168
     3  C  -12.129931  -0.430612  14.466061   2.108100  -0.010222  -0.155690
     4  C   -8.129960  -0.108444   2.108100  11.196953   0.486417   0.164178
     5  O   -0.128973  -0.004173  -0.010222   0.486417   8.033907  -0.044619
     6  O   -0.103888  -0.004168  -0.155690   0.164178  -0.044619   8.326463
     7  C    0.050570   0.002151  -0.121886   0.054244   0.015592   0.059716
     8  C   -0.062470  -0.001427  -0.076468   0.126666  -0.017893  -0.124828
     9  H   -0.081838  -0.003232   0.079031  -0.000661   0.003646  -0.018754
    10  H    0.020996   0.000263   0.001633  -0.019790   0.000012  -0.010353
    11  H    0.005530   0.000136  -0.006109   0.000926   0.000149  -0.006743
    12  H   -0.007751  -0.000220   0.004506   0.001417  -0.000115   0.026296
               7          8          9         10         11         12
     1  C    0.050570  -0.062470  -0.081838   0.020996   0.005530  -0.007751
     2  H    0.002151  -0.001427  -0.003232   0.000263   0.000136  -0.000220
     3  C   -0.121886  -0.076468   0.079031   0.001633  -0.006109   0.004506
     4  C    0.054244   0.126666  -0.000661  -0.019790   0.000926   0.001417
     5  O    0.015592  -0.017893   0.003646   0.000012   0.000149  -0.000115
     6  O    0.059716  -0.124828  -0.018754  -0.010353  -0.006743   0.026296
     7  C    5.667245  -0.081397   0.383915   0.006636  -0.005042  -0.129422
     8  C   -0.081397   5.839173  -0.077434   0.354675   0.362036   0.480911
     9  H    0.383915  -0.077434   0.584838   0.006489  -0.009629  -0.002674
    10  H    0.006636   0.354675   0.006489   0.555273  -0.052281  -0.026724
    11  H   -0.005042   0.362036  -0.009629  -0.052281   0.591615  -0.036264
    12  H   -0.129422   0.480911  -0.002674  -0.026724  -0.036264   0.545797
          Atomic-Atomic Spin Densities.
               1          2          3          4          5          6
     1  C    0.348908   0.013785  -0.223669  -0.245055  -0.013533  -0.007998
     2  H    0.013785   0.009067  -0.010345  -0.002518  -0.000229  -0.000059
     3  C   -0.223669  -0.010345   0.336528   0.039120  -0.004172  -0.010946
     4  C   -0.245055  -0.002518   0.039120   0.109107  -0.003713   0.045161
     5  O   -0.013533  -0.000229  -0.004172  -0.003713   0.104290  -0.001531
     6  O   -0.007998  -0.000059  -0.010946   0.045161  -0.001531   0.141834
     7  C   -0.103367  -0.000574  -0.001036   0.083111  -0.000368  -0.216117
     8  C    0.017135   0.000196   0.002745  -0.028726   0.001320   0.002264
     9  H    0.069467  -0.000284  -0.000749  -0.067603   0.000912   0.000900
    10  H    0.004887   0.000026   0.004733  -0.009239  -0.000007   0.003672
    11  H   -0.008526  -0.000034  -0.008383   0.018656  -0.000413   0.008882
    12  H    0.000469   0.000012   0.000180  -0.000571   0.000025  -0.000076
               7          8          9         10         11         12
     1  C   -0.103367   0.017135   0.069467   0.004887  -0.008526   0.000469
     2  H   -0.000574   0.000196  -0.000284   0.000026  -0.000034   0.000012
     3  C   -0.001036   0.002745  -0.000749   0.004733  -0.008383   0.000180
     4  C    0.083111  -0.028726  -0.067603  -0.009239   0.018656  -0.000571
     5  O   -0.000368   0.001320   0.000912  -0.000007  -0.000413   0.000025
     6  O   -0.216117   0.002264   0.000900   0.003672   0.008882  -0.000076
     7  C    1.500195  -0.002409  -0.042708  -0.024094  -0.041692  -0.006300
     8  C   -0.002409  -0.173917   0.010836   0.015471   0.016662   0.008343
     9  H   -0.042708   0.010836  -0.057826   0.002503  -0.009648   0.002286
    10  H   -0.024094   0.015471   0.002503   0.046482  -0.019176   0.002154
    11  H   -0.041692   0.016662  -0.009648  -0.019176   0.121186  -0.006998
    12  H   -0.006300   0.008343   0.002286   0.002154  -0.006998   0.008053
 Mulliken charges and spin densities:
               1          2
     1  C   -2.130306  -0.147497
     2  H    0.204577   0.009044
     3  C    2.271586   0.124005
     4  C    0.119954  -0.062269
     5  O   -0.333727   0.082580
     6  O   -0.107609  -0.034014
     7  C    0.097678   1.144640
     8  C   -0.721544  -0.130081
     9  H    0.136303  -0.091914
    10  H    0.163170   0.027411
    11  H    0.155676   0.070517
    12  H    0.144242   0.007577
 Sum of Mulliken charges =   0.00000   1.00000
 Mulliken charges and spin densities with hydrogens summed into heavy atoms:
               1          2
     1  C   -1.925729  -0.138453
     3  C    2.271586   0.124005
     4  C    0.119954  -0.062269
     5  O   -0.333727   0.082580
     6  O   -0.107609  -0.034014
     7  C    0.233981   1.052726
     8  C   -0.258455  -0.024575
 Electronic spatial extent (au):  <R**2>=            855.0798
 Charge=              0.0000 electrons
 Dipole moment (field-independent basis, Debye):
    X=             -1.2761    Y=              4.6193    Z=              0.3174  Tot=              4.8028
 Quadrupole moment (field-independent basis, Debye-Ang):
   XX=            -37.2871   YY=            -41.8339   ZZ=            -41.1713
   XY=              7.2745   XZ=             -0.3608   YZ=              0.6116
 Traceless Quadrupole moment (field-independent basis, Debye-Ang):
   XX=              2.8103   YY=             -1.7364   ZZ=             -1.0739
   XY=              7.2745   XZ=             -0.3608   YZ=              0.6116
 Octapole moment (field-independent basis, Debye-Ang**2):
  XXX=             -7.5203  YYY=             18.9069  ZZZ=              0.5311  XYY=              7.1457
  XXY=             19.4220  XXZ=             -0.6005  XZZ=             -2.0952  YZZ=             -5.7676
  YYZ=              0.4664  XYZ=             -0.7870
 Hexadecapole moment (field-independent basis, Debye-Ang**3):
 XXXX=           -752.2339 YYYY=           -295.6134 ZZZZ=            -50.4401 XXXY=             41.2326
 XXXZ=              0.0180 YYYX=             49.6607 YYYZ=              1.0380 ZZZX=             -0.1474
 ZZZY=              0.8575 XXYY=           -145.5212 XXZZ=           -141.1757 YYZZ=            -63.3503
 XXYZ=             -0.7058 YYXZ=             -1.4111 ZZXY=             -2.7527
 N-N= 2.638763753288D+02 E-N=-1.329816266850D+03  KE= 3.416412263193D+02
 1|1|UNPC-DIT|SP|UCCSD(T)-FC|6-311++G(d,p)|C5H5O2(2)|NDITM|10-Mar-2025|
 0||# ccsd(t)/6-311++g(d,p) sp||Title Card Required||0,2|C,0,2.06726,1.
 630257,-0.032531|H,0,2.622348,2.539225,-0.049701|C,0,1.448201,0.603989
 ,-0.016185|C,0,0.769259,-0.687588,0.000418|O,0,1.355426,-1.725877,0.01
 4332|O,0,-0.579968,-0.658094,-0.005889|C,0,-1.291475,0.521858,0.024949
 |C,0,-2.756612,0.325045,-0.040426|H,0,-0.825218,1.352047,0.539859|H,0,
 -3.023416,-0.290966,-0.902336|H,0,-3.139592,-0.17901,0.856627|H,0,-3.2
 57582,1.289108,-0.129341||Version=IA32W-G09RevD.01|State=2-A|HF=-341.9
 494263|MP2=-343.0068186|MP3=-343.0230884|MP4D=-343.0502446|MP4DQ=-343.
 0277212|PUHF=-341.9530453|PMP2-0=-343.009518|PMP3-0=-343.0248816|MP4SD
 Q=-343.0442392|CCSD=-343.0423877|CCSD(T)=-343.0893569|S2=0.771537|S2-1
 =0.760467|S2A=0.75041|RMSD=6.375e-009|PG=C01 [X(C5H5O2)]||@


 The theorems and results in mathematical physics are
 not theorems and results about Nature, but about our
 description of it.
                   --Gerard 't Hooft
 Job cpu time:       0 days  2 hours 59 minutes  3.0 seconds.
 File lengths (MBytes):  RWF=   4950 Int=      0 D2E=      0 Chk=      8 Scr=      1
 Normal termination of Gaussian 09 at Mon Mar 10 17:06:49 2025.
