 Entering Gaussian System, Link 0=g16
 Initial command:
 /opt/g16/l1.exe "/home/aayush/scratches/g16/Gau-7538.inp" -scrdir="/home/aayush/scratches/g16/"
 Entering Link 1 = /opt/g16/l1.exe PID=      7541.
  
 Copyright (c) 1988,1990,1992,1993,1995,1998,2003,2009,2016,
            Gaussian, Inc.  All Rights Reserved.
  
 This is part of the Gaussian(R) 16 program.  It is based on
 the Gaussian(R) 09 system (copyright 2009, Gaussian, Inc.),
 the Gaussian(R) 03 system (copyright 2003, Gaussian, Inc.),
 the Gaussian(R) 98 system (copyright 1998, Gaussian, Inc.),
 the Gaussian(R) 94 system (copyright 1995, Gaussian, Inc.),
 the Gaussian 92(TM) system (copyright 1992, Gaussian, Inc.),
 the Gaussian 90(TM) system (copyright 1990, Gaussian, Inc.),
 the Gaussian 88(TM) system (copyright 1988, Gaussian, Inc.),
 the Gaussian 86(TM) system (copyright 1986, Carnegie Mellon
 University), and the Gaussian 82(TM) system (copyright 1983,
 Carnegie Mellon University). Gaussian is a federally registered
 trademark of Gaussian, Inc.
  
 This software contains proprietary and confidential information,
 including trade secrets, belonging to Gaussian, Inc.
  
 This software is provided under written license and may be
 used, copied, transmitted, or stored only in accord with that
 written license.
  
 The following legend is applicable only to US Government
 contracts under FAR:
  
                    RESTRICTED RIGHTS LEGEND
  
 Use, reproduction and disclosure by the US Government is
 subject to restrictions as set forth in subparagraphs (a)
 and (c) of the Commercial Computer Software - Restricted
 Rights clause in FAR 52.227-19.
  
 Gaussian, Inc.
 340 Quinnipiac St., Bldg. 40, Wallingford CT 06492
  
  
 ---------------------------------------------------------------
 Warning -- This program may not be used in any manner that
 competes with the business of Gaussian, Inc. or will provide
 assistance to any competitor of Gaussian, Inc.  The licensee
 of this program is prohibited from giving any competitor of
 Gaussian, Inc. access to this program.  By using this program,
 the user acknowledges that Gaussian, Inc. is engaged in the
 business of creating and licensing software in the field of
 computational chemistry and represents and warrants to the
 licensee that it is not a competitor of Gaussian, Inc. and that
 it will not use this program in any manner prohibited above.
 ---------------------------------------------------------------
  

 Cite this work as:
 Gaussian 16, Revision A.03,
 M. J. Frisch, G. W. Trucks, H. B. Schlegel, G. E. Scuseria, 
 M. A. Robb, J. R. Cheeseman, G. Scalmani, V. Barone, 
 G. A. Petersson, H. Nakatsuji, X. Li, M. Caricato, A. V. Marenich, 
 J. Bloino, B. G. Janesko, R. Gomperts, B. Mennucci, H. P. Hratchian, 
 J. V. Ortiz, A. F. Izmaylov, J. L. Sonnenberg, D. Williams-Young, 
 F. Ding, F. Lipparini, F. Egidi, J. Goings, B. Peng, A. Petrone, 
 T. Henderson, D. Ranasinghe, V. G. Zakrzewski, J. Gao, N. Rega, 
 G. Zheng, W. Liang, M. Hada, M. Ehara, K. Toyota, R. Fukuda, 
 J. Hasegawa, M. Ishida, T. Nakajima, Y. Honda, O. Kitao, H. Nakai, 
 T. Vreven, K. Throssell, J. A. Montgomery, Jr., J. E. Peralta, 
 F. Ogliaro, M. J. Bearpark, J. J. Heyd, E. N. Brothers, K. N. Kudin, 
 V. N. Staroverov, T. A. Keith, R. Kobayashi, J. Normand, 
 K. Raghavachari, A. P. Rendell, J. C. Burant, S. S. Iyengar, 
 J. Tomasi, M. Cossi, J. M. Millam, M. Klene, C. Adamo, R. Cammi, 
 J. W. Ochterski, R. L. Martin, K. Morokuma, O. Farkas, 
 J. B. Foresman, and D. J. Fox, Gaussian, Inc., Wallingford CT, 2016.
 
 ******************************************
 Gaussian 16:  ES64L-G16RevA.03 25-Dec-2016
                 8-Jun-2025 
 ******************************************
 %nprocshared=24
 Will use up to   24 processors via shared memory.
 %mem=12GB
 %chk=ethyl_propiolate.chk
 --------------------------------------------------
 # opt=(calcfc,tight,noeigentest) freq 6-31+g m062x
 --------------------------------------------------
 1/7=10,10=4,11=1,18=20,19=15,26=3,38=1/1,3;
 2/9=110,12=2,17=6,18=5,40=1/2;
 3/5=1,6=6,7=10,11=2,25=1,30=1,71=2,74=-55,140=1/1,2,3;
 4//1;
 5/5=2,38=5/2;
 8/6=4,10=90,11=11/1;
 11/6=1,8=1,9=11,15=111,16=1/1,2,10;
 10/6=1,13=1/2;
 6/7=2,8=2,9=2,10=2,28=1/1;
 7/10=1,18=20,25=1/1,2,3,16;
 1/7=10,10=4,11=1,18=20,19=15,26=3/3(2);
 2/9=110/2;
 99//99;
 2/9=110/2;
 3/5=1,6=6,7=10,11=2,25=1,30=1,71=1,74=-55/1,2,3;
 4/5=5,16=3,69=1/1;
 5/5=2,38=5/2;
 7//1,2,3,16;
 1/7=10,11=1,18=20,19=15,26=3/3(-5);
 2/9=110/2;
 6/7=2,8=2,9=2,10=2,19=2,28=1/1;
 99/9=1/99;
 -------------------
 Title Card Required
 -------------------
 Symbolic Z-matrix:
 Charge =  0 Multiplicity = 2
 C                    -3.3447    1.18756   0.16931 
 H                    -4.25527   1.7829    0.33791 
 C                    -2.35464   0.54048  -0.01418 
 C                    -1.08274  -0.29081  -0.24991 
 O                    -1.18619  -1.47143  -0.68485 
 O                     0.08381   0.22702   0.00862 
 C                     1.26581  -0.56027  -0.18184 
 C                     1.80663  -1.46952   0.94207 
 H                     1.77775  -0.50973  -1.11633 
 H                     2.87534  -1.5547    0.84416 
 H                     1.55631  -1.0506    1.89296 
 H                     1.37668  -2.439     0.86419 
 

 GradGradGradGradGradGradGradGradGradGradGradGradGradGradGradGradGradGrad
 Berny optimization.
 Initialization pass.
                           ----------------------------
                           !    Initial Parameters    !
                           ! (Angstroms and Degrees)  !
 --------------------------                            --------------------------
 ! Name  Definition              Value          Derivative Info.                !
 --------------------------------------------------------------------------------
 ! R1    R(1,2)                  1.1009         calculate D2E/DX2 analytically  !
 ! R2    R(1,3)                  1.1969         calculate D2E/DX2 analytically  !
 ! R3    R(3,4)                  1.5376         calculate D2E/DX2 analytically  !
 ! R4    R(4,5)                  1.2624         calculate D2E/DX2 analytically  !
 ! R5    R(4,6)                  1.3022         calculate D2E/DX2 analytically  !
 ! R6    R(6,7)                  1.4329         calculate D2E/DX2 analytically  !
 ! R7    R(7,8)                  1.5435         calculate D2E/DX2 analytically  !
 ! R8    R(7,9)                  1.0667         calculate D2E/DX2 analytically  !
 ! R9    R(8,10)                 1.0766         calculate D2E/DX2 analytically  !
 ! R10   R(8,11)                 1.0688         calculate D2E/DX2 analytically  !
 ! R11   R(8,12)                 1.0634         calculate D2E/DX2 analytically  !
 ! A1    A(3,4,5)              119.3819         calculate D2E/DX2 analytically  !
 ! A2    A(3,4,6)              119.7077         calculate D2E/DX2 analytically  !
 ! A3    A(5,4,6)              120.909          calculate D2E/DX2 analytically  !
 ! A4    A(4,6,7)              119.6089         calculate D2E/DX2 analytically  !
 ! A5    A(6,7,8)              121.0582         calculate D2E/DX2 analytically  !
 ! A6    A(6,7,9)              119.0975         calculate D2E/DX2 analytically  !
 ! A7    A(8,7,9)              119.8439         calculate D2E/DX2 analytically  !
 ! A8    A(7,8,10)             109.1604         calculate D2E/DX2 analytically  !
 ! A9    A(7,8,11)             109.5642         calculate D2E/DX2 analytically  !
 ! A10   A(7,8,12)             110.0023         calculate D2E/DX2 analytically  !
 ! A11   A(10,8,11)            110.1472         calculate D2E/DX2 analytically  !
 ! A12   A(10,8,12)            108.8185         calculate D2E/DX2 analytically  !
 ! A13   A(11,8,12)            109.1355         calculate D2E/DX2 analytically  !
 ! A14   L(2,1,3,11,-1)        180.0055         calculate D2E/DX2 analytically  !
 ! A15   L(1,3,4,11,-1)        180.0001         calculate D2E/DX2 analytically  !
 ! A16   L(2,1,3,11,-2)        180.0236         calculate D2E/DX2 analytically  !
 ! A17   L(1,3,4,11,-2)        180.0003         calculate D2E/DX2 analytically  !
 ! D1    D(3,4,5,6)           -179.5682         calculate D2E/DX2 analytically  !
 ! D2    D(3,4,6,7)            178.5324         calculate D2E/DX2 analytically  !
 ! D3    D(5,4,6,7)             -1.0344         calculate D2E/DX2 analytically  !
 ! D4    D(4,6,7,8)            -87.6369         calculate D2E/DX2 analytically  !
 ! D5    D(4,6,7,9)             92.6082         calculate D2E/DX2 analytically  !
 ! D6    D(6,7,8,10)          -150.6199         calculate D2E/DX2 analytically  !
 ! D7    D(6,7,8,11)           -29.9258         calculate D2E/DX2 analytically  !
 ! D8    D(6,7,8,12)            90.0466         calculate D2E/DX2 analytically  !
 ! D9    D(9,7,8,10)            29.1332         calculate D2E/DX2 analytically  !
 ! D10   D(9,7,8,11)           149.8273         calculate D2E/DX2 analytically  !
 ! D11   D(9,7,8,12)           -90.2002         calculate D2E/DX2 analytically  !
 --------------------------------------------------------------------------------
 Trust Radius=3.00D-01 FncErr=1.00D-07 GrdErr=1.00D-06 EigMax=2.50D+02 EigMin=1.00D-04
 Number of steps in this run=     49 maximum allowed number of steps=    100.
 GradGradGradGradGradGradGradGradGradGradGradGradGradGradGradGradGradGrad

                          Input orientation:                          
 ---------------------------------------------------------------------
 Center     Atomic      Atomic             Coordinates (Angstroms)
 Number     Number       Type             X           Y           Z
 ---------------------------------------------------------------------
      1          6           0       -3.344698    1.187565    0.169305
      2          1           0       -4.255272    1.782904    0.337913
      3          6           0       -2.354645    0.540482   -0.014184
      4          6           0       -1.082743   -0.290808   -0.249912
      5          8           0       -1.186188   -1.471432   -0.684847
      6          8           0        0.083808    0.227021    0.008616
      7          6           0        1.265806   -0.560267   -0.181844
      8          6           0        1.806631   -1.469520    0.942071
      9          1           0        1.777747   -0.509732   -1.116325
     10          1           0        2.875339   -1.554701    0.844157
     11          1           0        1.556305   -1.050595    1.892958
     12          1           0        1.376682   -2.439002    0.864188
 ---------------------------------------------------------------------
                    Distance matrix (angstroms):
                    1          2          3          4          5
     1  C    0.000000
     2  H    1.100910   0.000000
     3  C    1.196909   2.297819   0.000000
     4  C    2.734551   3.835461   1.537642   0.000000
     5  O    3.529732   4.588684   2.421338   1.262435   0.000000
     6  O    3.564143   4.621344   2.458623   1.302238   2.231261
     7  C    4.943174   6.020208   3.787799   2.364937   2.663739
     8  C    5.847517   6.905790   4.719189   3.340459   3.406440
     9  H    5.547351   6.615762   4.403899   2.996832   3.145783
    10  H    6.831128   7.889329   5.699058   4.296606   4.340597
    11  H    5.656869   6.649911   4.632952   3.483352   3.787275
    12  H    5.993853   7.058354   4.855065   3.450322   3.147062
                    6          7          8          9         10
     6  O    0.000000
     7  C    1.432906   0.000000
     8  C    2.591855   1.543508   0.000000
     9  H    2.162806   1.066720   2.271348   0.000000
    10  H    3.415451   2.152248   1.076559   2.477934   0.000000
    11  H    2.711328   2.151654   1.068806   3.065511   1.758965
    12  H    3.084024   2.153166   1.063399   2.793809   1.740219
                   11         12
    11  H    0.000000
    12  H    1.737327   0.000000
 Stoichiometry    C5H5O2(2)
 Framework group  C1[X(C5H5O2)]
 Deg. of freedom    30
 Full point group                 C1      NOp   1
 Largest Abelian subgroup         C1      NOp   1
 Largest concise Abelian subgroup C1      NOp   1
                         Standard orientation:                         
 ---------------------------------------------------------------------
 Center     Atomic      Atomic             Coordinates (Angstroms)
 Number     Number       Type             X           Y           Z
 ---------------------------------------------------------------------
      1          6           0        3.149623   -0.450561    0.265707
      2          1           0        4.201454   -0.734456    0.424006
      3          6           0        2.006086   -0.141997    0.093362
      4          6           0        0.537010    0.254406   -0.128051
      5          8           0        0.204058    1.469326   -0.045249
      6          8           0       -0.347182   -0.665174   -0.389591
      7          6           0       -1.720951   -0.297143   -0.564320
      8          6           0       -2.680752   -0.207155    0.641127
      9          1           0       -2.080835   -0.087005   -1.546265
     10          1           0       -3.681311   -0.432211    0.313698
     11          1           0       -2.375149   -0.900949    1.394522
     12          1           0       -2.665271    0.776111    1.045806
 ---------------------------------------------------------------------
 Rotational constants (GHZ):           7.5598531           1.3981824           1.2885748
 Standard basis: 6-31+G (6D, 7F)
 There are   101 symmetry adapted cartesian basis functions of A   symmetry.
 There are   101 symmetry adapted basis functions of A   symmetry.
   101 basis functions,   202 primitive gaussians,   101 cartesian basis functions
    26 alpha electrons       25 beta electrons
       nuclear repulsion energy       258.7203690924 Hartrees.
 NAtoms=   12 NActive=   12 NUniq=   12 SFac= 1.00D+00 NAtFMM=   60 NAOKFM=F Big=F
 Integral buffers will be    131072 words long.
 Raffenetti 2 integral format.
 Two-electron integral symmetry is turned on.
 One-electron integrals computed using PRISM.
 NBasis=   101 RedAO= T EigKep=  1.63D-06  NBF=   101
 NBsUse=   101 1.00D-06 EigRej= -1.00D+00 NBFU=   101
 ExpMin= 4.38D-02 ExpMax= 5.48D+03 ExpMxC= 8.25D+02 IAcc=3 IRadAn=         5 AccDes= 0.00D+00
 Harris functional with IExCor= 1009 and IRadAn=       5 diagonalized for initial guess.
 HarFok:  IExCor= 1009 AccDes= 0.00D+00 IRadAn=         5 IDoV= 1 UseB2=F ITyADJ=14
 ICtDFT=  3500011 ScaDFX=  1.000000  1.000000  1.000000  1.000000
 FoFCou: FMM=F IPFlag=           0 FMFlag=      100000 FMFlg1=           0
         NFxFlg=           0 DoJE=T BraDBF=F KetDBF=T FulRan=T
         wScrn=  0.000000 ICntrl=       500 IOpCl=  0 I1Cent=   200000004 NGrid=           0
         NMat0=    1 NMatS0=      1 NMatT0=    0 NMatD0=    1 NMtDS0=    0 NMtDT0=    0
 Petite list used in FoFCou.
 Initial guess <Sx>= 0.0000 <Sy>= 0.0000 <Sz>= 0.5000 <S**2>= 0.7500 S= 0.5000
 Keep R1 and R2 ints in memory in canonical form, NReq=48765169.
 Requested convergence on RMS density matrix=1.00D-08 within 128 cycles.
 Requested convergence on MAX density matrix=1.00D-06.
 Requested convergence on             energy=1.00D-06.
 No special actions if energy rises.
 SCF Done:  E(UM062X) =  -343.587614198     A.U. after   18 cycles
            NFock= 18  Conv=0.85D-08     -V/T= 2.0062
 <Sx>= 0.0000 <Sy>= 0.0000 <Sz>= 0.5000 <S**2>= 0.7557 S= 0.5029
 <L.S>=  0.00000000000    
 Annihilation of the first spin contaminant:
 S**2 before annihilation     0.7557,   after     0.7500
 DoSCS=F DFT=T ScalE2(SS,OS)=  1.000000  1.000000
 Range of M.O.s used for correlation:     1   101
 NBasis=   101 NAE=    26 NBE=    25 NFC=     0 NFV=     0
 NROrb=    101 NOA=    26 NOB=    25 NVA=    75 NVB=    76

 **** Warning!!: The largest alpha MO coefficient is  0.27755753D+03


 **** Warning!!: The largest beta MO coefficient is  0.28740730D+03

 Symmetrizing basis deriv contribution to polar:
 IMax=3 JMax=2 DiffMx= 0.00D+00
 G2DrvN: will do    13 centers at a time, making    1 passes.
 Calling FoFCou, ICntrl=  3107 FMM=F I1Cent=   0 AccDes= 0.00D+00.
 End of G2Drv F.D. properties file   721 does not exist.
 End of G2Drv F.D. properties file   722 does not exist.
 End of G2Drv F.D. properties file   788 does not exist.
          IDoAtm=111111111111
          Differentiating once with respect to nuclear coordinates.
 Keep R1 and R2 ints in memory in canonical form, NReq=48693032.
          There are    39 degrees of freedom in the 1st order CPHF.  IDoFFX=6 NUNeed=     0.
     33 vectors produced by pass  0 Test12= 9.87D-15 2.56D-09 XBig12= 6.69D-01 2.49D-01.
 AX will form    33 AO Fock derivatives at one time.
     33 vectors produced by pass  1 Test12= 9.87D-15 2.56D-09 XBig12= 5.11D-02 4.03D-02.
     33 vectors produced by pass  2 Test12= 9.87D-15 2.56D-09 XBig12= 2.42D-03 7.84D-03.
     33 vectors produced by pass  3 Test12= 9.87D-15 2.56D-09 XBig12= 1.41D-05 8.51D-04.
     33 vectors produced by pass  4 Test12= 9.87D-15 2.56D-09 XBig12= 7.23D-08 5.20D-05.
     33 vectors produced by pass  5 Test12= 9.87D-15 2.56D-09 XBig12= 7.49D-10 3.45D-06.
     28 vectors produced by pass  6 Test12= 9.87D-15 2.56D-09 XBig12= 8.23D-12 4.36D-07.
     13 vectors produced by pass  7 Test12= 9.87D-15 2.56D-09 XBig12= 5.64D-14 2.97D-08.
      4 vectors produced by pass  8 Test12= 9.87D-15 2.56D-09 XBig12= 5.05D-16 4.20D-09.
 InvSVY:  IOpt=1 It=  1 EMax= 1.33D-15
 Solved reduced A of dimension   243 with    33 vectors.
 End of Minotr F.D. properties file   721 does not exist.
 End of Minotr F.D. properties file   722 does not exist.
 End of Minotr F.D. properties file   788 does not exist.

 **********************************************************************

            Population analysis using the SCF density.

 **********************************************************************

 Orbital symmetries:
 Alpha Orbitals:
       Occupied  (A) (A) (A) (A) (A) (A) (A) (A) (A) (A) (A) (A)
                 (A) (A) (A) (A) (A) (A) (A) (A) (A) (A) (A) (A)
                 (A) (A)
       Virtual   (A) (A) (A) (A) (A) (A) (A) (A) (A) (A) (A) (A)
                 (A) (A) (A) (A) (A) (A) (A) (A) (A) (A) (A) (A)
                 (A) (A) (A) (A) (A) (A) (A) (A) (A) (A) (A) (A)
                 (A) (A) (A) (A) (A) (A) (A) (A) (A) (A) (A) (A)
                 (A) (A) (A) (A) (A) (A) (A) (A) (A) (A) (A) (A)
                 (A) (A) (A) (A) (A) (A) (A) (A) (A) (A) (A) (A)
                 (A) (A) (A)
 Beta  Orbitals:
       Occupied  (A) (A) (A) (A) (A) (A) (A) (A) (A) (A) (A) (A)
                 (A) (A) (A) (A) (A) (A) (A) (A) (A) (A) (A) (A)
                 (A)
       Virtual   (A) (A) (A) (A) (A) (A) (A) (A) (A) (A) (A) (A)
                 (A) (A) (A) (A) (A) (A) (A) (A) (A) (A) (A) (A)
                 (A) (A) (A) (A) (A) (A) (A) (A) (A) (A) (A) (A)
                 (A) (A) (A) (A) (A) (A) (A) (A) (A) (A) (A) (A)
                 (A) (A) (A) (A) (A) (A) (A) (A) (A) (A) (A) (A)
                 (A) (A) (A) (A) (A) (A) (A) (A) (A) (A) (A) (A)
                 (A) (A) (A) (A)
 The electronic state is 2-A.
 Alpha  occ. eigenvalues --  -19.73127 -19.65766 -10.74571 -10.63895 -10.59597
 Alpha  occ. eigenvalues --  -10.58984 -10.55755  -1.28927  -1.15904  -0.90454
 Alpha  occ. eigenvalues --   -0.88012  -0.79828  -0.70027  -0.64972  -0.60481
 Alpha  occ. eigenvalues --   -0.59281  -0.57061  -0.51552  -0.50258  -0.47652
 Alpha  occ. eigenvalues --   -0.46874  -0.39506  -0.39416  -0.37221  -0.36173
 Alpha  occ. eigenvalues --   -0.28031
 Alpha virt. eigenvalues --   -0.02234   0.02241   0.02564   0.03370   0.03979
 Alpha virt. eigenvalues --    0.04716   0.05856   0.06313   0.07782   0.08284
 Alpha virt. eigenvalues --    0.08549   0.09352   0.10688   0.12109   0.12486
 Alpha virt. eigenvalues --    0.12982   0.15170   0.15952   0.16481   0.17255
 Alpha virt. eigenvalues --    0.18190   0.19339   0.19858   0.20790   0.23390
 Alpha virt. eigenvalues --    0.24764   0.27562   0.28551   0.29203   0.30333
 Alpha virt. eigenvalues --    0.31281   0.32129   0.32780   0.33377   0.34667
 Alpha virt. eigenvalues --    0.35925   0.38308   0.39605   0.41359   0.44638
 Alpha virt. eigenvalues --    0.52283   0.61212   0.69524   0.70143   0.70785
 Alpha virt. eigenvalues --    0.72409   0.73054   0.74878   0.76317   0.78111
 Alpha virt. eigenvalues --    0.81327   0.82787   0.87161   0.87583   0.91016
 Alpha virt. eigenvalues --    0.96191   0.97929   1.05011   1.08393   1.11880
 Alpha virt. eigenvalues --    1.15457   1.18386   1.22543   1.27358   1.28058
 Alpha virt. eigenvalues --    1.31830   1.35802   1.38446   1.43269   1.47228
 Alpha virt. eigenvalues --    1.50242   1.59333   1.71505   1.94512   1.98161
  Beta  occ. eigenvalues --  -19.73080 -19.65758 -10.74502 -10.62983 -10.59604
  Beta  occ. eigenvalues --  -10.58984 -10.55821  -1.28588  -1.15743  -0.89641
  Beta  occ. eigenvalues --   -0.86566  -0.79229  -0.68963  -0.63338  -0.60336
  Beta  occ. eigenvalues --   -0.58564  -0.56489  -0.50340  -0.49379  -0.46877
  Beta  occ. eigenvalues --   -0.46243  -0.39459  -0.39310  -0.37229  -0.36134
  Beta virt. eigenvalues --   -0.02401  -0.02037   0.02161   0.02380   0.03500
  Beta virt. eigenvalues --    0.04117   0.04664   0.05666   0.06360   0.07775
  Beta virt. eigenvalues --    0.08125   0.08455   0.09282   0.10796   0.11574
  Beta virt. eigenvalues --    0.12641   0.12850   0.15035   0.16143   0.16387
  Beta virt. eigenvalues --    0.17236   0.18170   0.19218   0.20614   0.21615
  Beta virt. eigenvalues --    0.23633   0.24976   0.27635   0.28503   0.29629
  Beta virt. eigenvalues --    0.30740   0.31482   0.32267   0.32713   0.33866
  Beta virt. eigenvalues --    0.34873   0.35817   0.38105   0.39734   0.41674
  Beta virt. eigenvalues --    0.44539   0.52465   0.61336   0.69721   0.70375
  Beta virt. eigenvalues --    0.71395   0.72904   0.73748   0.75864   0.76990
  Beta virt. eigenvalues --    0.79820   0.82311   0.83109   0.87904   0.88198
  Beta virt. eigenvalues --    0.91099   0.96230   0.98226   1.05436   1.09302
  Beta virt. eigenvalues --    1.12282   1.15649   1.18755   1.22412   1.27399
  Beta virt. eigenvalues --    1.28112   1.31805   1.36496   1.38526   1.43343
  Beta virt. eigenvalues --    1.47249   1.50977   1.59758   1.71626   1.94684
  Beta virt. eigenvalues --    1.98227
          Condensed to atoms (all electrons):
               1          2          3          4          5          6
     1  C   26.876916   0.771857  -7.388376 -13.246503  -0.151195  -1.054165
     2  H    0.771857   0.337763  -0.353103  -0.106445  -0.000231  -0.000720
     3  C   -7.388376  -0.353103  16.693277  -1.092767   0.066823  -1.438236
     4  C  -13.246503  -0.106445  -1.092767  18.716005   0.403423   1.583054
     5  O   -0.151195  -0.000231   0.066823   0.403423   8.352135  -0.250886
     6  O   -1.054165  -0.000720  -1.438236   1.583054  -0.250886   9.162753
     7  C   -0.254075  -0.000358  -0.306033   0.373124  -0.005790   0.251165
     8  C   -0.115221  -0.000067  -0.242795   0.072396  -0.055625   0.060984
     9  H   -0.005106  -0.000000  -0.017523   0.026078  -0.002029  -0.040325
    10  H   -0.000005   0.000000  -0.000404   0.000988   0.000304   0.003626
    11  H    0.002430  -0.000000   0.010166  -0.007560  -0.000985   0.001777
    12  H    0.002221   0.000000   0.009159  -0.008626   0.001736  -0.001723
               7          8          9         10         11         12
     1  C   -0.254075  -0.115221  -0.005106  -0.000005   0.002430   0.002221
     2  H   -0.000358  -0.000067  -0.000000   0.000000  -0.000000   0.000000
     3  C   -0.306033  -0.242795  -0.017523  -0.000404   0.010166   0.009159
     4  C    0.373124   0.072396   0.026078   0.000988  -0.007560  -0.008626
     5  O   -0.005790  -0.055625  -0.002029   0.000304  -0.000985   0.001736
     6  O    0.251165   0.060984  -0.040325   0.003626   0.001777  -0.001723
     7  C    5.588442  -0.028280   0.398824  -0.053728  -0.057417  -0.064499
     8  C   -0.028280   5.864912  -0.050464   0.395323   0.394371   0.391768
     9  H    0.398824  -0.050464   0.476718  -0.002416   0.002436   0.000698
    10  H   -0.053728   0.395323  -0.002416   0.491083  -0.021851  -0.028503
    11  H   -0.057417   0.394371   0.002436  -0.021851   0.478871  -0.029724
    12  H   -0.064499   0.391768   0.000698  -0.028503  -0.029724   0.479183
          Atomic-Atomic Spin Densities.
               1          2          3          4          5          6
     1  C   -0.600471  -0.005294   0.095659   0.532404  -0.020741  -0.004115
     2  H   -0.005294  -0.000773   0.004827   0.001192   0.000022  -0.000063
     3  C    0.095659   0.004827  -0.312226   0.207994  -0.028954   0.012084
     4  C    0.532404   0.001192   0.207994  -0.648430   0.053596  -0.061715
     5  O   -0.020741   0.000022  -0.028954   0.053596  -0.010623   0.006742
     6  O   -0.004115  -0.000063   0.012084  -0.061715   0.006742   0.071073
     7  C   -0.037403  -0.000017  -0.048249   0.013581  -0.009424  -0.073990
     8  C    0.015618  -0.000008   0.031034  -0.033109   0.002996   0.006458
     9  H   -0.000040   0.000000  -0.002767  -0.003206   0.000348   0.001574
    10  H   -0.000091  -0.000000  -0.000437  -0.000082  -0.000035   0.000384
    11  H   -0.001062  -0.000000  -0.004812   0.001926  -0.000078   0.000560
    12  H    0.000757   0.000000   0.004040   0.003886   0.000905   0.000925
               7          8          9         10         11         12
     1  C   -0.037403   0.015618  -0.000040  -0.000091  -0.001062   0.000757
     2  H   -0.000017  -0.000008   0.000000  -0.000000  -0.000000   0.000000
     3  C   -0.048249   0.031034  -0.002767  -0.000437  -0.004812   0.004040
     4  C    0.013581  -0.033109  -0.003206  -0.000082   0.001926   0.003886
     5  O   -0.009424   0.002996   0.000348  -0.000035  -0.000078   0.000905
     6  O   -0.073990   0.006458   0.001574   0.000384   0.000560   0.000925
     7  C    1.491862  -0.100979  -0.006639  -0.014581  -0.006483  -0.042726
     8  C   -0.100979  -0.096608   0.000953   0.014738   0.009040   0.020203
     9  H   -0.006639   0.000953  -0.057178   0.000339   0.000031  -0.000080
    10  H   -0.014581   0.014738   0.000339   0.014269   0.003456  -0.007783
    11  H   -0.006483   0.009040   0.000031   0.003456   0.024262  -0.010281
    12  H   -0.042726   0.020203  -0.000080  -0.007783  -0.010281   0.078778
 Mulliken charges and spin densities:
               1          2
     1  C    0.561224  -0.024778
     2  H    0.351304  -0.000112
     3  C    0.059813  -0.041806
     4  C   -0.713165   0.068037
     5  O   -0.357682  -0.005244
     6  O   -0.277303  -0.040081
     7  C    0.158623   1.164951
     8  C   -0.687301  -0.129663
     9  H    0.213110  -0.066665
    10  H    0.215584   0.010178
    11  H    0.227486   0.016559
    12  H    0.248310   0.048624
 Sum of Mulliken charges =  -0.00000   1.00000
 Mulliken charges and spin densities with hydrogens summed into heavy atoms:
               1          2
     1  C    0.912527  -0.024891
     3  C    0.059813  -0.041806
     4  C   -0.713165   0.068037
     5  O   -0.357682  -0.005244
     6  O   -0.277303  -0.040081
     7  C    0.371733   1.098286
     8  C    0.004078  -0.054302
 APT charges:
               1
     1  C    0.950711
     2  H    1.099852
     3  C   -1.778438
     4  C   -0.083984
     5  O   -0.372699
     6  O   -0.126760
     7  C   -0.197561
     8  C   -1.483333
     9  H    0.581831
    10  H    0.687159
    11  H    0.344755
    12  H    0.378466
 Sum of APT charges =  -0.00000
 APT charges with hydrogens summed into heavy atoms:
               1
     1  C    2.050563
     3  C   -1.778438
     4  C   -0.083984
     5  O   -0.372699
     6  O   -0.126760
     7  C    0.384270
     8  C   -0.072952
 Electronic spatial extent (au):  <R**2>=            917.4138
 Charge=             -0.0000 electrons
 Dipole moment (field-independent basis, Debye):
    X=             -0.4665    Y=             -1.9428    Z=              0.1549  Tot=              2.0040
 Quadrupole moment (field-independent basis, Debye-Ang):
   XX=            -25.0517   YY=            -48.7457   ZZ=            -39.9265
   XY=             -2.6836   XZ=              1.4587   YZ=             -0.9747
 Traceless Quadrupole moment (field-independent basis, Debye-Ang):
   XX=             12.8562   YY=            -10.8377   ZZ=             -2.0185
   XY=             -2.6836   XZ=              1.4587   YZ=             -0.9747
 Octapole moment (field-independent basis, Debye-Ang**2):
  XXX=             28.2362  YYY=             -3.6041  ZZZ=             -3.8553  XYY=             -2.6424
  XXY=            -11.3349  XXZ=              4.8899  XZZ=             -7.0721  YZZ=              1.1405
  YYZ=              1.5673  XYZ=             -1.1693
 Hexadecapole moment (field-independent basis, Debye-Ang**3):
 XXXX=           -716.6462 YYYY=           -173.3466 ZZZZ=            -94.6931 XXXY=            -51.3261
 XXXZ=             34.1386 YYYX=             -2.0004 YYYZ=             -0.2668 ZZZX=              2.4259
 ZZZY=             -0.8007 XXYY=           -197.4563 XXZZ=           -184.9931 YYZZ=            -42.9090
 XXYZ=             -6.3670 YYXZ=             -2.5534 ZZXY=              0.8378
 N-N= 2.587203690924D+02 E-N=-1.319353643158D+03  KE= 3.414836964766D+02
  Exact polarizability:   0.000   0.000   0.000   0.000   0.000   0.000
 Approx polarizability:  88.881 -12.664  63.141   6.524   0.786  42.107
                          Isotropic Fermi Contact Couplings
        Atom                 a.u.       MegaHertz       Gauss      10(-4) cm-1
     1  C(13)             -0.00035      -0.39486      -0.14090      -0.13171
     2  H(1)              -0.00004      -0.17068      -0.06090      -0.05693
     3  C(13)             -0.00481      -5.40846      -1.92987      -1.80407
     4  C(13)              0.04372      49.14751      17.53705      16.39384
     5  O(17)              0.00493      -2.99081      -1.06719      -0.99763
     6  O(17)              0.06245     -37.85587     -13.50792     -12.62736
     7  C(13)              0.18614     209.25511      74.66743      69.79999
     8  C(13)             -0.02961     -33.28294     -11.87618     -11.10199
     9  H(1)              -0.01955     -87.40643     -31.18879     -29.15565
    10  H(1)               0.00561      25.07683       8.94804       8.36473
    11  H(1)               0.00773      34.57315      12.33656      11.53236
    12  H(1)               0.02553     114.12158      40.72142      38.06686
 --------------------------------------------------------
       Center         ----  Spin Dipole Couplings  ----
                      3XX-RR        3YY-RR        3ZZ-RR
 --------------------------------------------------------
     1   Atom        0.001568     -0.001023     -0.000545
     2   Atom        0.001348     -0.000681     -0.000667
     3   Atom        0.003783     -0.001672     -0.002111
     4   Atom        0.023043     -0.002083     -0.020960
     5   Atom        0.025621      0.000946     -0.026567
     6   Atom       -0.114633      0.156296     -0.041663
     7   Atom       -0.525815      1.069365     -0.543550
     8   Atom       -0.009892      0.016148     -0.006256
     9   Atom       -0.056378     -0.008986      0.065364
    10   Atom        0.013487     -0.008085     -0.005402
    11   Atom       -0.007404     -0.008755      0.016159
    12   Atom       -0.003145     -0.005722      0.008868
 --------------------------------------------------------
                        XY            XZ            YZ
 --------------------------------------------------------
     1   Atom        0.000384      0.000446      0.000350
     2   Atom       -0.000177      0.000342     -0.000014
     3   Atom        0.000302      0.001069      0.000006
     4   Atom        0.029474      0.014739      0.011007
     5   Atom       -0.002211      0.009220      0.002984
     6   Atom       -0.014698     -0.012304      0.020581
     7   Atom        0.320951      0.034240      0.187821
     8   Atom        0.004708     -0.000168      0.005707
     9   Atom        0.000902      0.055323     -0.024346
    10   Atom       -0.000689     -0.013274     -0.000541
    11   Atom        0.003643     -0.008893     -0.004413
    12   Atom       -0.006973     -0.011777      0.010092
 --------------------------------------------------------


 ---------------------------------------------------------------------------------
              Anisotropic Spin Dipole Couplings in Principal Axis System
 ---------------------------------------------------------------------------------

       Atom             a.u.   MegaHertz   Gauss  10(-4) cm-1        Axes

              Baa    -0.0012    -0.163    -0.058    -0.054 -0.0549  0.8997 -0.4329
     1 C(13)  Bbb    -0.0005    -0.069    -0.025    -0.023 -0.2623  0.4054  0.8757
              Bcc     0.0017     0.232     0.083     0.077  0.9634  0.1616  0.2137
 
              Baa    -0.0007    -0.389    -0.139    -0.130 -0.1819 -0.4060  0.8956
     2 H(1)   Bbb    -0.0007    -0.368    -0.131    -0.123  0.0094  0.9100  0.4145
              Bcc     0.0014     0.757     0.270     0.253  0.9833 -0.0838  0.1618
 
              Baa    -0.0023    -0.309    -0.110    -0.103 -0.1761  0.0753  0.9815
     3 C(13)  Bbb    -0.0017    -0.226    -0.081    -0.075 -0.0388  0.9958 -0.0833
              Bcc     0.0040     0.535     0.191     0.178  0.9836  0.0527  0.1724
 
              Baa    -0.0261    -3.505    -1.251    -1.169 -0.0899 -0.3215  0.9426
     4 C(13)  Bbb    -0.0213    -2.863    -1.021    -0.955 -0.5884  0.7808  0.2102
              Bcc     0.0475     6.368     2.272     2.124  0.8036  0.5358  0.2593
 
              Baa    -0.0285     2.064     0.736     0.688 -0.1713 -0.1120  0.9788
     5 O(17)  Bbb     0.0012    -0.088    -0.031    -0.029  0.0441  0.9917  0.1211
              Bcc     0.0273    -1.976    -0.705    -0.659  0.9842 -0.0639  0.1649
 
              Baa    -0.1171     8.475     3.024     2.827  0.9879  0.0418  0.1497
     6 O(17)  Bbb    -0.0422     3.055     1.090     1.019 -0.1442 -0.1126  0.9831
              Bcc     0.1593   -11.529    -4.114    -3.846 -0.0580  0.9928  0.1052
 
              Baa    -0.5882   -78.925   -28.162   -26.327  0.9759 -0.1991  0.0890
     7 C(13)  Bbb    -0.5648   -75.797   -27.046   -25.283 -0.1091 -0.0923  0.9897
              Bcc     1.1530   154.722    55.209    51.610  0.1888  0.9756  0.1118
 
              Baa    -0.0111    -1.486    -0.530    -0.496  0.9288 -0.2227  0.2962
     8 C(13)  Bbb    -0.0072    -0.963    -0.344    -0.321 -0.3345 -0.1597  0.9288
              Bcc     0.0183     2.449     0.874     0.817  0.1596  0.9617  0.2229
 
              Baa    -0.0791   -42.225   -15.067   -14.085  0.9162 -0.1418 -0.3747
     9 H(1)   Bbb    -0.0126    -6.727    -2.400    -2.244  0.2114  0.9656  0.1515
              Bcc     0.0917    48.953    17.468    16.329  0.3403 -0.2180  0.9147
 
              Baa    -0.0124    -6.614    -2.360    -2.206  0.4526  0.1820  0.8730
    10 H(1)   Bbb    -0.0079    -4.238    -1.512    -1.414 -0.0722  0.9832 -0.1675
              Bcc     0.0203    10.851     3.872     3.620  0.8888 -0.0128 -0.4581
 
              Baa    -0.0121    -6.461    -2.305    -2.155  0.7562 -0.6397  0.1380
    11 H(1)   Bbb    -0.0080    -4.280    -1.527    -1.428  0.5686  0.7466  0.3454
              Bcc     0.0201    10.741     3.833     3.583 -0.3240 -0.1827  0.9283
 
              Baa    -0.0115    -6.157    -2.197    -2.054  0.5826  0.8102 -0.0645
    12 H(1)   Bbb    -0.0100    -5.357    -1.911    -1.787  0.6530 -0.4194  0.6306
              Bcc     0.0216    11.514     4.108     3.841 -0.4839  0.4095  0.7734
 

 ---------------------------------------------------------------------------------

 Calling FoFJK, ICntrl=    100147 FMM=F ISym2X=0 I1Cent= 0 IOpClX= 1 NMat=1 NMatS=1 NMatT=0.
 ***** Axes restored to original set *****
 -------------------------------------------------------------------
 Center     Atomic                   Forces (Hartrees/Bohr)
 Number     Number              X              Y              Z
 -------------------------------------------------------------------
      1        6          -0.042408995    0.026509604    0.007571884
      2        1           0.020546885   -0.014388271   -0.004171967
      3        6           0.078437347   -0.031794682   -0.008228250
      4        6          -0.084396810   -0.050723157   -0.021806791
      5        8          -0.002827889    0.034794482    0.012545344
      6        8           0.042329476    0.024946551    0.012409468
      7        6           0.012796514   -0.015254416    0.031390267
      8        6          -0.018534697    0.034010210   -0.030969958
      9        1          -0.004303491    0.007416233   -0.013645695
     10        1           0.010461757    0.000675817   -0.001052516
     11        1          -0.002368270    0.005806989    0.016442500
     12        1          -0.009731828   -0.021999359   -0.000484285
 -------------------------------------------------------------------
 Cartesian Forces:  Max     0.084396810 RMS     0.028699637
 FormGI is forming the generalized inverse of G from B-inverse, IUseBI=4.

 GradGradGradGradGradGradGradGradGradGradGradGradGradGradGradGradGradGrad
 Berny optimization.
 Internal  Forces:  Max     0.058174298 RMS     0.017642632
 Search for a local minimum.
 Step number   1 out of a maximum of   49
 All quantities printed in internal units (Hartrees-Bohrs-Radians)
 Mixed Optimization -- RFO/linear search
 Second derivative matrix not updated -- analytic derivatives used.
 ITU=  0
     Eigenvalues ---   -0.00579  -0.00455   0.00045   0.01626   0.01687
     Eigenvalues ---    0.02745   0.06106   0.06179   0.06252   0.07687
     Eigenvalues ---    0.10113   0.10346   0.12635   0.13095   0.14717
     Eigenvalues ---    0.16800   0.17860   0.19161   0.19498   0.26741
     Eigenvalues ---    0.32243   0.34363   0.35282   0.38750   0.40453
     Eigenvalues ---    0.41243   0.41542   0.54262   0.72615   1.21208
 RFO step:  Lambda=-3.65716696D-02 EMin=-5.79454904D-03
 Linear search not attempted -- first point.
 Maximum step size (   0.300) exceeded in Quadratic search.
    -- Step size scaled by   0.820
 Iteration  1 RMS(Cart)=  0.11617647 RMS(Int)=  0.04274321
 Iteration  2 RMS(Cart)=  0.06806877 RMS(Int)=  0.00931548
 Iteration  3 RMS(Cart)=  0.00300285 RMS(Int)=  0.00895399
 Iteration  4 RMS(Cart)=  0.00001312 RMS(Int)=  0.00895398
 Iteration  5 RMS(Cart)=  0.00000005 RMS(Int)=  0.00895398
 Variable       Old X    -DE/DX   Delta X   Delta X   Delta X     New X
                                 (Linear)    (Quad)   (Total)
    R1        2.08042  -0.02541   0.00000  -0.05376  -0.05376   2.02666
    R2        2.26183   0.02516   0.00000   0.01584   0.01584   2.27767
    R3        2.90572  -0.05817   0.00000  -0.17623  -0.17623   2.72949
    R4        2.38566  -0.03663   0.00000  -0.05369  -0.05369   2.33197
    R5        2.46087   0.04441   0.00000   0.08044   0.08044   2.54132
    R6        2.70780  -0.01571   0.00000  -0.03066  -0.03066   2.67714
    R7        2.91681  -0.02966   0.00000  -0.10037  -0.10037   2.81644
    R8        2.01581   0.01024   0.00000   0.02098   0.02098   2.03679
    R9        2.03440   0.01043   0.00000   0.02190   0.02190   2.05630
   R10        2.01975   0.01746   0.00000   0.03289   0.03289   2.05264
   R11        2.00953   0.02403   0.00000   0.04825   0.04825   2.05778
    A1        2.08361   0.00792   0.00000   0.07498   0.07496   2.15857
    A2        2.08929  -0.02980   0.00000  -0.09945  -0.09947   1.98983
    A3        2.11026   0.02188   0.00000   0.02454   0.02453   2.13479
    A4        2.08757   0.00047   0.00000  -0.00351  -0.00351   2.08406
    A5        2.11286  -0.00986   0.00000  -0.04828  -0.07795   2.03492
    A6        2.07864  -0.00752   0.00000  -0.01778  -0.04780   2.03085
    A7        2.09167   0.01739   0.00000   0.06776   0.03506   2.12673
    A8        1.90521  -0.00233   0.00000   0.00447   0.00441   1.90962
    A9        1.91226   0.00270   0.00000   0.01083   0.01069   1.92295
   A10        1.91990   0.00168   0.00000   0.02741   0.02723   1.94714
   A11        1.92243  -0.00125   0.00000  -0.01656  -0.01657   1.90586
   A12        1.89924   0.00057   0.00000  -0.01513  -0.01523   1.88401
   A13        1.90477  -0.00137   0.00000  -0.01108  -0.01132   1.89345
   A14        3.14169   0.00107   0.00000   0.00407   0.00407   3.14576
   A15        3.14159   0.00332   0.00000   0.01770   0.01770   3.15929
   A16        3.14200  -0.00066   0.00000  -0.00269  -0.00269   3.13932
   A17        3.14160  -0.00286   0.00000  -0.01964  -0.01964   3.12196
    D1       -3.13406  -0.00037   0.00000  -0.00955  -0.00985   3.13928
    D2        3.11598   0.00111   0.00000   0.00758   0.00725   3.12323
    D3       -0.01805   0.00058   0.00000  -0.00275  -0.00242  -0.02048
    D4       -1.52955   0.00192   0.00000  -0.00885  -0.02056  -1.55011
    D5        1.61632  -0.00012   0.00000  -0.47196  -0.46024   1.15607
    D6       -2.62881  -0.00063   0.00000  -0.21709  -0.21659  -2.84540
    D7       -0.52230  -0.00195   0.00000  -0.22797  -0.22761  -0.74991
    D8        1.57161  -0.00091   0.00000  -0.21785  -0.21734   1.35427
    D9        0.50847   0.00137   0.00000   0.24923   0.24881   0.75728
   D10        2.61498   0.00005   0.00000   0.23835   0.23779   2.85277
   D11       -1.57429   0.00109   0.00000   0.24847   0.24806  -1.32623
         Item               Value     Threshold  Converged?
 Maximum Force            0.058174     0.000015     NO 
 RMS     Force            0.017643     0.000010     NO 
 Maximum Displacement     0.370028     0.000060     NO 
 RMS     Displacement     0.159224     0.000040     NO 
 Predicted change in Energy=-2.153362D-02
 GradGradGradGradGradGradGradGradGradGradGradGradGradGradGradGradGradGrad

                          Input orientation:                          
 ---------------------------------------------------------------------
 Center     Atomic      Atomic             Coordinates (Angstroms)
 Number     Number       Type             X           Y           Z
 ---------------------------------------------------------------------
      1          6           0       -3.231430    1.110891    0.208281
      2          1           0       -4.114913    1.684682    0.409259
      3          6           0       -2.240821    0.463997   -0.021810
      4          6           0       -1.070774   -0.330441   -0.315257
      5          8           0       -1.112085   -1.426539   -0.880658
      6          8           0        0.085202    0.230779    0.081299
      7          6           0        1.303023   -0.461509   -0.129959
      8          6           0        1.737474   -1.392099    0.950102
      9          1           0        1.602035   -0.601707   -1.155941
     10          1           0        2.793115   -1.624290    0.824498
     11          1           0        1.585903   -0.933635    1.923080
     12          1           0        1.182043   -2.328213    0.919203
 ---------------------------------------------------------------------
                    Distance matrix (angstroms):
                    1          2          3          4          5
     1  C    0.000000
     2  H    1.072460   0.000000
     3  C    1.205289   2.277743   0.000000
     4  C    2.649521   3.721884   1.444386   0.000000
     5  O    3.480799   4.512267   2.363427   1.234024   0.000000
     6  O    3.433769   4.456720   2.339958   1.344807   2.259549
     7  C    4.811248   5.852429   3.664299   2.384624   2.706951
     8  C    5.612955   6.633967   4.496280   3.257992   3.387160
     9  H    5.306267   6.353024   4.146024   2.815004   2.850014
    10  H    6.645004   7.670891   5.515224   4.231162   4.265824
    11  H    5.507025   6.453413   4.514398   3.525895   3.922122
    12  H    5.640176   6.664916   4.516407   3.254255   3.052137
                    6          7          8          9         10
     6  O    0.000000
     7  C    1.416679   0.000000
     8  C    2.473571   1.490395   0.000000
     9  H    2.127105   1.077823   2.253548   0.000000
    10  H    3.365475   2.117410   1.088149   2.527150   0.000000
    11  H    2.645774   2.125534   1.086209   3.096903   1.772357
    12  H    2.907505   2.144753   1.088930   2.731930   1.760691
                   11         12
    11  H    0.000000
    12  H    1.765140   0.000000
 Stoichiometry    C5H5O2(2)
 Framework group  C1[X(C5H5O2)]
 Deg. of freedom    30
 Full point group                 C1      NOp   1
 Largest Abelian subgroup         C1      NOp   1
 Largest concise Abelian subgroup C1      NOp   1
                         Standard orientation:                         
 ---------------------------------------------------------------------
 Center     Atomic      Atomic             Coordinates (Angstroms)
 Number     Number       Type             X           Y           Z
 ---------------------------------------------------------------------
      1          6           0        3.028270   -0.542314    0.220266
      2          1           0        4.038262   -0.880992    0.344299
      3          6           0        1.894951   -0.157019    0.079352
      4          6           0        0.546987    0.334177   -0.087889
      5          8           0        0.225026    1.515397    0.066626
      6          8           0       -0.341946   -0.613939   -0.433406
      7          6           0       -1.703276   -0.261562   -0.605421
      8          6           0       -2.567065   -0.324310    0.607512
      9          1           0       -1.926924    0.396022   -1.429599
     10          1           0       -3.612821   -0.331354    0.306824
     11          1           0       -2.352275   -1.225742    1.174200
     12          1           0       -2.410084    0.536572    1.255591
 ---------------------------------------------------------------------
 Rotational constants (GHZ):           7.1498123           1.5065174           1.3636240
 Standard basis: 6-31+G (6D, 7F)
 There are   101 symmetry adapted cartesian basis functions of A   symmetry.
 There are   101 symmetry adapted basis functions of A   symmetry.
   101 basis functions,   202 primitive gaussians,   101 cartesian basis functions
    26 alpha electrons       25 beta electrons
       nuclear repulsion energy       262.8852249970 Hartrees.
 NAtoms=   12 NActive=   12 NUniq=   12 SFac= 1.00D+00 NAtFMM=   60 NAOKFM=F Big=F
 Integral buffers will be    131072 words long.
 Raffenetti 2 integral format.
 Two-electron integral symmetry is turned on.
 One-electron integrals computed using PRISM.
 NBasis=   101 RedAO= T EigKep=  1.65D-06  NBF=   101
 NBsUse=   101 1.00D-06 EigRej= -1.00D+00 NBFU=   101
 Initial guess from the checkpoint file:  "ethyl_propiolate.chk"
 B after Tr=     0.000000   -0.000000   -0.000000
         Rot=    0.998080   -0.061837   -0.000792    0.003567 Ang=  -7.10 deg.
 Initial guess <Sx>= 0.0000 <Sy>= 0.0000 <Sz>= 0.5000 <S**2>= 0.7558 S= 0.5029
 ExpMin= 4.38D-02 ExpMax= 5.48D+03 ExpMxC= 8.25D+02 IAcc=2 IRadAn=         4 AccDes= 0.00D+00
 Harris functional with IExCor= 1009 and IRadAn=       4 diagonalized for initial guess.
 HarFok:  IExCor= 1009 AccDes= 0.00D+00 IRadAn=         4 IDoV= 1 UseB2=F ITyADJ=14
 ICtDFT=  3500011 ScaDFX=  1.000000  1.000000  1.000000  1.000000
 FoFCou: FMM=F IPFlag=           0 FMFlag=      100000 FMFlg1=           0
         NFxFlg=           0 DoJE=T BraDBF=F KetDBF=T FulRan=T
         wScrn=  0.000000 ICntrl=       500 IOpCl=  0 I1Cent=   200000004 NGrid=           0
         NMat0=    1 NMatS0=      1 NMatT0=    0 NMatD0=    1 NMtDS0=    0 NMtDT0=    0
 Petite list used in FoFCou.
 Keep R1 and R2 ints in memory in canonical form, NReq=48765169.
 Requested convergence on RMS density matrix=1.00D-08 within 128 cycles.
 Requested convergence on MAX density matrix=1.00D-06.
 Requested convergence on             energy=1.00D-06.
 No special actions if energy rises.
 SCF Done:  E(UM062X) =  -343.607091517     A.U. after   18 cycles
            NFock= 18  Conv=0.96D-08     -V/T= 2.0056
 <Sx>= 0.0000 <Sy>= 0.0000 <Sz>= 0.5000 <S**2>= 0.7547 S= 0.5024
 <L.S>=  0.00000000000    
 Annihilation of the first spin contaminant:
 S**2 before annihilation     0.7547,   after     0.7500
 Calling FoFJK, ICntrl=      2127 FMM=F ISym2X=0 I1Cent= 0 IOpClX= 1 NMat=1 NMatS=1 NMatT=0.
 ***** Axes restored to original set *****
 -------------------------------------------------------------------
 Center     Atomic                   Forces (Hartrees/Bohr)
 Number     Number              X              Y              Z
 -------------------------------------------------------------------
      1        6          -0.009010843    0.005305232    0.001943133
      2        1           0.003905355   -0.002813017   -0.000930319
      3        6           0.010666897   -0.000858194   -0.000364134
      4        6          -0.016952241   -0.015554752   -0.010333012
      5        8          -0.000669585    0.003615907    0.002127526
      6        8           0.011533034    0.009334864    0.006670376
      7        6           0.003862959   -0.004148727    0.006451281
      8        6          -0.000148276    0.008602169   -0.006123681
      9        1          -0.002161958    0.002067975   -0.005188813
     10        1           0.003092060   -0.001013845    0.000649740
     11        1          -0.000038112    0.001331873    0.005022176
     12        1          -0.004079291   -0.005869486    0.000075728
 -------------------------------------------------------------------
 Cartesian Forces:  Max     0.016952241 RMS     0.006413624

 GradGradGradGradGradGradGradGradGradGradGradGradGradGradGradGradGradGrad
 Berny optimization.
 Using GEDIIS/GDIIS optimizer.
 FormGI is forming the generalized inverse of G from B-inverse, IUseBI=4.
 Internal  Forces:  Max     0.016897862 RMS     0.004009504
 Search for a local minimum.
 Step number   2 out of a maximum of   49
 All quantities printed in internal units (Hartrees-Bohrs-Radians)
 Mixed Optimization -- RFO/linear search
 Update second derivatives using D2CorX and points    1    2
 DE= -1.95D-02 DEPred=-2.15D-02 R= 9.05D-01
 TightC=F SS=  1.41D+00  RLast= 7.91D-01 DXNew= 5.0454D-01 2.3721D+00
 Trust test= 9.05D-01 RLast= 7.91D-01 DXMaxT set to 5.05D-01
 ITU=  1  0
 Use linear search instead of GDIIS.
     Eigenvalues ---   -0.00746  -0.00481   0.00045   0.01626   0.01686
     Eigenvalues ---    0.02745   0.06107   0.06174   0.06244   0.07686
     Eigenvalues ---    0.09690   0.10341   0.12619   0.12980   0.14716
     Eigenvalues ---    0.16009   0.17846   0.19130   0.21172   0.27244
     Eigenvalues ---    0.32575   0.33825   0.35082   0.38689   0.40171
     Eigenvalues ---    0.40911   0.41307   0.51868   0.73160   1.20580
 RFO step:  Lambda=-7.93777817D-03 EMin=-7.45685213D-03
 I=     1 Eig=   -7.46D-03 Dot1= -1.03D-03
 I=     1 Stepn= -6.00D-01 RXN=   6.00D-01 EDone=F
 I=     2 Eig=   -4.81D-03 Dot1= -4.71D-04
 I=     2 Stepn= -3.00D-01 RXN=   6.71D-01 EDone=F
 Mixed    2 eigenvectors in step.  Raw Step.Grad=  1.50D-03.
 RFO eigenvector is Hessian eigenvector with negative curvature.
 Taking step of  6.00D-01 in eigenvector direction(s).  Step.Grad=  3.29D-04.
 Quartic linear search produced a step of  0.16537.
 Iteration  1 RMS(Cart)=  0.10226576 RMS(Int)=  0.01084706
 Iteration  2 RMS(Cart)=  0.01373483 RMS(Int)=  0.00650720
 Iteration  3 RMS(Cart)=  0.00008496 RMS(Int)=  0.00650696
 Iteration  4 RMS(Cart)=  0.00000020 RMS(Int)=  0.00650696
 Variable       Old X    -DE/DX   Delta X   Delta X   Delta X     New X
                                 (Linear)    (Quad)   (Total)
    R1        2.02666  -0.00490  -0.00889  -0.00917  -0.01806   2.00859
    R2        2.27767   0.00573   0.00262   0.00306   0.00568   2.28335
    R3        2.72949  -0.00348  -0.02914  -0.02184  -0.05098   2.67851
    R4        2.33197  -0.00416  -0.00888  -0.01250  -0.02138   2.31059
    R5        2.54132   0.01690   0.01330   0.01525   0.02855   2.56987
    R6        2.67714  -0.00015  -0.00507  -0.00595  -0.01102   2.66611
    R7        2.81644  -0.00252  -0.01660  -0.01294  -0.02954   2.78690
    R8        2.03679   0.00407   0.00347   0.00199   0.00546   2.04225
    R9        2.05630   0.00314   0.00362   0.00415   0.00777   2.06408
   R10        2.05264   0.00507   0.00544   0.00702   0.01246   2.06510
   R11        2.05778   0.00712   0.00798   0.00749   0.01547   2.07325
    A1        2.15857   0.00297   0.01240   0.01106   0.02345   2.18202
    A2        1.98983  -0.00777  -0.01645  -0.02371  -0.04016   1.94967
    A3        2.13479   0.00480   0.00406   0.01265   0.01670   2.15149
    A4        2.08406   0.00063  -0.00058  -0.00048  -0.00107   2.08299
    A5        2.03492  -0.00040  -0.01289   0.05276   0.01662   2.05154
    A6        2.03085  -0.00420  -0.00790   0.03485   0.00341   2.03426
    A7        2.12673   0.00472   0.00580   0.08196   0.06474   2.19148
    A8        1.90962   0.00135   0.00073   0.01209   0.01277   1.92239
    A9        1.92295   0.00131   0.00177   0.00080   0.00254   1.92548
   A10        1.94714  -0.00063   0.00450  -0.00103   0.00343   1.95056
   A11        1.90586  -0.00127  -0.00274  -0.00308  -0.00586   1.90001
   A12        1.88401  -0.00019  -0.00252  -0.00230  -0.00488   1.87914
   A13        1.89345  -0.00065  -0.00187  -0.00676  -0.00867   1.88478
   A14        3.14576   0.00018   0.00067   0.00150   0.00218   3.14794
   A15        3.15929   0.00087   0.00293   0.00592   0.00885   3.16814
   A16        3.13932  -0.00022  -0.00044  -0.00070  -0.00114   3.13818
   A17        3.12196  -0.00118  -0.00325  -0.00300  -0.00625   3.11571
    D1        3.13928  -0.00012  -0.00163   0.00103  -0.00065   3.13863
    D2        3.12323   0.00081   0.00120   0.01293   0.01407   3.13729
    D3       -0.02048   0.00072  -0.00040   0.01391   0.01357  -0.00691
    D4       -1.55011  -0.00151  -0.00340  -0.14560  -0.14642  -1.69653
    D5        1.15607  -0.00002  -0.07611   0.25764   0.17896   1.33503
    D6       -2.84540  -0.00057  -0.03582   0.18938   0.15512  -2.69029
    D7       -0.74991  -0.00047  -0.03764   0.19368   0.15758  -0.59234
    D8        1.35427  -0.00082  -0.03594   0.18501   0.15061   1.50488
    D9        0.75728   0.00033   0.04114  -0.22456  -0.18494   0.57234
   D10        2.85277   0.00043   0.03932  -0.22026  -0.18248   2.67029
   D11       -1.32623   0.00008   0.04102  -0.22893  -0.18945  -1.51568
         Item               Value     Threshold  Converged?
 Maximum Force            0.016898     0.000015     NO 
 RMS     Force            0.004010     0.000010     NO 
 Maximum Displacement     0.253364     0.000060     NO 
 RMS     Displacement     0.101460     0.000040     NO 
 Predicted change in Energy=-2.176932D-03
 GradGradGradGradGradGradGradGradGradGradGradGradGradGradGradGradGradGrad

                          Input orientation:                          
 ---------------------------------------------------------------------
 Center     Atomic      Atomic             Coordinates (Angstroms)
 Number     Number       Type             X           Y           Z
 ---------------------------------------------------------------------
      1          6           0       -3.197995    1.147828    0.217284
      2          1           0       -4.045840    1.751973    0.431584
      3          6           0       -2.238047    0.457852   -0.032536
      4          6           0       -1.138250   -0.377797   -0.350620
      5          8           0       -1.215464   -1.442966   -0.946000
      6          8           0        0.036821    0.149302    0.086121
      7          6           0        1.237713   -0.555356   -0.141485
      8          6           0        1.756625   -1.391310    0.957079
      9          1           0        1.638714   -0.515382   -1.144249
     10          1           0        2.839296   -1.503077    0.865609
     11          1           0        1.529083   -0.933100    1.922733
     12          1           0        1.316117   -2.396051    0.946577
 ---------------------------------------------------------------------
                    Distance matrix (angstroms):
                    1          2          3          4          5
     1  C    0.000000
     2  H    1.062900   0.000000
     3  C    1.208295   2.271183   0.000000
     4  C    2.625375   3.688068   1.417406   0.000000
     5  O    3.463506   4.485131   2.343758   1.222712   0.000000
     6  O    3.387963   4.399548   2.298762   1.359915   2.273501
     7  C    4.764982   5.793799   3.622067   2.391749   2.730050
     8  C    5.616296   6.620043   4.511778   3.334305   3.529546
     9  H    5.292805   6.319676   4.148778   2.891419   3.007665
    10  H    6.625444   7.628160   5.516459   4.308868   4.441466
    11  H    5.439125   6.364975   4.466440   3.548402   4.002766
    12  H    5.785167   6.798670   4.662136   3.432199   3.301382
                    6          7          8          9         10
     6  O    0.000000
     7  C    1.410846   0.000000
     8  C    2.467747   1.474765   0.000000
     9  H    2.126423   1.080711   2.279635   0.000000
    10  H    3.345418   2.116006   1.092262   2.540958   0.000000
    11  H    2.602226   2.118628   1.092804   3.097239   1.777370
    12  H    2.975870   2.139670   1.097115   2.830643   1.767493
                   11         12
    11  H    0.000000
    12  H    1.771570   0.000000
 Stoichiometry    C5H5O2(2)
 Framework group  C1[X(C5H5O2)]
 Deg. of freedom    30
 Full point group                 C1      NOp   1
 Largest Abelian subgroup         C1      NOp   1
 Largest concise Abelian subgroup C1      NOp   1
                         Standard orientation:                         
 ---------------------------------------------------------------------
 Center     Atomic      Atomic             Coordinates (Angstroms)
 Number     Number       Type             X           Y           Z
 ---------------------------------------------------------------------
      1          6           0        2.989836   -0.630510    0.181925
      2          1           0        3.975724   -1.015556    0.279501
      3          6           0        1.872094   -0.185574    0.069402
      4          6           0        0.577647    0.377658   -0.057939
      5          8           0        0.304094    1.555616    0.122640
      6          8           0       -0.344520   -0.556341   -0.413776
      7          6           0       -1.691173   -0.170016   -0.580410
      8          6           0       -2.609054   -0.390228    0.552698
      9          1           0       -1.933104    0.357920   -1.491831
     10          1           0       -3.634247   -0.496552    0.191160
     11          1           0       -2.330375   -1.296343    1.096311
     12          1           0       -2.590686    0.448347    1.259887
 ---------------------------------------------------------------------
 Rotational constants (GHZ):           6.9892322           1.5140745           1.3526194
 Standard basis: 6-31+G (6D, 7F)
 There are   101 symmetry adapted cartesian basis functions of A   symmetry.
 There are   101 symmetry adapted basis functions of A   symmetry.
   101 basis functions,   202 primitive gaussians,   101 cartesian basis functions
    26 alpha electrons       25 beta electrons
       nuclear repulsion energy       262.8763007313 Hartrees.
 NAtoms=   12 NActive=   12 NUniq=   12 SFac= 1.00D+00 NAtFMM=   60 NAOKFM=F Big=F
 Integral buffers will be    131072 words long.
 Raffenetti 2 integral format.
 Two-electron integral symmetry is turned on.
 One-electron integrals computed using PRISM.
 NBasis=   101 RedAO= T EigKep=  1.70D-06  NBF=   101
 NBsUse=   101 1.00D-06 EigRej= -1.00D+00 NBFU=   101
 Initial guess from the checkpoint file:  "ethyl_propiolate.chk"
 B after Tr=     0.000000   -0.000000   -0.000000
         Rot=    0.999614   -0.027080    0.002131    0.005871 Ang=  -3.18 deg.
 Initial guess <Sx>= 0.0000 <Sy>= 0.0000 <Sz>= 0.5000 <S**2>= 0.7550 S= 0.5025
 ExpMin= 4.38D-02 ExpMax= 5.48D+03 ExpMxC= 8.25D+02 IAcc=2 IRadAn=         4 AccDes= 0.00D+00
 Harris functional with IExCor= 1009 and IRadAn=       4 diagonalized for initial guess.
 HarFok:  IExCor= 1009 AccDes= 0.00D+00 IRadAn=         4 IDoV= 1 UseB2=F ITyADJ=14
 ICtDFT=  3500011 ScaDFX=  1.000000  1.000000  1.000000  1.000000
 FoFCou: FMM=F IPFlag=           0 FMFlag=      100000 FMFlg1=           0
         NFxFlg=           0 DoJE=T BraDBF=F KetDBF=T FulRan=T
         wScrn=  0.000000 ICntrl=       500 IOpCl=  0 I1Cent=   200000004 NGrid=           0
         NMat0=    1 NMatS0=      1 NMatT0=    0 NMatD0=    1 NMtDS0=    0 NMtDT0=    0
 Petite list used in FoFCou.
 Keep R1 and R2 ints in memory in canonical form, NReq=48765169.
 Requested convergence on RMS density matrix=1.00D-08 within 128 cycles.
 Requested convergence on MAX density matrix=1.00D-06.
 Requested convergence on             energy=1.00D-06.
 No special actions if energy rises.
 SCF Done:  E(UM062X) =  -343.606862823     A.U. after   18 cycles
            NFock= 18  Conv=0.56D-08     -V/T= 2.0054
 <Sx>= 0.0000 <Sy>= 0.0000 <Sz>= 0.5000 <S**2>= 0.7552 S= 0.5026
 <L.S>=  0.00000000000    
 Annihilation of the first spin contaminant:
 S**2 before annihilation     0.7552,   after     0.7500
 Calling FoFJK, ICntrl=      2127 FMM=F ISym2X=0 I1Cent= 0 IOpClX= 1 NMat=1 NMatS=1 NMatT=0.
 ***** Axes restored to original set *****
 -------------------------------------------------------------------
 Center     Atomic                   Forces (Hartrees/Bohr)
 Number     Number              X              Y              Z
 -------------------------------------------------------------------
      1        6           0.002694545   -0.002224881   -0.000754657
      2        1          -0.002212519    0.001541171    0.000676856
      3        6          -0.015248781    0.012518101    0.004111554
      4        6           0.003658489   -0.006992561   -0.003956502
      5        8           0.000647855   -0.007777333   -0.004024037
      6        8           0.008223681    0.001861177    0.003206836
      7        6           0.003951146    0.004324194   -0.001501076
      8        6           0.000850144   -0.000502750    0.000806164
      9        1          -0.002415239   -0.000025060   -0.001216010
     10        1           0.000592884   -0.000584632    0.000498685
     11        1           0.000274879    0.000019558    0.001191450
     12        1          -0.001017084   -0.002156985    0.000960738
 -------------------------------------------------------------------
 Cartesian Forces:  Max     0.015248781 RMS     0.004464681

 GradGradGradGradGradGradGradGradGradGradGradGradGradGradGradGradGradGrad
 Berny optimization.
 Using GEDIIS/GDIIS optimizer.
 FormGI is forming the generalized inverse of G from B-inverse, IUseBI=4.
 Internal  Forces:  Max     0.019339582 RMS     0.004066523
 Search for a local minimum.
 Step number   3 out of a maximum of   49
 All quantities printed in internal units (Hartrees-Bohrs-Radians)
 Mixed Optimization -- RFO/linear search
 Update second derivatives using D2CorX and points    3    2
 ITU=  0  1  0
 Use linear search instead of GDIIS.
     Eigenvalues ---   -0.00529   0.00045   0.00982   0.01626   0.01696
     Eigenvalues ---    0.02746   0.06111   0.06171   0.06245   0.07685
     Eigenvalues ---    0.10198   0.10342   0.12755   0.13119   0.14865
     Eigenvalues ---    0.16712   0.17918   0.19330   0.23998   0.28139
     Eigenvalues ---    0.33177   0.34686   0.38692   0.40137   0.40901
     Eigenvalues ---    0.41360   0.49233   0.66822   0.88105   1.25499
 RFO step:  Lambda=-5.42884186D-03 EMin=-5.29327408D-03
 I=     1 Eig=   -5.29D-03 Dot1=  4.52D-04
 I=     1 Stepn=  6.00D-01 RXN=   6.00D-01 EDone=F
 Mixed    1 eigenvectors in step.  Raw Step.Grad=  4.52D-04.
 RFO eigenvector is Hessian eigenvector with negative curvature.
 Taking step of  6.00D-01 in eigenvector direction(s).  Step.Grad=  1.53D-04.
 Quartic linear search produced a step of -0.58255.
 Iteration  1 RMS(Cart)=  0.09934772 RMS(Int)=  0.05306497
 Iteration  2 RMS(Cart)=  0.09869449 RMS(Int)=  0.00857099
 Iteration  3 RMS(Cart)=  0.01510912 RMS(Int)=  0.00178911
 Iteration  4 RMS(Cart)=  0.00017293 RMS(Int)=  0.00178610
 Iteration  5 RMS(Cart)=  0.00000002 RMS(Int)=  0.00178610
 Variable       Old X    -DE/DX   Delta X   Delta X   Delta X     New X
                                 (Linear)    (Quad)   (Total)
    R1        2.00859   0.00278   0.01052   0.00140   0.01193   2.02052
    R2        2.28335  -0.00079  -0.00331  -0.00054  -0.00385   2.27949
    R3        2.67851   0.01934   0.02970   0.00278   0.03248   2.71099
    R4        2.31059   0.00869   0.01245   0.00044   0.01289   2.32348
    R5        2.56987   0.01145  -0.01663  -0.00270  -0.01933   2.55053
    R6        2.66611   0.00125   0.00642   0.00089   0.00731   2.67342
    R7        2.78690   0.00465   0.01721   0.00055   0.01776   2.80466
    R8        2.04225   0.00023  -0.00318  -0.00000  -0.00318   2.03906
    R9        2.06408   0.00061  -0.00453  -0.00093  -0.00546   2.05861
   R10        2.06510   0.00100  -0.00726  -0.00178  -0.00904   2.05606
   R11        2.07325   0.00237  -0.00901  -0.00077  -0.00978   2.06347
    A1        2.18202   0.00108  -0.01366  -0.00268  -0.01635   2.16567
    A2        1.94967   0.00067   0.02339   0.00182   0.02521   1.97488
    A3        2.15149  -0.00175  -0.00973   0.00083  -0.00891   2.14258
    A4        2.08299   0.00110   0.00062   0.00405   0.00467   2.08766
    A5        2.05154   0.00006  -0.00968  -0.01878  -0.02214   2.02940
    A6        2.03426  -0.00222  -0.00199   0.02350   0.02809   2.06235
    A7        2.19148   0.00202  -0.03772  -0.00029  -0.03179   2.15969
    A8        1.92239   0.00084  -0.00744   0.00206  -0.00537   1.91702
    A9        1.92548   0.00051  -0.00148  -0.00174  -0.00322   1.92227
   A10        1.95056   0.00079  -0.00200   0.00262   0.00063   1.95119
   A11        1.90001  -0.00075   0.00341   0.00241   0.00583   1.90584
   A12        1.87914  -0.00060   0.00284  -0.00711  -0.00425   1.87488
   A13        1.88478  -0.00088   0.00505   0.00168   0.00673   1.89151
   A14        3.14794  -0.00020  -0.00127   0.00365   0.00238   3.15032
   A15        3.16814  -0.00017  -0.00515   0.01503   0.00988   3.17802
   A16        3.13818  -0.00008   0.00067   0.00266   0.00332   3.14150
   A17        3.11571  -0.00052   0.00364   0.00891   0.01255   3.12826
    D1        3.13863  -0.00010   0.00038  -0.00970  -0.00926   3.12937
    D2        3.13729   0.00048  -0.00819   0.00848   0.00036   3.13765
    D3       -0.00691   0.00039  -0.00790  -0.00008  -0.00805  -0.01496
    D4       -1.69653  -0.00018   0.08530  -0.44124  -0.35630  -2.05283
    D5        1.33503  -0.00141  -0.10425  -0.40014  -0.50403   0.83100
    D6       -2.69029  -0.00101  -0.09036   0.01242  -0.07855  -2.76884
    D7       -0.59234  -0.00108  -0.09180   0.01562  -0.07679  -0.66913
    D8        1.50488  -0.00133  -0.08774   0.01829  -0.07006   1.43482
    D9        0.57234   0.00065   0.10774  -0.03428   0.07407   0.64641
   D10        2.67029   0.00058   0.10630  -0.03108   0.07583   2.74612
   D11       -1.51568   0.00033   0.11036  -0.02842   0.08256  -1.43312
         Item               Value     Threshold  Converged?
 Maximum Force            0.019340     0.000015     NO 
 RMS     Force            0.004067     0.000010     NO 
 Maximum Displacement     0.694199     0.000060     NO 
 RMS     Displacement     0.207989     0.000040     NO 
 Predicted change in Energy=-1.680183D-03
 GradGradGradGradGradGradGradGradGradGradGradGradGradGradGradGradGradGrad

                          Input orientation:                          
 ---------------------------------------------------------------------
 Center     Atomic      Atomic             Coordinates (Angstroms)
 Number     Number       Type             X           Y           Z
 ---------------------------------------------------------------------
      1          6           0       -3.246380    1.127108    0.246000
      2          1           0       -4.116950    1.690909    0.505711
      3          6           0       -2.268255    0.489318   -0.056573
      4          6           0       -1.131756   -0.288050   -0.459230
      5          8           0       -1.169020   -1.171701   -1.313355
      6          8           0        0.002149    0.055582    0.187162
      7          6           0        1.206322   -0.628402   -0.101883
      8          6           0        1.819774   -1.381567    1.020241
      9          1           0        1.475472   -0.770495   -1.137096
     10          1           0        2.879045   -1.541655    0.822643
     11          1           0        1.709106   -0.825935    1.949120
     12          1           0        1.359266   -2.363195    1.149357
 ---------------------------------------------------------------------
                    Distance matrix (angstroms):
                    1          2          3          4          5
     1  C    0.000000
     2  H    1.069212   0.000000
     3  C    1.206257   2.275447   0.000000
     4  C    2.640389   3.709282   1.434595   0.000000
     5  O    3.468650   4.493755   2.355165   1.229535   0.000000
     6  O    3.421195   4.443282   2.324278   1.349684   2.264820
     7  C    4.798895   5.838288   3.650211   2.389592   2.721229
     8  C    5.706033   6.704442   4.622955   3.477951   3.797710
     9  H    5.273494   6.327125   4.095137   2.736767   2.680554
    10  H    6.706389   7.713227   5.602908   4.393319   4.591969
    11  H    5.592123   6.508523   4.644577   3.762974   4.364276
    12  H    5.848952   6.843901   4.769696   3.619250   3.725162
                    6          7          8          9         10
     6  O    0.000000
     7  C    1.414713   0.000000
     8  C    2.462351   1.484163   0.000000
     9  H    2.146331   1.079026   2.268491   0.000000
    10  H    3.351348   2.118202   1.089371   2.530866   0.000000
    11  H    2.606774   2.120949   1.088022   3.095544   1.774814
    12  H    2.935654   2.144411   1.091940   2.788918   1.758238
                   11         12
    11  H    0.000000
    12  H    1.767818   0.000000
 Stoichiometry    C5H5O2(2)
 Framework group  C1[X(C5H5O2)]
 Deg. of freedom    30
 Full point group                 C1      NOp   1
 Largest Abelian subgroup         C1      NOp   1
 Largest concise Abelian subgroup C1      NOp   1
                         Standard orientation:                         
 ---------------------------------------------------------------------
 Center     Atomic      Atomic             Coordinates (Angstroms)
 Number     Number       Type             X           Y           Z
 ---------------------------------------------------------------------
      1          6           0        2.989054   -0.748365    0.100911
      2          1           0        3.965266   -1.181898    0.148593
      3          6           0        1.892036   -0.249879    0.045085
      4          6           0        0.610423    0.391599   -0.018462
      5          8           0        0.422311    1.581227    0.228835
      6          8           0       -0.382303   -0.442202   -0.393850
      7          6           0       -1.705461    0.047803   -0.496618
      8          6           0       -2.705482   -0.564838    0.412980
      9          1           0       -1.866043    0.973204   -1.027791
     10          1           0       -3.708413   -0.413228    0.015647
     11          1           0       -2.517495   -1.631898    0.512158
     12          1           0       -2.676801   -0.116301    1.408131
 ---------------------------------------------------------------------
 Rotational constants (GHZ):           6.8991932           1.4835942           1.2941671
 Standard basis: 6-31+G (6D, 7F)
 There are   101 symmetry adapted cartesian basis functions of A   symmetry.
 There are   101 symmetry adapted basis functions of A   symmetry.
   101 basis functions,   202 primitive gaussians,   101 cartesian basis functions
    26 alpha electrons       25 beta electrons
       nuclear repulsion energy       261.2682673263 Hartrees.
 NAtoms=   12 NActive=   12 NUniq=   12 SFac= 1.00D+00 NAtFMM=   60 NAOKFM=F Big=F
 Integral buffers will be    131072 words long.
 Raffenetti 2 integral format.
 Two-electron integral symmetry is turned on.
 One-electron integrals computed using PRISM.
 NBasis=   101 RedAO= T EigKep=  1.75D-06  NBF=   101
 NBsUse=   101 1.00D-06 EigRej= -1.00D+00 NBFU=   101
 Lowest energy guess from the checkpoint file:  "ethyl_propiolate.chk"
 B after Tr=    -0.000000   -0.000000   -0.000000
         Rot=    0.993135   -0.115686    0.003781    0.016905 Ang= -13.44 deg.
 B after Tr=    -0.000000    0.000000    0.000000
         Rot=    0.996097   -0.087592    0.001604    0.010779 Ang= -10.13 deg.
 Initial guess <Sx>= 0.0000 <Sy>= 0.0000 <Sz>= 0.5000 <S**2>= 0.7554 S= 0.5027
 Keep R1 and R2 ints in memory in canonical form, NReq=48765169.
 Requested convergence on RMS density matrix=1.00D-08 within 128 cycles.
 Requested convergence on MAX density matrix=1.00D-06.
 Requested convergence on             energy=1.00D-06.
 No special actions if energy rises.
 SCF Done:  E(UM062X) =  -343.608776580     A.U. after   19 cycles
            NFock= 19  Conv=0.38D-08     -V/T= 2.0055
 <Sx>= 0.0000 <Sy>= 0.0000 <Sz>= 0.5000 <S**2>= 0.7552 S= 0.5026
 <L.S>=  0.00000000000    
 Annihilation of the first spin contaminant:
 S**2 before annihilation     0.7552,   after     0.7500
 Calling FoFJK, ICntrl=      2127 FMM=F ISym2X=0 I1Cent= 0 IOpClX= 1 NMat=1 NMatS=1 NMatT=0.
 ***** Axes restored to original set *****
 -------------------------------------------------------------------
 Center     Atomic                   Forces (Hartrees/Bohr)
 Number     Number              X              Y              Z
 -------------------------------------------------------------------
      1        6          -0.005240716    0.003019474    0.001452183
      2        1           0.001902207   -0.001348023   -0.000411717
      3        6           0.001724662    0.002579351    0.001717075
      4        6          -0.009287300   -0.006689447   -0.012955870
      5        8          -0.000179195   -0.001188941   -0.000614606
      6        8           0.013645981   -0.000926279    0.008737478
      7        6           0.003684612    0.001642109    0.004003025
      8        6          -0.000897791    0.005556279   -0.004670743
      9        1          -0.004963795    0.000898665   -0.003056750
     10        1           0.002436437   -0.000092591    0.000151954
     11        1           0.000125911    0.000946451    0.003994150
     12        1          -0.002951013   -0.004397049    0.001653820
 -------------------------------------------------------------------
 Cartesian Forces:  Max     0.013645981 RMS     0.004699761

 GradGradGradGradGradGradGradGradGradGradGradGradGradGradGradGradGradGrad
 Berny optimization.
 Using GEDIIS/GDIIS optimizer.
 FormGI is forming the generalized inverse of G from B-inverse, IUseBI=4.
 Internal  Forces:  Max     0.015416978 RMS     0.003514069
 Search for a local minimum.
 Step number   4 out of a maximum of   49
 All quantities printed in internal units (Hartrees-Bohrs-Radians)
 Mixed Optimization -- RFO/linear search
 Update second derivatives using D2CorX and points    2    4
 ITU=  0  0  1  0
 Use linear search instead of GDIIS.
     Eigenvalues ---   -0.00578   0.00044   0.00900   0.01626   0.01692
     Eigenvalues ---    0.02746   0.06094   0.06121   0.06247   0.07684
     Eigenvalues ---    0.10049   0.10304   0.12699   0.12936   0.14835
     Eigenvalues ---    0.16726   0.17402   0.18607   0.24073   0.28141
     Eigenvalues ---    0.31447   0.34320   0.38674   0.40061   0.40734
     Eigenvalues ---    0.41278   0.49574   0.67677   0.90397   1.26645
 RFO step:  Lambda=-8.40607527D-03 EMin=-5.78382853D-03
 Skip linear search -- no minimum in search direction.
 Iteration  1 RMS(Cart)=  0.10575494 RMS(Int)=  0.11553806
 Iteration  2 RMS(Cart)=  0.10198571 RMS(Int)=  0.07022185
 Iteration  3 RMS(Cart)=  0.09770356 RMS(Int)=  0.02514841
 Iteration  4 RMS(Cart)=  0.05264537 RMS(Int)=  0.00129409
 Iteration  5 RMS(Cart)=  0.00195130 RMS(Int)=  0.00012092
 Iteration  6 RMS(Cart)=  0.00000157 RMS(Int)=  0.00012092
 Iteration  7 RMS(Cart)=  0.00000000 RMS(Int)=  0.00012092
 Variable       Old X    -DE/DX   Delta X   Delta X   Delta X     New X
                                 (Linear)    (Quad)   (Total)
    R1        2.02052  -0.00236   0.00000  -0.00036  -0.00036   2.02016
    R2        2.27949   0.00385   0.00000   0.00203   0.00203   2.28152
    R3        2.71099   0.00435   0.00000   0.04427   0.04427   2.75527
    R4        2.32348   0.00129   0.00000   0.00318   0.00318   2.32666
    R5        2.55053   0.01542   0.00000   0.02027   0.02027   2.57080
    R6        2.67342  -0.00481   0.00000  -0.05620  -0.05620   2.61722
    R7        2.80466  -0.00070   0.00000  -0.00687  -0.00687   2.79779
    R8        2.03906   0.00158   0.00000  -0.00505  -0.00505   2.03401
    R9        2.05861   0.00235   0.00000   0.00265   0.00265   2.06127
   R10        2.05606   0.00388   0.00000   0.00720   0.00720   2.06327
   R11        2.06347   0.00539   0.00000   0.00855   0.00855   2.07201
    A1        2.16567   0.00250   0.00000   0.01641   0.01641   2.18208
    A2        1.97488  -0.00513   0.00000  -0.02049  -0.02049   1.95438
    A3        2.14258   0.00263   0.00000   0.00411   0.00411   2.14669
    A4        2.08766   0.00144   0.00000   0.03362   0.03362   2.12128
    A5        2.02940  -0.00035   0.00000  -0.02298  -0.02310   2.00630
    A6        2.06235  -0.00526   0.00000  -0.03213  -0.03230   2.03006
    A7        2.15969   0.00547   0.00000   0.06149   0.06145   2.22113
    A8        1.91702   0.00043   0.00000   0.00379   0.00373   1.92075
    A9        1.92227   0.00153   0.00000   0.00674   0.00673   1.92900
   A10        1.95119   0.00001   0.00000   0.00806   0.00802   1.95921
   A11        1.90584  -0.00099   0.00000  -0.00137  -0.00139   1.90444
   A12        1.87488   0.00025   0.00000   0.00929   0.00921   1.88409
   A13        1.89151  -0.00131   0.00000  -0.02701  -0.02700   1.86451
   A14        3.15032  -0.00025   0.00000  -0.00715  -0.00715   3.14317
   A15        3.17802  -0.00008   0.00000  -0.00159  -0.00159   3.17643
   A16        3.14150  -0.00017   0.00000  -0.00070  -0.00070   3.14080
   A17        3.12826  -0.00086   0.00000   0.00276   0.00276   3.13102
    D1        3.12937   0.00012   0.00000   0.00371   0.00373   3.13309
    D2        3.13765   0.00047   0.00000   0.02047   0.02049  -3.12505
    D3       -0.01496   0.00062   0.00000   0.02402   0.02400   0.00904
    D4       -2.05283  -0.00308   0.00000  -0.72278  -0.72234  -2.77517
    D5        0.83100  -0.00276   0.00000  -0.68784  -0.68828   0.14272
    D6       -2.76884  -0.00073   0.00000  -0.00820  -0.00804  -2.77687
    D7       -0.66913  -0.00072   0.00000  -0.00322  -0.00307  -0.67220
    D8        1.43482  -0.00133   0.00000  -0.02744  -0.02734   1.40748
    D9        0.64641   0.00073   0.00000  -0.02905  -0.02916   0.61724
   D10        2.74612   0.00074   0.00000  -0.02407  -0.02420   2.72192
   D11       -1.43312   0.00013   0.00000  -0.04829  -0.04847  -1.48158
         Item               Value     Threshold  Converged?
 Maximum Force            0.015417     0.000015     NO 
 RMS     Force            0.003514     0.000010     NO 
 Maximum Displacement     1.028945     0.000060     NO 
 RMS     Displacement     0.341550     0.000040     NO 
 Predicted change in Energy=-7.967550D-03
 GradGradGradGradGradGradGradGradGradGradGradGradGradGradGradGradGradGrad

[...]
    A6        2.03456  -0.00000   0.00000  -0.00000  -0.00000   2.03456
    A7        2.22310  -0.00000   0.00000  -0.00000  -0.00000   2.22310
    A8        1.92100  -0.00000   0.00000  -0.00000  -0.00000   1.92100
    A9        1.93784   0.00000   0.00000  -0.00000  -0.00000   1.93784
   A10        1.95275   0.00000   0.00000   0.00000   0.00000   1.95275
   A11        1.89510   0.00000   0.00000   0.00000   0.00000   1.89510
   A12        1.88611   0.00000   0.00000  -0.00000  -0.00000   1.88611
   A13        1.86894  -0.00000   0.00000   0.00000   0.00000   1.86894
   A14        3.14506   0.00000   0.00000  -0.00000  -0.00000   3.14506
   A15        3.18030   0.00000   0.00000   0.00000   0.00000   3.18030
   A16        3.14336   0.00000   0.00000   0.00001   0.00001   3.14337
   A17        3.15061   0.00000   0.00000   0.00000   0.00000   3.15061
    D1       -3.14135   0.00000   0.00000   0.00000   0.00000  -3.14135
    D2       -3.12007  -0.00000   0.00000   0.00000   0.00000  -3.12007
    D3        0.02173   0.00000   0.00000   0.00000   0.00000   0.02173
    D4       -3.03393  -0.00000   0.00000   0.00001   0.00001  -3.03392
    D5       -0.13715  -0.00000   0.00000  -0.00001  -0.00001  -0.13716
    D6       -3.02233  -0.00000   0.00000   0.00001   0.00001  -3.02232
    D7       -0.92345  -0.00000   0.00000   0.00001   0.00001  -0.92344
    D8        1.16356  -0.00000   0.00000   0.00001   0.00001   1.16357
    D9        0.39554   0.00000   0.00000   0.00003   0.00003   0.39558
   D10        2.49442   0.00000   0.00000   0.00003   0.00003   2.49446
   D11       -1.70176   0.00000   0.00000   0.00003   0.00003  -1.70172
         Item               Value     Threshold  Converged?
 Maximum Force            0.000001     0.000015     YES
 RMS     Force            0.000000     0.000010     YES
 Maximum Displacement     0.000025     0.000060     YES
 RMS     Displacement     0.000009     0.000040     YES
 Predicted change in Energy=-5.072512D-12
 Optimization completed.
    -- Stationary point found.
                           ----------------------------
                           !   Optimized Parameters   !
                           ! (Angstroms and Degrees)  !
 --------------------------                            --------------------------
 ! Name  Definition              Value          Derivative Info.                !
 --------------------------------------------------------------------------------
 ! R1    R(1,2)                  1.0662         -DE/DX =    0.0                 !
 ! R2    R(1,3)                  1.2083         -DE/DX =    0.0                 !
 ! R3    R(3,4)                  1.4375         -DE/DX =    0.0                 !
 ! R4    R(4,5)                  1.2284         -DE/DX =    0.0                 !
 ! R5    R(4,6)                  1.3712         -DE/DX =    0.0                 !
 ! R6    R(6,7)                  1.3946         -DE/DX =    0.0                 !
 ! R7    R(7,8)                  1.4786         -DE/DX =    0.0                 !
 ! R8    R(7,9)                  1.0808         -DE/DX =    0.0                 !
 ! R9    R(8,10)                 1.0917         -DE/DX =    0.0                 !
 ! R10   R(8,11)                 1.0955         -DE/DX =    0.0                 !
 ! R11   R(8,12)                 1.0996         -DE/DX =    0.0                 !
 ! A1    A(3,4,5)              125.8565         -DE/DX =    0.0                 !
 ! A2    A(3,4,6)              111.4394         -DE/DX =    0.0                 !
 ! A3    A(5,4,6)              122.7041         -DE/DX =    0.0                 !
 ! A4    A(4,6,7)              119.7642         -DE/DX =    0.0                 !
 ! A5    A(6,7,8)              114.2799         -DE/DX =    0.0                 !
 ! A6    A(6,7,9)              116.5718         -DE/DX =    0.0                 !
 ! A7    A(8,7,9)              127.3745         -DE/DX =    0.0                 !
 ! A8    A(7,8,10)             110.065          -DE/DX =    0.0                 !
 ! A9    A(7,8,11)             111.0303         -DE/DX =    0.0                 !
 ! A10   A(7,8,12)             111.8844         -DE/DX =    0.0                 !
 ! A11   A(10,8,11)            108.5812         -DE/DX =    0.0                 !
 ! A12   A(10,8,12)            108.0663         -DE/DX =    0.0                 !
 ! A13   A(11,8,12)            107.0826         -DE/DX =    0.0                 !
 ! A14   L(2,1,3,11,-1)        180.1987         -DE/DX =    0.0                 !
 ! A15   L(1,3,4,11,-1)        182.2179         -DE/DX =    0.0                 !
 ! A16   L(2,1,3,11,-2)        180.1011         -DE/DX =    0.0                 !
 ! A17   L(1,3,4,11,-2)        180.5164         -DE/DX =    0.0                 !
 ! D1    D(3,4,5,6)           -179.986          -DE/DX =    0.0                 !
 ! D2    D(3,4,6,7)           -178.767          -DE/DX =    0.0                 !
 ! D3    D(5,4,6,7)              1.2452         -DE/DX =    0.0                 !
 ! D4    D(4,6,7,8)           -173.8312         -DE/DX =    0.0                 !
 ! D5    D(4,6,7,9)             -7.8579         -DE/DX =    0.0                 !
 ! D6    D(6,7,8,10)          -173.1667         -DE/DX =    0.0                 !
 ! D7    D(6,7,8,11)           -52.9097         -DE/DX =    0.0                 !
 ! D8    D(6,7,8,12)            66.6669         -DE/DX =    0.0                 !
 ! D9    D(9,7,8,10)            22.663          -DE/DX =    0.0                 !
 ! D10   D(9,7,8,11)           142.92           -DE/DX =    0.0                 !
 ! D11   D(9,7,8,12)           -97.5034         -DE/DX =    0.0                 !
 --------------------------------------------------------------------------------
 GradGradGradGradGradGradGradGradGradGradGradGradGradGradGradGradGradGrad


 ----------------------------------------------------------------------

 Electric dipole moment (input orientation):
 (Debye = 10**-18 statcoulomb cm , SI units = C m)
                  (au)            (Debye)         (10**-30 SI)
   Tot        0.922644D+00      0.234513D+01      0.782250D+01
   x          0.475654D-01      0.120899D+00      0.403277D+00
   y         -0.491990D-02     -0.125051D-01     -0.417126D-01
   z          0.921404D+00      0.234198D+01      0.781199D+01

 Dipole polarizability, Alpha (input orientation).
 (esu units = cm**3 , SI units = C**2 m**2 J**-1)
 Alpha(0;0):
               (au)            (10**-24 esu)      (10**-40 SI)
   iso        0.651602D+02      0.965574D+01      0.107435D+02
   aniso      0.550548D+02      0.815828D+01      0.907731D+01
   xx         0.887908D+02      0.131574D+02      0.146396D+02
   yx        -0.236952D+02     -0.351127D+01     -0.390682D+01
   yy         0.482199D+02      0.714546D+01      0.795040D+01
   zx         0.778064D+00      0.115297D+00      0.128285D+00
   zy         0.179023D+01      0.265284D+00      0.295169D+00
   zz         0.584698D+02      0.866433D+01      0.964037D+01

 ----------------------------------------------------------------------

 Dipole orientation:
     6         -6.23086644          1.94951034          0.25459147
     1         -7.94885303          2.80828391          0.86358042
     6         -4.28619323          0.97749609         -0.44343083
     6         -2.00901527         -0.17463673         -1.37403151
     8         -1.53676107         -0.65240609         -3.59608437
     8         -0.35933917         -0.70369948          0.55298323
     6          1.98196943         -1.78509775          0.01097159
     6          3.46378017         -2.50748830          2.26696665
     1          2.28607536         -2.38675582         -1.91689387
     1          5.35137856         -3.12320393          1.70660666
     1          3.65092945         -0.91351150          3.57455750
     1          2.56608734         -4.05813192          3.31934193

 Electric dipole moment (dipole orientation):
 (Debye = 10**-18 statcoulomb cm , SI units = C m)
                  (au)            (Debye)         (10**-30 SI)
   Tot        0.922644D+00      0.234513D+01      0.782250D+01
   x          0.000000D+00      0.000000D+00      0.000000D+00
   y          0.000000D+00      0.000000D+00      0.000000D+00
   z          0.922644D+00      0.234513D+01      0.782250D+01

 Dipole polarizability, Alpha (dipole orientation).
 (esu units = cm**3 , SI units = C**2 m**2 J**-1)
 Alpha(0;0):
               (au)            (10**-24 esu)      (10**-40 SI)
   iso        0.651602D+02      0.965574D+01      0.107435D+02
   aniso      0.550548D+02      0.815828D+01      0.907731D+01
   xx         0.886235D+02      0.131327D+02      0.146120D+02
   yx        -0.237488D+02     -0.351921D+01     -0.391565D+01
   yy         0.482328D+02      0.714737D+01      0.795252D+01
   zx         0.246175D+01      0.364794D+00      0.405888D+00
   zy         0.621401D+00      0.920822D-01      0.102455D+00
   zz         0.586242D+02      0.868721D+01      0.966582D+01

 ----------------------------------------------------------------------
 1\1\GINC-AJ\Freq\UM062X\6-31+G\C5H5O2(2)\AAYUSH\08-Jun-2025\0\\#N Geom
 =AllCheck Guess=TCheck SCRF=Check GenChk UM062X/6-31+G Freq\\Title Car
 d Required\\0,2\C,-3.2857605877,1.0304498511,0.3100275606\H,-4.1769947
 61,1.4830433117,0.6811489728\C,-2.2771656891,0.5182005869,-0.114648700
 4\C,-1.0992088874,-0.0886814772,-0.6718140083\O,-0.9102893856,-0.33519
 80223,-1.8603250667\O,-0.1748665876,-0.37396298,0.3000502389\C,1.04758
 77619,-0.9445063133,-0.0533089136\C,1.8921784648,-1.3330315532,1.09644
 42334\H,1.1556620305,-1.2574233772,-1.0821142864\H,2.8743923166,-1.657
 1309989,0.747080269\H,2.0268701581,-0.4932234687,1.7868537925\H,1.4463
 684365,-2.1566200589,1.6727030683\\Version=ES64L-G16RevA.03\State=2-A\
 HF=-343.614917\S2=0.756271\S2-1=0.\S2A=0.750032\RMSD=8.840e-09\RMSF=6.
 253e-07\ZeroPoint=0.0866019\Thermal=0.0945169\Dipole=0.0475654,-0.0049
 199,0.9214041\DipoleDeriv=-0.2998196,0.0340866,-0.0385592,0.0411789,-0
 .2338936,0.0207492,0.0328068,-0.0113023,-0.1959903,0.2762114,-0.008601
 4,0.0051382,-0.0109261,0.2612116,-0.0008676,-0.008664,0.0052841,0.2678
 34,-0.3704587,0.1748313,0.1730527,0.1788796,-0.130998,-0.0995568,0.147
 8997,-0.0901245,-0.1926602,1.6205526,-0.5539499,0.017081,-0.4562564,0.
 6337997,0.1847156,0.7922055,-0.1586877,1.8381422,-0.51228,0.0905775,0.
 1863282,0.0046549,-0.4028846,-0.1982922,-0.4393006,0.0822929,-1.215886
 4,-1.135085,0.3968585,-0.3240517,0.3617907,-0.3559219,0.0728164,-0.616
 5135,0.1886775,-0.8684951,0.3202068,-0.2359996,0.0290683,-0.3806899,-0
 .0111035,0.0141965,0.2482366,-0.0311267,0.32084,0.0226648,0.0178719,0.
 004004,0.1262853,0.0499943,0.0149363,-0.0993836,0.009363,-0.038349,0.0
 368884,0.0666776,-0.0838521,0.1332224,0.1444308,-0.0050488,-0.030813,-
 0.0271243,0.0253867,-0.0755804,0.0706559,0.0227885,0.0613112,0.0898574
 ,-0.0042106,0.066876,-0.0152163,0.0551569,0.0860345,0.0140394,-0.02367
 72,-0.0327637,-0.0170177,-0.1062375,-0.0514866,-0.0590982,0.0051244,0.
 0306651,-0.0670478,0.0326794,-0.0266871,-0.0274745,0.1067995,-0.041863
 3,0.1070624,-0.0011033\Polar=88.7907667,-23.6952346,48.2199484,0.77806
 4,1.7902275,58.4698059\Quadrupole=6.5774912,-0.2159507,-6.3615405,-4.8
 134138,-1.7164292,0.3675349\PG=C01 [X(C5H5O2)]\NImag=0\\1.12421273,-0.
 52991807,0.35150327,-0.44285574,0.22362851,0.25856819,-0.31165064,0.14
 068555,0.11657665,0.30010787,0.14065721,-0.10641644,-0.05879406,-0.142
 49014,0.09201394,0.11630785,-0.05868794,-0.08057052,-0.11735197,0.0594
 3643,0.06740490,-0.81466194,0.38283884,0.32236799,0.01131138,0.0005909
 5,-0.00080286,1.09380522,0.38324172,-0.25705700,-0.16241785,0.00058236
 ,0.01261944,-0.00004173,-0.50225944,0.35974106,0.32436230,-0.16317369,
 -0.18785582,-0.00084063,-0.00007341,0.00969931,-0.41408902,0.21486487,
 0.31190948,0.00510377,0.00598986,0.00397253,-0.00027635,0.00194089,0.0
 0188712,-0.23635531,0.07434091,0.07660689,0.56252280,0.00589485,0.0142
 1646,-0.00307881,0.00191360,0.00255592,-0.00086210,0.07293960,-0.13339
 054,-0.03513868,-0.17179560,0.30498328,0.00416560,-0.00322810,0.007939
 47,0.00132133,-0.00057515,0.00353054,0.06922524,-0.03204459,-0.1018060
 8,-0.09211111,0.12882909,0.85502520,-0.00207433,0.00011845,-0.00102933
 ,-0.00025377,-0.00033420,-0.00091162,-0.00466726,0.01871995,0.04315380
 ,-0.10953153,0.02922721,0.09732777,0.10332834,-0.00032099,-0.00139684,
 0.00107172,-0.00018528,-0.00054920,0.00056718,0.01733970,0.01296673,-0
 .02807538,0.02766906,-0.10397302,-0.11694314,-0.04540488,0.06915275,-0
 .00412877,0.00240357,0.00216520,0.00021644,0.00006188,0.00050762,0.030
 87655,-0.02223485,-0.03690621,0.08937082,-0.11386932,-0.61540030,-0.08
 892587,0.13648570,0.74163949,0.00158776,-0.00068578,0.00049712,0.00065
 579,-0.00027008,0.00088195,-0.05833740,0.02769435,-0.02606985,-0.15355
 973,0.02920326,-0.08984960,0.00385274,0.00644191,-0.02550849,0.4419524
 0,-0.00026126,0.00009470,-0.00029288,-0.00040902,-0.00012226,-0.000449
 07,0.03014561,-0.00097912,0.01094312,0.03442814,-0.07583698,0.02744440
 ,0.00354166,0.02466884,-0.00362111,-0.17210768,0.12027633,0.00151971,-
 0.00077365,-0.00039551,0.00008697,-0.00010752,-0.00079154,-0.00211911,
 0.00058476,0.00781502,-0.05508888,0.01225867,-0.15685740,-0.04326962,0
 .00328551,-0.09451116,0.07963541,0.00583196,0.34938907,-0.00242522,0.0
 0098336,0.00017142,0.00001355,-0.00010405,-0.00005714,0.01084559,-0.00
 295876,-0.00121026,-0.07160510,0.03115600,-0.00305088,0.00935897,-0.00
 451955,0.00307951,-0.18549452,0.07417837,0.01886444,0.41484161,0.00018
 122,-0.00040791,0.00024793,-0.00001388,-0.00017379,0.00001418,-0.00193
 729,0.00519330,-0.00028572,0.02710973,-0.00805750,0.00787324,-0.002972
 43,-0.00226248,-0.00479188,0.09046151,-0.05761594,-0.02560246,-0.18228
 173,0.16478508,0.00107847,-0.00042951,0.00003602,-0.00004341,0.0000789
 7,0.00027028,-0.00649597,0.00178091,-0.00329953,-0.02562262,0.01236368
 ,0.00913024,-0.00225979,0.00171235,0.00357115,0.05104232,-0.03414574,-
 0.11324614,0.06468756,0.07238298,0.68572341,0.00009531,-0.00002045,0.0
 0011147,0.00001865,0.00000332,0.00008720,-0.00194558,0.00062796,-0.001
 09954,0.00130905,0.00196736,0.00481536,0.00024699,-0.00028643,-0.00118
 122,-0.03559938,0.01498180,-0.02744640,-0.12135235,0.03672007,-0.07416
 045,0.57007608,0.00025294,-0.00028387,-0.00015257,-0.00004421,0.000023
 28,-0.00000574,0.00045154,0.00051108,0.00043438,0.00082222,0.00033434,
 -0.00522762,-0.00149571,0.00102733,0.00207551,0.01274337,-0.00808821,0
 .01386002,0.04216610,-0.06271210,0.02869146,-0.02253129,0.52967076,0.0
 0007040,-0.00005303,-0.00018594,-0.00002487,0.00000273,-0.00002866,0.0
 0095358,-0.00022363,0.00088847,0.00321384,-0.00207240,-0.00304587,-0.0
 0149740,0.00077289,0.00112473,0.01121912,-0.00415431,0.01233187,-0.087
 03465,0.02945648,-0.20416297,-0.02491185,0.02664928,0.53270706,0.00008
 861,-0.00009888,0.00001509,0.00005783,0.00001311,-0.00000350,-0.000116
 45,-0.00006443,-0.00065382,0.00255181,-0.00051222,0.00667919,-0.000374
 33,-0.00063110,-0.00332095,-0.01509875,0.01613667,0.03031569,-0.044406
 92,0.02371614,0.01204956,0.00474451,-0.00626020,-0.01225446,0.05369807
 ,0.00016614,-0.00017841,-0.00015116,-0.00002920,0.00004818,0.00001878,
 -0.00025112,0.00040962,0.00046747,-0.00034196,-0.00083240,-0.00563046,
 -0.00163229,0.00031567,0.00317925,0.00496020,-0.00373030,-0.01056689,0
 .03099471,-0.04091354,-0.09576744,-0.00140383,0.00486278,0.01043527,-0
 .03212694,0.04229867,-0.00014403,0.00011869,0.00005106,0.00002205,-0.0
 0000916,-0.00000141,0.00036337,-0.00039793,-0.00012225,-0.00162041,0.0
 0095914,-0.00061525,-0.00263692,0.00124333,-0.00130751,0.00228885,-0.0
 0282159,-0.00170577,0.02814768,-0.09199602,-0.33804388,0.00380344,-0.0
 0680798,-0.00525250,-0.02906193,0.09796365,0.34796922,-0.00011978,0.00
 003930,0.00005228,0.00003144,-0.00001266,0.00000255,-0.00024421,0.0001
 4409,-0.00018941,0.00056692,0.00013125,0.00199012,0.00018405,-0.000235
 58,-0.00090552,-0.00262558,0.00075466,-0.00438098,-0.01582016,0.005923
 12,0.01026497,-0.27150765,0.07344867,0.07758816,0.00068297,-0.00042278
 ,-0.00036356,0.29621245,0.00004255,-0.00003981,-0.00001792,-0.00000901
 ,0.00000790,-0.00000500,0.00016879,-0.00005905,0.00007624,-0.00002998,
 0.00021222,-0.00069783,-0.00002410,-0.00000172,0.00039050,0.00202411,0
 .00054855,0.00208476,0.00754258,-0.00473812,-0.00390618,0.07274989,-0.
 07173132,-0.02692754,-0.00037817,0.00008769,0.00015965,-0.08235267,0.0
 7503479,-0.00010142,0.00005503,0.00009537,0.00000783,0.00000098,0.0000
 1088,-0.00040914,0.00013069,-0.00034972,-0.00055440,0.00064730,0.00158
 163,0.00028949,-0.00019485,-0.00047073,-0.00558405,0.00195077,-0.00466
 787,-0.02430896,0.00953534,0.00962720,0.08183023,-0.02842623,-0.079684
 24,0.00070675,-0.00071323,0.00035233,-0.08650906,0.02766862,0.08514833
 ,-0.00007558,0.00003326,0.00005502,-0.00001453,-0.00000122,-0.00002301
 ,0.00018612,-0.00002180,0.00006067,-0.00019557,0.00027183,-0.00046767,
 -0.00014183,0.00006219,0.00036037,0.00110827,-0.00049260,0.00110982,-0
 .00127510,-0.01252528,-0.01642559,-0.05404467,-0.02394035,-0.01980812,
 -0.00147965,-0.00000763,-0.00065377,0.00490872,0.02420089,0.01937611,0
 .05236994,-0.00006075,0.00002222,0.00002346,0.00000967,-0.00000132,-0.
 00000984,0.00001683,0.00000194,-0.00002049,-0.00023981,-0.00009132,0.0
 0055676,0.00033464,-0.00007212,-0.00016884,-0.00106591,0.00050147,-0.0
 0050939,0.00206909,0.01003175,0.00821645,-0.02189119,-0.20536117,-0.12
 831577,0.00045478,-0.00106168,0.00136927,-0.00238846,-0.00697177,-0.00
 437655,0.02574421,0.22464067,-0.00006242,0.00005513,0.00004238,-0.0000
 0114,-0.00001456,-0.00000803,-0.00003325,-0.00003335,0.00005268,0.0000
 6975,0.00011934,-0.00051803,-0.00032614,0.00031881,0.00025242,0.001410
 86,0.00030131,0.00181259,-0.00388586,-0.01695007,-0.02645601,-0.019336
 81,-0.12995093,-0.14576624,-0.00354444,-0.00018607,-0.00074657,-0.0020
 4043,-0.00733771,-0.00627848,0.02468435,0.13981298,0.16758275,-0.00008
 067,0.00003456,0.00006552,-0.00000122,0.00000688,-0.00001659,0.0001798
 5,-0.00004691,-0.00003114,-0.00053077,-0.00039714,-0.00004534,0.000071
 96,0.00007096,0.00006712,0.00155841,-0.00089634,0.00077294,0.00731965,
 0.01561883,-0.01411506,-0.09204095,-0.07561306,0.05248625,-0.00034769,
 0.00009469,-0.00014478,-0.01226918,-0.02393488,0.01525662,-0.00134612,
 -0.00298310,0.00306552,0.09748674,0.00012444,-0.00005637,-0.00006637,-
 0.00001044,-0.00000567,0.00002485,-0.00004402,0.00004254,-0.00001871,0
 .00010653,-0.00012046,-0.00035660,-0.00007828,0.00012407,0.00008959,0.
 00060074,0.00028293,-0.00034575,0.00077390,-0.00312873,0.00902206,-0.0
 8091721,-0.18825290,0.09443002,-0.00024875,-0.00130629,0.00021895,0.00
 497107,0.00765063,-0.00627787,-0.01332350,-0.02163869,0.01386512,0.088
 04551,0.20640894,-0.00021194,0.00008498,0.00011009,0.00003076,-0.00000
 713,-0.00002339,0.00016262,0.00003271,-0.00002535,-0.00012354,-0.00015
 591,0.00103585,0.00008561,-0.00024411,-0.00066472,0.00003634,-0.000986
 85,0.00082683,0.00459716,0.02011599,-0.02314977,0.05748856,0.09886042,
 -0.10892570,-0.00092719,0.00095083,-0.00057747,0.00449087,0.00851242,-
 0.00536471,-0.00826818,-0.01657804,0.01003052,-0.05736106,-0.11058530,
 0.12672782\\0.00000007,0.00000062,0.00000103,0.00000013,-0.00000031,0.
 00000140,-0.00000030,0.00000042,0.00000074,0.00000017,0.00000027,-0.00
 000043,-0.00000018,0.00000139,0.00000035,0.00000014,0.00000005,0.00000
 074,0.00000045,-0.00000029,-0.00000009,-0.00000048,-0.00000046,-0.0000
 0101,-0.00000004,0.00000073,-0.00000061,-0.00000004,-0.00000050,-0.000
 00083,0.00000007,-0.00000104,-0.00000013,0.,-0.00000088,-0.00000115\\\
 @


 This summer one third of the nation will be ill-housed
 ill-nourished and ill-clad. Only they call it a vacation.
 -- Jonas Salk
 Job cpu time:       0 days  0 hours  7 minutes 56.6 seconds.
 Elapsed time:       0 days  0 hours  0 minutes 19.9 seconds.
 File lengths (MBytes):  RWF=     36 Int=      0 D2E=      0 Chk=      2 Scr=      1
 Normal termination of Gaussian 16 at Sun Jun  8 18:36:51 2025.
