 Entering Link 1 = C:\G09W\l1.exe PID=     15700.
  
 Copyright (c) 1988,1990,1992,1993,1995,1998,2003,2009,2013,
            Gaussian, Inc.  All Rights Reserved.
  
 This is part of the Gaussian(R) 09 program.  It is based on
 the Gaussian(R) 03 system (copyright 2003, Gaussian, Inc.),
 the Gaussian(R) 98 system (copyright 1998, Gaussian, Inc.),
 the Gaussian(R) 94 system (copyright 1995, Gaussian, Inc.),
 the Gaussian 92(TM) system (copyright 1992, Gaussian, Inc.),
 the Gaussian 90(TM) system (copyright 1990, Gaussian, Inc.),
 the Gaussian 88(TM) system (copyright 1988, Gaussian, Inc.),
 the Gaussian 86(TM) system (copyright 1986, Carnegie Mellon
 University), and the Gaussian 82(TM) system (copyright 1983,
 Carnegie Mellon University). Gaussian is a federally registered
 trademark of Gaussian, Inc.
  
 This software contains proprietary and confidential information,
 including trade secrets, belonging to Gaussian, Inc.
  
 This software is provided under written license and may be
 used, copied, transmitted, or stored only in accord with that
 written license.
  
 The following legend is applicable only to US Government
 contracts under FAR:
  
                    RESTRICTED RIGHTS LEGEND
  
 Use, reproduction and disclosure by the US Government is
 subject to restrictions as set forth in subparagraphs (a)
 and (c) of the Commercial Computer Software - Restricted
 Rights clause in FAR 52.227-19.
  
 Gaussian, Inc.
 340 Quinnipiac St., Bldg. 40, Wallingford CT 06492
  
  
 ---------------------------------------------------------------
 Warning -- This program may not be used in any manner that
 competes with the business of Gaussian, Inc. or will provide
 assistance to any competitor of Gaussian, Inc.  The licensee
 of this program is prohibited from giving any competitor of
 Gaussian, Inc. access to this program.  By using this program,
 the user acknowledges that Gaussian, Inc. is engaged in the
 business of creating and licensing software in the field of
 computational chemistry and represents and warrants to the
 licensee that it is not a competitor of Gaussian, Inc. and that
 it will not use this program in any manner prohibited above.
 ---------------------------------------------------------------
  

 Cite this work as:
 Gaussian 09, Revision D.01,
 M. J. Frisch, G. W. Trucks, H. B. Schlegel, G. E. Scuseria, 
 M. A. Robb, J. R. Cheeseman, G. Scalmani, V. Barone, B. Mennucci, 
 G. A. Petersson, H. Nakatsuji, M. Caricato, X. Li, H. P. Hratchian, 
 A. F. Izmaylov, J. Bloino, G. Zheng, J. L. Sonnenberg, M. Hada, 
 M. Ehara, K. Toyota, R. Fukuda, J. Hasegawa, M. Ishida, T. Nakajima, 
 Y. Honda, O. Kitao, H. Nakai, T. Vreven, J. A. Montgomery, Jr., 
 J. E. Peralta, F. Ogliaro, M. Bearpark, J. J. Heyd, E. Brothers, 
 K. N. Kudin, V. N. Staroverov, T. Keith, R. Kobayashi, J. Normand, 
 K. Raghavachari, A. Rendell, J. C. Burant, S. S. Iyengar, J. Tomasi, 
 M. Cossi, N. Rega, J. M. Millam, M. Klene, J. E. Knox, J. B. Cross, 
 V. Bakken, C. Adamo, J. Jaramillo, R. Gomperts, R. E. Stratmann, 
 O. Yazyev, A. J. Austin, R. Cammi, C. Pomelli, J. W. Ochterski, 
 R. L. Martin, K. Morokuma, V. G. Zakrzewski, G. A. Voth, 
 P. Salvador, J. J. Dannenberg, S. Dapprich, A. D. Daniels, 
 O. Farkas, J. B. Foresman, J. V. Ortiz, J. Cioslowski, 
 and D. J. Fox, Gaussian, Inc., Wallingford CT, 2013.
 
 ******************************************
 Gaussian 09:  IA32W-G09RevD.01 24-Apr-2013
                27-Mar-2025 
 ******************************************
 %chk=ethyl_propiolate.chk
 %nprocshared=4
 Will use up to    4 processors via shared memory.
 %mem=1700MB
 --------------------------
 # freq 6-311++g(d,p) m062x
 --------------------------
 1/10=4,30=1,38=1/1,3;
 2/12=2,17=6,18=5,40=1/2;
 3/5=4,6=6,7=1111,11=2,16=1,25=1,30=1,71=2,74=-55,140=1/1,2,3;
 4//1;
 5/5=2,38=5,98=1/2;
 8/6=4,10=90,11=11/1;
 11/6=1,8=1,9=11,15=111,16=1/1,2,10;
 10/6=1/2;
 6/7=2,8=2,9=2,10=2,18=1,28=1/1;
 7/8=1,10=1,25=1/1,2,3,16;
 1/10=4,30=1/3;
 99//99;
 -------------------
 Title Card Required
 -------------------
 Symbolic Z-matrix:
 Charge =  0 Multiplicity = 2
 C                     2.17911  -0.40999  -0.06211 
 H                     3.51557  -0.91338  -0.14983 
 C                     1.07248   0.06883  -0.01711 
 C                    -0.28084   0.6139   -0.00414 
 O                    -0.51705   1.78927   0.01216 
 O                    -1.19276  -0.35425  -0.01015 
 C                    -2.56617   0.08428   0.00854 
 C                    -3.42714  -1.15719  -0.00406 
 H                    -2.72345   0.68924   0.90387 
 H                    -2.73902   0.71843  -0.8634 
 H                    -3.23702  -1.74637  -0.90191 
 H                    -3.22001  -1.77602   0.86973 
 H                    -4.48091  -0.87386   0.0106 
 O                     4.49937  -0.60401   0.08889 
 H                     4.60165   0.24062  -0.37253 
 

 GradGradGradGradGradGradGradGradGradGradGradGradGradGradGradGradGradGrad
 Berny optimization.
 Initialization pass.
 Trust Radius=3.00D-01 FncErr=1.00D-07 GrdErr=1.00D-07
 Number of steps in this run=      2 maximum allowed number of steps=      2.
 GradGradGradGradGradGradGradGradGradGradGradGradGradGradGradGradGradGrad

                          Input orientation:                          
 ---------------------------------------------------------------------
 Center     Atomic      Atomic             Coordinates (Angstroms)
 Number     Number       Type             X           Y           Z
 ---------------------------------------------------------------------
      1          6           0        2.179108   -0.409990   -0.062115
      2          1           0        3.515568   -0.913381   -0.149830
      3          6           0        1.072481    0.068832   -0.017114
      4          6           0       -0.280841    0.613903   -0.004138
      5          8           0       -0.517055    1.789267    0.012163
      6          8           0       -1.192765   -0.354248   -0.010150
      7          6           0       -2.566166    0.084278    0.008542
      8          6           0       -3.427139   -1.157188   -0.004065
      9          1           0       -2.723450    0.689242    0.903867
     10          1           0       -2.739021    0.718427   -0.863396
     11          1           0       -3.237022   -1.746372   -0.901906
     12          1           0       -3.220013   -1.776018    0.869732
     13          1           0       -4.480906   -0.873861    0.010596
     14          8           0        4.499372   -0.604010    0.088894
     15          1           0        4.601649    0.240620   -0.372527
 ---------------------------------------------------------------------
                    Distance matrix (angstroms):
                    1          2          3          4          5
     1  C    0.000000
     2  H    1.430812   0.000000
     3  C    1.206615   2.636481   0.000000
     4  C    2.665158   4.094697   1.459024   0.000000
     5  O    3.480164   4.857221   2.342515   1.198976   0.000000
     6  O    3.372734   4.743473   2.304427   1.330022   2.247607
     7  C    4.771469   6.165054   3.638770   2.345927   2.665681
     8  C    5.656119   6.948516   4.663676   3.610534   4.141310
     9  H    5.116298   6.527176   3.955023   2.607007   2.621711
    10  H    5.109146   6.503219   3.957994   2.606127   2.617334
    11  H    5.641421   6.845215   4.759164   3.887916   4.553514
    12  H    5.646670   6.866710   4.755573   3.887686   4.555509
    13  H    6.676545   7.998181   5.632898   4.455806   4.775392
    14  O    2.333254   1.058570   3.493928   4.933802   5.558615
    15  H    2.527519   1.600276   3.551177   4.910576   5.361662
                    6          7          8          9         10
     6  O    0.000000
     7  C    1.441834   0.000000
     8  C    2.374274   1.510851   0.000000
     9  H    2.065743   1.091937   2.174586   0.000000
    10  H    2.066293   1.091925   2.174831   1.767573   0.000000
    11  H    2.629111   2.151800   1.090596   3.075189   2.514900
    12  H    2.627805   2.151712   1.090584   2.515004   3.075279
    13  H    3.329009   2.141089   1.091290   2.515924   2.516626
    14  O    5.698475   7.099438   7.946334   7.382807   7.419571
    15  H    5.836130   7.179640   8.157884   7.448994   7.372563
                   11         12         13         14         15
    11  H    0.000000
    12  H    1.771968   0.000000
    13  H    1.772338   1.772527   0.000000
    14  O    7.882796   7.846797   8.984673   0.000000
    15  H    8.103897   8.172419   9.158693   0.967869   0.000000
 Stoichiometry    C5H7O3(2)
 Framework group  C1[X(C5H7O3)]
 Deg. of freedom    39
 Full point group                 C1      NOp   1
 Largest Abelian subgroup         C1      NOp   1
 Largest concise Abelian subgroup C1      NOp   1
                         Standard orientation:                         
 ---------------------------------------------------------------------
 Center     Atomic      Atomic             Coordinates (Angstroms)
 Number     Number       Type             X           Y           Z
 ---------------------------------------------------------------------
      1          6           0        2.246356   -0.380248   -0.058024
      2          1           0        3.582816   -0.883639   -0.145739
      3          6           0        1.139729    0.098574   -0.013023
      4          6           0       -0.213593    0.643645   -0.000047
      5          8           0       -0.449807    1.819009    0.016254
      6          8           0       -1.125517   -0.324506   -0.006059
      7          6           0       -2.498918    0.114020    0.012633
      8          6           0       -3.359891   -1.127446    0.000026
      9          1           0       -2.656202    0.718984    0.907958
     10          1           0       -2.671773    0.748169   -0.859305
     11          1           0       -3.169774   -1.716630   -0.897815
     12          1           0       -3.152765   -1.746276    0.873823
     13          1           0       -4.413658   -0.844119    0.014687
     14          8           0        4.566620   -0.574268    0.092985
     15          1           0        4.668897    0.270362   -0.368436
 ---------------------------------------------------------------------
 Rotational constants (GHZ):      5.3713183      0.6864311      0.6138140
 Standard basis: 6-311++G(d,p) (5D, 7F)
 There are   233 symmetry adapted cartesian basis functions of A   symmetry.
 There are   225 symmetry adapted basis functions of A   symmetry.
   225 basis functions,   351 primitive gaussians,   233 cartesian basis functions
    31 alpha electrons       30 beta electrons
       nuclear repulsion energy       330.9852345342 Hartrees.
 NAtoms=   15 NActive=   15 NUniq=   15 SFac= 1.00D+00 NAtFMM=   60 NAOKFM=F Big=F
 Integral buffers will be    262144 words long.
 Raffenetti 2 integral format.
 Two-electron integral symmetry is turned on.
 One-electron integrals computed using PRISM.
 NBasis=   225 RedAO= T EigKep=  4.19D-06  NBF=   225
 NBsUse=   224 1.00D-06 EigRej=  3.78D-07 NBFU=   224
 ExpMin= 3.60D-02 ExpMax= 8.59D+03 ExpMxC= 1.30D+03 IAcc=3 IRadAn=         5 AccDes= 0.00D+00
 Harris functional with IExCor= 1009 and IRadAn=       5 diagonalized for initial guess.
 HarFok:  IExCor= 1009 AccDes= 0.00D+00 IRadAn=         5 IDoV= 1 UseB2=F ITyADJ=14
 ICtDFT=  3500011 ScaDFX=  1.000000  1.000000  1.000000  1.000000
 FoFCou: FMM=F IPFlag=           0 FMFlag=      100000 FMFlg1=           0
         NFxFlg=           0 DoJE=T BraDBF=F KetDBF=T FulRan=T
         wScrn=  0.000000 ICntrl=     500 IOpCl=  0 I1Cent=   200000004 NGrid=           0
         NMat0=    1 NMatS0=      1 NMatT0=    0 NMatD0=    1 NMtDS0=    0 NMtDT0=    0
 Petite list used in FoFCou.
 Initial guess <Sx>= 0.0000 <Sy>= 0.0000 <Sz>= 0.5000 <S**2>= 0.7500 S= 0.5000
 Requested convergence on RMS density matrix=1.00D-08 within 128 cycles.
 Requested convergence on MAX density matrix=1.00D-06.
 Requested convergence on             energy=1.00D-06.
 No special actions if energy rises.
 Restarting incremental Fock formation.
 SCF Done:  E(UM062X) =  -420.174537033     A.U. after   23 cycles
            NFock= 23  Conv=0.29D-08     -V/T= 2.0033
 <Sx>= 0.0000 <Sy>= 0.0000 <Sz>= 0.5000 <S**2>= 0.7666 S= 0.5083
 <L.S>= 0.000000000000E+00
 Annihilation of the first spin contaminant:
 S**2 before annihilation     0.7666,   after     0.7502
 DoSCS=F DFT=T ScalE2(SS,OS)=  1.000000  1.000000
 Range of M.O.s used for correlation:     1   224
 NBasis=   225 NAE=    31 NBE=    30 NFC=     0 NFV=     0
 NROrb=    224 NOA=    31 NOB=    30 NVA=   193 NVB=   194

 **** Warning!!: The largest alpha MO coefficient is  0.14204162D+03


 **** Warning!!: The largest beta MO coefficient is  0.12225390D+03

 Symmetrizing basis deriv contribution to polar:
 IMax=3 JMax=2 DiffMx= 0.00D+00
 G2DrvN: will do    16 centers at a time, making    1 passes.
 Calling FoFCou, ICntrl=  3107 FMM=F I1Cent=   0 AccDes= 0.00D+00.
 End of G2Drv F.D. properties file   721 does not exist.
 End of G2Drv F.D. properties file   722 does not exist.
 End of G2Drv F.D. properties file   788 does not exist.
          IDoAtm=111111111111111
          Differentiating once with respect to electric field.
                with respect to dipole field.
          Differentiating once with respect to nuclear coordinates.
          There are    48 degrees of freedom in the 1st order CPHF.  IDoFFX=6 NUNeed=     3.
     47 vectors produced by pass  0 Test12= 2.46D-14 2.08D-09 XBig12= 1.38D+02 4.53D+00.
 AX will form    47 AO Fock derivatives at one time.
     45 vectors produced by pass  1 Test12= 2.46D-14 2.08D-09 XBig12= 2.81D+01 1.10D+00.
     45 vectors produced by pass  2 Test12= 2.46D-14 2.08D-09 XBig12= 1.65D+00 1.52D-01.
     45 vectors produced by pass  3 Test12= 2.46D-14 2.08D-09 XBig12= 2.60D-02 2.07D-02.
     45 vectors produced by pass  4 Test12= 2.46D-14 2.08D-09 XBig12= 4.07D-04 2.91D-03.
     45 vectors produced by pass  5 Test12= 2.46D-14 2.08D-09 XBig12= 5.16D-06 2.82D-04.
     39 vectors produced by pass  6 Test12= 2.46D-14 2.08D-09 XBig12= 4.52D-08 2.23D-05.
     21 vectors produced by pass  7 Test12= 2.46D-14 2.08D-09 XBig12= 3.18D-10 2.04D-06.
      6 vectors produced by pass  8 Test12= 2.46D-14 2.08D-09 XBig12= 2.93D-12 1.78D-07.
      6 vectors produced by pass  9 Test12= 2.46D-14 2.08D-09 XBig12= 6.97D-14 2.17D-08.
      5 vectors produced by pass 10 Test12= 2.46D-14 2.08D-09 XBig12= 2.11D-14 1.82D-08.
      5 vectors produced by pass 11 Test12= 2.46D-14 2.08D-09 XBig12= 1.52D-15 5.17D-09.
      5 vectors produced by pass 12 Test12= 2.46D-14 2.08D-09 XBig12= 6.81D-16 3.08D-09.
      4 vectors produced by pass 13 Test12= 2.46D-14 2.08D-09 XBig12= 5.77D-16 3.23D-09.
      4 vectors produced by pass 14 Test12= 2.46D-14 2.08D-09 XBig12= 6.42D-16 2.89D-09.
      2 vectors produced by pass 15 Test12= 2.46D-14 2.08D-09 XBig12= 5.56D-16 2.40D-09.
      2 vectors produced by pass 16 Test12= 2.46D-14 2.08D-09 XBig12= 5.97D-16 2.71D-09.
      2 vectors produced by pass 17 Test12= 2.46D-14 2.08D-09 XBig12= 6.23D-16 2.46D-09.
      2 vectors produced by pass 18 Test12= 2.46D-14 2.08D-09 XBig12= 5.02D-16 2.44D-09.
      2 vectors produced by pass 19 Test12= 2.46D-14 2.08D-09 XBig12= 3.71D-16 2.87D-09.
      2 vectors produced by pass 20 Test12= 2.46D-14 2.08D-09 XBig12= 6.87D-16 2.99D-09.
 InvSVY:  IOpt=1 It=  1 EMax= 7.87D-15
 Solved reduced A of dimension   379 with    48 vectors.
 Isotropic polarizability for W=    0.000000       85.18 Bohr**3.
 End of Minotr F.D. properties file   721 does not exist.
 End of Minotr F.D. properties file   722 does not exist.
 End of Minotr F.D. properties file   788 does not exist.

 **********************************************************************

            Population analysis using the SCF density.

 **********************************************************************

 Orbital symmetries:
 Alpha Orbitals:
       Occupied  (A) (A) (A) (A) (A) (A) (A) (A) (A) (A) (A) (A)
                 (A) (A) (A) (A) (A) (A) (A) (A) (A) (A) (A) (A)
                 (A) (A) (A) (A) (A) (A) (A)
       Virtual   (A) (A) (A) (A) (A) (A) (A) (A) (A) (A) (A) (A)
                 (A) (A) (A) (A) (A) (A) (A) (A) (A) (A) (A) (A)
                 (A) (A) (A) (A) (A) (A) (A) (A) (A) (A) (A) (A)
                 (A) (A) (A) (A) (A) (A) (A) (A) (A) (A) (A) (A)
                 (A) (A) (A) (A) (A) (A) (A) (A) (A) (A) (A) (A)
                 (A) (A) (A) (A) (A) (A) (A) (A) (A) (A) (A) (A)
                 (A) (A) (A) (A) (A) (A) (A) (A) (A) (A) (A) (A)
                 (A) (A) (A) (A) (A) (A) (A) (A) (A) (A) (A) (A)
                 (A) (A) (A) (A) (A) (A) (A) (A) (A) (A) (A) (A)
                 (A) (A) (A) (A) (A) (A) (A) (A) (A) (A) (A) (A)
                 (A) (A) (A) (A) (A) (A) (A) (A) (A) (A) (A) (A)
                 (A) (A) (A) (A) (A) (A) (A) (A) (A) (A) (A) (A)
                 (A) (A) (A) (A) (A) (A) (A) (A) (A) (A) (A) (A)
                 (A) (A) (A) (A) (A) (A) (A) (A) (A) (A) (A) (A)
                 (A) (A) (A) (A) (A) (A) (A) (A) (A) (A) (A) (A)
                 (A) (A) (A) (A) (A) (A) (A) (A) (A) (A) (A) (A)
                 (A)
 Beta  Orbitals:
       Occupied  (A) (A) (A) (A) (A) (A) (A) (A) (A) (A) (A) (A)
                 (A) (A) (A) (A) (A) (A) (A) (A) (A) (A) (A) (A)
                 (A) (A) (A) (A) (A) (A)
       Virtual   (A) (A) (A) (A) (A) (A) (A) (A) (A) (A) (A) (A)
                 (A) (A) (A) (A) (A) (A) (A) (A) (A) (A) (A) (A)
                 (A) (A) (A) (A) (A) (A) (A) (A) (A) (A) (A) (A)
                 (A) (A) (A) (A) (A) (A) (A) (A) (A) (A) (A) (A)
                 (A) (A) (A) (A) (A) (A) (A) (A) (A) (A) (A) (A)
                 (A) (A) (A) (A) (A) (A) (A) (A) (A) (A) (A) (A)
                 (A) (A) (A) (A) (A) (A) (A) (A) (A) (A) (A) (A)
                 (A) (A) (A) (A) (A) (A) (A) (A) (A) (A) (A) (A)
                 (A) (A) (A) (A) (A) (A) (A) (A) (A) (A) (A) (A)
                 (A) (A) (A) (A) (A) (A) (A) (A) (A) (A) (A) (A)
                 (A) (A) (A) (A) (A) (A) (A) (A) (A) (A) (A) (A)
                 (A) (A) (A) (A) (A) (A) (A) (A) (A) (A) (A) (A)
                 (A) (A) (A) (A) (A) (A) (A) (A) (A) (A) (A) (A)
                 (A) (A) (A) (A) (A) (A) (A) (A) (A) (A) (A) (A)
                 (A) (A) (A) (A) (A) (A) (A) (A) (A) (A) (A) (A)
                 (A) (A) (A) (A) (A) (A) (A) (A) (A) (A) (A) (A)
                 (A) (A)
 The electronic state is 2-A.
 Alpha  occ. eigenvalues --  -19.69148 -19.68899 -19.63814 -10.71204 -10.61072
 Alpha  occ. eigenvalues --  -10.60151 -10.57776 -10.54407  -1.26333  -1.18766
 Alpha  occ. eigenvalues --   -1.16996  -0.91220  -0.87891  -0.77923  -0.70442
 Alpha  occ. eigenvalues --   -0.67730  -0.65240  -0.59734  -0.58169  -0.56374
 Alpha  occ. eigenvalues --   -0.52088  -0.49968  -0.47566  -0.46229  -0.44560
 Alpha  occ. eigenvalues --   -0.43998  -0.42817  -0.40022  -0.39188  -0.38102
 Alpha  occ. eigenvalues --   -0.37013
 Alpha virt. eigenvalues --   -0.02070  -0.00482  -0.00087   0.01971   0.02073
 Alpha virt. eigenvalues --    0.02407   0.03418   0.05137   0.05526   0.06005
 Alpha virt. eigenvalues --    0.06683   0.07500   0.08296   0.09309   0.09834
 Alpha virt. eigenvalues --    0.11057   0.12300   0.12527   0.12686   0.13635
 Alpha virt. eigenvalues --    0.14241   0.14579   0.15370   0.15834   0.16545
 Alpha virt. eigenvalues --    0.17215   0.18056   0.19362   0.20211   0.20272
 Alpha virt. eigenvalues --    0.20424   0.22400   0.22800   0.23322   0.23515
 Alpha virt. eigenvalues --    0.25413   0.26424   0.27152   0.27879   0.29329
 Alpha virt. eigenvalues --    0.30269   0.31362   0.31726   0.32316   0.32495
 Alpha virt. eigenvalues --    0.33656   0.36396   0.37339   0.37797   0.39324
 Alpha virt. eigenvalues --    0.42532   0.43427   0.45485   0.46497   0.49441
 Alpha virt. eigenvalues --    0.52662   0.54298   0.56278   0.57272   0.58061
 Alpha virt. eigenvalues --    0.61108   0.63272   0.64580   0.68058   0.69023
 Alpha virt. eigenvalues --    0.69041   0.69366   0.70081   0.71161   0.73424
 Alpha virt. eigenvalues --    0.75041   0.75149   0.77905   0.81246   0.81987
 Alpha virt. eigenvalues --    0.89953   0.90254   0.93779   0.98599   1.01669
 Alpha virt. eigenvalues --    1.02718   1.04706   1.06989   1.11010   1.14654
 Alpha virt. eigenvalues --    1.15730   1.16681   1.18414   1.18577   1.22052
 Alpha virt. eigenvalues --    1.22906   1.23674   1.28814   1.29238   1.30352
 Alpha virt. eigenvalues --    1.31329   1.33261   1.37448   1.39603   1.44724
 Alpha virt. eigenvalues --    1.48528   1.49599   1.50585   1.55576   1.57643
 Alpha virt. eigenvalues --    1.57708   1.59606   1.61044   1.61603   1.63014
 Alpha virt. eigenvalues --    1.65504   1.67324   1.68971   1.70337   1.72607
 Alpha virt. eigenvalues --    1.76380   1.77146   1.82477   1.85482   1.89784
 Alpha virt. eigenvalues --    1.92524   1.95150   2.01445   2.03619   2.09184
 Alpha virt. eigenvalues --    2.12709   2.14521   2.19998   2.26587   2.28149
 Alpha virt. eigenvalues --    2.35695   2.41282   2.45883   2.48718   2.50421
 Alpha virt. eigenvalues --    2.51313   2.54142   2.58269   2.62018   2.63947
 Alpha virt. eigenvalues --    2.65237   2.66932   2.70034   2.71314   2.80539
 Alpha virt. eigenvalues --    2.80728   2.83314   2.89151   2.90372   2.96230
 Alpha virt. eigenvalues --    2.97098   2.99249   3.02588   3.04453   3.08857
 Alpha virt. eigenvalues --    3.11981   3.13242   3.16986   3.25885   3.27464
 Alpha virt. eigenvalues --    3.29034   3.34624   3.38091   3.43057   3.56345
 Alpha virt. eigenvalues --    3.64472   3.69667   3.74057   3.83416   3.85144
 Alpha virt. eigenvalues --    3.85199   3.87797   4.02811   4.10946   4.13136
 Alpha virt. eigenvalues --    4.29611   5.07465   5.11071   5.15594   5.31705
 Alpha virt. eigenvalues --    5.37148   5.44956   5.62060   5.72865   5.94134
 Alpha virt. eigenvalues --   23.44580  23.91632  23.93783  24.04932  24.95667
 Alpha virt. eigenvalues --   49.93596  49.99650  50.10246
  Beta  occ. eigenvalues --  -19.68908 -19.68246 -19.63807 -10.71187 -10.61073
  Beta  occ. eigenvalues --  -10.59137 -10.57668 -10.54407  -1.26335  -1.16990
  Beta  occ. eigenvalues --   -1.15364  -0.90758  -0.86830  -0.77297  -0.69852
  Beta  occ. eigenvalues --   -0.65644  -0.63474  -0.59770  -0.58133  -0.52143
  Beta  occ. eigenvalues --   -0.51478  -0.49742  -0.47549  -0.44591  -0.43943
  Beta  occ. eigenvalues --   -0.43258  -0.39516  -0.39273  -0.36792  -0.36213
  Beta virt. eigenvalues --   -0.16655  -0.01189  -0.00386   0.00224   0.01987
  Beta virt. eigenvalues --    0.02074   0.02555   0.03654   0.05521   0.05955
  Beta virt. eigenvalues --    0.06212   0.06760   0.07684   0.08349   0.09296
  Beta virt. eigenvalues --    0.09988   0.11197   0.12467   0.12609   0.12858
  Beta virt. eigenvalues --    0.13650   0.14386   0.14644   0.15573   0.16020
  Beta virt. eigenvalues --    0.16598   0.17457   0.18169   0.19553   0.20177
  Beta virt. eigenvalues --    0.20386   0.20524   0.22380   0.22803   0.23335
  Beta virt. eigenvalues --    0.23597   0.25373   0.26490   0.27222   0.28049
  Beta virt. eigenvalues --    0.29709   0.30358   0.31398   0.31828   0.32360
  Beta virt. eigenvalues --    0.33081   0.33706   0.36552   0.37631   0.37971
  Beta virt. eigenvalues --    0.39514   0.42681   0.43602   0.45489   0.46991
  Beta virt. eigenvalues --    0.49633   0.52669   0.54529   0.56430   0.57634
  Beta virt. eigenvalues --    0.58470   0.61425   0.63611   0.65009   0.68074
  Beta virt. eigenvalues --    0.69038   0.69057   0.69425   0.70089   0.71271
  Beta virt. eigenvalues --    0.73832   0.75033   0.76115   0.79539   0.81350
  Beta virt. eigenvalues --    0.82486   0.89961   0.90245   0.93967   0.99683
  Beta virt. eigenvalues --    1.01855   1.02885   1.05127   1.07956   1.11695
  Beta virt. eigenvalues --    1.15720   1.16275   1.17069   1.18775   1.18992
  Beta virt. eigenvalues --    1.22355   1.23086   1.23857   1.28830   1.29564
  Beta virt. eigenvalues --    1.30954   1.31445   1.33521   1.37854   1.40132
  Beta virt. eigenvalues --    1.45215   1.49139   1.49600   1.50783   1.56140
  Beta virt. eigenvalues --    1.57649   1.57742   1.59982   1.61478   1.61828
  Beta virt. eigenvalues --    1.63672   1.65754   1.67799   1.68983   1.70368
  Beta virt. eigenvalues --    1.72869   1.76413   1.77150   1.83243   1.85572
  Beta virt. eigenvalues --    1.89840   1.92675   1.95942   2.01448   2.03860
  Beta virt. eigenvalues --    2.09529   2.12771   2.14993   2.20002   2.26681
  Beta virt. eigenvalues --    2.28564   2.35710   2.41608   2.46796   2.48735
  Beta virt. eigenvalues --    2.50411   2.50985   2.54155   2.58272   2.62037
  Beta virt. eigenvalues --    2.64039   2.65252   2.67028   2.69105   2.71045
  Beta virt. eigenvalues --    2.81050   2.81546   2.83799   2.89173   2.90735
  Beta virt. eigenvalues --    2.96120   2.97049   3.00570   3.04411   3.05101
  Beta virt. eigenvalues --    3.09506   3.11978   3.14441   3.17589   3.27363
  Beta virt. eigenvalues --    3.27620   3.29384   3.34929   3.38568   3.43009
  Beta virt. eigenvalues --    3.58150   3.64759   3.70320   3.74939   3.83413
  Beta virt. eigenvalues --    3.85144   3.85204   3.89565   4.03136   4.11018
  Beta virt. eigenvalues --    4.13144   4.29615   5.09634   5.11041   5.15535
  Beta virt. eigenvalues --    5.31765   5.40431   5.44954   5.63887   5.72839
  Beta virt. eigenvalues --    5.94126  23.45240  23.91639  23.93805  24.04932
  Beta virt. eigenvalues --   24.96589  49.92784  49.99652  50.10253
          Condensed to atoms (all electrons):
               1          2          3          4          5          6
     1  C    6.262250   0.073117  -1.634010   2.006807  -0.096677  -0.075797
     2  H    0.073117   0.326528  -0.142665   0.085765  -0.000420  -0.001001
     3  C   -1.634010  -0.142665  15.968598  -8.636285   0.329675  -0.212871
     4  C    2.006807   0.085765  -8.636285  12.944327   0.122739  -0.028383
     5  O   -0.096677  -0.000420   0.329675   0.122739   8.037054  -0.127770
     6  O   -0.075797  -0.001001  -0.212871  -0.028383  -0.127770   8.428364
     7  C    0.049248   0.002946  -0.518962   0.045040  -0.034847   0.276163
     8  C    0.054607   0.000783  -0.339317   0.302552   0.010184  -0.188045
     9  H   -0.000580   0.000014  -0.000002  -0.007171  -0.012376  -0.036122
    10  H   -0.001335   0.000037   0.003870  -0.008801  -0.012078  -0.035914
    11  H   -0.001542  -0.000048   0.013970  -0.006787  -0.001089  -0.009356
    12  H   -0.000891  -0.000057   0.009977  -0.003140  -0.001242  -0.009738
    13  H   -0.000445   0.000006   0.001425  -0.002484   0.001667   0.024034
    14  O    0.002989   0.279225  -0.042482   0.027024  -0.000083   0.000283
    15  H    0.031252  -0.050001   0.002641   0.002657  -0.000133  -0.000008
               7          8          9         10         11         12
     1  C    0.049248   0.054607  -0.000580  -0.001335  -0.001542  -0.000891
     2  H    0.002946   0.000783   0.000014   0.000037  -0.000048  -0.000057
     3  C   -0.518962  -0.339317  -0.000002   0.003870   0.013970   0.009977
     4  C    0.045040   0.302552  -0.007171  -0.008801  -0.006787  -0.003140
     5  O   -0.034847   0.010184  -0.012376  -0.012078  -0.001089  -0.001242
     6  O    0.276163  -0.188045  -0.036122  -0.035914  -0.009356  -0.009738
     7  C    5.501959   0.088039   0.432582   0.430092  -0.026121  -0.029728
     8  C    0.088039   5.598799  -0.056048  -0.055071   0.390194   0.394320
     9  H    0.432582  -0.056048   0.535212  -0.052028   0.006867  -0.009865
    10  H    0.430092  -0.055071  -0.052028   0.536982  -0.010024   0.006895
    11  H   -0.026121   0.390194   0.006867  -0.010024   0.538031  -0.038491
    12  H   -0.029728   0.394320  -0.009865   0.006895  -0.038491   0.536627
    13  H   -0.044079   0.403818  -0.004322  -0.004386  -0.032394  -0.032362
    14  O    0.000091   0.000134   0.000012  -0.000002  -0.000004   0.000002
    15  H   -0.000203  -0.000002   0.000004  -0.000005   0.000000   0.000002
              13         14         15
     1  C   -0.000445   0.002989   0.031252
     2  H    0.000006   0.279225  -0.050001
     3  C    0.001425  -0.042482   0.002641
     4  C   -0.002484   0.027024   0.002657
     5  O    0.001667  -0.000083  -0.000133
     6  O    0.024034   0.000283  -0.000008
     7  C   -0.044079   0.000091  -0.000203
     8  C    0.403818   0.000134  -0.000002
     9  H   -0.004322   0.000012   0.000004
    10  H   -0.004386  -0.000002  -0.000005
    11  H   -0.032394  -0.000004   0.000000
    12  H   -0.032362   0.000002   0.000002
    13  H    0.523734   0.000000  -0.000001
    14  O    0.000000   7.748601   0.295480
    15  H   -0.000001   0.295480   0.446646
          Atomic-Atomic Spin Densities.
               1          2          3          4          5          6
     1  C    0.741813  -0.022736  -0.116324   0.099672   0.003581   0.002879
     2  H   -0.022736  -0.029417  -0.013887   0.011421   0.000041  -0.000064
     3  C   -0.116324  -0.013887   1.069791  -0.733115  -0.020638   0.008107
     4  C    0.099672   0.011421  -0.733115   0.461744   0.018305  -0.005517
     5  O    0.003581   0.000041  -0.020638   0.018305  -0.002392   0.002920
     6  O    0.002879  -0.000064   0.008107  -0.005517   0.002920  -0.008872
     7  C    0.000206  -0.000332  -0.003582   0.008871  -0.000746   0.000977
     8  C    0.008646   0.000226  -0.043890   0.025253  -0.000199   0.000528
     9  H   -0.000514  -0.000019   0.003386  -0.001786   0.000218  -0.000344
    10  H   -0.000343  -0.000015   0.002010  -0.000967   0.000140  -0.000240
    11  H   -0.000099  -0.000004   0.000656  -0.000287   0.000000  -0.000004
    12  H    0.000011  -0.000001   0.000115  -0.000026   0.000004  -0.000045
    13  H   -0.000137  -0.000004   0.001035  -0.000439   0.000026  -0.000066
    14  O   -0.094750   0.012203  -0.053543   0.027977   0.000140   0.000061
    15  H   -0.001166   0.001617   0.003570  -0.003019  -0.000028  -0.000008
               7          8          9         10         11         12
     1  C    0.000206   0.008646  -0.000514  -0.000343  -0.000099   0.000011
     2  H   -0.000332   0.000226  -0.000019  -0.000015  -0.000004  -0.000001
     3  C   -0.003582  -0.043890   0.003386   0.002010   0.000656   0.000115
     4  C    0.008871   0.025253  -0.001786  -0.000967  -0.000287  -0.000026
     5  O   -0.000746  -0.000199   0.000218   0.000140   0.000000   0.000004
     6  O    0.000977   0.000528  -0.000344  -0.000240  -0.000004  -0.000045
     7  C   -0.004911  -0.003359   0.000079   0.000055   0.000211   0.000115
     8  C   -0.003359   0.014867  -0.000940  -0.000384  -0.000471  -0.000167
     9  H    0.000079  -0.000940  -0.000402   0.000202  -0.000023   0.000046
    10  H    0.000055  -0.000384   0.000202  -0.000485   0.000044  -0.000020
    11  H    0.000211  -0.000471  -0.000023   0.000044  -0.000083   0.000038
    12  H    0.000115  -0.000167   0.000046  -0.000020   0.000038  -0.000048
    13  H    0.000598  -0.001164   0.000022   0.000020   0.000034   0.000005
    14  O    0.000242   0.000037   0.000003   0.000002   0.000000   0.000001
    15  H    0.000012  -0.000027   0.000002   0.000001   0.000000   0.000000
              13         14         15
     1  C   -0.000137  -0.094750  -0.001166
     2  H   -0.000004   0.012203   0.001617
     3  C    0.001035  -0.053543   0.003570
     4  C   -0.000439   0.027977  -0.003019
     5  O    0.000026   0.000140  -0.000028
     6  O   -0.000066   0.000061  -0.000008
     7  C    0.000598   0.000242   0.000012
     8  C   -0.001164   0.000037  -0.000027
     9  H    0.000022   0.000003   0.000002
    10  H    0.000020   0.000002   0.000001
    11  H    0.000034   0.000000   0.000000
    12  H    0.000005   0.000001   0.000000
    13  H    0.000085   0.000000   0.000000
    14  O    0.000000   0.520896   0.006196
    15  H    0.000000   0.006196  -0.017240
 Mulliken charges and spin densities:
               1          2
     1  C   -0.668992   0.620739
     2  H    0.425770  -0.040969
     3  C    1.196436   0.103690
     4  C   -0.843862  -0.091912
     5  O   -0.214606   0.001373
     6  O   -0.003837   0.000312
     7  C   -0.172221  -0.001567
     8  C   -0.604949  -0.001045
     9  H    0.203821  -0.000070
    10  H    0.201768   0.000020
    11  H    0.176794   0.000014
    12  H    0.177692   0.000026
    13  H    0.165788   0.000016
    14  O   -0.311270   0.419463
    15  H    0.271670  -0.010090
 Sum of Mulliken charges =   0.00000   1.00000
 Mulliken charges and spin densities with hydrogens summed into heavy atoms:
               1          2
     1  C   -0.668992   0.620739
     3  C    1.196436   0.103690
     4  C   -0.843862  -0.091912
     5  O   -0.214606   0.001373
     6  O   -0.003837   0.000312
     7  C    0.233368  -0.001617
     8  C   -0.084676  -0.000989
    14  O    0.386169   0.368404
 APT charges:
               1
     1  C   -0.002157
     2  H   -0.113631
     3  C   -0.201560
     4  C    1.657210
     5  O   -0.870504
     6  O   -1.045637
     7  C    0.582045
     8  C   -0.002015
     9  H   -0.031369
    10  H   -0.031970
    11  H    0.014066
    12  H    0.014383
    13  H    0.006495
    14  O   -0.297046
    15  H    0.321688
 Sum of APT charges =   0.00000
 APT charges with hydrogens summed into heavy atoms:
               1
     1  C   -0.002157
     3  C   -0.201560
     4  C    1.657210
     5  O   -0.870504
     6  O   -1.045637
     7  C    0.518706
     8  C    0.032929
    14  O   -0.088988
 Electronic spatial extent (au):  <R**2>=           1758.1148
 Charge=              0.0000 electrons
 Dipole moment (field-independent basis, Debye):
    X=             -1.3732    Y=             -0.5389    Z=             -1.0048  Tot=              1.7848
 Quadrupole moment (field-independent basis, Debye-Ang):
   XX=            -36.9710   YY=            -53.9723   ZZ=            -47.4141
   XY=              5.8562   XZ=             -4.9565   YZ=             -0.2249
 Traceless Quadrupole moment (field-independent basis, Debye-Ang):
   XX=              9.1481   YY=             -7.8532   ZZ=             -1.2949
   XY=              5.8562   XZ=             -4.9565   YZ=             -0.2249
 Octapole moment (field-independent basis, Debye-Ang**2):
  XXX=            -10.2991  YYY=             -9.7390  ZZZ=             -0.0855  XYY=              3.1930
  XXY=             27.4891  XXZ=            -22.7651  XZZ=             -2.2300  YZZ=              2.0101
  YYZ=             -0.1032  XYZ=             -0.7154
 Hexadecapole moment (field-independent basis, Debye-Ang**3):
 XXXX=          -1795.1916 YYYY=           -296.7008 ZZZZ=            -61.9532 XXXY=            138.4369
 XXXZ=           -106.8046 YYYX=             -0.9457 YYYZ=             -0.8903 ZZZX=             -1.8723
 ZZZY=             -0.2367 XXYY=           -364.1537 XXZZ=           -332.1038 YYZZ=            -53.1583
 XXYZ=             -4.2260 YYXZ=             -0.2551 ZZXY=             -0.5256
 N-N= 3.309852345342D+02 E-N=-1.646090589932D+03  KE= 4.187989232448D+02
  Exact polarizability: 139.505 -14.233  67.721  -2.099   0.314  48.328
 Approx polarizability: 119.280 -18.248  84.230  -1.110   0.348  57.209
                          Isotropic Fermi Contact Couplings
        Atom                 a.u.       MegaHertz       Gauss      10(-4) cm-1
     1  C(13)              0.67714     761.23476     271.62748     253.92059
     2  H(1)              -0.02953    -131.97482     -47.09190     -44.02206
     3  C(13)              0.10828     121.72705      43.43524      40.60377
     4  C(13)              0.01094      12.30160       4.38952       4.10337
     5  O(17)             -0.00070       0.42172       0.15048       0.14067
     6  O(17)             -0.00676       4.09952       1.46281       1.36745
     7  C(13)             -0.00051      -0.56910      -0.20307      -0.18983
     8  C(13)             -0.00002      -0.01857      -0.00663      -0.00619
     9  H(1)              -0.00008      -0.37200      -0.13274      -0.12409
    10  H(1)              -0.00005      -0.22324      -0.07966      -0.07447
    11  H(1)               0.00000       0.00155       0.00055       0.00052
    12  H(1)               0.00000       0.01902       0.00679       0.00634
    13  H(1)              -0.00001      -0.03574      -0.01275      -0.01192
    14  O(17)              0.05301     -32.13183     -11.46543     -10.71802
    15  H(1)              -0.00708     -31.62766     -11.28553     -10.54985
 --------------------------------------------------------
       Center         ----  Spin Dipole Couplings  ----
                      3XX-RR        3YY-RR        3ZZ-RR
 --------------------------------------------------------
     1   Atom        0.469565     -0.231671     -0.237894
     2   Atom        0.199262     -0.083576     -0.115686
     3   Atom        0.088703      0.033966     -0.122668
     4   Atom        0.012665     -0.006851     -0.005814
     5   Atom        0.070897     -0.003131     -0.067766
     6   Atom        0.005270      0.007958     -0.013228
     7   Atom        0.000637     -0.000169     -0.000468
     8   Atom        0.000959     -0.000515     -0.000444
     9   Atom        0.001208     -0.000571     -0.000637
    10   Atom        0.001212     -0.000564     -0.000648
    11   Atom        0.000976     -0.000485     -0.000491
    12   Atom        0.000963     -0.000486     -0.000478
    13   Atom        0.000636     -0.000324     -0.000312
    14   Atom        1.891683     -0.903549     -0.988134
    15   Atom       -0.014659      0.048042     -0.033383
 --------------------------------------------------------
                        XY            XZ            YZ
 --------------------------------------------------------
     1   Atom       -0.146248      0.031129     -0.011916
     2   Atom        0.033145      0.048943      0.025399
     3   Atom       -0.165828     -0.038290      0.051204
     4   Atom       -0.010847      0.000931     -0.001092
     5   Atom       -0.015683      0.031047     -0.001895
     6   Atom        0.001562      0.002268      0.005845
     7   Atom        0.000025      0.000088     -0.000072
     8   Atom        0.000039     -0.000018     -0.000004
     9   Atom       -0.000348     -0.000301     -0.000054
    10   Atom       -0.000337      0.000243      0.000029
    11   Atom        0.000260      0.000195      0.000020
    12   Atom        0.000261     -0.000211     -0.000027
    13   Atom        0.000030     -0.000008     -0.000002
    14   Atom       -0.515218     -0.065241      0.006324
    15   Atom        0.021602     -0.015762     -0.066353
 --------------------------------------------------------


 ---------------------------------------------------------------------------------
              Anisotropic Spin Dipole Couplings in Principal Axis System
 ---------------------------------------------------------------------------------

       Atom             a.u.   MegaHertz   Gauss  10(-4) cm-1        Axes

              Baa    -0.2623   -35.198   -12.560   -11.741  0.1808  0.9549  0.2356
     1 C(13)  Bbb    -0.2380   -31.938   -11.396   -10.653 -0.0888 -0.2228  0.9708
              Bcc     0.5003    67.136    23.956    22.394  0.9795 -0.1964  0.0445
 
              Baa    -0.1322   -70.532   -25.168   -23.527 -0.0929 -0.4106  0.9071
     2 H(1)   Bbb    -0.0791   -42.181   -15.051   -14.070 -0.1763  0.9034  0.3908
              Bcc     0.2113   112.713    40.219    37.597  0.9799  0.1236  0.1563
 
              Baa    -0.1394   -18.710    -6.676    -6.241 -0.1391 -0.4005  0.9057
     3 C(13)  Bbb    -0.1007   -13.513    -4.822    -4.507  0.6502  0.6529  0.3885
              Bcc     0.2401    32.223    11.498    10.748  0.7469 -0.6429 -0.1696
 
              Baa    -0.0117    -1.577    -0.563    -0.526  0.4005  0.9103  0.1046
     4 C(13)  Bbb    -0.0058    -0.781    -0.279    -0.261 -0.0930 -0.0732  0.9930
              Bcc     0.0176     2.358     0.841     0.786  0.9116 -0.4074  0.0553
 
              Baa    -0.0744     5.386     1.922     1.796 -0.2110 -0.0204  0.9773
     5 O(17)  Bbb    -0.0061     0.439     0.157     0.146  0.1766  0.9825  0.0587
              Bcc     0.0805    -5.824    -2.078    -1.943  0.9614 -0.1849  0.2037
 
              Baa    -0.0149     1.078     0.385     0.360 -0.0900 -0.2410  0.9663
     6 O(17)  Bbb     0.0046    -0.330    -0.118    -0.110  0.9173 -0.3979 -0.0138
              Bcc     0.0103    -0.748    -0.267    -0.250  0.3879  0.8852  0.2569
 
              Baa    -0.0005    -0.066    -0.024    -0.022 -0.0804  0.2217  0.9718
     7 C(13)  Bbb    -0.0002    -0.020    -0.007    -0.007 -0.0058  0.9748 -0.2228
              Bcc     0.0006     0.086     0.031     0.029  0.9967  0.0236  0.0771
 
              Baa    -0.0005    -0.069    -0.025    -0.023 -0.0261  0.9986  0.0451
     8 C(13)  Bbb    -0.0004    -0.060    -0.021    -0.020  0.0140 -0.0447  0.9989
              Bcc     0.0010     0.129     0.046     0.043  0.9996  0.0267 -0.0128
 
              Baa    -0.0008    -0.410    -0.146    -0.137  0.2232  0.6040  0.7651
     9 H(1)   Bbb    -0.0005    -0.292    -0.104    -0.098  0.0465  0.7774 -0.6273
              Bcc     0.0013     0.702     0.251     0.234  0.9737 -0.1756 -0.1454
 
              Baa    -0.0007    -0.388    -0.138    -0.129 -0.1973 -0.5507  0.8111
    10 H(1)   Bbb    -0.0006    -0.307    -0.109    -0.102  0.0760  0.8162  0.5727
              Bcc     0.0013     0.695     0.248     0.232  0.9774 -0.1746  0.1192
 
              Baa    -0.0005    -0.287    -0.102    -0.096 -0.2087  0.8309  0.5159
    11 H(1)   Bbb    -0.0005    -0.271    -0.097    -0.090 -0.0183 -0.5307  0.8474
              Bcc     0.0010     0.558     0.199     0.186  0.9778  0.1674  0.1259
 
              Baa    -0.0005    -0.285    -0.102    -0.095 -0.2065  0.9229 -0.3250
    12 H(1)   Bbb    -0.0005    -0.269    -0.096    -0.090  0.0729  0.3458  0.9355
              Bcc     0.0010     0.554     0.198     0.185  0.9757  0.1695 -0.1387
 
              Baa    -0.0003    -0.173    -0.062    -0.058 -0.0299  0.9918  0.1240
    13 H(1)   Bbb    -0.0003    -0.167    -0.059    -0.056  0.0123 -0.1237  0.9922
              Bcc     0.0006     0.340     0.121     0.113  0.9995  0.0312 -0.0085
 
              Baa    -0.9985    72.254    25.782    24.101  0.1626  0.8484  0.5038
    14 O(17)  Bbb    -0.9865    71.384    25.471    23.811 -0.0698 -0.4994  0.8636
              Bcc     1.9851  -143.638   -51.253   -47.912  0.9842 -0.1756 -0.0220
 
              Baa    -0.0707   -37.732   -13.464   -12.586  0.0621  0.4782  0.8761
    15 H(1)   Bbb    -0.0211   -11.249    -4.014    -3.752  0.9683 -0.2417  0.0634
              Bcc     0.0918    48.981    17.478    16.338  0.2421  0.8443 -0.4780
 

 ---------------------------------------------------------------------------------

 Calling FoFJK, ICntrl=    100127 FMM=F ISym2X=0 I1Cent= 0 IOpClX= 1 NMat=1 NMatS=1 NMatT=0.
 Full mass-weighted force constant matrix:
 Low frequencies --- -941.4532  -17.5860   -3.8872   -0.0010   -0.0006   -0.0004
 Low frequencies ---    5.6477   48.1883   56.3616
 ******    1 imaginary frequencies (negative Signs) ****** 
 Diagonal vibrational polarizability:
       92.9396502      51.5275839      66.6863445
 Harmonic frequencies (cm**-1), IR intensities (KM/Mole), Raman scattering
 activities (A**4/AMU), depolarization ratios for plane and unpolarized
 incident light, reduced masses (AMU), force constants (mDyne/A),
 and normal coordinates:
                      1                      2                      3
                      A                      A                      A
 Frequencies --   -941.4530                48.1320                56.1131
 Red. masses --      1.0467                 6.5451                 4.8088
 Frc consts  --      0.5466                 0.0089                 0.0089
 IR Inten    --    349.0959                 2.1590                 2.9300
  Atom  AN      X      Y      Z        X      Y      Z        X      Y      Z
     1   6    -0.04   0.01   0.01     0.01   0.28  -0.05    -0.01   0.02   0.31
     2   1     0.84  -0.43  -0.30    -0.12  -0.03  -0.01    -0.05  -0.02   0.10
     3   6    -0.03   0.02   0.01     0.00   0.24  -0.03    -0.01   0.03   0.25
     4   6    -0.01   0.00   0.00    -0.04   0.15  -0.02    -0.01   0.02   0.10
     5   8     0.00   0.00   0.00    -0.15   0.12   0.01    -0.03   0.02  -0.06
     6   8     0.00   0.00   0.00     0.05   0.06  -0.02     0.00   0.01   0.13
     7   6     0.00   0.00   0.00     0.00  -0.09   0.00    -0.01  -0.01  -0.16
     8   6     0.00   0.00   0.00     0.15  -0.19   0.04     0.01  -0.02  -0.11
     9   1     0.00   0.00   0.00    -0.04  -0.10   0.00    -0.17   0.13  -0.28
    10   1     0.00   0.00   0.00    -0.09  -0.12   0.00     0.13  -0.15  -0.29
    11   1     0.00   0.00   0.00     0.20  -0.19   0.05     0.19  -0.17   0.03
    12   1     0.00   0.00   0.00     0.24  -0.16   0.05    -0.14   0.13   0.04
    13   1     0.00   0.00   0.00     0.11  -0.32   0.05     0.00  -0.04  -0.35
    14   8     0.01   0.00   0.01    -0.02  -0.39   0.04     0.05  -0.04  -0.28
    15   1    -0.06  -0.06  -0.07     0.28  -0.38   0.12    -0.06  -0.11  -0.43
                      4                      5                      6
                      A                      A                      A
 Frequencies --     72.2189               120.8817               123.1974
 Red. masses --      2.7619                 3.3668                 3.5597
 Frc consts  --      0.0085                 0.0290                 0.0318
 IR Inten    --      0.7051                 0.7186                 6.3557
  Atom  AN      X      Y      Z        X      Y      Z        X      Y      Z
     1   6     0.00  -0.01   0.01     0.06   0.14   0.24     0.12   0.26  -0.15
     2   1     0.00   0.00  -0.01     0.05   0.07   0.25     0.11   0.22  -0.20
     3   6     0.00  -0.01   0.01    -0.01  -0.01  -0.01    -0.01  -0.05   0.01
     4   6     0.00   0.00   0.01    -0.03  -0.05  -0.09    -0.03  -0.10   0.05
     5   8     0.01   0.00   0.16    -0.03  -0.05   0.00    -0.02  -0.09  -0.01
     6   8     0.00   0.00  -0.18    -0.04  -0.04  -0.21    -0.05  -0.08   0.13
     7   6     0.00   0.01  -0.21    -0.02   0.00   0.09    -0.03   0.02  -0.06
     8   6     0.00   0.00   0.19    -0.09   0.06   0.04    -0.15   0.10  -0.01
     9   1     0.05   0.26  -0.37     0.17  -0.14   0.23    -0.08   0.14  -0.16
    10   1    -0.05  -0.24  -0.38    -0.15   0.17   0.24     0.12  -0.07  -0.16
    11   1    -0.01  -0.28   0.37    -0.38   0.24  -0.14    -0.07  -0.06   0.10
    12   1     0.02   0.28   0.38     0.10  -0.15  -0.15    -0.36   0.21   0.11
    13   1     0.00   0.00   0.12    -0.07   0.12   0.38    -0.12   0.22  -0.23
    14   8     0.00   0.01   0.00     0.14  -0.03  -0.04     0.14  -0.05   0.02
    15   1    -0.02   0.03   0.02     0.16  -0.13  -0.22     0.32   0.13   0.39
                      7                      8                      9
                      A                      A                      A
 Frequencies --    184.3049               239.8308               251.3534
 Red. masses --      1.1986                 2.4631                 2.5246
 Frc consts  --      0.0240                 0.0835                 0.0940
 IR Inten    --     89.5778                10.4864                 4.3690
  Atom  AN      X      Y      Z        X      Y      Z        X      Y      Z
     1   6    -0.02  -0.04   0.05     0.02   0.02  -0.08     0.02   0.06  -0.10
     2   1     0.04   0.12  -0.29    -0.07  -0.07  -0.17     0.02   0.04   0.04
     3   6    -0.01  -0.01   0.05     0.05   0.08   0.19    -0.06  -0.13   0.12
     4   6     0.00   0.01  -0.01     0.03  -0.02   0.05    -0.01   0.00   0.04
     5   8     0.01   0.02  -0.04    -0.08  -0.04  -0.04     0.15   0.03  -0.02
     6   8    -0.01   0.02  -0.03     0.09  -0.08  -0.01    -0.10   0.09   0.02
     7   6    -0.01   0.00   0.01     0.10  -0.02  -0.06    -0.12   0.03  -0.06
     8   6     0.02  -0.02   0.02    -0.03   0.08   0.01     0.04  -0.09   0.00
     9   1     0.01  -0.02   0.02     0.14   0.04  -0.09    -0.19   0.06  -0.10
    10   1    -0.05   0.01   0.02     0.15  -0.04  -0.08    -0.14  -0.04  -0.11
    11   1    -0.04   0.03  -0.03    -0.49   0.23  -0.19    -0.20   0.11  -0.18
    12   1     0.10  -0.05  -0.03     0.26  -0.13  -0.20     0.49  -0.22  -0.19
    13   1     0.01  -0.05   0.11     0.02   0.22   0.52     0.00  -0.28   0.46
    14   8     0.02  -0.03  -0.05    -0.13   0.01   0.00     0.04   0.01   0.02
    15   1    -0.08   0.45   0.80    -0.09  -0.04  -0.07     0.15  -0.13  -0.21
                     10                     11                     12
                      A                      A                      A
 Frequencies --    282.4357               313.3249               386.0644
 Red. masses --      2.7145                 6.1832                 3.5482
 Frc consts  --      0.1276                 0.3576                 0.3116
 IR Inten    --      7.5214                14.9324                12.5790
  Atom  AN      X      Y      Z        X      Y      Z        X      Y      Z
     1   6     0.05   0.12  -0.06     0.14   0.28   0.25     0.03  -0.02   0.00
     2   1    -0.06  -0.05  -0.21    -0.11  -0.19  -0.39     0.00  -0.04  -0.02
     3   6    -0.01  -0.06   0.22    -0.02  -0.10  -0.28     0.07   0.09   0.00
     4   6     0.02  -0.03   0.00     0.05  -0.07  -0.05     0.06   0.09   0.00
     5   8     0.08  -0.02  -0.06     0.17  -0.05   0.06     0.18   0.12   0.00
     6   8    -0.01   0.00  -0.15     0.00  -0.02   0.11     0.06   0.03   0.00
     7   6    -0.01   0.01   0.10     0.02   0.01  -0.05    -0.05  -0.21   0.00
     8   6     0.02  -0.01   0.01     0.05   0.00  -0.01    -0.28  -0.11   0.00
     9   1     0.12  -0.14   0.23    -0.06   0.10  -0.13    -0.10  -0.21  -0.01
    10   1    -0.13   0.15   0.23     0.11  -0.08  -0.13    -0.10  -0.22   0.00
    11   1     0.42  -0.16   0.19    -0.07   0.05  -0.07    -0.50  -0.17   0.00
    12   1    -0.32   0.14   0.20     0.22  -0.05  -0.08    -0.52  -0.17   0.02
    13   1     0.01  -0.04  -0.48     0.04  -0.05   0.18    -0.19   0.25  -0.01
    14   8    -0.13   0.01   0.00    -0.32   0.00  -0.03    -0.02   0.00   0.00
    15   1    -0.06  -0.05  -0.09    -0.42   0.11   0.14    -0.05   0.01   0.01
                     13                     14                     15
                      A                      A                      A
 Frequencies --    543.5165               557.7037               604.0939
 Red. masses --      6.4782                 1.0960                 8.1177
 Frc consts  --      1.1275                 0.2008                 1.7454
 IR Inten    --      0.0870               190.8722                41.3424
  Atom  AN      X      Y      Z        X      Y      Z        X      Y      Z
     1   6     0.21  -0.12   0.01     0.00   0.05  -0.05    -0.37   0.05  -0.01
     2   1     0.01  -0.20  -0.14     0.02  -0.32   0.61    -0.09   0.38   0.22
     3   6     0.37   0.34   0.00    -0.01   0.00   0.01    -0.17   0.42   0.01
     4   6     0.05  -0.13   0.00    -0.01  -0.01   0.00    -0.10  -0.17  -0.01
     5   8    -0.01  -0.15   0.00     0.01   0.00   0.00     0.36  -0.09   0.00
     6   8    -0.16   0.03   0.00     0.00  -0.01   0.00    -0.05  -0.21   0.00
     7   6    -0.27   0.15   0.00     0.00   0.00   0.00     0.05   0.01   0.00
     8   6    -0.05  -0.05   0.00     0.00   0.00   0.00     0.07   0.05   0.00
     9   1    -0.26   0.12   0.02     0.01   0.00   0.00     0.14   0.02   0.01
    10   1    -0.26   0.13  -0.01     0.01   0.00   0.00     0.15   0.02  -0.01
    11   1     0.18   0.02   0.01     0.01   0.00   0.00     0.15   0.07   0.00
    12   1     0.19   0.02  -0.01     0.01   0.00   0.00     0.15   0.07  -0.01
    13   1    -0.15  -0.42   0.00     0.00   0.00   0.00     0.05  -0.06   0.00
    14   8    -0.04   0.00   0.00     0.03  -0.02  -0.02     0.01  -0.01  -0.01
    15   1    -0.17   0.02   0.02    -0.68   0.15   0.14     0.33  -0.02   0.06
                     16                     17                     18
                      A                      A                      A
 Frequencies --    772.3565               817.8789               902.7319
 Red. masses --      7.6082                 1.1517                 2.3978
 Frc consts  --      2.6741                 0.4539                 1.1513
 IR Inten    --     18.1296                 0.0537                 5.7241
  Atom  AN      X      Y      Z        X      Y      Z        X      Y      Z
     1   6     0.00   0.00   0.03     0.00   0.00   0.00    -0.03   0.01   0.00
     2   1     0.02  -0.03  -0.01     0.00   0.00   0.00     0.00   0.02   0.03
     3   6    -0.01   0.00  -0.24     0.00   0.00  -0.02     0.00   0.05   0.00
     4   6     0.00  -0.01   0.68     0.00   0.00   0.06     0.01  -0.08   0.00
     5   8     0.00   0.00  -0.20     0.00   0.00  -0.02    -0.01  -0.13   0.00
     6   8     0.00   0.00  -0.15     0.00   0.00  -0.04    -0.09   0.20   0.00
     7   6     0.00   0.00  -0.06     0.00   0.00   0.07     0.07  -0.08   0.00
     8   6     0.00   0.00  -0.01     0.00   0.00   0.04     0.14  -0.01   0.00
     9   1     0.06  -0.33   0.18     0.10   0.44  -0.22    -0.18  -0.14   0.00
    10   1    -0.05   0.32   0.19    -0.11  -0.44  -0.23    -0.18  -0.12   0.01
    11   1    -0.10  -0.20   0.10     0.19   0.39  -0.18    -0.32  -0.08  -0.05
    12   1     0.11   0.20   0.11    -0.20  -0.38  -0.19    -0.32  -0.07   0.06
    13   1     0.00   0.00   0.09     0.00   0.01  -0.19     0.31   0.69   0.01
    14   8     0.00   0.00   0.00     0.00   0.00   0.00     0.00   0.00   0.00
    15   1    -0.01   0.00   0.01     0.00   0.00   0.00     0.02   0.00   0.01
                     19                     20                     21
                      A                      A                      A
 Frequencies --    959.0409              1084.4928              1150.4180
 Red. masses --      5.8108                 3.4836                 2.2676
 Frc consts  --      3.1489                 2.4140                 1.7682
 IR Inten    --      4.9212                43.2546                14.6150
  Atom  AN      X      Y      Z        X      Y      Z        X      Y      Z
     1   6    -0.19   0.07   0.00     0.06  -0.02   0.00     0.01   0.00   0.00
     2   1     0.04   0.11   0.16    -0.02  -0.03  -0.05     0.00   0.00  -0.01
     3   6    -0.12   0.01   0.00     0.04   0.02   0.00     0.00  -0.01   0.00
     4   6     0.26  -0.09   0.00    -0.12  -0.01   0.00    -0.02   0.01   0.00
     5   8    -0.05  -0.22   0.00     0.01   0.02   0.00     0.00   0.05   0.00
     6   8     0.24   0.22   0.00    -0.20   0.07   0.00     0.03  -0.11   0.00
     7   6     0.01   0.18   0.00     0.33   0.05   0.00    -0.04   0.23   0.00
     8   6    -0.20  -0.15   0.00    -0.12  -0.12   0.00     0.07  -0.18   0.00
     9   1     0.10   0.22  -0.01     0.48   0.19  -0.05     0.02   0.23   0.02
    10   1     0.09   0.22   0.02     0.48   0.19   0.05     0.01   0.25  -0.01
    11   1    -0.02  -0.15   0.03    -0.02  -0.19   0.05    -0.48  -0.23  -0.08
    12   1    -0.02  -0.16  -0.04    -0.02  -0.19  -0.06    -0.48  -0.25   0.08
    13   1    -0.31  -0.55  -0.01    -0.18  -0.37   0.00     0.20   0.39   0.00
    14   8    -0.01   0.00  -0.01     0.00   0.00   0.00     0.00   0.00   0.00
    15   1     0.10   0.01   0.04    -0.04   0.00  -0.01    -0.01   0.00  -0.01
                     22                     23                     24
                      A                      A                      A
 Frequencies --   1182.3281              1290.3329              1302.2383
 Red. masses --      1.5704                 2.4186                 1.7459
 Frc consts  --      1.2934                 2.3725                 1.7444
 IR Inten    --      4.8356               633.4429               367.5846
  Atom  AN      X      Y      Z        X      Y      Z        X      Y      Z
     1   6     0.00   0.00   0.00    -0.03   0.02  -0.01    -0.06   0.02   0.01
     2   1     0.00   0.00   0.00     0.19  -0.24   0.53    -0.19   0.27  -0.54
     3   6     0.00   0.00   0.00     0.00  -0.01   0.00    -0.03   0.01   0.00
     4   6     0.00   0.00   0.01     0.26   0.07   0.00     0.18   0.05   0.00
     5   8     0.00   0.00   0.00    -0.03   0.02   0.00    -0.02   0.00   0.00
     6   8     0.00   0.00  -0.05    -0.15  -0.09   0.00    -0.09  -0.05   0.00
     7   6     0.00   0.00   0.18     0.07   0.01   0.00     0.04   0.01   0.00
     8   6     0.00   0.00  -0.13     0.00   0.00   0.00     0.00   0.00   0.00
     9   1    -0.32   0.38  -0.13    -0.19  -0.04   0.00    -0.14  -0.03   0.00
    10   1     0.32  -0.36  -0.15    -0.17  -0.03   0.01    -0.16  -0.03   0.00
    11   1    -0.15  -0.39   0.11     0.00  -0.03   0.02     0.00  -0.03   0.02
    12   1     0.14   0.38   0.12     0.00  -0.04  -0.02     0.00  -0.02  -0.02
    13   1     0.01   0.00   0.27     0.00  -0.01   0.00    -0.01  -0.01   0.00
    14   8     0.00   0.00   0.00    -0.07   0.02  -0.04     0.08  -0.02   0.05
    15   1     0.00   0.00   0.00     0.61   0.06   0.25    -0.65  -0.06  -0.26
                     25                     26                     27
                      A                      A                      A
 Frequencies --   1308.0628              1398.6807              1437.6230
 Red. masses --      1.0893                 1.2818                 1.4711
 Frc consts  --      1.0981                 1.4774                 1.7913
 IR Inten    --      1.4472                16.0530                 9.9051
  Atom  AN      X      Y      Z        X      Y      Z        X      Y      Z
     1   6     0.00   0.00   0.00     0.01  -0.01   0.00    -0.01   0.00   0.00
     2   1     0.00   0.00   0.01     0.00  -0.01   0.01     0.00   0.01   0.00
     3   6     0.00   0.00   0.00     0.00   0.00   0.00     0.00   0.00   0.00
     4   6     0.00   0.00   0.00    -0.06  -0.01   0.00     0.06   0.00   0.00
     5   8     0.00   0.00   0.00     0.01  -0.01   0.00    -0.01   0.00   0.00
     6   8     0.00   0.00   0.04     0.03  -0.01   0.00    -0.03   0.01   0.00
     7   6     0.00   0.00   0.01     0.08   0.05   0.00    -0.10  -0.08   0.00
     8   6     0.00   0.00  -0.07     0.03   0.09   0.00     0.11   0.09   0.00
     9   1     0.65   0.16   0.01    -0.41  -0.20   0.07     0.42   0.15  -0.07
    10   1    -0.65  -0.16   0.01    -0.42  -0.19  -0.07     0.42   0.15   0.07
    11   1    -0.07  -0.19   0.04    -0.24  -0.27   0.17    -0.39  -0.15   0.05
    12   1     0.07   0.19   0.04    -0.24  -0.26  -0.17    -0.38  -0.14  -0.05
    13   1     0.00   0.00   0.10    -0.12  -0.47   0.00    -0.04  -0.45  -0.01
    14   8     0.00   0.00   0.00     0.00   0.00   0.00     0.00   0.00   0.00
    15   1     0.01   0.00   0.00     0.01   0.00   0.00    -0.01   0.00   0.00
                     28                     29                     30
                      A                      A                      A
 Frequencies --   1490.8079              1501.6591              1523.0765
 Red. masses --      1.0378                 1.0501                 1.0861
 Frc consts  --      1.3589                 1.3952                 1.4844
 IR Inten    --      8.5441                 3.3136                 7.9969
  Atom  AN      X      Y      Z        X      Y      Z        X      Y      Z
     1   6     0.00   0.00   0.00     0.00   0.00   0.00     0.00   0.00   0.00
     2   1     0.00   0.00   0.00     0.00   0.00   0.00     0.00   0.01   0.00
     3   6     0.00   0.00   0.00     0.00   0.00   0.00     0.00   0.00   0.00
     4   6     0.00   0.00   0.00     0.00   0.00   0.00     0.02   0.00   0.00
     5   8     0.00   0.00   0.00     0.00   0.00   0.00     0.00   0.00   0.00
     6   8     0.00   0.00   0.00     0.01   0.00   0.00    -0.02   0.01   0.00
     7   6     0.00   0.00  -0.02    -0.02  -0.03   0.00    -0.04   0.06   0.00
     8   6     0.00   0.01  -0.05    -0.02   0.04   0.01    -0.01   0.01   0.00
     9   1     0.00  -0.02  -0.01    -0.03   0.26  -0.18     0.29  -0.43   0.37
    10   1     0.01   0.07   0.02    -0.04   0.24   0.19     0.29  -0.42  -0.39
    11   1     0.52  -0.01   0.09     0.15  -0.43   0.34     0.09  -0.20   0.16
    12   1    -0.46  -0.11   0.00     0.28  -0.41  -0.37     0.11  -0.20  -0.17
    13   1     0.02   0.03   0.70     0.06   0.29  -0.09     0.03   0.16  -0.01
    14   8     0.00   0.00   0.00     0.00   0.00   0.00     0.00   0.00   0.00
    15   1     0.00   0.00   0.00     0.00   0.00   0.00     0.00   0.00   0.00
                     31                     32                     33
                      A                      A                      A
 Frequencies --   1840.8607              1907.0191              2275.9837
 Red. masses --     11.8348                 1.1515                 7.5854
 Frc consts  --     23.6294                 2.4673                23.1510
 IR Inten    --    339.5454               756.2221                10.2288
  Atom  AN      X      Y      Z        X      Y      Z        X      Y      Z
     1   6     0.06  -0.02   0.00    -0.02   0.00  -0.01    -0.47   0.19   0.02
     2   1    -0.13  -0.21  -0.06     0.52   0.78   0.26    -0.36  -0.47  -0.19
     3   6    -0.04   0.00   0.00     0.07  -0.03   0.00     0.53  -0.21  -0.01
     4   6    -0.15   0.76   0.01    -0.01   0.02   0.00    -0.09   0.03   0.00
     5   8     0.11  -0.51  -0.01     0.00  -0.01   0.00     0.00   0.00   0.00
     6   8    -0.02  -0.06   0.00     0.00   0.00   0.00     0.00   0.00   0.00
     7   6    -0.03   0.01   0.00     0.00   0.00   0.00     0.00   0.00   0.00
     8   6     0.01  -0.01   0.00     0.00   0.00   0.00     0.00   0.00   0.00
     9   1     0.13   0.04   0.03     0.00   0.00   0.00     0.00   0.00   0.00
    10   1     0.13   0.04  -0.04     0.00   0.00   0.00     0.00   0.00   0.00
    11   1    -0.02  -0.02   0.00     0.00   0.00   0.00     0.00   0.00   0.00
    12   1    -0.02  -0.02   0.00     0.00   0.00   0.00     0.00   0.00   0.00
    13   1     0.02   0.05   0.00     0.00   0.00   0.00     0.00   0.00   0.00
    14   8     0.01   0.01   0.00    -0.05  -0.03  -0.01     0.04   0.02   0.01
    15   1     0.07   0.01   0.02    -0.17  -0.06  -0.04     0.10   0.03   0.01
                     34                     35                     36
                      A                      A                      A
 Frequencies --   3066.6941              3078.8545              3122.4737
 Red. masses --      1.0357                 1.0580                 1.1084
 Frc consts  --      5.7391                 5.9091                 6.3672
 IR Inten    --      9.5540                11.5691                 3.5705
  Atom  AN      X      Y      Z        X      Y      Z        X      Y      Z
     1   6     0.00   0.00   0.00     0.00   0.00   0.00     0.00   0.00   0.00
     2   1     0.00   0.00   0.00     0.00   0.00   0.00     0.00   0.00   0.00
     3   6     0.00   0.00   0.00     0.00   0.00   0.00     0.00   0.00   0.00
     4   6     0.00   0.00   0.00     0.00   0.00   0.00     0.00   0.00   0.00
     5   8     0.00   0.00   0.00     0.00   0.00   0.00     0.00   0.00   0.00
     6   8     0.00   0.00   0.00     0.00   0.00   0.00     0.00   0.00   0.00
     7   6     0.00   0.01   0.00     0.02  -0.07   0.00     0.00   0.00  -0.09
     8   6    -0.03  -0.04   0.00    -0.01   0.00   0.00     0.00   0.00   0.04
     9   1     0.01  -0.03  -0.04    -0.10   0.38   0.60    -0.09   0.35   0.51
    10   1     0.01  -0.02   0.03    -0.11   0.38  -0.56     0.10  -0.38   0.52
    11   1    -0.11   0.32   0.50     0.00   0.01   0.00     0.06  -0.16  -0.24
    12   1    -0.11   0.32  -0.46     0.00   0.01  -0.01    -0.06   0.17  -0.24
    13   1     0.53  -0.15  -0.01     0.10  -0.03   0.00     0.02   0.00   0.01
    14   8     0.00   0.00   0.00     0.00   0.00   0.00     0.00   0.00   0.00
    15   1     0.00   0.00   0.00     0.00   0.00   0.00     0.00   0.00   0.00
                     37                     38                     39
                      A                      A                      A
 Frequencies --   3149.6423              3152.6475              3843.6772
 Red. masses --      1.1027                 1.1047                 1.0666
 Frc consts  --      6.4449                 6.4693                 9.2845
 IR Inten    --     13.7482                17.7407               153.6206
  Atom  AN      X      Y      Z        X      Y      Z        X      Y      Z
     1   6     0.00   0.00   0.00     0.00   0.00   0.00     0.00   0.00   0.00
     2   1     0.00   0.00   0.00     0.00   0.00   0.00    -0.03   0.00  -0.02
     3   6     0.00   0.00   0.00     0.00   0.00   0.00     0.00   0.00   0.00
     4   6     0.00   0.00   0.00     0.00   0.00   0.00     0.00   0.00   0.00
     5   8     0.00   0.00   0.00     0.00   0.00   0.00     0.00   0.00   0.00
     6   8     0.00   0.00   0.00     0.00   0.00   0.00     0.00   0.00   0.00
     7   6     0.00   0.01   0.02     0.00   0.00   0.04     0.00   0.00   0.00
     8   6    -0.07   0.05   0.03     0.03  -0.02   0.08     0.00   0.00   0.00
     9   1     0.02  -0.10  -0.14     0.03  -0.14  -0.20     0.00   0.00   0.00
    10   1    -0.01   0.04  -0.05    -0.04   0.17  -0.23     0.00   0.00   0.00
    11   1     0.09  -0.32  -0.50     0.08  -0.24  -0.35     0.00   0.00   0.00
    12   1     0.01  -0.06   0.10    -0.14   0.43  -0.60     0.00   0.00   0.00
    13   1     0.74  -0.19  -0.01    -0.30   0.08   0.02     0.00   0.00   0.00
    14   8     0.00   0.00   0.00     0.00   0.00   0.00     0.01   0.05  -0.03
    15   1     0.00   0.00   0.00     0.00   0.00   0.00    -0.12  -0.87   0.47

 -------------------
 - Thermochemistry -
 -------------------
 Temperature   298.150 Kelvin.  Pressure   1.00000 Atm.
 Atom     1 has atomic number  6 and mass  12.00000
 Atom     2 has atomic number  1 and mass   1.00783
 Atom     3 has atomic number  6 and mass  12.00000
 Atom     4 has atomic number  6 and mass  12.00000
 Atom     5 has atomic number  8 and mass  15.99491
 Atom     6 has atomic number  8 and mass  15.99491
 Atom     7 has atomic number  6 and mass  12.00000
 Atom     8 has atomic number  6 and mass  12.00000
 Atom     9 has atomic number  1 and mass   1.00783
 Atom    10 has atomic number  1 and mass   1.00783
 Atom    11 has atomic number  1 and mass   1.00783
 Atom    12 has atomic number  1 and mass   1.00783
 Atom    13 has atomic number  1 and mass   1.00783
 Atom    14 has atomic number  8 and mass  15.99491
 Atom    15 has atomic number  1 and mass   1.00783
 Molecular mass:   115.03952 amu.
 Principal axes and moments of inertia in atomic units:
                           1         2         3
     Eigenvalues --   335.995952629.165692940.20869
           X            0.99990   0.01403  -0.00312
           Y           -0.01403   0.99990   0.00031
           Z            0.00313  -0.00027   1.00000
 This molecule is an asymmetric top.
 Rotational symmetry number  1.
 Rotational temperatures (Kelvin)      0.25778     0.03294     0.02946
 Rotational constants (GHZ):           5.37132     0.68643     0.61381
    1 imaginary frequencies ignored.
 Zero-point vibrational energy     283172.5 (Joules/Mol)
                                   67.67986 (Kcal/Mol)
 Warning -- explicit consideration of  14 degrees of freedom as
           vibrations may cause significant error
 Vibrational temperatures:     69.25    80.73   103.91   173.92   177.25
          (Kelvin)            265.17   345.06   361.64   406.36   450.80
                              555.46   782.00   802.41   869.16  1111.25
                             1176.74  1298.83  1379.84  1560.34  1655.19
                             1701.10  1856.50  1873.63  1882.01  2012.39
                             2068.42  2144.94  2160.55  2191.36  2648.58
                             2743.77  3274.63  4412.28  4429.78  4492.54
                             4531.63  4535.95  5530.19
 
 Zero-point correction=                           0.107855 (Hartree/Particle)
 Thermal correction to Energy=                    0.118187
 Thermal correction to Enthalpy=                  0.119131
 Thermal correction to Gibbs Free Energy=         0.070301
 Sum of electronic and zero-point Energies=           -420.066682
 Sum of electronic and thermal Energies=              -420.056350
 Sum of electronic and thermal Enthalpies=            -420.055406
 Sum of electronic and thermal Free Energies=         -420.104236
 
                     E (Thermal)             CV                S
                      KCal/Mol        Cal/Mol-Kelvin    Cal/Mol-Kelvin
 Total                   74.163             33.196            102.772
 Electronic               0.000              0.000              1.377
 Translational            0.889              2.981             40.136
 Rotational               0.889              2.981             29.342
 Vibrational             72.386             27.235             31.917
 Vibration     1          0.595              1.978              4.893
 Vibration     2          0.596              1.975              4.589
 Vibration     3          0.598              1.967              4.092
 Vibration     4          0.609              1.932              3.086
 Vibration     5          0.610              1.930              3.050
 Vibration     6          0.631              1.861              2.284
 Vibration     7          0.657              1.779              1.804
 Vibration     8          0.663              1.760              1.721
 Vibration     9          0.681              1.706              1.519
 Vibration    10          0.701              1.648              1.345
 Vibration    11          0.755              1.500              1.015
 Vibration    12          0.899              1.154              0.558
 Vibration    13          0.913              1.123              0.528
 Vibration    14          0.963              1.023              0.443
                       Q            Log10(Q)             Ln(Q)
 Total Bot       0.461254D-32        -32.336060        -74.456530
 Total V=0       0.187743D+18         17.273564         39.773851
 Vib (Bot)       0.824276D-46        -46.083927       -106.112164
 Vib (Bot)    1  0.429568D+01          0.633032          1.457610
 Vib (Bot)    2  0.368173D+01          0.566052          1.303382
 Vib (Bot)    3  0.285493D+01          0.455595          1.049047
 Vib (Bot)    4  0.169021D+01          0.227941          0.524854
 Vib (Bot)    5  0.165754D+01          0.219463          0.505333
 Vib (Bot)    6  0.108814D+01          0.036684          0.084468
 Vib (Bot)    7  0.817643D+00         -0.087436         -0.201329
 Vib (Bot)    8  0.775984D+00         -0.110147         -0.253623
 Vib (Bot)    9  0.679850D+00         -0.167587         -0.385883
 Vib (Bot)   10  0.602335D+00         -0.220162         -0.506941
 Vib (Bot)   11  0.466335D+00         -0.331302         -0.762852
 Vib (Bot)   12  0.290529D+00         -0.536810         -1.236050
 Vib (Bot)   13  0.279306D+00         -0.553920         -1.275448
 Vib (Bot)   14  0.246138D+00         -0.608821         -1.401861
 Vib (V=0)       0.335503D+04          3.525697          8.118217
 Vib (V=0)    1  0.482468D+01          0.683469          1.573745
 Vib (V=0)    2  0.421552D+01          0.624852          1.438774
 Vib (V=0)    3  0.339838D+01          0.531272          1.223299
 Vib (V=0)    4  0.226262D+01          0.354611          0.816522
 Vib (V=0)    5  0.223131D+01          0.348560          0.802589
 Vib (V=0)    6  0.169752D+01          0.229814          0.529166
 Vib (V=0)    7  0.145841D+01          0.163878          0.377343
 Vib (V=0)    8  0.142312D+01          0.153242          0.352852
 Vib (V=0)    9  0.134392D+01          0.128373          0.295589
 Vib (V=0)   10  0.128282D+01          0.108166          0.249061
 Vib (V=0)   11  0.118372D+01          0.073248          0.168659
 Vib (V=0)   12  0.107828D+01          0.032731          0.075367
 Vib (V=0)   13  0.107272D+01          0.030488          0.070200
 Vib (V=0)   14  0.105730D+01          0.024199          0.055719
 Electronic      0.200000D+01          0.301030          0.693147
 Translational   0.484982D+08          7.685726         17.697038
 Rotational      0.576915D+06          5.761111         13.265449
 ***** Axes restored to original set *****
 -------------------------------------------------------------------
 Center     Atomic                   Forces (Hartrees/Bohr)
 Number     Number              X              Y              Z
 -------------------------------------------------------------------
      1        6           0.000000509   -0.000001903   -0.000001467
      2        1          -0.000000417   -0.000002169   -0.000003333
      3        6          -0.000000536   -0.000000869    0.000000375
      4        6           0.000001160    0.000000039    0.000002440
      5        8           0.000001267   -0.000000082    0.000005915
      6        8          -0.000000256   -0.000000164   -0.000000157
      7        6           0.000000099    0.000001310    0.000001416
      8        6          -0.000000792    0.000001803   -0.000001762
      9        1           0.000000917   -0.000001291    0.000003710
     10        1           0.000000389    0.000003821    0.000003520
     11        1          -0.000001211    0.000004186   -0.000003596
     12        1          -0.000000619   -0.000001099   -0.000003336
     13        1          -0.000000332    0.000002383   -0.000000465
     14        8          -0.000000419   -0.000004294   -0.000002510
     15        1           0.000000240   -0.000001672   -0.000000751
 -------------------------------------------------------------------
 Cartesian Forces:  Max     0.000005915 RMS     0.000002110

 GradGradGradGradGradGradGradGradGradGradGradGradGradGradGradGradGradGrad
 Berny optimization.
 Search for a local minimum.
 Step number   1 out of a maximum of    2
 All quantities printed in internal units (Hartrees-Bohrs-Radians)
 Second derivative matrix not updated -- analytic derivatives used.
 ITU=  0
     Eigenvalues ---   -0.03973   0.00053   0.00063   0.00084   0.00156
     Eigenvalues ---    0.00303   0.00342   0.00694   0.01184   0.01774
     Eigenvalues ---    0.02600   0.02953   0.03115   0.03750   0.05504
     Eigenvalues ---    0.07643   0.08530   0.08602   0.11256   0.11516
     Eigenvalues ---    0.11585   0.14873   0.15632   0.17467   0.20432
     Eigenvalues ---    0.29130   0.30836   0.36295   0.45881   0.54212
     Eigenvalues ---    0.65278   0.73426   0.79695   0.87144   0.88903
     Eigenvalues ---    0.90770   0.96455   1.72932   2.31388
 Eigenvalue     1 is  -3.97D-02 should be greater than     0.000000 Eigenvector:
                          X2        Y2        Z2        X1        Y3
   1                    0.85055  -0.38769  -0.24238  -0.12059   0.09797
                          X3        Y15       X4        Z1        Z15
   1                   -0.09197  -0.08561  -0.06749   0.06695  -0.06105
 Angle between quadratic step and forces=  71.25 degrees.
 Linear search not attempted -- first point.
 TrRot=  0.000001 -0.000027 -0.000169  0.000003 -0.000010  0.000003
 MatCor failed.
 Variable       Old X    -DE/DX   Delta X   Delta X   Delta X     New X
                                 (Linear)    (Quad)   (Total)
    X1        4.11792   0.00000   0.00000   0.00007   0.00008   4.11800
    Y1       -0.77477   0.00000   0.00000  -0.00019  -0.00019  -0.77496
    Z1       -0.11738   0.00000   0.00000  -0.00047  -0.00060  -0.11798
    X2        6.64346   0.00000   0.00000   0.00026   0.00027   6.64373
    Y2       -1.72604   0.00000   0.00000   0.00000   0.00002  -1.72602
    Z2       -0.28314   0.00000   0.00000   0.00049   0.00038  -0.28275
    X3        2.02670   0.00000   0.00000   0.00003   0.00003   2.02673
    Y3        0.13007   0.00000   0.00000  -0.00025  -0.00026   0.12981
    Z3       -0.03234   0.00000   0.00000  -0.00090  -0.00105  -0.03339
    X4       -0.53071   0.00000   0.00000   0.00005   0.00004  -0.53067
    Y4        1.16011   0.00000   0.00000  -0.00022  -0.00025   1.15986
    Z4       -0.00782   0.00000   0.00000  -0.00106  -0.00123  -0.00905
    X5       -0.97709   0.00000   0.00000   0.00010   0.00008  -0.97701
    Y5        3.38123   0.00000   0.00000  -0.00018  -0.00022   3.38101
    Z5        0.02299   0.00001   0.00000  -0.00236  -0.00254   0.02044
    X6       -2.25400   0.00000   0.00000  -0.00001   0.00000  -2.25400
    Y6       -0.66943   0.00000   0.00000  -0.00018  -0.00022  -0.66965
    Z6       -0.01918   0.00000   0.00000   0.00056   0.00037  -0.01881
    X7       -4.84935   0.00000   0.00000   0.00005   0.00005  -4.84930
    Y7        0.15926   0.00000   0.00000  -0.00002  -0.00008   0.15919
    Z7        0.01614   0.00000   0.00000   0.00159   0.00137   0.01751
    X8       -6.47635   0.00000   0.00000  -0.00018  -0.00016  -6.47651
    Y8       -2.18677   0.00000   0.00000   0.00017   0.00010  -2.18667
    Z8       -0.00768   0.00000   0.00000  -0.00029  -0.00053  -0.00821
    X9       -5.14657   0.00000   0.00000   0.00045   0.00043  -5.14615
    Y9        1.30248   0.00000   0.00000  -0.00157  -0.00163   1.30085
    Z9        1.70806   0.00000   0.00000   0.00273   0.00250   1.71057
   X10       -5.17600   0.00000   0.00000  -0.00012  -0.00011  -5.17611
   Y10        1.35763   0.00000   0.00000   0.00156   0.00150   1.35913
   Z10       -1.63158   0.00000   0.00000   0.00279   0.00257  -1.62902
   X11       -6.11708   0.00000   0.00000  -0.00102  -0.00098  -6.11807
   Y11       -3.30016   0.00000   0.00000   0.00203   0.00196  -3.29820
   Z11       -1.70435   0.00000   0.00000  -0.00169  -0.00192  -1.70628
   X12       -6.08494   0.00000   0.00000   0.00036   0.00037  -6.08457
   Y12       -3.35619   0.00000   0.00000  -0.00171  -0.00178  -3.35797
   Z12        1.64356   0.00000   0.00000  -0.00175  -0.00199   1.64157
   X13       -8.46768   0.00000   0.00000  -0.00010  -0.00009  -8.46778
   Y13       -1.65136   0.00000   0.00000   0.00037   0.00029  -1.65107
   Z13        0.02002   0.00000   0.00000   0.00111   0.00085   0.02088
   X14        8.50258   0.00000   0.00000  -0.00008  -0.00008   8.50250
   Y14       -1.14141   0.00000   0.00000   0.00048   0.00051  -1.14090
   Z14        0.16799   0.00000   0.00000   0.00122   0.00113   0.16912
   X15        8.69586   0.00000   0.00000   0.00007   0.00007   8.69593
   Y15        0.45471   0.00000   0.00000   0.00021   0.00024   0.45495
   Z15       -0.70397   0.00000   0.00000   0.00076   0.00068  -0.70330
         Item               Value     Threshold  Converged?
 Maximum Force            0.000006     0.000450     YES
 RMS     Force            0.000002     0.000300     YES
 Maximum Displacement     0.002566     0.001800     NO 
 RMS     Displacement     0.001042     0.001200     YES
 Predicted change in Energy=-1.435569D-08
 GradGradGradGradGradGradGradGradGradGradGradGradGradGradGradGradGradGrad

 1|1|UNPC-DIT|Freq|UM062X|6-311++G(d,p)|C5H7O3(2)|NDITM|27-Mar-2025|0||
 # freq 6-311++g(d,p) m062x||Title Card Required||0,2|C,2.17910843,-0.4
 0998952,-0.06211471|H,3.51556843,-0.91338052,-0.14982971|C,1.07248143,
 0.06883248,-0.01711371|C,-0.28084057,0.61390348,-0.00413771|O,-0.51705
 457,1.78926748,0.01216329|O,-1.19276457,-0.35424752,-0.01014971|C,-2.5
 6616557,0.08427848,0.00854229|C,-3.42713857,-1.15718752,-0.00406471|H,
 -2.72344957,0.68924248,0.90386729|H,-2.73902057,0.71842748,-0.86339571
 |H,-3.23702157,-1.74637152,-0.90190571|H,-3.22001257,-1.77601752,0.869
 73229|H,-4.48090557,-0.87386052,0.01059629|O,4.49937243,-0.60400952,0.
 08889429|H,4.60164943,0.24062048,-0.37252671||Version=IA32W-G09RevD.01
 |State=2-A|HF=-420.174537|S2=0.766595|S2-1=0.|S2A=0.750209|RMSD=2.900e
 -009|RMSF=2.110e-006|ZeroPoint=0.1078547|Thermal=0.1181868|Dipole=-0.5
 402398,-0.2120069,-0.3953108|DipoleDeriv=0.4261325,0.0678445,0.0498982
 ,0.0913738,-0.2700418,-0.0129156,0.0973001,-0.0139165,-0.1625609,-0.85
 83414,0.1361525,-0.0438157,-0.2660669,0.2921714,0.0294674,-0.2667678,0
 .0542307,0.2252775,-0.5940566,-0.0039266,-0.0070813,-0.1510963,0.01806
 15,0.0021343,-0.095598,0.012172,-0.0286838,2.8012171,-0.0836577,-0.033
 3313,0.5055948,1.8087149,0.0215659,0.0722769,0.0083171,0.3616975,-1.02
 47773,0.2715627,0.0108508,0.090711,-1.246749,-0.0141906,-0.0191391,-0.
 0059586,-0.3399854,-2.0304509,-0.4102048,0.0167137,-0.5889212,-0.83071
 88,-0.0012939,-0.0014617,-0.0031962,-0.2757401,1.13826,0.1154638,-0.00
 76984,-0.0460637,0.3030761,-0.0005494,-0.0092891,-0.0014634,0.3047997,
 -0.0441783,-0.0495916,0.0002817,-0.0586529,-0.0167282,-0.0010111,0.000
 0883,-0.0005635,0.0548622,-0.0579042,-0.0444219,-0.0224818,0.0386636,0
 .0057513,-0.0593646,0.021926,-0.0669934,-0.0419543,-0.0583275,-0.04393
 12,0.0222791,0.0382332,0.0011839,0.0610198,-0.0187326,0.0688874,-0.038
 7663,0.074941,0.0202631,0.0458723,-0.0303016,0.009538,-0.0519596,0.019
 6227,-0.0798512,-0.0422824,0.0739252,0.023137,-0.0472053,-0.0286395,0.
 0051845,0.0540965,-0.0228255,0.0803501,-0.0359597,-0.1095791,0.020207,
 0.0025448,0.0410213,0.0386454,-0.0010383,0.002939,-0.0009123,0.0904189
 ,-0.169223,-0.0690606,0.058455,0.0711017,-0.3359041,-0.0778851,0.37947
 87,-0.1403969,-0.3860106,0.4323625,0.050164,-0.0452818,0.2930426,0.217
 815,0.0519243,-0.1598179,0.0892947,0.3148876|Polar=139.5053777,-14.232
 943,67.7206915,-2.0986173,0.3141031,48.3283636|PG=C01 [X(C5H7O3)]|NIma
 g=1||0.94101932,-0.36838419,0.16814168,-0.02796739,0.01195418,0.016865
 15,0.05475798,-0.02524529,-0.01035586,0.01673986,0.03253665,-0.0240512
 4,-0.00360699,0.06308520,0.08027063,0.02088487,-0.00676065,-0.00895872
 ,0.03387959,0.01266337,0.02998622,-0.89370774,0.36066089,0.03087605,0.
 00828371,-0.00469380,-0.00195035,1.20645309,0.35460282,-0.16142213,-0.
 01279117,-0.01014781,0.00216078,-0.00079805,-0.43785514,0.26544070,0.0
 2646100,-0.01152141,-0.01604617,-0.00243979,0.00015685,0.00135167,-0.0
 2892686,0.01238756,0.04728837,0.00869579,-0.00475579,-0.00198777,0.009
 43470,0.00443701,0.00282053,-0.24356697,0.07368430,0.00319700,0.634257
 43,0.00989686,-0.00126639,0.00006853,0.00251660,0.00092687,0.00028684,
 0.04199257,-0.06794442,-0.00035086,-0.09768811,0.99225439,0.00327946,-
 0.00145631,0.00470637,0.00366812,0.00070171,0.00103145,-0.00339438,0.0
 0153649,-0.06806070,-0.00480450,0.01076372,0.20822396,-0.00539522,0.00
 298977,0.00071313,-0.00417160,-0.00159354,-0.00128401,-0.00902200,0.04
 295233,0.00039303,-0.13915025,0.14882808,0.00249035,0.13431336,-0.0005
 5310,0.00167262,-0.00030819,0.00306999,0.00112721,0.00095091,0.0407226
 4,-0.04126571,-0.00102800,0.13196485,-0.73346607,-0.00944544,-0.144189
 72,0.87479214,-0.00078475,0.00051061,-0.00004806,-0.00081907,-0.000162
 29,0.00002792,0.00203727,-0.00184212,0.02066197,0.00227072,-0.00944449
 ,-0.08096840,-0.00258092,0.01196475,0.03384139,-0.00022173,0.00314076,
 0.00076860,-0.00267546,-0.00138172,-0.00115699,-0.06310810,-0.02599907
 ,-0.00019258,-0.21013159,-0.10344834,-0.00006395,0.01809895,-0.0413729
 6,-0.00050066,0.51870406,0.00128596,-0.00012239,0.00004667,-0.00116653
 ,-0.00069202,-0.00032136,-0.00266753,0.00927153,0.00006981,-0.07355825
 ,-0.20506751,-0.00122015,-0.04448064,-0.09883257,-0.00138312,0.0791632
 2,0.40847499,-0.00018313,0.00015932,0.00025083,-0.00024686,-0.00007537
 ,-0.00005573,0.00081019,-0.00003552,0.01103276,0.00014818,-0.00084327,
 -0.06934432,-0.00044333,-0.00145117,0.03174319,-0.00256612,0.00384643,
 0.08120432,0.00060280,-0.00101648,-0.00026835,0.00137590,0.00065371,0.
 00049557,0.00303211,-0.00052614,0.00013720,-0.06015703,-0.02587466,0.0
 0009976,0.00175213,0.02008104,0.00018699,-0.16502802,0.03727498,0.0013
 0997,0.44107334,-0.00031675,0.00076951,0.00005047,-0.00012813,-0.00001
 542,-0.00009794,-0.00492555,-0.00290832,-0.00006972,-0.02664318,0.0164
 2639,0.00038619,-0.00396650,-0.00491518,0.00004574,0.06250981,-0.11113
 742,-0.00115711,0.01505223,0.58084579,-0.00007371,-0.00003830,-0.00027
 906,-0.00015190,-0.00004714,-0.00010531,-0.00001230,-0.00006512,0.0061
 9938,0.00017534,0.00035661,0.00165711,-0.00017723,-0.00016246,-0.00626
 523,0.00181390,-0.00096378,-0.06994144,0.00189413,-0.00097084,0.624428
 28,-0.00012280,0.00023355,0.00003031,-0.00011681,-0.00006186,-0.000062
 11,-0.00172179,-0.00109041,0.00002659,-0.00385314,0.00711303,0.0000777
 0,0.00211750,-0.00243233,-0.00003824,-0.04513383,-0.03480200,-0.000152
 33,-0.10866223,-0.05762329,-0.00080934,0.56243587,0.00010727,-0.000195
 66,-0.00002139,0.00007427,0.00005600,0.00003519,0.00084548,0.00065099,
 -0.00001838,0.00226450,-0.00416622,-0.00005363,-0.00160253,0.00169930,
 0.00001984,0.00949434,0.01278342,0.00010335,-0.07381621,-0.19218516,-0
 .00117955,-0.04109389,0.53281691,0.00002559,-0.00002900,0.00006335,0.0
 0001261,0.00000683,0.00000145,-0.00002285,0.00003937,-0.00014945,0.000
 10095,-0.00011203,-0.00002503,-0.00001915,0.00003098,0.00106526,0.0005
 5834,0.00049003,0.00173510,-0.00108416,-0.00132450,-0.08702877,-0.0007
 5188,-0.00088363,0.58509634,0.00004208,0.00001792,0.00005765,-0.000106
 75,-0.00006911,-0.00001830,-0.00063605,-0.00010124,-0.00115539,0.00318
 881,0.00894528,0.00169137,0.00065480,-0.00362248,0.00004402,-0.0264422
 3,0.02029195,0.03029869,-0.05065176,0.01431134,0.02045439,0.00424846,-
 0.01080893,-0.01782741,0.06783068,0.00005398,-0.00007612,0.00002271,0.
 00009390,0.00002319,0.00001590,0.00029246,0.00004673,-0.00017132,-0.00
 250519,-0.00002167,0.00031697,0.00027453,0.00023412,0.00024841,0.00992
 904,-0.00648670,-0.00746202,0.01809116,-0.12704585,-0.11759682,0.00265
 942,-0.01345542,-0.02174112,-0.02302643,0.13801277,-0.00010991,0.00006
 728,0.00005080,-0.00000991,-0.00001427,-0.00000938,0.00019540,0.000161
 55,-0.00048428,-0.00084745,-0.00334272,0.00054933,-0.00151429,0.001290
 65,0.00030880,0.00413957,0.00231277,0.00575083,0.02885275,-0.11863712,
 -0.23900481,-0.00124117,0.00189879,0.00291260,-0.03170723,0.13040623,0
 .24856227,0.00002767,-0.00000663,0.00002346,-0.00016265,-0.00009041,-0
 .00007203,-0.00061614,-0.00012346,0.00108212,0.00323666,0.00905599,-0.
 00140175,0.00069800,-0.00364575,-0.00012206,-0.02690560,0.02117611,-0.
 02904335,-0.05181445,0.01751303,-0.02305143,0.00459086,-0.01141254,0.0
 1743927,0.00299740,-0.00341370,0.00272199,0.06907256,0.00000836,-0.000
 03526,-0.00002453,0.00003921,0.00001084,0.00004624,0.00039445,-0.00000
 128,0.00014661,-0.00251812,-0.00013360,-0.00024773,0.00019836,0.000276
 40,-0.00025975,0.01018661,-0.00663653,0.00684139,0.02147669,-0.1355309
 6,0.12087300,0.00302959,-0.01409685,0.02116748,-0.00357298,0.01059273,
 -0.01430951,-0.02677888,0.14734140,0.00014087,-0.00009078,0.00004102,0
 .00005931,0.00003000,-0.00000121,-0.00022969,-0.00011819,-0.00049963,0
 .00073694,0.00316762,0.00064367,0.00153911,-0.00122222,0.00025168,-0.0
 0330715,-0.00307897,0.00648794,-0.03125481,0.12199630,-0.23016375,0.00
 130813,-0.00226745,0.00321540,-0.00326990,0.01540964,-0.02083084,0.033
 83628,-0.13355290,0.23868369,-0.00002835,0.00002596,0.00000355,0.00004
 210,0.00000986,0.00001064,0.00009330,0.00001493,0.00004571,-0.00034411
 ,-0.00120846,-0.00000605,-0.00041129,0.00060667,0.00010272,0.00270306,
 0.00108288,-0.00015806,0.00208784,-0.01199135,-0.01849176,-0.05563124,
 0.02710991,0.04174766,-0.00199194,-0.00322861,0.00026355,0.00049303,0.
 00097730,0.00035244,0.05649097,-0.00003622,0.00003101,0.00004300,-0.00
 003029,-0.00001233,-0.00001815,-0.00002846,-0.00000745,-0.00010099,0.0
 0019009,-0.00058758,0.00007735,-0.00047601,0.00029826,0.00020158,0.001
 34294,0.00188692,0.00107841,0.00630318,-0.01711764,-0.02570301,0.02481
 337,-0.12386282,-0.11741995,-0.00388069,-0.00326599,0.00102946,0.00070
 328,0.00072975,0.00024728,-0.02537667,0.13565973,-0.00002745,0.0000481
 8,-0.00000095,-0.00000407,-0.00001349,-0.00000354,-0.00004073,-0.00004
 362,0.00001202,-0.00014137,-0.00013032,0.00003243,0.00002483,0.0003018
 0,-0.00004873,-0.00048804,0.00020084,0.00014503,-0.00036234,0.00076869
 ,0.00125039,0.04033861,-0.11938007,-0.23473260,0.00066864,0.00038442,0
 .00147263,-0.00063917,-0.00013410,0.00076204,-0.04444303,0.13060395,0.
 24993523,-0.00003032,0.00003632,-0.00000985,0.00003748,0.00001133,0.00
 002116,0.00010259,-0.00000449,-0.00005293,-0.00034341,-0.00120526,-0.0
 0000927,-0.00042099,0.00060811,-0.00008213,0.00272335,0.00108455,0.000
 15909,0.00243542,-0.01263793,0.01806311,-0.05750650,0.03135681,-0.0439
 5024,0.00049934,0.00098547,-0.00031266,-0.00201699,-0.00323833,-0.0003
 1110,0.00021220,-0.00419667,0.00540162,0.05850168,-0.00003512,0.000040
 64,-0.00002862,-0.00003232,-0.00001569,-0.00000185,-0.00004481,-0.0000
 1885,0.00009675,0.00019850,-0.00059110,-0.00009560,-0.00048737,0.00031
 393,-0.00018465,0.00132391,0.00194529,-0.00102966,0.00675939,-0.017931
 02,0.02497350,0.02896158,-0.13236552,0.12079138,0.00067474,0.00072609,
 -0.00026110,-0.00387683,-0.00324059,-0.00111780,-0.00429721,0.01098284
 ,-0.01434649,-0.02992108,0.14498121,0.00001777,-0.00003401,-0.00000686
 ,-0.00000444,0.00001267,-0.00000344,0.00006595,0.00002458,0.00001882,0
 .00014096,0.00012922,0.00003110,-0.00003703,-0.00029654,-0.00005902,0.
 00047435,-0.00015706,0.00008623,0.00057591,-0.00116186,0.00172077,-0.0
 4258354,0.12273451,-0.22554382,0.00066566,0.00010844,0.00075225,-0.000
 73667,-0.00048108,0.00143601,-0.00593152,0.01544061,-0.01958807,0.0469
 4619,-0.13406157,0.23976456,-0.00001521,0.00006846,0.00002106,-0.00010
 788,-0.00004281,-0.00003597,-0.00031987,-0.00019615,-0.00001186,0.0006
 2397,0.00189878,0.00003066,0.00007757,-0.00084547,-0.00001568,-0.00307
 577,-0.00487919,-0.00004218,-0.01576047,0.00883220,0.00027855,-0.30066
 509,0.06749773,0.00377338,0.00035223,-0.00018451,-0.00042477,0.0003558
 4,-0.00020023,0.00041306,-0.00370483,0.00066829,-0.00028767,-0.0041858
 1,0.00076850,0.00040718,0.32640232,-0.00008565,0.00011997,0.00001626,-
 0.00004022,-0.00003174,-0.00001783,-0.00052395,-0.00039140,-0.00000343
 ,-0.00097632,0.00196927,0.00002599,0.00040964,-0.00054045,-0.00000938,
 -0.00677270,-0.00567471,-0.00004804,-0.02374192,0.01062553,0.00044686,
 0.07018514,-0.06761034,-0.00101823,0.00075721,0.00074248,-0.00060240,0
 .00077853,0.00073262,0.00061807,0.01629914,-0.00474862,0.00173733,0.01
 714692,-0.00484183,-0.00225443,-0.07344151,0.06961150,0.00000040,0.000
 00492,-0.00002066,0.00000296,-0.00000062,0.00000225,-0.00000709,-0.000
 00794,0.00001796,-0.00002103,0.00000944,0.00042162,0.00000479,-0.00000
 048,-0.00014995,-0.00007669,-0.00006288,0.00096745,-0.00028374,0.00011
 814,-0.00244032,0.00382715,-0.00097322,-0.04660125,0.00007039,0.000064
 91,-0.00004229,-0.00004935,-0.00002880,-0.00003302,0.02651308,-0.00548
 684,0.00076033,-0.02585179,0.00526214,0.00138897,-0.00412715,0.0011019
 4,0.04572868,-0.09988912,0.03227902,0.00522137,-0.08275252,-0.06664799
 ,-0.06554709,-0.00903633,0.00761779,0.00139897,0.00016002,-0.00221600,
 -0.00110919,0.00043727,0.00012457,0.00020016,-0.00080032,0.00007731,0.
 00007684,0.00018715,-0.00007718,0.00004224,-0.00005839,0.00002948,-0.0
 0000761,-0.00004100,-0.00000888,-0.00000191,-0.00003171,0.00000325,-0.
 00000647,0.00000866,-0.00000364,0.00000279,0.00001332,-0.00000265,0.00
 000037,-0.00001356,-0.00001690,-0.00000194,0.23108709,-0.02410570,0.01
 410104,0.00522998,-0.04669319,-0.05182583,-0.01454328,0.00502592,-0.00
 457684,0.00002280,-0.00083503,0.00122169,-0.00099008,-0.00019604,-0.00
 012219,0.00023922,0.00059281,0.00007647,0.00006094,-0.00014259,0.00003
 340,0.00004945,0.00004129,-0.00002721,0.00000145,0.00001872,0.00000050
 ,-0.00000067,0.00005114,0.00000966,-0.00001092,-0.00000203,0.00000315,
 0.00000838,-0.00000429,0.00000161,-0.00000699,0.00001189,0.00001716,0.
 00000016,0.09602758,0.44018982,-0.02508363,0.00637992,0.00368250,-0.01
 724355,-0.00028819,-0.02638252,0.00172647,0.00152471,-0.00112849,-0.00
 332712,-0.00030921,0.00086159,0.00148941,-0.00100993,-0.00021120,0.001
 47486,0.00038301,-0.00003370,-0.00062235,0.00011836,-0.00006840,0.0000
 7719,-0.00004528,-0.00001091,0.00006395,-0.00001970,0.00001932,0.00005
 100,-0.00005465,0.00000468,-0.00001673,0.00001859,0.00000608,-0.000022
 97,0.00000708,0.00000281,0.00004418,0.00002356,-0.00000067,0.03584805,
 -0.21554761,0.14984034,-0.00573517,-0.00004427,0.00287403,-0.00057806,
 -0.02615252,0.01201450,0.00377022,-0.00282825,0.00003779,-0.00205088,0
 .00139365,-0.00054832,0.00042178,-0.00051605,0.00010164,0.00129322,0.0
 0011719,0.00003240,-0.00047273,0.00009127,0.00004600,0.00007913,-0.000
 04569,0.00000550,0.00005593,-0.00001265,-0.00000395,0.00007553,-0.0000
 0529,-0.00000703,-0.00001941,0.00000749,-0.00000262,-0.00002135,0.0000
 1077,-0.00000113,0.00003657,0.00002259,0.,-0.03927057,-0.02979048,0.00
 554124,0.04241579,-0.00497518,0.00229272,-0.00065089,0.01460463,-0.007
 93126,0.00856065,0.00080484,0.00096567,0.00038371,-0.00325926,0.000445
 94,-0.00029947,0.00133964,-0.00127182,0.00005564,0.00129135,0.00021122
 ,0.00001232,-0.00057439,0.00008636,0.00002760,0.00006681,-0.00004141,0
 .00000095,0.00006471,-0.00002686,0.00000106,0.00007012,-0.00001833,-0.
 00000967,-0.00002232,0.00001076,-0.00000552,-0.00002147,0.00001301,0.0
 0000351,0.00004403,0.00002057,-0.00000089,-0.06718576,-0.39910244,0.20
 881933,0.05775225,0.40434586,0.00342001,0.00080606,-0.00029953,-0.0063
 4714,-0.00936307,0.00311887,-0.00112708,0.00002746,-0.00021423,0.00153
 862,-0.00024909,0.00023981,-0.00059868,0.00038534,-0.00014961,-0.00087
 744,-0.00016226,-0.00002851,0.00032348,-0.00006482,0.00004115,-0.00004
 706,0.00003092,0.00000232,-0.00003655,0.00001334,-0.00000724,-0.000038
 32,0.00001834,0.00000232,0.00000781,-0.00001129,-0.00000228,0.00001174
 ,-0.00000351,-0.00000030,-0.00002278,-0.00001628,0.00000090,0.02388342
 ,0.22548719,-0.12658143,-0.02009005,-0.21689832,0.12387774||-0.0000005
 1,0.00000190,0.00000147,0.00000042,0.00000217,0.00000333,0.00000054,0.
 00000087,-0.00000037,-0.00000116,-0.00000004,-0.00000244,-0.00000127,0
 .00000008,-0.00000591,0.00000026,0.00000016,0.00000016,-0.00000010,-0.
 00000131,-0.00000142,0.00000079,-0.00000180,0.00000176,-0.00000092,0.0
 0000129,-0.00000371,-0.00000039,-0.00000382,-0.00000352,0.00000121,-0.
 00000419,0.00000360,0.00000062,0.00000110,0.00000334,0.00000033,-0.000
 00238,0.00000046,0.00000042,0.00000429,0.00000251,-0.00000024,0.000001
 67,0.00000075|||@


 IT IS BY LOGIC THAT WE PROVE, BUT BY INTUITION THAT WE DISCOVER.
     -- J.H.POINCARE (1854-1912)
 Job cpu time:       0 days  0 hours 19 minutes 43.0 seconds.
 File lengths (MBytes):  RWF=    152 Int=      0 D2E=      0 Chk=      9 Scr=      1
 Normal termination of Gaussian 09 at Thu Mar 27 14:23:21 2025.
