 Entering Link 1 = C:\G09W\l1.exe PID=      1428.
  
 Copyright (c) 1988,1990,1992,1993,1995,1998,2003,2009,2013,
            Gaussian, Inc.  All Rights Reserved.
  
 This is part of the Gaussian(R) 09 program.  It is based on
 the Gaussian(R) 03 system (copyright 2003, Gaussian, Inc.),
 the Gaussian(R) 98 system (copyright 1998, Gaussian, Inc.),
 the Gaussian(R) 94 system (copyright 1995, Gaussian, Inc.),
 the Gaussian 92(TM) system (copyright 1992, Gaussian, Inc.),
 the Gaussian 90(TM) system (copyright 1990, Gaussian, Inc.),
 the Gaussian 88(TM) system (copyright 1988, Gaussian, Inc.),
 the Gaussian 86(TM) system (copyright 1986, Carnegie Mellon
 University), and the Gaussian 82(TM) system (copyright 1983,
 Carnegie Mellon University). Gaussian is a federally registered
 trademark of Gaussian, Inc.
  
 This software contains proprietary and confidential information,
 including trade secrets, belonging to Gaussian, Inc.
  
 This software is provided under written license and may be
 used, copied, transmitted, or stored only in accord with that
 written license.
  
 The following legend is applicable only to US Government
 contracts under FAR:
  
                    RESTRICTED RIGHTS LEGEND
  
 Use, reproduction and disclosure by the US Government is
 subject to restrictions as set forth in subparagraphs (a)
 and (c) of the Commercial Computer Software - Restricted
 Rights clause in FAR 52.227-19.
  
 Gaussian, Inc.
 340 Quinnipiac St., Bldg. 40, Wallingford CT 06492
  
  
 ---------------------------------------------------------------
 Warning -- This program may not be used in any manner that
 competes with the business of Gaussian, Inc. or will provide
 assistance to any competitor of Gaussian, Inc.  The licensee
 of this program is prohibited from giving any competitor of
 Gaussian, Inc. access to this program.  By using this program,
 the user acknowledges that Gaussian, Inc. is engaged in the
 business of creating and licensing software in the field of
 computational chemistry and represents and warrants to the
 licensee that it is not a competitor of Gaussian, Inc. and that
 it will not use this program in any manner prohibited above.
 ---------------------------------------------------------------
  

 Cite this work as:
 Gaussian 09, Revision D.01,
 M. J. Frisch, G. W. Trucks, H. B. Schlegel, G. E. Scuseria, 
 M. A. Robb, J. R. Cheeseman, G. Scalmani, V. Barone, B. Mennucci, 
 G. A. Petersson, H. Nakatsuji, M. Caricato, X. Li, H. P. Hratchian, 
 A. F. Izmaylov, J. Bloino, G. Zheng, J. L. Sonnenberg, M. Hada, 
 M. Ehara, K. Toyota, R. Fukuda, J. Hasegawa, M. Ishida, T. Nakajima, 
 Y. Honda, O. Kitao, H. Nakai, T. Vreven, J. A. Montgomery, Jr., 
 J. E. Peralta, F. Ogliaro, M. Bearpark, J. J. Heyd, E. Brothers, 
 K. N. Kudin, V. N. Staroverov, T. Keith, R. Kobayashi, J. Normand, 
 K. Raghavachari, A. Rendell, J. C. Burant, S. S. Iyengar, J. Tomasi, 
 M. Cossi, N. Rega, J. M. Millam, M. Klene, J. E. Knox, J. B. Cross, 
 V. Bakken, C. Adamo, J. Jaramillo, R. Gomperts, R. E. Stratmann, 
 O. Yazyev, A. J. Austin, R. Cammi, C. Pomelli, J. W. Ochterski, 
 R. L. Martin, K. Morokuma, V. G. Zakrzewski, G. A. Voth, 
 P. Salvador, J. J. Dannenberg, S. Dapprich, A. D. Daniels, 
 O. Farkas, J. B. Foresman, J. V. Ortiz, J. Cioslowski, 
 and D. J. Fox, Gaussian, Inc., Wallingford CT, 2013.
 
 ******************************************
 Gaussian 09:  IA32W-G09RevD.01 24-Apr-2013
                27-Mar-2025 
 ******************************************
 %chk=ethyl_propiolate.chk
 %nprocshared=4
 Will use up to    4 processors via shared memory.
 %mem=1700MB
 --------------------------
 # freq 6-311++g(d,p) m062x
 --------------------------
 1/10=4,30=1,38=1/1,3;
 2/12=2,17=6,18=5,40=1/2;
 3/5=4,6=6,7=1111,11=2,16=1,25=1,30=1,71=2,74=-55,140=1/1,2,3;
 4//1;
 5/5=2,38=5,98=1/2;
 8/6=4,10=90,11=11/1;
 11/6=1,8=1,9=11,15=111,16=1/1,2,10;
 10/6=1/2;
 6/7=2,8=2,9=2,10=2,18=1,28=1/1;
 7/8=1,10=1,25=1/1,2,3,16;
 1/10=4,30=1/3;
 99//99;
 -------------------
 Title Card Required
 -------------------
 Symbolic Z-matrix:
 Charge =  0 Multiplicity = 2
 C                     2.17176  -0.4073   -0.05934 
 H                     3.66959  -1.02075  -0.23833 
 C                     1.06702   0.07277  -0.01584 
 C                    -0.28354   0.61446  -0.00484 
 O                    -0.51783   1.78995   0.01229 
 O                    -1.19373  -0.35426  -0.01026 
 C                    -2.56677   0.08422   0.00859 
 C                    -3.42739  -1.15725  -0.00411 
 H                    -2.72387   0.68903   0.90403 
 H                    -2.73958   0.71855  -0.86324 
 H                    -3.23722  -1.74627  -0.90206 
 H                    -3.22009  -1.77612   0.86962 
 H                    -4.48119  -0.87414   0.01064 
 O                     4.50477  -0.60234   0.09321 
 H                     4.58666   0.22679  -0.39295 
 

 GradGradGradGradGradGradGradGradGradGradGradGradGradGradGradGradGradGrad
 Berny optimization.
 Initialization pass.
 Trust Radius=3.00D-01 FncErr=1.00D-07 GrdErr=1.00D-07
 Number of steps in this run=      2 maximum allowed number of steps=      2.
 GradGradGradGradGradGradGradGradGradGradGradGradGradGradGradGradGradGrad

                          Input orientation:                          
 ---------------------------------------------------------------------
 Center     Atomic      Atomic             Coordinates (Angstroms)
 Number     Number       Type             X           Y           Z
 ---------------------------------------------------------------------
      1          6           0        2.171763   -0.407300   -0.059343
      2          1           0        3.669589   -1.020748   -0.238331
      3          6           0        1.067016    0.072772   -0.015844
      4          6           0       -0.283539    0.614457   -0.004841
      5          8           0       -0.517831    1.789945    0.012285
      6          8           0       -1.193730   -0.354259   -0.010260
      7          6           0       -2.566773    0.084215    0.008586
      8          6           0       -3.427385   -1.157253   -0.004108
      9          1           0       -2.723873    0.689031    0.904034
     10          1           0       -2.739582    0.718548   -0.863239
     11          1           0       -3.237224   -1.746267   -0.902058
     12          1           0       -3.220090   -1.776118    0.869621
     13          1           0       -4.481190   -0.874144    0.010635
     14          8           0        4.504774   -0.602341    0.093208
     15          1           0        4.586663    0.226793   -0.392950
 ---------------------------------------------------------------------
                    Distance matrix (angstroms):
                    1          2          3          4          5
     1  C    0.000000
     2  H    1.628446   0.000000
     3  C    1.205333   2.831726   0.000000
     4  C    2.659975   4.284348   1.455178   0.000000
     5  O    3.473749   5.049484   2.336924   1.198732   0.000000
     6  O    3.366269   4.914071   2.300730   1.329243   2.248323
     7  C    4.764444   6.338306   3.633889   2.344034   2.666025
     8  C    5.649419   7.102150   4.659693   3.608701   4.141467
     9  H    5.108551   6.716003   3.949277   2.605157   2.621803
    10  H    5.102459   6.670317   3.952884   2.603811   2.617367
    11  H    5.635614   6.976459   4.756129   3.886164   4.553671
    12  H    5.639922   7.018961   4.752023   3.886240   4.555660
    13  H    6.669679   8.155898   5.628494   4.453813   4.775520
    14  O    2.346114   0.991220   3.505118   4.941473   5.563824
    15  H    2.518950   1.556050   3.543141   4.900998   5.353832
                    6          7          8          9         10
     6  O    0.000000
     7  C    1.441479   0.000000
     8  C    2.373616   1.510648   0.000000
     9  H    2.065363   1.091929   2.174492   0.000000
    10  H    2.065949   1.091934   2.174812   1.767589   0.000000
    11  H    2.628471   2.151614   1.090602   3.075089   2.514849
    12  H    2.627167   2.151521   1.090581   2.514831   3.075232
    13  H    3.328380   2.140899   1.091271   2.515918   2.516649
    14  O    5.704840   7.105301   7.952141   7.387721   7.425647
    15  H    5.822114   7.166115   8.141974   7.439070   7.357776
                   11         12         13         14         15
    11  H    0.000000
    12  H    1.772013   0.000000
    13  H    1.772303   1.772509   0.000000
    14  O    7.889084   7.852012   8.990453   0.000000
    15  H    8.084885   8.157888   9.143353   0.964634   0.000000
 Stoichiometry    C5H7O3(2)
 Framework group  C1[X(C5H7O3)]
 Deg. of freedom    39
 Full point group                 C1      NOp   1
 Largest Abelian subgroup         C1      NOp   1
 Largest concise Abelian subgroup C1      NOp   1
                         Standard orientation:                         
 ---------------------------------------------------------------------
 Center     Atomic      Atomic             Coordinates (Angstroms)
 Number     Number       Type             X           Y           Z
 ---------------------------------------------------------------------
      1          6           0       -2.238445   -0.373496    0.052477
      2          1           0       -3.737236   -0.985127    0.229599
      3          6           0       -1.132998    0.105088    0.010400
      4          6           0        0.218326    0.644883    0.001061
      5          8           0        0.454286    1.820066   -0.013973
      6          8           0        1.127146   -0.325124    0.005375
      7          6           0        2.500817    0.111442   -0.011967
      8          6           0        3.359669   -1.131260   -0.000860
      9          1           0        2.659276    0.717528   -0.906316
     10          1           0        2.674028    0.744075    0.861012
     11          1           0        3.168170   -1.721501    0.895999
     12          1           0        3.151995   -1.748373   -0.875737
     13          1           0        4.413881   -0.849614   -0.014538
     14          8           0       -4.571643   -0.564989   -0.101711
     15          1           0       -4.652637    0.263448    0.385783
 ---------------------------------------------------------------------
 Rotational constants (GHZ):      5.3572523      0.6850943      0.6126487
 Standard basis: 6-311++G(d,p) (5D, 7F)
 There are   233 symmetry adapted cartesian basis functions of A   symmetry.
 There are   225 symmetry adapted basis functions of A   symmetry.
   225 basis functions,   351 primitive gaussians,   233 cartesian basis functions
    31 alpha electrons       30 beta electrons
       nuclear repulsion energy       330.8965569758 Hartrees.
 NAtoms=   15 NActive=   15 NUniq=   15 SFac= 1.00D+00 NAtFMM=   60 NAOKFM=F Big=F
 Integral buffers will be    262144 words long.
 Raffenetti 2 integral format.
 Two-electron integral symmetry is turned on.
 One-electron integrals computed using PRISM.
 NBasis=   225 RedAO= T EigKep=  3.98D-06  NBF=   225
 NBsUse=   224 1.00D-06 EigRej=  3.17D-07 NBFU=   224
 ExpMin= 3.60D-02 ExpMax= 8.59D+03 ExpMxC= 1.30D+03 IAcc=3 IRadAn=         5 AccDes= 0.00D+00
 Harris functional with IExCor= 1009 and IRadAn=       5 diagonalized for initial guess.
 HarFok:  IExCor= 1009 AccDes= 0.00D+00 IRadAn=         5 IDoV= 1 UseB2=F ITyADJ=14
 ICtDFT=  3500011 ScaDFX=  1.000000  1.000000  1.000000  1.000000
 FoFCou: FMM=F IPFlag=           0 FMFlag=      100000 FMFlg1=           0
         NFxFlg=           0 DoJE=T BraDBF=F KetDBF=T FulRan=T
         wScrn=  0.000000 ICntrl=     500 IOpCl=  0 I1Cent=   200000004 NGrid=           0
         NMat0=    1 NMatS0=      1 NMatT0=    0 NMatD0=    1 NMtDS0=    0 NMtDT0=    0
 Petite list used in FoFCou.
 Initial guess <Sx>= 0.0000 <Sy>= 0.0000 <Sz>= 0.5000 <S**2>= 0.7500 S= 0.5000
 Requested convergence on RMS density matrix=1.00D-08 within 128 cycles.
 Requested convergence on MAX density matrix=1.00D-06.
 Requested convergence on             energy=1.00D-06.
 No special actions if energy rises.
 Restarting incremental Fock formation.
 SCF Done:  E(UM062X) =  -420.176278621     A.U. after   24 cycles
            NFock= 24  Conv=0.28D-08     -V/T= 2.0032
 <Sx>= 0.0000 <Sy>= 0.0000 <Sz>= 0.5000 <S**2>= 0.7717 S= 0.5108
 <L.S>= 0.000000000000E+00
 Annihilation of the first spin contaminant:
 S**2 before annihilation     0.7717,   after     0.7504
 DoSCS=F DFT=T ScalE2(SS,OS)=  1.000000  1.000000
 Range of M.O.s used for correlation:     1   224
 NBasis=   225 NAE=    31 NBE=    30 NFC=     0 NFV=     0
 NROrb=    224 NOA=    31 NOB=    30 NVA=   193 NVB=   194

 **** Warning!!: The largest alpha MO coefficient is  0.16655285D+03


 **** Warning!!: The largest beta MO coefficient is  0.16232749D+03

 Symmetrizing basis deriv contribution to polar:
 IMax=3 JMax=2 DiffMx= 0.00D+00
 G2DrvN: will do    16 centers at a time, making    1 passes.
 Calling FoFCou, ICntrl=  3107 FMM=F I1Cent=   0 AccDes= 0.00D+00.
 End of G2Drv F.D. properties file   721 does not exist.
 End of G2Drv F.D. properties file   722 does not exist.
 End of G2Drv F.D. properties file   788 does not exist.
          IDoAtm=111111111111111
          Differentiating once with respect to electric field.
                with respect to dipole field.
          Differentiating once with respect to nuclear coordinates.
          There are    48 degrees of freedom in the 1st order CPHF.  IDoFFX=6 NUNeed=     3.
     48 vectors produced by pass  0 Test12= 2.46D-14 2.08D-09 XBig12= 1.30D+02 3.84D+00.
 AX will form    48 AO Fock derivatives at one time.
     45 vectors produced by pass  1 Test12= 2.46D-14 2.08D-09 XBig12= 2.70D+01 1.11D+00.
     45 vectors produced by pass  2 Test12= 2.46D-14 2.08D-09 XBig12= 1.34D+00 1.79D-01.
     45 vectors produced by pass  3 Test12= 2.46D-14 2.08D-09 XBig12= 2.44D-02 3.69D-02.
     45 vectors produced by pass  4 Test12= 2.46D-14 2.08D-09 XBig12= 4.53D-04 3.66D-03.
     45 vectors produced by pass  5 Test12= 2.46D-14 2.08D-09 XBig12= 5.36D-06 3.03D-04.
     39 vectors produced by pass  6 Test12= 2.46D-14 2.08D-09 XBig12= 5.24D-08 1.97D-05.
     21 vectors produced by pass  7 Test12= 2.46D-14 2.08D-09 XBig12= 4.11D-10 1.86D-06.
      6 vectors produced by pass  8 Test12= 2.46D-14 2.08D-09 XBig12= 4.13D-12 2.42D-07.
      5 vectors produced by pass  9 Test12= 2.46D-14 2.08D-09 XBig12= 1.98D-13 9.76D-08.
      4 vectors produced by pass 10 Test12= 2.46D-14 2.08D-09 XBig12= 1.88D-14 1.89D-08.
      4 vectors produced by pass 11 Test12= 2.46D-14 2.08D-09 XBig12= 1.49D-15 5.64D-09.
      4 vectors produced by pass 12 Test12= 2.46D-14 2.08D-09 XBig12= 9.72D-16 4.30D-09.
      4 vectors produced by pass 13 Test12= 2.46D-14 2.08D-09 XBig12= 1.09D-15 4.87D-09.
      4 vectors produced by pass 14 Test12= 2.46D-14 2.08D-09 XBig12= 1.05D-15 4.29D-09.
      3 vectors produced by pass 15 Test12= 2.46D-14 2.08D-09 XBig12= 6.99D-16 3.72D-09.
      3 vectors produced by pass 16 Test12= 2.46D-14 2.08D-09 XBig12= 4.72D-16 2.65D-09.
      2 vectors produced by pass 17 Test12= 2.46D-14 2.08D-09 XBig12= 3.96D-16 2.63D-09.
      1 vectors produced by pass 18 Test12= 2.46D-14 2.08D-09 XBig12= 3.54D-16 2.38D-09.
 InvSVY:  IOpt=1 It=  1 EMax= 8.88D-15
 Solved reduced A of dimension   373 with    48 vectors.
 Isotropic polarizability for W=    0.000000       84.14 Bohr**3.
 End of Minotr F.D. properties file   721 does not exist.
 End of Minotr F.D. properties file   722 does not exist.
 End of Minotr F.D. properties file   788 does not exist.

 **********************************************************************

            Population analysis using the SCF density.

 **********************************************************************

 Orbital symmetries:
 Alpha Orbitals:
       Occupied  (A) (A) (A) (A) (A) (A) (A) (A) (A) (A) (A) (A)
                 (A) (A) (A) (A) (A) (A) (A) (A) (A) (A) (A) (A)
                 (A) (A) (A) (A) (A) (A) (A)
       Virtual   (A) (A) (A) (A) (A) (A) (A) (A) (A) (A) (A) (A)
                 (A) (A) (A) (A) (A) (A) (A) (A) (A) (A) (A) (A)
                 (A) (A) (A) (A) (A) (A) (A) (A) (A) (A) (A) (A)
                 (A) (A) (A) (A) (A) (A) (A) (A) (A) (A) (A) (A)
                 (A) (A) (A) (A) (A) (A) (A) (A) (A) (A) (A) (A)
                 (A) (A) (A) (A) (A) (A) (A) (A) (A) (A) (A) (A)
                 (A) (A) (A) (A) (A) (A) (A) (A) (A) (A) (A) (A)
                 (A) (A) (A) (A) (A) (A) (A) (A) (A) (A) (A) (A)
                 (A) (A) (A) (A) (A) (A) (A) (A) (A) (A) (A) (A)
                 (A) (A) (A) (A) (A) (A) (A) (A) (A) (A) (A) (A)
                 (A) (A) (A) (A) (A) (A) (A) (A) (A) (A) (A) (A)
                 (A) (A) (A) (A) (A) (A) (A) (A) (A) (A) (A) (A)
                 (A) (A) (A) (A) (A) (A) (A) (A) (A) (A) (A) (A)
                 (A) (A) (A) (A) (A) (A) (A) (A) (A) (A) (A) (A)
                 (A) (A) (A) (A) (A) (A) (A) (A) (A) (A) (A) (A)
                 (A) (A) (A) (A) (A) (A) (A) (A) (A) (A) (A) (A)
                 (A)
 Beta  Orbitals:
       Occupied  (A) (A) (A) (A) (A) (A) (A) (A) (A) (A) (A) (A)
                 (A) (A) (A) (A) (A) (A) (A) (A) (A) (A) (A) (A)
                 (A) (A) (A) (A) (A) (A)
       Virtual   (A) (A) (A) (A) (A) (A) (A) (A) (A) (A) (A) (A)
                 (A) (A) (A) (A) (A) (A) (A) (A) (A) (A) (A) (A)
                 (A) (A) (A) (A) (A) (A) (A) (A) (A) (A) (A) (A)
                 (A) (A) (A) (A) (A) (A) (A) (A) (A) (A) (A) (A)
                 (A) (A) (A) (A) (A) (A) (A) (A) (A) (A) (A) (A)
                 (A) (A) (A) (A) (A) (A) (A) (A) (A) (A) (A) (A)
                 (A) (A) (A) (A) (A) (A) (A) (A) (A) (A) (A) (A)
                 (A) (A) (A) (A) (A) (A) (A) (A) (A) (A) (A) (A)
                 (A) (A) (A) (A) (A) (A) (A) (A) (A) (A) (A) (A)
                 (A) (A) (A) (A) (A) (A) (A) (A) (A) (A) (A) (A)
                 (A) (A) (A) (A) (A) (A) (A) (A) (A) (A) (A) (A)
                 (A) (A) (A) (A) (A) (A) (A) (A) (A) (A) (A) (A)
                 (A) (A) (A) (A) (A) (A) (A) (A) (A) (A) (A) (A)
                 (A) (A) (A) (A) (A) (A) (A) (A) (A) (A) (A) (A)
                 (A) (A) (A) (A) (A) (A) (A) (A) (A) (A) (A) (A)
                 (A) (A) (A) (A) (A) (A) (A) (A) (A) (A) (A) (A)
                 (A) (A)
 The electronic state is 2-A.
 Alpha  occ. eigenvalues --  -19.68968 -19.67666 -19.63863 -10.71233 -10.61115
 Alpha  occ. eigenvalues --  -10.60863 -10.57853 -10.54448  -1.26429  -1.18518
 Alpha  occ. eigenvalues --   -1.17085  -0.91417  -0.88065  -0.77997  -0.70284
 Alpha  occ. eigenvalues --   -0.67038  -0.65384  -0.59815  -0.58227  -0.54959
 Alpha  occ. eigenvalues --   -0.52155  -0.50031  -0.47611  -0.46522  -0.44620
 Alpha  occ. eigenvalues --   -0.44013  -0.42196  -0.40179  -0.39239  -0.38397
 Alpha  occ. eigenvalues --   -0.37169
 Alpha virt. eigenvalues --   -0.02214  -0.00471   0.00003   0.01935   0.02036
 Alpha virt. eigenvalues --    0.02428   0.03229   0.05044   0.05494   0.06039
 Alpha virt. eigenvalues --    0.06644   0.07393   0.08219   0.09284   0.09963
 Alpha virt. eigenvalues --    0.10770   0.12181   0.12476   0.12652   0.13593
 Alpha virt. eigenvalues --    0.14224   0.14538   0.15350   0.15760   0.16591
 Alpha virt. eigenvalues --    0.17048   0.18032   0.19029   0.20186   0.20341
 Alpha virt. eigenvalues --    0.20593   0.22284   0.22781   0.23289   0.23416
 Alpha virt. eigenvalues --    0.25339   0.26379   0.27134   0.28081   0.29331
 Alpha virt. eigenvalues --    0.30192   0.31044   0.31463   0.31998   0.32216
 Alpha virt. eigenvalues --    0.33614   0.36284   0.36959   0.37782   0.39240
 Alpha virt. eigenvalues --    0.42480   0.43441   0.45449   0.47578   0.49571
 Alpha virt. eigenvalues --    0.52625   0.54209   0.56269   0.57106   0.58412
 Alpha virt. eigenvalues --    0.61181   0.63261   0.64661   0.68005   0.68791
 Alpha virt. eigenvalues --    0.68993   0.69163   0.70062   0.70788   0.72009
 Alpha virt. eigenvalues --    0.74275   0.74715   0.76431   0.80795   0.81699
 Alpha virt. eigenvalues --    0.89706   0.90139   0.93596   0.97180   1.01614
 Alpha virt. eigenvalues --    1.03135   1.04987   1.06034   1.11976   1.15458
 Alpha virt. eigenvalues --    1.16198   1.16559   1.18093   1.18342   1.21276
 Alpha virt. eigenvalues --    1.22783   1.23530   1.28816   1.29539   1.30200
 Alpha virt. eigenvalues --    1.31317   1.34136   1.38258   1.39263   1.44752
 Alpha virt. eigenvalues --    1.49555   1.49723   1.50822   1.55970   1.57634
 Alpha virt. eigenvalues --    1.57699   1.60023   1.60856   1.61703   1.62385
 Alpha virt. eigenvalues --    1.63343   1.66115   1.68831   1.70456   1.70596
 Alpha virt. eigenvalues --    1.76286   1.77015   1.83992   1.84986   1.89503
 Alpha virt. eigenvalues --    1.91994   1.96394   2.01411   2.02914   2.09648
 Alpha virt. eigenvalues --    2.12598   2.15107   2.19894   2.23990   2.27039
 Alpha virt. eigenvalues --    2.34732   2.36469   2.41119   2.48657   2.50393
 Alpha virt. eigenvalues --    2.51086   2.53985   2.58229   2.62040   2.63928
 Alpha virt. eigenvalues --    2.65218   2.66919   2.69836   2.70307   2.78290
 Alpha virt. eigenvalues --    2.80186   2.80717   2.86814   2.89111   2.96303
 Alpha virt. eigenvalues --    2.96947   2.99182   3.02592   3.04002   3.08662
 Alpha virt. eigenvalues --    3.12024   3.14057   3.17864   3.27426   3.28464
 Alpha virt. eigenvalues --    3.30232   3.35270   3.37212   3.43094   3.53729
 Alpha virt. eigenvalues --    3.64909   3.70672   3.73559   3.83384   3.85103
 Alpha virt. eigenvalues --    3.85151   3.89722   3.99238   4.09908   4.13125
 Alpha virt. eigenvalues --    4.29498   5.10878   5.11143   5.15551   5.31663
 Alpha virt. eigenvalues --    5.40407   5.44979   5.66131   5.73010   5.94046
 Alpha virt. eigenvalues --   23.42662  23.91653  23.93812  24.04891  24.91991
 Alpha virt. eigenvalues --   49.95310  49.99634  50.10210
  Beta  occ. eigenvalues --  -19.68980 -19.67014 -19.63862 -10.71210 -10.61116
  Beta  occ. eigenvalues --  -10.59628 -10.57735 -10.54448  -1.26438  -1.17091
  Beta  occ. eigenvalues --   -1.16177  -0.90850  -0.86820  -0.77272  -0.69831
  Beta  occ. eigenvalues --   -0.65632  -0.64227  -0.59861  -0.58204  -0.52217
  Beta  occ. eigenvalues --   -0.50811  -0.49845  -0.47599  -0.44648  -0.44004
  Beta  occ. eigenvalues --   -0.42886  -0.39586  -0.39350  -0.36796  -0.36226
  Beta virt. eigenvalues --   -0.15356  -0.00948  -0.00400   0.00319   0.01953
  Beta virt. eigenvalues --    0.02038   0.02615   0.03474   0.05487   0.06106
  Beta virt. eigenvalues --    0.06370   0.06711   0.07626   0.08348   0.09225
  Beta virt. eigenvalues --    0.10096   0.10950   0.12322   0.12557   0.12853
  Beta virt. eigenvalues --    0.13615   0.14390   0.14645   0.15648   0.15979
  Beta virt. eigenvalues --    0.16664   0.17392   0.18144   0.19164   0.20246
  Beta virt. eigenvalues --    0.20379   0.20756   0.22258   0.22853   0.23315
  Beta virt. eigenvalues --    0.23463   0.25318   0.26417   0.27184   0.28222
  Beta virt. eigenvalues --    0.29678   0.30304   0.31350   0.31545   0.32208
  Beta virt. eigenvalues --    0.32303   0.33723   0.36428   0.37049   0.37890
  Beta virt. eigenvalues --    0.39399   0.42633   0.43574   0.45451   0.47954
  Beta virt. eigenvalues --    0.49917   0.52633   0.54362   0.56423   0.57500
  Beta virt. eigenvalues --    0.58830   0.61416   0.63597   0.65170   0.68010
  Beta virt. eigenvalues --    0.68803   0.68995   0.69247   0.70024   0.70995
  Beta virt. eigenvalues --    0.71967   0.74314   0.76430   0.78908   0.80839
  Beta virt. eigenvalues --    0.81813   0.89681   0.90151   0.93842   0.98069
  Beta virt. eigenvalues --    1.01780   1.03222   1.05277   1.06541   1.12844
  Beta virt. eigenvalues --    1.15646   1.16755   1.17515   1.18387   1.18896
  Beta virt. eigenvalues --    1.21558   1.22977   1.23680   1.28834   1.29742
  Beta virt. eigenvalues --    1.31075   1.31422   1.34259   1.38687   1.39923
  Beta virt. eigenvalues --    1.45455   1.49557   1.50262   1.51079   1.56467
  Beta virt. eigenvalues --    1.57662   1.57732   1.60967   1.61569   1.62256
  Beta virt. eigenvalues --    1.63023   1.64215   1.66284   1.68807   1.70528
  Beta virt. eigenvalues --    1.70827   1.76310   1.76992   1.84399   1.85112
  Beta virt. eigenvalues --    1.89502   1.92222   1.96881   2.01415   2.03273
  Beta virt. eigenvalues --    2.09879   2.12658   2.15521   2.19912   2.24723
  Beta virt. eigenvalues --    2.27084   2.35019   2.36792   2.41701   2.48661
  Beta virt. eigenvalues --    2.50356   2.50717   2.53983   2.58231   2.62068
  Beta virt. eigenvalues --    2.64016   2.65236   2.67021   2.68602   2.70883
  Beta virt. eigenvalues --    2.79353   2.81141   2.81185   2.87135   2.89203
  Beta virt. eigenvalues --    2.96151   2.96942   3.00303   3.04195   3.04685
  Beta virt. eigenvalues --    3.09607   3.12004   3.15011   3.18564   3.27425
  Beta virt. eigenvalues --    3.28717   3.30845   3.35762   3.37574   3.43031
  Beta virt. eigenvalues --    3.55615   3.64994   3.71008   3.74487   3.83380
  Beta virt. eigenvalues --    3.85103   3.85152   3.90756   3.99514   4.09911
  Beta virt. eigenvalues --    4.13118   4.29495   5.10960   5.12892   5.15472
  Beta virt. eigenvalues --    5.31714   5.42197   5.44973   5.67137   5.72972
  Beta virt. eigenvalues --    5.94034  23.43486  23.91661  23.93841  24.04891
  Beta virt. eigenvalues --   24.92969  49.94641  49.99637  50.10223
          Condensed to atoms (all electrons):
               1          2          3          4          5          6
     1  C    6.282059   0.032862  -1.709769   2.055167  -0.089721  -0.066965
     2  H    0.032862   0.332241  -0.116182   0.075186  -0.000368  -0.000230
     3  C   -1.709769  -0.116182  17.032676  -9.545219   0.338900  -0.235919
     4  C    2.055167   0.075186  -9.545219  13.740702   0.108902  -0.020438
     5  O   -0.089721  -0.000368   0.338900   0.108902   8.036647  -0.127342
     6  O   -0.066965  -0.000230  -0.235919  -0.020438  -0.127342   8.429137
     7  C    0.055130   0.001880  -0.569126   0.087630  -0.037703   0.279327
     8  C    0.056538   0.000665  -0.380551   0.327440   0.009997  -0.186398
     9  H   -0.001168  -0.000003   0.004722  -0.010546  -0.012267  -0.036172
    10  H   -0.000663   0.000062   0.000426  -0.006066  -0.012181  -0.036174
    11  H   -0.001273  -0.000030   0.013279  -0.006501  -0.001107  -0.009320
    12  H   -0.000940  -0.000044   0.010795  -0.003683  -0.001251  -0.009769
    13  H   -0.000438   0.000004   0.001475  -0.002465   0.001662   0.024029
    14  O   -0.013174   0.332683  -0.030326   0.017545   0.000053   0.000147
    15  H    0.026267  -0.036473  -0.008435   0.007710  -0.000083  -0.000050
               7          8          9         10         11         12
     1  C    0.055130   0.056538  -0.001168  -0.000663  -0.001273  -0.000940
     2  H    0.001880   0.000665  -0.000003   0.000062  -0.000030  -0.000044
     3  C   -0.569126  -0.380551   0.004722   0.000426   0.013279   0.010795
     4  C    0.087630   0.327440  -0.010546  -0.006066  -0.006501  -0.003683
     5  O   -0.037703   0.009997  -0.012267  -0.012181  -0.001107  -0.001251
     6  O    0.279327  -0.186398  -0.036172  -0.036174  -0.009320  -0.009769
     7  C    5.502812   0.088244   0.433265   0.429909  -0.025758  -0.029452
     8  C    0.088244   5.614355  -0.057501  -0.054418   0.389992   0.393814
     9  H    0.433265  -0.057501   0.534580  -0.051884   0.006856  -0.009809
    10  H    0.429909  -0.054418  -0.051884   0.536846  -0.010050   0.006866
    11  H   -0.025758   0.389992   0.006856  -0.010050   0.538258  -0.038625
    12  H   -0.029452   0.393814  -0.009809   0.006866  -0.038625   0.536548
    13  H   -0.044209   0.403929  -0.004288  -0.004380  -0.032363  -0.032279
    14  O    0.000167   0.000070   0.000011  -0.000004  -0.000004   0.000002
    15  H   -0.000038  -0.000013   0.000006  -0.000005   0.000000   0.000002
              13         14         15
     1  C   -0.000438  -0.013174   0.026267
     2  H    0.000004   0.332683  -0.036473
     3  C    0.001475  -0.030326  -0.008435
     4  C   -0.002465   0.017545   0.007710
     5  O    0.001662   0.000053  -0.000083
     6  O    0.024029   0.000147  -0.000050
     7  C   -0.044209   0.000167  -0.000038
     8  C    0.403929   0.000070  -0.000013
     9  H   -0.004288   0.000011   0.000006
    10  H   -0.004380  -0.000004  -0.000005
    11  H   -0.032363  -0.000004   0.000000
    12  H   -0.032279   0.000002   0.000002
    13  H    0.523327   0.000000  -0.000001
    14  O    0.000000   7.720939   0.300246
    15  H   -0.000001   0.300246   0.434368
          Atomic-Atomic Spin Densities.
               1          2          3          4          5          6
     1  C    0.884277  -0.034069  -0.149076   0.148765   0.002429   0.005135
     2  H   -0.034069  -0.013950  -0.020358   0.015138   0.000041   0.000010
     3  C   -0.149076  -0.020358   1.509533  -1.099199  -0.015219   0.005943
     4  C    0.148765   0.015138  -1.099199   0.737370   0.014438  -0.004944
     5  O    0.002429   0.000041  -0.015219   0.014438  -0.005112   0.003019
     6  O    0.005135   0.000010   0.005943  -0.004944   0.003019  -0.010052
     7  C   -0.001573  -0.000154   0.008699  -0.000964  -0.000091  -0.000454
     8  C    0.013296   0.000195  -0.073367   0.046718  -0.000929   0.002137
     9  H   -0.000755  -0.000013   0.005415  -0.003126   0.000290  -0.000444
    10  H   -0.000485  -0.000011   0.003046  -0.001683   0.000176  -0.000282
    11  H   -0.000131  -0.000003   0.000940  -0.000486   0.000000  -0.000004
    12  H   -0.000011   0.000001   0.000368  -0.000222   0.000005  -0.000054
    13  H   -0.000182  -0.000002   0.001502  -0.000739   0.000040  -0.000099
    14  O   -0.083340   0.017026  -0.056159   0.030255   0.000087   0.000056
    15  H   -0.002155   0.000870   0.001926  -0.001813  -0.000043   0.000003
               7          8          9         10         11         12
     1  C   -0.001573   0.013296  -0.000755  -0.000485  -0.000131  -0.000011
     2  H   -0.000154   0.000195  -0.000013  -0.000011  -0.000003   0.000001
     3  C    0.008699  -0.073367   0.005415   0.003046   0.000940   0.000368
     4  C   -0.000964   0.046718  -0.003126  -0.001683  -0.000486  -0.000222
     5  O   -0.000091  -0.000929   0.000290   0.000176   0.000000   0.000005
     6  O   -0.000454   0.002137  -0.000444  -0.000282  -0.000004  -0.000054
     7  C    0.005230  -0.015058   0.000290   0.000244   0.000442   0.000312
     8  C   -0.015058   0.030845  -0.001571  -0.000678  -0.000765  -0.000406
     9  H    0.000290  -0.001571  -0.000485   0.000241  -0.000027   0.000056
    10  H    0.000244  -0.000678   0.000241  -0.000615   0.000059  -0.000025
    11  H    0.000442  -0.000765  -0.000027   0.000059  -0.000106   0.000055
    12  H    0.000312  -0.000406   0.000056  -0.000025   0.000055  -0.000058
    13  H    0.001100  -0.001843   0.000034   0.000027   0.000043   0.000013
    14  O    0.000210   0.000055   0.000001   0.000000   0.000001   0.000000
    15  H   -0.000005  -0.000016   0.000001   0.000001   0.000000   0.000000
              13         14         15
     1  C   -0.000182  -0.083340  -0.002155
     2  H   -0.000002   0.017026   0.000870
     3  C    0.001502  -0.056159   0.001926
     4  C   -0.000739   0.030255  -0.001813
     5  O    0.000040   0.000087  -0.000043
     6  O   -0.000099   0.000056   0.000003
     7  C    0.001100   0.000210  -0.000005
     8  C   -0.001843   0.000055  -0.000016
     9  H    0.000034   0.000001   0.000001
    10  H    0.000027   0.000000   0.000001
    11  H    0.000043   0.000001   0.000000
    12  H    0.000013   0.000000   0.000000
    13  H    0.000126  -0.000001   0.000000
    14  O   -0.000001   0.347713   0.005065
    15  H    0.000000   0.005065  -0.011081
 Mulliken charges and spin densities:
               1          2
     1  C   -0.623912   0.782124
     2  H    0.377747  -0.035280
     3  C    1.193253   0.123994
     4  C   -0.825364  -0.120494
     5  O   -0.214138  -0.000871
     6  O   -0.003865  -0.000030
     7  C   -0.172079  -0.001773
     8  C   -0.606164  -0.001385
     9  H    0.204197  -0.000093
    10  H    0.201717   0.000015
    11  H    0.176645   0.000017
    12  H    0.177825   0.000034
    13  H    0.165996   0.000019
    14  O   -0.328356   0.260970
    15  H    0.276498  -0.007247
 Sum of Mulliken charges =   0.00000   1.00000
 Mulliken charges and spin densities with hydrogens summed into heavy atoms:
               1          2
     1  C   -0.623912   0.782124
     3  C    1.193253   0.123994
     4  C   -0.825364  -0.120494
     5  O   -0.214138  -0.000871
     6  O   -0.003865  -0.000030
     7  C    0.233835  -0.001850
     8  C   -0.085698  -0.001316
    14  O    0.325889   0.218443
 APT charges:
               1
     1  C    0.042011
     2  H    0.089553
     3  C   -0.163578
     4  C    1.618742
     5  O   -0.860189
     6  O   -1.034378
     7  C    0.577812
     8  C   -0.001223
     9  H   -0.030929
    10  H   -0.031641
    11  H    0.013921
    12  H    0.014318
    13  H    0.006704
    14  O   -0.549338
    15  H    0.308217
 Sum of APT charges =   0.00000
 APT charges with hydrogens summed into heavy atoms:
               1
     1  C    0.042011
     3  C   -0.163578
     4  C    1.618742
     5  O   -0.860189
     6  O   -1.034378
     7  C    0.515241
     8  C    0.033719
    14  O   -0.151568
 Electronic spatial extent (au):  <R**2>=           1764.3910
 Charge=              0.0000 electrons
 Dipole moment (field-independent basis, Debye):
    X=              1.6176    Y=             -0.7167    Z=              1.1947  Tot=              2.1348
 Quadrupole moment (field-independent basis, Debye-Ang):
   XX=            -39.0949   YY=            -53.5555   ZZ=            -47.2901
   XY=             -5.2481   XZ=             -5.7633   YZ=             -0.0239
 Traceless Quadrupole moment (field-independent basis, Debye-Ang):
   XX=              7.5520   YY=             -6.9087   ZZ=             -0.6433
   XY=             -5.2481   XZ=             -5.7633   YZ=             -0.0239
 Octapole moment (field-independent basis, Debye-Ang**2):
  XXX=             25.6207  YYY=            -10.4034  ZZZ=              0.1520  XYY=             -4.7648
  XXY=             25.6235  XXZ=             26.0109  XZZ=              1.7818  YZZ=              1.9289
  YYZ=              0.3677  XYZ=              0.2533
 Hexadecapole moment (field-independent basis, Debye-Ang**3):
 XXXX=          -1897.8773 YYYY=           -296.4286 ZZZZ=            -62.1026 XXXY=           -135.4583
 XXXZ=           -119.5880 YYYX=              3.4986 YYYZ=              0.4422 ZZZX=             -2.1642
 ZZZY=              0.1336 XXYY=           -359.6478 XXZZ=           -331.2260 YYZZ=            -53.1830
 XXYZ=              0.2748 YYXZ=             -1.4246 ZZXY=              0.8581
 N-N= 3.308965569758D+02 E-N=-1.645959170234D+03  KE= 4.188501220977D+02
  Exact polarizability: 134.837  13.560  68.642  -2.694  -0.445  48.950
 Approx polarizability: 114.718  17.436  84.552  -1.408  -0.658  57.530
                          Isotropic Fermi Contact Couplings
        Atom                 a.u.       MegaHertz       Gauss      10(-4) cm-1
     1  C(13)              0.82687     929.55488     331.68828     310.06613
     2  H(1)              -0.01571     -70.24250     -25.06427     -23.43038
     3  C(13)              0.13183     148.20208      52.88218      49.43489
     4  C(13)              0.01393      15.66152       5.58842       5.22412
     5  O(17)             -0.00160       0.97126       0.34657       0.32398
     6  O(17)             -0.00843       5.11164       1.82396       1.70506
     7  C(13)             -0.00066      -0.74284      -0.26506      -0.24778
     8  C(13)             -0.00002      -0.02423      -0.00865      -0.00808
     9  H(1)              -0.00011      -0.47136      -0.16819      -0.15723
    10  H(1)              -0.00006      -0.27122      -0.09678      -0.09047
    11  H(1)               0.00000       0.00124       0.00044       0.00041
    12  H(1)               0.00001       0.02382       0.00850       0.00795
    13  H(1)              -0.00001      -0.05185      -0.01850      -0.01730
    14  O(17)              0.05455     -33.06892     -11.79981     -11.03060
    15  H(1)              -0.00454     -20.29777      -7.24275      -6.77061
 --------------------------------------------------------
       Center         ----  Spin Dipole Couplings  ----
                      3XX-RR        3YY-RR        3ZZ-RR
 --------------------------------------------------------
     1   Atom        0.552549     -0.274857     -0.277692
     2   Atom        0.109266     -0.036879     -0.072387
     3   Atom        0.116932      0.026570     -0.143502
     4   Atom        0.014463     -0.008442     -0.006021
     5   Atom        0.077432      0.002557     -0.079988
     6   Atom        0.006002      0.009731     -0.015733
     7   Atom        0.000516     -0.000086     -0.000430
     8   Atom        0.001029     -0.000566     -0.000463
     9   Atom        0.001299     -0.000614     -0.000685
    10   Atom        0.001302     -0.000605     -0.000697
    11   Atom        0.001069     -0.000536     -0.000532
    12   Atom        0.001052     -0.000538     -0.000515
    13   Atom        0.000682     -0.000351     -0.000331
    14   Atom        1.306923     -0.621134     -0.685789
    15   Atom       -0.003751      0.025761     -0.022010
 --------------------------------------------------------
                        XY            XZ            YZ
 --------------------------------------------------------
     1   Atom        0.170879      0.059899      0.021311
     2   Atom       -0.029953      0.040602     -0.040391
     3   Atom        0.201262     -0.052570     -0.069349
     4   Atom        0.012556      0.001391      0.001552
     5   Atom        0.016969      0.043191      0.003030
     6   Atom       -0.001789      0.003117     -0.007899
     7   Atom       -0.000025      0.000124      0.000099
     8   Atom       -0.000016     -0.000023      0.000004
     9   Atom        0.000403     -0.000309      0.000070
    10   Atom        0.000383      0.000240     -0.000033
    11   Atom       -0.000278      0.000211     -0.000016
    12   Atom       -0.000277     -0.000232      0.000025
    13   Atom       -0.000027     -0.000010      0.000002
    14   Atom        0.346522     -0.086341     -0.002389
    15   Atom       -0.019166     -0.013998      0.047331
 --------------------------------------------------------


 ---------------------------------------------------------------------------------
              Anisotropic Spin Dipole Couplings in Principal Axis System
 ---------------------------------------------------------------------------------

       Atom             a.u.   MegaHertz   Gauss  10(-4) cm-1        Axes

              Baa    -0.3117   -41.821   -14.923   -13.950 -0.1652  0.9400 -0.2985
     1 C(13)  Bbb    -0.2794   -37.487   -13.376   -12.504 -0.1261  0.2801  0.9517
              Bcc     0.5910    79.307    28.299    26.454  0.9782  0.1948  0.0722
 
              Baa    -0.1004   -53.587   -19.121   -17.875 -0.0948  0.5017  0.8598
     2 H(1)   Bbb    -0.0265   -14.125    -5.040    -4.712  0.3189  0.8335 -0.4512
              Bcc     0.1269    67.712    24.161    22.586  0.9430 -0.2314  0.2390
 
              Baa    -0.1716   -23.023    -8.215    -7.680 -0.1819  0.4843  0.8558
     3 C(13)  Bbb    -0.1227   -16.472    -5.878    -5.494  0.6232 -0.6164  0.4813
              Bcc     0.2943    39.495    14.093    13.174  0.7606  0.6209 -0.1897
 
              Baa    -0.0141    -1.889    -0.674    -0.630 -0.3960  0.9120 -0.1073
     4 C(13)  Bbb    -0.0061    -0.814    -0.290    -0.272 -0.1095  0.0691  0.9916
              Bcc     0.0201     2.703     0.964     0.902  0.9117  0.4044  0.0725
 
              Baa    -0.0911     6.590     2.352     2.198 -0.2496  0.0139  0.9683
     5 O(17)  Bbb    -0.0007     0.053     0.019     0.018 -0.1798  0.9819 -0.0604
              Bcc     0.0918    -6.644    -2.371    -2.216  0.9515  0.1891  0.2425
 
              Baa    -0.0182     1.320     0.471     0.440 -0.1038  0.2641  0.9589
     6 O(17)  Bbb     0.0053    -0.382    -0.136    -0.128  0.9288  0.3707 -0.0016
              Bcc     0.0130    -0.938    -0.335    -0.313 -0.3559  0.8904 -0.2837
 
              Baa    -0.0005    -0.063    -0.023    -0.021 -0.1264 -0.2538  0.9590
     7 C(13)  Bbb    -0.0001    -0.008    -0.003    -0.003 -0.0120  0.9670  0.2543
              Bcc     0.0005     0.071     0.025     0.024  0.9919 -0.0206  0.1253
 
              Baa    -0.0006    -0.076    -0.027    -0.025  0.0095  0.9991 -0.0406
     8 C(13)  Bbb    -0.0005    -0.062    -0.022    -0.021  0.0158  0.0404  0.9991
              Bcc     0.0010     0.138     0.049     0.046  0.9998 -0.0102 -0.0154
 
              Baa    -0.0008    -0.448    -0.160    -0.149  0.2265 -0.6343  0.7391
     9 H(1)   Bbb    -0.0006    -0.310    -0.110    -0.103 -0.0522  0.7499  0.6595
              Bcc     0.0014     0.758     0.270     0.253  0.9726  0.1880 -0.1367
 
              Baa    -0.0008    -0.417    -0.149    -0.139 -0.1974  0.5778  0.7919
    10 H(1)   Bbb    -0.0006    -0.331    -0.118    -0.110 -0.0834  0.7950 -0.6009
              Bcc     0.0014     0.747     0.267     0.249  0.9768  0.1847  0.1087
 
              Baa    -0.0006    -0.317    -0.113    -0.106  0.2034  0.8533 -0.4800
    11 H(1)   Bbb    -0.0005    -0.293    -0.104    -0.098 -0.0281  0.4952  0.8683
              Bcc     0.0011     0.609     0.217     0.203  0.9787 -0.1631  0.1247
 
              Baa    -0.0006    -0.314    -0.112    -0.105  0.2010  0.9275  0.3152
    12 H(1)   Bbb    -0.0005    -0.290    -0.103    -0.097  0.0780 -0.3359  0.9387
              Bcc     0.0011     0.604     0.215     0.201  0.9765 -0.1641 -0.1398
 
              Baa    -0.0004    -0.188    -0.067    -0.063  0.0247  0.9938 -0.1082
    13 H(1)   Bbb    -0.0003    -0.177    -0.063    -0.059  0.0122  0.1079  0.9941
              Bcc     0.0007     0.364     0.130     0.122  0.9996 -0.0258 -0.0094
 
              Baa    -0.6985    50.542    18.035    16.859  0.1344 -0.5774  0.8054
    14 O(17)  Bbb    -0.6724    48.652    17.360    16.229 -0.1140  0.7983  0.5913
              Bcc     1.3709   -99.195   -35.395   -33.088  0.9843  0.1713 -0.0415
 
              Baa    -0.0512   -27.331    -9.752    -9.117  0.0444 -0.5152  0.8559
    15 H(1)   Bbb    -0.0120    -6.416    -2.290    -2.140  0.9418  0.3072  0.1361
              Bcc     0.0633    33.747    12.042    11.257 -0.3331  0.8001  0.4989
 

 ---------------------------------------------------------------------------------

 Calling FoFJK, ICntrl=    100127 FMM=F ISym2X=0 I1Cent= 0 IOpClX= 1 NMat=1 NMatS=1 NMatT=0.
 Full mass-weighted force constant matrix:
 Low frequencies --- -445.2479 -100.6494  -54.1416  -29.9569  -17.7598  -13.2660
 Low frequencies ---   -0.0005   -0.0001    0.0008
 ******    3 imaginary frequencies (negative Signs) ****** 
 Diagonal vibrational polarizability:
      176.2727928     272.4069113     129.5480756
 Harmonic frequencies (cm**-1), IR intensities (KM/Mole), Raman scattering
 activities (A**4/AMU), depolarization ratios for plane and unpolarized
 incident light, reduced masses (AMU), force constants (mDyne/A),
 and normal coordinates:
                      1                      2                      3
                      A                      A                      A
 Frequencies --   -445.2401               -98.6044               -52.9389
 Red. masses --      1.0374                 1.7579                 7.8062
 Frc consts  --      0.1212                 0.0101                 0.0129
 IR Inten    --    142.7446                43.4540                 1.9095
  Atom  AN      X      Y      Z        X      Y      Z        X      Y      Z
     1   6    -0.01  -0.03   0.03    -0.02   0.11   0.15     0.05  -0.33   0.36
     2   1     0.66   0.49  -0.56     0.00  -0.32  -0.48    -0.16   0.04   0.12
     3   6    -0.02   0.00   0.00     0.00   0.05   0.07    -0.02  -0.16   0.18
     4   6     0.00   0.00   0.00     0.01   0.02   0.01    -0.06  -0.08   0.04
     5   8    -0.01   0.00   0.00     0.03   0.01  -0.03    -0.13  -0.06  -0.06
     6   8    -0.01   0.00   0.00    -0.01   0.00   0.01     0.00  -0.02   0.03
     7   6     0.00   0.00   0.00     0.00  -0.02  -0.04    -0.02   0.06  -0.10
     8   6     0.00   0.00   0.00    -0.01  -0.03  -0.01     0.05   0.11  -0.06
     9   1     0.00   0.00   0.00    -0.01  -0.05  -0.06    -0.12   0.00  -0.16
    10   1     0.00   0.00   0.00     0.03   0.01  -0.06     0.00   0.14  -0.16
    11   1     0.00   0.00   0.00     0.00   0.01   0.02     0.15   0.17   0.00
    12   1     0.00   0.00   0.00    -0.03  -0.06   0.02     0.02   0.03   0.00
    13   1     0.00   0.00   0.00    -0.01  -0.04  -0.04     0.03   0.17  -0.16
    14   8     0.00  -0.01   0.02     0.00  -0.05  -0.11     0.13   0.32  -0.25
    15   1    -0.02   0.07  -0.10    -0.04  -0.47   0.60     0.18   0.34  -0.27
                      4                      5                      6
                      A                      A                      A
 Frequencies --     57.5268                71.7258                95.2990
 Red. masses --      2.0575                 2.6966                 4.6840
 Frc consts  --      0.0040                 0.0082                 0.0251
 IR Inten    --     32.0905                 3.5741                 7.6304
  Atom  AN      X      Y      Z        X      Y      Z        X      Y      Z
     1   6    -0.02   0.10   0.13    -0.01   0.03   0.03    -0.12   0.23  -0.06
     2   1     0.04   0.24   0.41     0.01   0.07   0.11    -0.14   0.21  -0.08
     3   6     0.00   0.06   0.07     0.00   0.01   0.02     0.03  -0.12   0.06
     4   6     0.01   0.04   0.03     0.00   0.00   0.01     0.04  -0.13   0.07
     5   8     0.04   0.03  -0.02     0.01   0.00   0.16    -0.01  -0.12  -0.01
     6   8    -0.01   0.01   0.05     0.00   0.00  -0.17     0.09  -0.09   0.12
     7   6     0.00  -0.03  -0.01     0.00  -0.01  -0.21     0.05   0.04  -0.07
     8   6    -0.04  -0.05  -0.08     0.00   0.00   0.17     0.20   0.15  -0.05
     9   1    -0.03  -0.02  -0.01     0.04  -0.25  -0.37    -0.12  -0.03  -0.15
    10   1     0.06  -0.05  -0.01    -0.04   0.23  -0.37     0.09   0.15  -0.15
    11   1    -0.02  -0.07  -0.08    -0.01   0.27   0.35     0.42   0.23   0.05
    12   1    -0.10  -0.03  -0.08     0.01  -0.27   0.36     0.15   0.02   0.05
    13   1    -0.03  -0.09  -0.12     0.00   0.00   0.10     0.16   0.28  -0.24
    14   8     0.03  -0.14  -0.08     0.00  -0.03  -0.01    -0.25   0.03  -0.03
    15   1    -0.16   0.23  -0.74    -0.04   0.07  -0.18    -0.29   0.10  -0.16
                      7                      8                      9
                      A                      A                      A
 Frequencies --    107.8923               189.8689               237.6113
 Red. masses --      2.9610                 6.3682                 2.0103
 Frc consts  --      0.0203                 0.1353                 0.0669
 IR Inten    --      1.9731                81.1046                 3.0985
  Atom  AN      X      Y      Z        X      Y      Z        X      Y      Z
     1   6     0.06  -0.11  -0.21     0.20  -0.26   0.07    -0.01   0.01  -0.12
     2   1     0.04  -0.09  -0.14    -0.37   0.04  -0.25     0.04  -0.01  -0.01
     3   6     0.00   0.04   0.08     0.08   0.02   0.10    -0.01   0.03   0.24
     4   6     0.00   0.05   0.11     0.08   0.10   0.00    -0.01  -0.01   0.06
     5   8     0.01   0.05  -0.01     0.03   0.11  -0.03     0.03  -0.02  -0.06
     6   8    -0.02   0.04   0.21     0.09   0.11  -0.07    -0.02  -0.03  -0.03
     7   6    -0.01  -0.01  -0.13     0.12   0.01   0.00    -0.03  -0.01  -0.06
     8   6    -0.06  -0.05  -0.05    -0.03  -0.10   0.01     0.01   0.03   0.01
     9   1    -0.17  -0.21  -0.29     0.23   0.02   0.02    -0.04  -0.03  -0.07
    10   1     0.19   0.16  -0.30     0.14  -0.04   0.03    -0.05   0.03  -0.08
    11   1     0.15   0.18   0.15    -0.26  -0.16  -0.07    -0.39  -0.19  -0.22
    12   1    -0.34  -0.26   0.16     0.02   0.01  -0.07     0.45   0.22  -0.23
    13   1    -0.05  -0.11  -0.41     0.01  -0.25   0.20     0.01   0.08   0.58
    14   8     0.03  -0.01  -0.01    -0.44  -0.03  -0.03     0.03   0.00   0.00
    15   1     0.14  -0.05   0.08    -0.25   0.08  -0.20     0.07   0.02  -0.03
                     10                     11                     12
                      A                      A                      A
 Frequencies --    248.0955               282.3407               385.5024
 Red. masses --      5.2036                 2.2300                 3.5739
 Frc consts  --      0.1887                 0.1047                 0.3129
 IR Inten    --      2.8241                 2.7535                 9.9651
  Atom  AN      X      Y      Z        X      Y      Z        X      Y      Z
     1   6     0.08  -0.17   0.04    -0.01   0.02  -0.09     0.03   0.02   0.00
     2   1    -0.09  -0.03   0.00     0.02  -0.01  -0.02     0.01   0.02  -0.03
     3   6    -0.10   0.26  -0.04     0.00  -0.01   0.23     0.07  -0.10   0.00
     4   6     0.00   0.02  -0.02     0.00   0.00   0.00     0.06  -0.09   0.00
     5   8     0.30  -0.04   0.01    -0.02   0.00  -0.06     0.18  -0.12   0.00
     6   8    -0.16  -0.15  -0.01     0.00   0.00  -0.16     0.05  -0.04   0.00
     7   6    -0.18  -0.05   0.03     0.01   0.00   0.11    -0.05   0.21   0.00
     8   6     0.10   0.16   0.00     0.00  -0.01   0.01    -0.28   0.11   0.00
     9   1    -0.24   0.01   0.07     0.14   0.16   0.24    -0.11   0.21  -0.01
    10   1    -0.28  -0.04   0.05    -0.12  -0.15   0.24    -0.11   0.22   0.00
    11   1     0.43   0.16   0.07     0.39   0.16   0.20    -0.50   0.17   0.00
    12   1     0.15   0.04   0.07    -0.40  -0.16   0.21    -0.51   0.17   0.02
    13   1     0.01   0.47  -0.20    -0.01  -0.02  -0.51    -0.19  -0.24  -0.01
    14   8    -0.07  -0.02   0.00     0.01   0.00   0.00    -0.01   0.00   0.00
    15   1    -0.02   0.03  -0.08     0.05   0.02  -0.03    -0.01   0.00   0.00
                     13                     14                     15
                      A                      A                      A
 Frequencies --    443.0106               534.4274               601.1400
 Red. masses --      1.0614                 6.5531                11.1904
 Frc consts  --      0.1227                 1.1027                 2.3826
 IR Inten    --    145.4043                 0.4946                52.5154
  Atom  AN      X      Y      Z        X      Y      Z        X      Y      Z
     1   6    -0.01   0.04   0.03     0.21   0.12   0.00     0.43   0.12   0.00
     2   1    -0.08  -0.35  -0.33     0.04   0.13  -0.05    -0.04   0.08  -0.03
     3   6     0.01  -0.01  -0.01     0.36  -0.35   0.01     0.22   0.48  -0.01
     4   6     0.00   0.00   0.00     0.04   0.14   0.00     0.12  -0.20   0.01
     5   8    -0.01   0.00   0.00    -0.01   0.15  -0.01    -0.44  -0.10   0.00
     6   8    -0.01   0.00   0.00    -0.17  -0.03   0.00     0.05  -0.26   0.00
     7   6    -0.01   0.00   0.00    -0.27  -0.15   0.00    -0.07   0.00   0.00
     8   6     0.00   0.00   0.00    -0.05   0.04   0.00    -0.09   0.06   0.00
     9   1    -0.01   0.00   0.00    -0.26  -0.13   0.02    -0.19   0.02  -0.01
    10   1    -0.01   0.00   0.00    -0.27  -0.13  -0.01    -0.19   0.03   0.01
    11   1     0.00   0.00   0.00     0.19  -0.02   0.01    -0.18   0.08  -0.01
    12   1     0.01   0.00   0.00     0.20  -0.02  -0.01    -0.18   0.08   0.01
    13   1     0.00   0.01   0.00    -0.15   0.43   0.00    -0.07  -0.05   0.00
    14   8    -0.03  -0.02   0.02    -0.02   0.01   0.00    -0.01  -0.01   0.00
    15   1     0.78   0.25  -0.30    -0.16  -0.05   0.07    -0.08   0.01  -0.05
                     16                     17                     18
                      A                      A                      A
 Frequencies --    768.3112               818.0411               903.2844
 Red. masses --      8.0234                 1.1428                 2.3669
 Frc consts  --      2.7905                 0.4506                 1.1378
 IR Inten    --     17.0987                 0.1289                 5.8916
  Atom  AN      X      Y      Z        X      Y      Z        X      Y      Z
     1   6     0.00   0.00   0.03     0.00   0.00   0.00     0.03   0.01   0.00
     2   1     0.01   0.00  -0.01     0.00   0.00   0.00     0.00   0.00   0.00
     3   6     0.00   0.00  -0.24     0.00   0.00   0.02     0.00   0.04   0.00
     4   6     0.00   0.01   0.70     0.00   0.00  -0.05    -0.01  -0.08   0.00
     5   8     0.00   0.00  -0.20     0.00   0.00   0.02     0.01  -0.12   0.00
     6   8     0.00   0.00  -0.16     0.00   0.00   0.04     0.09   0.19   0.00
     7   6     0.00   0.00  -0.06     0.00   0.00  -0.07    -0.07  -0.08   0.00
     8   6     0.00   0.00  -0.01     0.00   0.00  -0.04    -0.14  -0.01   0.00
     9   1     0.07   0.32   0.17    -0.10   0.44   0.22     0.18  -0.14   0.00
    10   1    -0.06  -0.31   0.18     0.11  -0.44   0.23     0.18  -0.13  -0.01
    11   1    -0.09   0.19   0.10    -0.19   0.39   0.18     0.32  -0.08   0.05
    12   1     0.10  -0.19   0.10     0.20  -0.38   0.19     0.32  -0.07  -0.06
    13   1     0.00   0.00   0.09     0.00   0.01   0.19    -0.31   0.69  -0.01
    14   8     0.00   0.00   0.00     0.00   0.00   0.00     0.00   0.00   0.00
    15   1     0.02  -0.01   0.02     0.00   0.00   0.00     0.00   0.00  -0.01
                     19                     20                     21
                      A                      A                      A
 Frequencies --    962.3643              1085.8522              1150.8140
 Red. masses --      6.2226                 3.5099                 2.2695
 Frc consts  --      3.3955                 2.4383                 1.7709
 IR Inten    --      8.3004                40.6348                14.4727
  Atom  AN      X      Y      Z        X      Y      Z        X      Y      Z
     1   6    -0.20  -0.08   0.00     0.06   0.03   0.00    -0.01   0.00   0.00
     2   1     0.01  -0.03   0.04     0.00   0.01  -0.01     0.00   0.00   0.00
     3   6    -0.13  -0.02   0.00     0.04  -0.02   0.00     0.00  -0.01   0.00
     4   6     0.26   0.10   0.00    -0.12   0.01   0.00     0.02   0.01   0.00
     5   8    -0.05   0.23   0.00     0.01  -0.02   0.00     0.00   0.05   0.00
     6   8     0.24  -0.24   0.00    -0.20  -0.07   0.00    -0.03  -0.11   0.00
     7   6     0.01  -0.18   0.00     0.33  -0.05   0.00     0.04   0.23   0.00
     8   6    -0.20   0.16   0.00    -0.12   0.12   0.00    -0.08  -0.18   0.00
     9   1     0.10  -0.23  -0.01     0.48  -0.19  -0.05    -0.02   0.23  -0.02
    10   1     0.10  -0.22   0.02     0.48  -0.19   0.05    -0.01   0.25   0.01
    11   1    -0.03   0.17   0.03    -0.02   0.19   0.05     0.48  -0.23   0.08
    12   1    -0.03   0.17  -0.04    -0.02   0.19  -0.06     0.48  -0.25  -0.08
    13   1    -0.31   0.55  -0.01    -0.18   0.37   0.00    -0.20   0.39   0.00
    14   8     0.00   0.00   0.00     0.00   0.00   0.00     0.00   0.00   0.00
    15   1     0.03   0.00   0.01    -0.01   0.00   0.00     0.00   0.00   0.00
                     22                     23                     24
                      A                      A                      A
 Frequencies --   1182.5931              1297.6357              1308.4778
 Red. masses --      1.5708                 7.6421                 1.0891
 Frc consts  --      1.2943                 7.5818                 1.0986
 IR Inten    --      4.8023               936.8166                 1.6676
  Atom  AN      X      Y      Z        X      Y      Z        X      Y      Z
     1   6     0.00   0.00   0.00    -0.13  -0.05   0.00     0.00   0.00   0.00
     2   1     0.00   0.00   0.00     0.00   0.01   0.08     0.00   0.00   0.00
     3   6     0.00   0.00   0.00    -0.03   0.00   0.00     0.00   0.00   0.00
     4   6     0.00   0.00   0.01     0.58  -0.16   0.00     0.00   0.00   0.00
     5   8     0.00   0.00   0.00    -0.07  -0.04   0.00     0.00   0.00   0.00
     6   8     0.00   0.00  -0.05    -0.32   0.19   0.00     0.00   0.00   0.04
     7   6     0.00   0.00   0.18     0.15  -0.03   0.00     0.00   0.00   0.01
     8   6     0.00   0.00  -0.13     0.00   0.00   0.00     0.00   0.00  -0.07
     9   1    -0.32  -0.38  -0.13    -0.46   0.10   0.00     0.65  -0.16   0.01
    10   1     0.32   0.36  -0.14    -0.44   0.08   0.01    -0.65   0.16   0.01
    11   1    -0.15   0.39   0.11     0.00   0.08   0.05    -0.07   0.19   0.04
    12   1     0.14  -0.38   0.12     0.00   0.08  -0.05     0.07  -0.19   0.04
    13   1     0.01   0.00   0.27    -0.01   0.02   0.00     0.00   0.00   0.10
    14   8     0.00   0.00   0.00     0.00   0.00  -0.01     0.00   0.00   0.00
    15   1     0.00   0.00   0.00     0.06  -0.02   0.03     0.00   0.00   0.00
                     25                     26                     27
                      A                      A                      A
 Frequencies --   1399.0441              1438.0971              1481.3071
 Red. masses --      1.2820                 1.4729                 1.0929
 Frc consts  --      1.4785                 1.7947                 1.4130
 IR Inten    --     16.8165                10.5249                65.1993
  Atom  AN      X      Y      Z        X      Y      Z        X      Y      Z
     1   6    -0.01  -0.01   0.00    -0.01   0.00   0.00     0.01   0.00   0.00
     2   1     0.00   0.00   0.01     0.00   0.01   0.01     0.12   0.50   0.45
     3   6     0.00   0.00   0.00     0.00   0.00   0.00     0.00   0.00   0.00
     4   6     0.06  -0.01   0.00     0.06   0.00   0.00    -0.01   0.00   0.00
     5   8    -0.01  -0.01   0.00    -0.01   0.00   0.00     0.00   0.00   0.00
     6   8    -0.03  -0.01   0.00    -0.03  -0.01   0.00     0.00   0.00   0.00
     7   6    -0.08   0.05   0.00    -0.10   0.09   0.00     0.00   0.00   0.00
     8   6    -0.03   0.09   0.00     0.11  -0.09   0.00     0.00   0.00   0.00
     9   1     0.41  -0.20  -0.07     0.42  -0.16  -0.07     0.00   0.00   0.00
    10   1     0.41  -0.19   0.07     0.42  -0.15   0.07     0.00   0.00   0.00
    11   1     0.24  -0.27  -0.17    -0.39   0.15   0.05     0.00   0.00   0.00
    12   1     0.24  -0.26   0.17    -0.38   0.14  -0.05     0.00   0.00   0.00
    13   1     0.12  -0.47   0.00    -0.04   0.45  -0.01     0.00   0.00   0.00
    14   8     0.00   0.00   0.00     0.00   0.00   0.00    -0.05  -0.02  -0.05
    15   1     0.01   0.00   0.00     0.01   0.00   0.01     0.61  -0.16   0.37
                     28                     29                     30
                      A                      A                      A
 Frequencies --   1491.0314              1501.6079              1523.1333
 Red. masses --      1.0377                 1.0503                 1.0862
 Frc consts  --      1.3593                 1.3954                 1.4847
 IR Inten    --      8.5046                 3.3116                 8.4541
  Atom  AN      X      Y      Z        X      Y      Z        X      Y      Z
     1   6     0.00   0.00   0.00     0.00   0.00   0.00     0.00   0.00   0.00
     2   1     0.00   0.00   0.00     0.00   0.00   0.00     0.00   0.00   0.00
     3   6     0.00   0.00   0.00     0.00   0.00   0.00     0.00   0.00   0.00
     4   6     0.00   0.00   0.00     0.00   0.00   0.00     0.02   0.00   0.00
     5   8     0.00   0.00   0.00     0.00   0.00   0.00     0.00   0.00   0.00
     6   8     0.00   0.00   0.00     0.01   0.00   0.00    -0.02  -0.01   0.00
     7   6     0.00   0.00  -0.02    -0.02   0.03   0.00    -0.04  -0.06   0.00
     8   6     0.00  -0.01  -0.05    -0.02  -0.04   0.01    -0.01  -0.01   0.00
     9   1     0.00   0.02  -0.01    -0.03  -0.26  -0.18     0.29   0.43   0.37
    10   1     0.01  -0.07   0.02    -0.04  -0.24   0.19     0.29   0.42  -0.39
    11   1     0.52   0.01   0.09     0.16   0.43   0.34     0.09   0.20   0.16
    12   1    -0.46   0.11   0.00     0.28   0.41  -0.37     0.11   0.20  -0.17
    13   1     0.01  -0.03   0.70     0.06  -0.29  -0.08     0.03  -0.16  -0.01
    14   8     0.00   0.00   0.00     0.00   0.00   0.00     0.00   0.00   0.00
    15   1     0.00   0.00   0.00     0.00   0.00   0.00     0.00   0.00   0.00
                     31                     32                     33
                      A                      A                      A
 Frequencies --   1843.4174              2227.1955              3066.9509
 Red. masses --     12.6589                11.4109                 1.0358
 Frc consts  --     25.3451                33.3492                 5.7402
 IR Inten    --    363.0655               102.8362                 9.6600
  Atom  AN      X      Y      Z        X      Y      Z        X      Y      Z
     1   6    -0.06  -0.02   0.00    -0.57  -0.23   0.01     0.00   0.00   0.00
     2   1     0.00  -0.02   0.00     0.16  -0.14   0.09     0.00   0.00   0.00
     3   6     0.03   0.00   0.00     0.69   0.27  -0.01     0.00   0.00   0.00
     4   6     0.16   0.79  -0.01    -0.13  -0.04   0.00     0.00   0.00   0.00
     5   8    -0.11  -0.52   0.01     0.00   0.00   0.00     0.00   0.00   0.00
     6   8     0.02  -0.06   0.00    -0.01   0.00   0.00     0.00   0.00   0.00
     7   6     0.03   0.01   0.00     0.01   0.00   0.00     0.00  -0.01   0.00
     8   6    -0.01  -0.01   0.00     0.00   0.00   0.00    -0.03   0.04   0.00
     9   1    -0.13   0.04  -0.03     0.00   0.00   0.00     0.01   0.03  -0.04
    10   1    -0.13   0.04   0.04     0.00   0.00   0.00     0.01   0.03   0.03
    11   1     0.02  -0.02   0.00     0.00   0.00   0.00    -0.11  -0.32   0.50
    12   1     0.02  -0.02   0.00     0.00   0.00   0.00    -0.11  -0.32  -0.46
    13   1    -0.02   0.05   0.00     0.00   0.00   0.00     0.53   0.15  -0.01
    14   8     0.00   0.00   0.00    -0.01   0.00   0.00     0.00   0.00   0.00
    15   1    -0.02   0.00  -0.01     0.01   0.03   0.00     0.00   0.00   0.00
                     34                     35                     36
                      A                      A                      A
 Frequencies --   3078.9136              3122.5351              3135.5636
 Red. masses --      1.0580                 1.1084                 1.0733
 Frc consts  --      5.9093                 6.3675                 6.2175
 IR Inten    --     11.5307                 3.6564               278.0030
  Atom  AN      X      Y      Z        X      Y      Z        X      Y      Z
     1   6     0.00   0.00   0.00     0.00   0.00   0.00     0.02   0.01   0.00
     2   1     0.00   0.00   0.00     0.00   0.00   0.00     0.74  -0.55   0.36
     3   6     0.00   0.00   0.00     0.00   0.00   0.00    -0.01   0.00   0.00
     4   6     0.00   0.00   0.00     0.00   0.00   0.00     0.00   0.00   0.00
     5   8     0.00   0.00   0.00     0.00   0.00   0.00     0.00   0.00   0.00
     6   8     0.00   0.00   0.00     0.00   0.00   0.00     0.00   0.00   0.00
     7   6     0.02   0.07   0.00     0.00   0.00   0.09     0.00   0.00   0.00
     8   6    -0.01   0.00   0.00     0.00   0.00  -0.04     0.00   0.00   0.00
     9   1    -0.10  -0.38   0.60     0.09   0.35  -0.51     0.00   0.00   0.00
    10   1    -0.11  -0.38  -0.56    -0.10  -0.38  -0.52     0.00   0.00   0.00
    11   1     0.00  -0.01   0.00    -0.06  -0.16   0.24     0.00   0.00  -0.01
    12   1     0.00  -0.01  -0.01     0.06   0.17   0.24     0.00   0.00   0.00
    13   1     0.10   0.03   0.00    -0.02   0.00  -0.01     0.00   0.00   0.00
    14   8     0.00   0.00   0.00     0.00   0.00   0.00    -0.05   0.02  -0.02
    15   1     0.00   0.00   0.00     0.00   0.00   0.00    -0.05   0.10   0.04
                     37                     38                     39
                      A                      A                      A
 Frequencies --   3149.8482              3152.9271              3894.0526
 Red. masses --      1.1027                 1.1047                 1.0680
 Frc consts  --      6.4458                 6.4703                 9.5416
 IR Inten    --     13.0106                17.6667               136.7098
  Atom  AN      X      Y      Z        X      Y      Z        X      Y      Z
     1   6     0.00   0.00   0.00     0.00   0.00   0.00     0.00   0.00   0.00
     2   1    -0.01   0.00   0.00     0.00   0.00   0.00     0.07  -0.03   0.04
     3   6     0.00   0.00   0.00     0.00   0.00   0.00     0.00   0.00   0.00
     4   6     0.00   0.00   0.00     0.00   0.00   0.00     0.00   0.00   0.00
     5   8     0.00   0.00   0.00     0.00   0.00   0.00     0.00   0.00   0.00
     6   8     0.00   0.00   0.00     0.00   0.00   0.00     0.00   0.00   0.00
     7   6     0.00  -0.01   0.02     0.00   0.00   0.04     0.00   0.00   0.00
     8   6    -0.07  -0.05   0.03     0.03   0.02   0.08     0.00   0.00   0.00
     9   1     0.02   0.10  -0.14     0.03   0.13  -0.20     0.00   0.00   0.00
    10   1    -0.01  -0.04  -0.05    -0.04  -0.17  -0.23     0.00   0.00   0.00
    11   1     0.09   0.32  -0.50     0.08   0.24  -0.35     0.00   0.00   0.00
    12   1     0.01   0.05   0.10    -0.14  -0.43  -0.60     0.00   0.00   0.00
    13   1     0.74   0.19   0.00    -0.30  -0.08   0.02     0.00   0.00   0.00
    14   8     0.00   0.00   0.00     0.00   0.00   0.00    -0.01   0.06   0.03
    15   1     0.00   0.00   0.00     0.00   0.00   0.00     0.10  -0.86  -0.49

 -------------------
 - Thermochemistry -
 -------------------
 Temperature   298.150 Kelvin.  Pressure   1.00000 Atm.
 Atom     1 has atomic number  6 and mass  12.00000
 Atom     2 has atomic number  1 and mass   1.00783
 Atom     3 has atomic number  6 and mass  12.00000
 Atom     4 has atomic number  6 and mass  12.00000
 Atom     5 has atomic number  8 and mass  15.99491
 Atom     6 has atomic number  8 and mass  15.99491
 Atom     7 has atomic number  6 and mass  12.00000
 Atom     8 has atomic number  6 and mass  12.00000
 Atom     9 has atomic number  1 and mass   1.00783
 Atom    10 has atomic number  1 and mass   1.00783
 Atom    11 has atomic number  1 and mass   1.00783
 Atom    12 has atomic number  1 and mass   1.00783
 Atom    13 has atomic number  1 and mass   1.00783
 Atom    14 has atomic number  8 and mass  15.99491
 Atom    15 has atomic number  1 and mass   1.00783
 Molecular mass:   115.03952 amu.
 Principal axes and moments of inertia in atomic units:
                           1         2         3
     Eigenvalues --   336.878142634.296072945.80105
           X            0.99991  -0.01324  -0.00366
           Y            0.01324   0.99991  -0.00136
           Z            0.00368   0.00131   0.99999
 This molecule is an asymmetric top.
 Rotational symmetry number  1.
 Rotational temperatures (Kelvin)      0.25711     0.03288     0.02940
 Rotational constants (GHZ):           5.35725     0.68509     0.61265
    3 imaginary frequencies ignored.
 Zero-point vibrational energy     288524.0 (Joules/Mol)
                                   68.95888 (Kcal/Mol)
 Warning -- explicit consideration of  12 degrees of freedom as
           vibrations may cause significant error
 Vibrational temperatures:     82.77   103.20   137.11   155.23   273.18
          (Kelvin)            341.87   356.95   406.22   554.65   637.39
                              768.92   864.91  1105.43  1176.98  1299.62
                             1384.63  1562.30  1655.76  1701.49  1867.01
                             1882.61  2012.91  2069.10  2131.27  2145.26
                             2160.48  2191.45  2652.26  3204.43  4412.65
                             4429.86  4492.63  4511.37  4531.92  4536.35
                             5602.67
 
 Zero-point correction=                           0.109893 (Hartree/Particle)
 Thermal correction to Energy=                    0.119143
 Thermal correction to Enthalpy=                  0.120087
 Thermal correction to Gibbs Free Energy=         0.073758
 Sum of electronic and zero-point Energies=           -420.066386
 Sum of electronic and thermal Energies=              -420.057136
 Sum of electronic and thermal Enthalpies=            -420.056192
 Sum of electronic and thermal Free Energies=         -420.102521
 
                     E (Thermal)             CV                S
                      KCal/Mol        Cal/Mol-Kelvin    Cal/Mol-Kelvin
 Total                   74.763             29.799             97.509
 Electronic               0.000              0.000              1.377
 Translational            0.889              2.981             40.136
 Rotational               0.889              2.981             29.348
 Vibrational             72.986             23.837             26.647
 Vibration     1          0.596              1.974              4.540
 Vibration     2          0.598              1.967              4.105
 Vibration     3          0.603              1.953              3.548
 Vibration     4          0.606              1.943              3.306
 Vibration     5          0.633              1.854              2.229
 Vibration     6          0.656              1.783              1.821
 Vibration     7          0.662              1.766              1.744
 Vibration     8          0.681              1.706              1.519
 Vibration     9          0.754              1.501              1.018
 Vibration    10          0.803              1.376              0.817
 Vibration    11          0.889              1.174              0.577
 Vibration    12          0.959              1.029              0.448
                       Q            Log10(Q)             Ln(Q)
 Total Bot       0.118567D-33        -33.926036        -78.117584
 Total V=0       0.417941D+17         16.621115         38.271532
 Vib (Bot)       0.211199D-47        -47.675308       -109.776454
 Vib (Bot)    1  0.359069D+01          0.555178          1.278344
 Vib (Bot)    2  0.287475D+01          0.458600          1.055967
 Vib (Bot)    3  0.215543D+01          0.333533          0.767989
 Vib (Bot)    4  0.189914D+01          0.278557          0.641402
 Vib (Bot)    5  0.105415D+01          0.022902          0.052733
 Vib (Bot)    6  0.826111D+00         -0.082961         -0.191026
 Vib (Bot)    7  0.787388D+00         -0.103811         -0.239035
 Vib (Bot)    8  0.680113D+00         -0.167419         -0.385496
 Vib (Bot)    9  0.467201D+00         -0.330497         -0.760997
 Vib (Bot)   10  0.389282D+00         -0.409735         -0.943451
 Vib (Bot)   11  0.298017D+00         -0.525758         -1.210604
 Vib (Bot)   12  0.248103D+00         -0.605368         -1.393911
 Vib (V=0)       0.744462D+03          2.871843          6.612662
 Vib (V=0)    1  0.412533D+01          0.615459          1.417147
 Vib (V=0)    2  0.341791D+01          0.533761          1.229029
 Vib (V=0)    3  0.271266D+01          0.433395          0.997930
 Vib (V=0)    4  0.246386D+01          0.391616          0.901728
 Vib (V=0)    5  0.166672D+01          0.221862          0.510856
 Vib (V=0)    6  0.146564D+01          0.166027          0.382292
 Vib (V=0)    7  0.143273D+01          0.156163          0.359579
 Vib (V=0)    8  0.134413D+01          0.128441          0.295746
 Vib (V=0)    9  0.118431D+01          0.073464          0.169158
 Vib (V=0)   10  0.113367D+01          0.054488          0.125462
 Vib (V=0)   11  0.108208D+01          0.034258          0.078883
 Vib (V=0)   12  0.105817D+01          0.024556          0.056542
 Electronic      0.200000D+01          0.301030          0.693147
 Translational   0.484982D+08          7.685726         17.697038
 Rotational      0.578784D+06          5.762517         13.268685
 ***** Axes restored to original set *****
 -------------------------------------------------------------------
 Center     Atomic                   Forces (Hartrees/Bohr)
 Number     Number              X              Y              Z
 -------------------------------------------------------------------
      1        6          -0.002344933    0.001132163    0.001310164
      2        1           0.004169791   -0.003864304   -0.003481629
      3        6          -0.001879758    0.001104346    0.000426328
      4        6          -0.000873803    0.000362600   -0.000219583
      5        8          -0.000726472    0.000518894    0.000037203
      6        8          -0.000678576    0.000015375   -0.000081687
      7        6          -0.000252319   -0.000025078    0.000011867
      8        6          -0.000135227   -0.000035426   -0.000011200
      9        1          -0.000026779   -0.000002469    0.000001061
     10        1          -0.000031454    0.000002752    0.000003944
     11        1          -0.000003903   -0.000001765   -0.000002309
     12        1          -0.000001841   -0.000003222   -0.000001588
     13        1          -0.000015068   -0.000016959    0.000001816
     14        8           0.003217689    0.001286161    0.002765476
     15        1          -0.000417345   -0.000473066   -0.000759864
 -------------------------------------------------------------------
 Cartesian Forces:  Max     0.004169791 RMS     0.001339983

 GradGradGradGradGradGradGradGradGradGradGradGradGradGradGradGradGradGrad
 Berny optimization.
 Search for a local minimum.
 Step number   1 out of a maximum of    2
 All quantities printed in internal units (Hartrees-Bohrs-Radians)
 Second derivative matrix not updated -- analytic derivatives used.
 ITU=  0
     Eigenvalues ---   -0.00905  -0.00178  -0.00084   0.00034   0.00074
     Eigenvalues ---    0.00158   0.00203   0.00512   0.00909   0.01155
     Eigenvalues ---    0.01778   0.02759   0.02886   0.03178   0.05492
     Eigenvalues ---    0.07634   0.08531   0.08717   0.11306   0.11549
     Eigenvalues ---    0.13360   0.14866   0.15908   0.18096   0.20974
     Eigenvalues ---    0.28868   0.32262   0.45795   0.53301   0.64838
     Eigenvalues ---    0.67880   0.73558   0.79928   0.87496   0.89052
     Eigenvalues ---    0.90798   1.01926   1.73332   2.26586
 Eigenvalue     1 is  -9.05D-03 should be greater than     0.000000 Eigenvector:
                          X2        Z2        Y2        Y1        Z1
   1                    0.65719  -0.49512  -0.48562   0.15262   0.13989
                          Y15       Z14       Z15       X5        X3
   1                   -0.10221   0.10101  -0.09198  -0.05992  -0.04654
 Eigenvalue     2 is  -1.78D-03 should be greater than     0.000000 Eigenvector:
                          Z1        Z14       Z2        Z3        Y15
   1                    0.63380  -0.44259  -0.30378   0.27914   0.21311
                          Y2        X14       Z5        Y14       Z10
   1                    0.20187   0.13445  -0.12729  -0.12174  -0.12072
 Eigenvalue     3 is  -8.42D-04 should be greater than     0.000000 Eigenvector:
                          Y1        Y15       Y14       X15       Y3
   1                    0.46464  -0.44807  -0.37440   0.27027   0.23606
                          Z15       Z2        X5        Y13       X2
   1                   -0.19754   0.19139  -0.16799  -0.16768  -0.16732
 Quadratic step=1.619D+00 exceeds max=3.000D-01 adjusted using Lamda=-1.636D-02.
 Angle between NR and scaled steps=  53.36 degrees.
 Angle between quadratic step and forces=  29.61 degrees.
 Linear search not attempted -- first point.
 TrRot= -0.008986  0.008315  0.006202 -0.781560 -0.002198  0.782827
 Variable       Old X    -DE/DX   Delta X   Delta X   Delta X     New X
                                 (Linear)    (Quad)   (Total)
    X1        4.10404  -0.00234   0.00000  -0.02753  -0.03545   4.06859
    Y1       -0.76969   0.00113   0.00000   0.01535   0.02872  -0.74097
    Z1       -0.11214   0.00131   0.00000   0.03638   0.05010  -0.06204
    X2        6.93452   0.00417   0.00000   0.22242   0.21690   7.15142
    Y2       -1.92893  -0.00386   0.00000  -0.14277  -0.12624  -2.05517
    Z2       -0.45038  -0.00348   0.00000  -0.10371  -0.08314  -0.53352
    X3        2.01637  -0.00188   0.00000  -0.02647  -0.03561   1.98076
    Y3        0.13752   0.00110   0.00000   0.01493   0.02572   0.16324
    Z3       -0.02994   0.00043   0.00000   0.00001   0.00908  -0.02086
    X4       -0.53581  -0.00087   0.00000  -0.02093  -0.03138  -0.56719
    Y4        1.16116   0.00036   0.00000   0.01053   0.01811   1.17927
    Z4       -0.00915  -0.00022   0.00000  -0.00591  -0.00239  -0.01154
    X5       -0.97856  -0.00073   0.00000  -0.02460  -0.03792  -1.01648
    Y5        3.38251   0.00052   0.00000   0.00960   0.01667   3.39918
    Z5        0.02322   0.00004   0.00000   0.00262   0.00200   0.02521
    X6       -2.25582  -0.00068   0.00000  -0.01263  -0.02072  -2.27654
    Y6       -0.66945   0.00002   0.00000   0.00359   0.00898  -0.66047
    Z6       -0.01939  -0.00008   0.00000  -0.01023  -0.00653  -0.02592
    X7       -4.85050  -0.00025   0.00000  -0.00944  -0.01865  -4.86915
    Y7        0.15914  -0.00003   0.00000   0.00100   0.00318   0.16232
    Z7        0.01623   0.00001   0.00000   0.00069  -0.00092   0.01530
    X8       -6.47682  -0.00014   0.00000  -0.00427  -0.01046  -6.48728
    Y8       -2.18689  -0.00004   0.00000  -0.00081  -0.00072  -2.18761
    Z8       -0.00776  -0.00001   0.00000   0.00079   0.00029  -0.00748
    X9       -5.14737  -0.00003   0.00000  -0.00177  -0.01507  -5.16244
    Y9        1.30208   0.00000   0.00000  -0.00198   0.00246   1.30454
    Z9        1.70838   0.00000   0.00000   0.00397   0.00013   1.70851
   X10       -5.17706  -0.00003   0.00000  -0.01128  -0.01944  -5.19650
   Y10        1.35786   0.00000   0.00000   0.00439   0.00360   1.36146
   Z10       -1.63129   0.00000   0.00000   0.00377  -0.00022  -1.63150
   X11       -6.11747   0.00000   0.00000  -0.00202  -0.00417  -6.12163
   Y11       -3.29997   0.00000   0.00000   0.00215   0.00008  -3.29989
   Z11       -1.70464   0.00000   0.00000  -0.00074   0.00105  -1.70360
   X12       -6.08509   0.00000   0.00000   0.00158  -0.00571  -6.09080
   Y12       -3.35638   0.00000   0.00000  -0.00123   0.00193  -3.35445
   Z12        1.64335   0.00000   0.00000  -0.00085   0.00108   1.64442
   X13       -8.46822  -0.00002   0.00000  -0.00433  -0.01124  -8.47946
   Y13       -1.65189  -0.00002   0.00000  -0.00345  -0.00583  -1.65773
   Z13        0.02010   0.00000   0.00000   0.00336  -0.00108   0.01902
   X14        8.51279   0.00322   0.00000   0.03979   0.03190   8.54468
   Y14       -1.13826   0.00129   0.00000   0.01062   0.03009  -1.10817
   Z14        0.17614   0.00277   0.00000   0.02583   0.04710   0.22324
   X15        8.66754  -0.00042   0.00000   0.00531  -0.00299   8.66454
   Y15        0.42858  -0.00047   0.00000  -0.02484  -0.00674   0.42184
   Z15       -0.74257  -0.00076   0.00000  -0.03564  -0.01654  -0.75911
         Item               Value     Threshold  Converged?
 Maximum Force            0.004170     0.000450     NO 
 RMS     Force            0.001340     0.000300     NO 
 Maximum Displacement     0.216904     0.001800     NO 
 RMS     Displacement     0.043683     0.001200     NO 
 Predicted change in Energy=-2.660865D-03
 GradGradGradGradGradGradGradGradGradGradGradGradGradGradGradGradGradGrad

 1|1|UNPC-DIT|Freq|UM062X|6-311++G(d,p)|C5H7O3(2)|NDITM|27-Mar-2025|0||
 # freq 6-311++g(d,p) m062x||Title Card Required||0,2|C,2.171763,-0.407
 3,-0.059343|H,3.669589,-1.020748,-0.238331|C,1.067016,0.072772,-0.0158
 44|C,-0.283539,0.614457,-0.004841|O,-0.517831,1.789945,0.012285|O,-1.1
 9373,-0.354259,-0.01026|C,-2.566773,0.084215,0.008586|C,-3.427385,-1.1
 57253,-0.004108|H,-2.723873,0.689031,0.904034|H,-2.739582,0.718548,-0.
 863239|H,-3.237224,-1.746267,-0.902058|H,-3.22009,-1.776118,0.869621|H
 ,-4.48119,-0.874144,0.010635|O,4.504774,-0.602341,0.093208|H,4.586663,
 0.226793,-0.39295||Version=IA32W-G09RevD.01|State=2-A|HF=-420.1762786|
 S2=0.771733|S2-1=0.|S2A=0.750353|RMSD=2.802e-009|RMSF=1.340e-003|ZeroP
 oint=0.109893|Thermal=0.1191428|Dipole=-0.6370642,-0.2802827,-0.470136
 4|DipoleDeriv=0.5736638,0.1685804,0.0836423,0.1210758,-0.3130872,-0.03
 07913,0.1138861,-0.0423007,-0.1345442,-0.2889042,-0.0183619,-0.0659688
 ,-0.3491123,0.337555,0.0470285,-0.3078124,0.075039,0.2200085,-0.573366
 ,-0.0934944,-0.033192,-0.1182445,0.0930882,0.0087075,-0.0938183,0.0190
 989,-0.010455,2.7466813,-0.0952764,-0.0401722,0.5068164,1.7741064,0.02
 81259,0.0884502,0.008596,0.335437,-1.0019594,0.2834783,0.0100906,0.072
 6782,-1.2459607,-0.0144601,-0.0255538,-0.0044497,-0.3326479,-2.0029428
 ,-0.4132621,0.0204026,-0.5833931,-0.8267009,-0.0007448,-0.0025736,-0.0
 025137,-0.2734907,1.126042,0.1150761,-0.00889,-0.0428695,0.3021379,-0.
 0009994,-0.0087661,-0.0026842,0.3052554,-0.0421129,-0.0501081,0.000402
 2,-0.0596988,-0.0166877,-0.0011012,0.0002169,-0.0006895,0.0551303,-0.0
 567888,-0.044553,-0.0224646,0.038078,0.0057258,-0.0592402,0.0220542,-0
 .0666622,-0.0417245,-0.0571945,-0.044546,0.0229063,0.0371669,0.0012777
 ,0.0613533,-0.0186997,0.0687414,-0.0390069,0.0746471,0.0203924,0.04598
 92,-0.0300748,0.0095737,-0.0519527,0.0196266,-0.0797338,-0.0424588,0.0
 73607,0.0233614,-0.0473434,-0.0283869,0.0053233,0.0541255,-0.0229069,0
 .0802601,-0.0359766,-0.1089967,0.0203423,0.0027428,0.0416648,0.0386826
 ,-0.00098,0.0029478,-0.0009421,0.0904266,-0.8567202,0.0640872,0.101903
 3,0.1322672,-0.4027089,-0.0838917,0.396263,-0.135499,-0.3885845,0.3943
 442,0.0642839,-0.0700483,0.2620326,0.2376747,0.0448205,-0.163314,0.083
 7396,0.2926314|Polar=134.7955476,-13.6483349,68.6792795,-2.7645208,0.4
 897883,48.9546898|PG=C01 [X(C5H7O3)]|NImag=3||0.88892042,-0.35421990,0
 .15057655,-0.02323997,0.00929984,0.00577888,0.04385097,-0.02159289,-0.
 01004799,0.19385626,0.02573658,-0.01282284,-0.00449138,0.14212450,0.12
 567699,0.01940377,-0.00674457,-0.00317431,0.10420711,0.05160129,0.0621
 4822,-0.87617083,0.35572317,0.02628967,-0.00374586,-0.00398167,-0.0017
 9859,1.20480882,0.34149938,-0.15231313,-0.00977995,0.00177160,0.001012
 26,-0.00147337,-0.43345473,0.25603526,0.02064672,-0.00878562,-0.012697
 40,0.00028833,-0.00046951,0.00084605,-0.02382688,0.01065992,0.04372248
 ,0.01087571,-0.00641210,-0.00264571,0.00211143,0.00492985,0.00336672,-
 0.25072544,0.07709776,0.00259654,0.64009480,0.01551645,-0.00274300,-0.
 00063140,0.00000060,0.00010241,0.00079570,0.03979051,-0.06425479,-0.00
 029212,-0.09844991,0.99358996,0.00597690,-0.00277298,0.00629019,0.0018
 3220,0.00152349,-0.00006440,-0.00614498,0.00205406,-0.06716469,-0.0045
 5976,0.01137592,0.20592743,-0.00713578,0.00398279,0.00108072,-0.000786
 22,-0.00166698,-0.00167951,-0.00768162,0.04197842,0.00059505,-0.138632
 26,0.14908192,0.00254470,0.13384665,-0.00028433,0.00142628,-0.00032821
 ,0.00096397,0.00119452,0.00108746,0.04083698,-0.04158011,-0.00125190,0
 .13150417,-0.73544174,-0.00988197,-0.14419777,0.87675842,-0.00160926,0
 .00095967,-0.00019214,-0.00035758,-0.00036001,0.00014773,0.00281130,-0
 .00223696,0.02056581,0.00246134,-0.00992262,-0.08044027,-0.00280868,0.
 01253416,0.03351601,0.00091656,0.00337827,0.00092825,-0.00050287,-0.00
 200098,-0.00133835,-0.06408439,-0.02596485,-0.00019836,-0.21130868,-0.
 10476827,0.00007918,0.01825802,-0.04132586,-0.00052928,0.52094025,0.00
 052813,0.00020484,0.00022836,-0.00010102,-0.00072763,-0.00040579,-0.00
 230109,0.00880714,0.00000151,-0.07466714,-0.20633770,-0.00113552,-0.04
 451913,-0.09843774,-0.00138931,0.08047217,0.40967732,-0.00037915,0.000
 26768,0.00020317,-0.00010258,-0.00012979,-0.00000887,0.00095125,-0.000
 08594,0.01108217,0.00023716,-0.00078099,-0.06916716,-0.00045795,-0.001
 48116,0.03166610,-0.00265985,0.00379077,0.08114467,0.00055634,-0.00121
 133,-0.00038300,0.00026719,0.00082230,0.00060046,0.00286616,-0.0004402
 0,0.00016782,-0.06033409,-0.02592170,0.00007418,0.00177728,0.02008160,
 0.00021562,-0.16565817,0.03737555,0.00132615,0.44204227,-0.00012840,0.
 00075509,0.00003957,-0.00002856,-0.00005030,-0.00010581,-0.00509215,-0
 .00283391,-0.00003622,-0.02672159,0.01646082,0.00037852,-0.00395179,-0
 .00490808,0.00003479,0.06266194,-0.11125054,-0.00114145,0.01514096,0.5
 8114100,-0.00010167,-0.00005355,-0.00041718,-0.00008411,-0.00007682,-0
 .00001308,-0.00004442,0.00001651,0.00629168,0.00022901,0.00033900,0.00
 176562,-0.00016221,-0.00016329,-0.00628780,0.00184172,-0.00097752,-0.0
 7005602,0.00186778,-0.00097818,0.62445189,-0.00001555,0.00021629,0.000
 03289,-0.00002656,-0.00008806,-0.00006737,-0.00178817,-0.00103157,0.00
 002346,-0.00389130,0.00711691,0.00008535,0.00213159,-0.00244589,-0.000
 04224,-0.04518773,-0.03489492,-0.00014587,-0.10876026,-0.05771489,-0.0
 0080546,0.56275830,0.00005655,-0.00019869,-0.00002983,0.00001221,0.000
 07573,0.00004285,0.00087049,0.00063535,-0.00000702,0.00227178,-0.00416
 826,-0.00006182,-0.00160656,0.00169907,0.00001973,0.00948931,0.0127869
 1,0.00009834,-0.07396834,-0.19240394,-0.00117427,-0.04087603,0.5330071
 1,0.00002531,-0.00003370,0.00005121,-0.00000211,0.00001515,0.00000667,
 -0.00000574,0.00003858,-0.00013730,0.00009258,-0.00012394,-0.00003436,
 -0.00002107,0.00003682,0.00106670,0.00056706,0.00049936,0.00174513,-0.
 00108625,-0.00132817,-0.08702334,-0.00071752,-0.00089633,0.58520004,0.
 00010258,0.00002800,0.00009506,-0.00002107,-0.00008957,-0.00004519,-0.
 00063533,-0.00010076,-0.00118351,0.00314983,0.00893698,0.00170139,0.00
 065572,-0.00362303,0.00004457,-0.02643846,0.02032340,0.03035155,-0.050
 67232,0.01427981,0.02040428,0.00425079,-0.01080532,-0.01783663,0.06786
 916,0.00009401,-0.00010412,0.00001922,0.00001402,0.00003124,0.00002465
 ,0.00025761,0.00007394,-0.00017709,-0.00250585,-0.00002927,0.00032030,
 0.00027469,0.00023053,0.00025328,0.00992563,-0.00648493,-0.00747784,0.
 01808472,-0.12704448,-0.11759223,0.00265821,-0.01345365,-0.02174442,-0
 .02301813,0.13800985,-0.00012570,0.00007196,0.00005967,0.00000699,-0.0
 0000985,-0.00001384,0.00020634,0.00015116,-0.00048449,-0.00084217,-0.0
 0333940,0.00054288,-0.00151895,0.00128416,0.00031165,0.00413700,0.0023
 1168,0.00575449,0.02884447,-0.11864083,-0.23906097,-0.00124349,0.00189
 495,0.00291396,-0.03169560,0.13040647,0.24861312,0.00007657,-0.0000086
 0,0.00000345,-0.00005495,-0.00012122,-0.00005972,-0.00063677,-0.000080
 85,0.00108572,0.00321098,0.00904136,-0.00138872,0.00070335,-0.00364786
 ,-0.00012483,-0.02690051,0.02120401,-0.02907729,-0.05184633,0.01748666
 ,-0.02303464,0.00459735,-0.01141113,0.01744536,0.00299556,-0.00341220,
 0.00271963,0.06912105,-0.00001215,-0.00002747,-0.00003161,-0.00000029,
 0.00000911,0.00005585,0.00042282,-0.00000530,0.00013401,-0.00253487,-0
 .00013338,-0.00023887,0.00020430,0.00027432,-0.00025633,0.01019203,-0.
 00664658,0.00684850,0.02147551,-0.13555015,0.12086752,0.00303361,-0.01
 409580,0.02116340,-0.00357292,0.01059109,-0.01429590,-0.02678863,0.147
 36498,0.00019583,-0.00011702,0.00003470,0.00001021,0.00003430,-0.00000
 112,-0.00027883,-0.00009150,-0.00048840,0.00073951,0.00315923,0.000630
 93,0.00153724,-0.00122039,0.00025347,-0.00330086,-0.00308144,0.0064980
 7,-0.03126898,0.12199500,-0.23012508,0.00131099,-0.00226613,0.00321445
 ,-0.00327105,0.01541883,-0.02083033,0.03384851,-0.13356038,0.23863498,
 -0.00004672,0.00002627,0.00000193,0.00001337,0.00001549,0.00001367,0.0
 0009919,0.00000854,0.00004641,-0.00033838,-0.00120901,-0.00000766,-0.0
 0041331,0.00060698,0.00010300,0.00270431,0.00108547,-0.00015954,0.0020
 8469,-0.01198929,-0.01848990,-0.05565965,0.02711673,0.04176427,-0.0019
 9065,-0.00322583,0.00026362,0.00049229,0.00097593,0.00035156,0.0565181
 6,-0.00003867,0.00003436,0.00004351,-0.00000354,-0.00001577,-0.0000194
 0,-0.00002781,-0.00000886,-0.00009927,0.00019291,-0.00058576,0.0000758
 7,-0.00047655,0.00029533,0.00020169,0.00134552,0.00189309,0.00108039,0
 .00630389,-0.01712335,-0.02571980,0.02481950,-0.12383595,-0.11741534,-
 0.00388196,-0.00326548,0.00103024,0.00070359,0.00072748,0.00024786,-0.
 02538122,0.13563552,-0.00003125,0.00004902,0.00000408,0.00000354,-0.00
 001532,-0.00000447,-0.00004790,-0.00004582,0.00000505,-0.00013458,-0.0
 0012344,0.00003686,0.00002421,0.00029964,-0.00004891,-0.00049137,0.000
 19995,0.00014627,-0.00035758,0.00076904,0.00124363,0.04035376,-0.11938
 559,-0.23479987,0.00066810,0.00038364,0.00147364,-0.00063894,-0.000134
 82,0.00076419,-0.04446227,0.13060961,0.25000794,-0.00005320,0.00003968
 ,-0.00000925,0.00001263,0.00001580,0.00002332,0.00011183,-0.00001445,-
 0.00005186,-0.00033721,-0.00120182,-0.00000954,-0.00042323,0.00060781,
 -0.00008196,0.00272212,0.00108424,0.00015660,0.00243670,-0.01263735,0.
 01805746,-0.05754136,0.03135849,-0.04400540,0.00049890,0.00098389,-0.0
 0031217,-0.00201575,-0.00323471,-0.00031025,0.00021031,-0.00420033,0.0
 0540362,0.05853755,-0.00004311,0.00005012,-0.00002077,-0.00000485,-0.0
 0001806,-0.00000655,-0.00003014,-0.00003168,0.00008812,0.00019429,-0.0
 0058748,-0.00009181,-0.00048708,0.00031450,-0.00018415,0.00132480,0.00
 194873,-0.00103005,0.00676261,-0.01794084,0.02497537,0.02896525,-0.132
 40224,0.12081173,0.00067452,0.00072496,-0.00025907,-0.00387658,-0.0032
 3451,-0.00111820,-0.00430066,0.01097906,-0.01434060,-0.02992232,0.1450
 2228,0.00002543,-0.00003986,-0.00000727,-0.00000354,0.00001130,-0.0000
 0306,0.00005311,0.00003893,0.00002186,0.00014661,0.00012543,0.00003196
 ,-0.00003665,-0.00029993,-0.00006019,0.00047501,-0.00015827,0.00008522
 ,0.00057455,-0.00116152,0.00172179,-0.04264214,0.12276186,-0.22557880,
 0.00066570,0.00010783,0.00075196,-0.00073690,-0.00048494,0.00143795,-0
 .00593427,0.01543900,-0.01958648,0.04700398,-0.13408273,0.23979399,-0.
 00001279,0.00009107,0.00002841,-0.00002753,-0.00005828,-0.00004266,-0.
 00030251,-0.00021385,-0.00001406,0.00061599,0.00190016,0.00003181,0.00
 007645,-0.00083870,-0.00001595,-0.00306660,-0.00488392,-0.00004011,-0.
 01576508,0.00883072,0.00027872,-0.30075819,0.06741920,0.00377256,0.000
 35209,-0.00018326,-0.00042378,0.00035568,-0.00020162,0.00041326,-0.003
 70231,0.00066815,-0.00028572,-0.00418857,0.00076503,0.00040993,0.32650
 007,-0.00006352,0.00012048,0.00002018,-0.00000464,-0.00004278,-0.00002
 074,-0.00053612,-0.00037939,-0.00000498,-0.00098237,0.00197097,0.00002
 848,0.00041275,-0.00054432,-0.00001051,-0.00677569,-0.00568424,-0.0000
 4609,-0.02376400,0.01063030,0.00045049,0.07012610,-0.06757094,-0.00102
 252,0.00075782,0.00074343,-0.00060200,0.00077778,0.00073215,0.00061686
 ,0.01629693,-0.00474386,0.00173129,0.01714838,-0.00483819,-0.00225478,
 -0.07335222,0.06956533,0.00000398,0.00000390,-0.00001481,0.00000167,0.
 00000006,-0.00000034,-0.00001212,-0.00000792,0.00001117,-0.00002031,0.
 00001046,0.00042459,0.00000498,-0.00000076,-0.00014993,-0.00007735,-0.
 00006324,0.00097225,-0.00028273,0.00012226,-0.00244104,0.00382768,-0.0
 0098069,-0.04661709,0.00006980,0.00006511,-0.00004225,-0.00004922,-0.0
 0002945,-0.00003317,0.02651887,-0.00548084,0.00075510,-0.02585184,0.00
 525440,0.00139005,-0.00413240,0.00110783,0.04574486,-0.05665472,0.0202
 0771,0.00558425,-0.23248206,-0.13666723,-0.13829526,-0.00530096,0.0016
 6038,-0.00029201,0.00718855,-0.00123847,0.00040255,-0.00262934,0.00213
 821,-0.00017282,-0.00354159,-0.00079762,-0.00003950,0.00141387,-0.0002
 1560,-0.00000810,-0.00017990,0.00011220,0.00000754,-0.00016331,0.00006
 115,-0.00001162,-0.00016954,0.00004447,0.00002791,0.00004597,-0.000031
 01,-0.00000292,0.00004806,-0.00002946,-0.00000246,-0.00010844,-0.00006
 102,-0.00000106,0.32700496,-0.02338659,0.01287631,0.00597954,-0.134139
 04,-0.10120103,-0.05882873,0.00636308,-0.00545143,-0.00007912,-0.00106
 872,0.00155340,-0.00119257,-0.00016797,-0.00012101,0.00026550,0.000909
 34,0.00011023,0.00006745,-0.00023818,0.00004312,0.00006538,0.00005640,
 -0.00003654,0.00000032,0.00003078,-0.00000046,-0.00000255,0.00006906,0
 .00000716,-0.00000973,-0.00000515,0.00000404,0.00000763,-0.00000734,0.
 00000193,-0.00000616,0.00001683,0.00002339,-0.00000016,0.17640008,0.48
 782565,-0.02564236,0.00747416,0.00456870,-0.08927888,-0.03192219,-0.06
 554641,0.00352645,0.00019635,-0.00152833,-0.00309928,-0.00019718,0.001
 05440,0.00142081,-0.00097031,-0.00022497,0.00143334,0.00030994,-0.0000
 4685,-0.00060477,0.00011938,-0.00008930,0.00007840,-0.00004834,-0.0000
 0997,0.00006888,-0.00001964,0.00001715,0.00004665,-0.00005514,0.000008
 82,-0.00001828,0.00001811,0.00000653,-0.00002493,0.00000743,0.00000158
 ,0.00004193,0.00002250,-0.00000025,0.11714940,-0.18782376,0.21067185,-
 0.00520956,-0.00024841,0.00228131,-0.00246470,-0.02897054,0.01571159,0
 .00318589,-0.00271481,0.00011662,-0.00167993,0.00140429,-0.00061762,0.
 00025268,-0.00037629,0.00010675,0.00114775,0.00009188,0.00003914,-0.00
 040825,0.00007952,0.00005153,0.00007064,-0.00003958,0.00000004,0.00004
 651,-0.00000867,-0.00000456,0.00007104,-0.00000349,-0.00000504,-0.0000
 1726,0.00000752,-0.00000070,-0.00001878,0.00000767,0.00000164,0.000031
 75,0.00001982,0.00000003,-0.03447155,-0.02483258,-0.00509735,0.0394637
 8,-0.00525444,0.00216520,-0.00031709,0.01098792,-0.01322386,0.01399715
 ,0.00115905,0.00029465,0.00031930,-0.00284820,0.00060382,-0.00038110,0
 .00113895,-0.00115998,0.00009106,0.00113662,0.00014110,0.00002018,-0.0
 0050339,0.00007527,0.00002141,0.00005908,-0.00003815,-0.00000094,0.000
 06036,-0.00002266,-0.00000102,0.00006462,-0.00001312,-0.00000729,-0.00
 002118,0.00001014,-0.00000424,-0.00001997,0.00001141,0.00000386,0.0000
 4068,0.00001767,-0.00000097,-0.06158379,-0.39563475,0.21288868,0.05558
 368,0.40677326,0.00485142,0.00042107,-0.00048749,-0.00647325,-0.015710
 74,0.00568125,-0.00167868,0.00056598,-0.00004565,0.00143234,-0.0003946
 7,0.00016601,-0.00052270,0.00035567,-0.00012325,-0.00086615,-0.0001304
 9,-0.00001864,0.00031230,-0.00006638,0.00003920,-0.00004844,0.00003230
 ,0.00000257,-0.00003735,0.00001190,-0.00000663,-0.00003906,0.00001815,
 0.00000055,0.00000859,-0.00001162,-0.00000357,0.00001221,-0.00000312,-
 0.00000053,-0.00002195,-0.00001601,0.00000086,0.01565407,0.24155697,-0
 .14888296,-0.01258337,-0.22662899,0.14367829||0.00234493,-0.00113216,-
 0.00131016,-0.00416979,0.00386430,0.00348163,0.00187976,-0.00110435,-0
 .00042633,0.00087380,-0.00036260,0.00021958,0.00072647,-0.00051889,-0.
 00003720,0.00067858,-0.00001537,0.00008169,0.00025232,0.00002508,-0.00
 001187,0.00013523,0.00003543,0.00001120,0.00002678,0.00000247,-0.00000
 106,0.00003145,-0.00000275,-0.00000394,0.00000390,0.00000177,0.0000023
 1,0.00000184,0.00000322,0.00000159,0.00001507,0.00001696,-0.00000182,-
 0.00321769,-0.00128616,-0.00276548,0.00041734,0.00047307,0.00075986|||
 @


 "MATHEMATICS IS THE ART OF GIVING THE SAME NAME
 TO DIFFERENT THINGS."
                    - H. POINCARE
 Job cpu time:       0 days  0 hours 24 minutes 17.0 seconds.
 File lengths (MBytes):  RWF=    153 Int=      0 D2E=      0 Chk=      9 Scr=      1
 Normal termination of Gaussian 09 at Thu Mar 27 11:24:40 2025.
