 Entering Gaussian System, Link 0=g16
 Initial command:
 /opt/g16/l1.exe "/home/aayush/scratches/g16/Gau-8861.inp" -scrdir="/home/aayush/scratches/g16/"
 Entering Link 1 = /opt/g16/l1.exe PID=      8864.
  
 Copyright (c) 1988,1990,1992,1993,1995,1998,2003,2009,2016,
            Gaussian, Inc.  All Rights Reserved.
  
 This is part of the Gaussian(R) 16 program.  It is based on
 the Gaussian(R) 09 system (copyright 2009, Gaussian, Inc.),
 the Gaussian(R) 03 system (copyright 2003, Gaussian, Inc.),
 the Gaussian(R) 98 system (copyright 1998, Gaussian, Inc.),
 the Gaussian(R) 94 system (copyright 1995, Gaussian, Inc.),
 the Gaussian 92(TM) system (copyright 1992, Gaussian, Inc.),
 the Gaussian 90(TM) system (copyright 1990, Gaussian, Inc.),
 the Gaussian 88(TM) system (copyright 1988, Gaussian, Inc.),
 the Gaussian 86(TM) system (copyright 1986, Carnegie Mellon
 University), and the Gaussian 82(TM) system (copyright 1983,
 Carnegie Mellon University). Gaussian is a federally registered
 trademark of Gaussian, Inc.
  
 This software contains proprietary and confidential information,
 including trade secrets, belonging to Gaussian, Inc.
  
 This software is provided under written license and may be
 used, copied, transmitted, or stored only in accord with that
 written license.
  
 The following legend is applicable only to US Government
 contracts under FAR:
  
                    RESTRICTED RIGHTS LEGEND
  
 Use, reproduction and disclosure by the US Government is
 subject to restrictions as set forth in subparagraphs (a)
 and (c) of the Commercial Computer Software - Restricted
 Rights clause in FAR 52.227-19.
  
 Gaussian, Inc.
 340 Quinnipiac St., Bldg. 40, Wallingford CT 06492
  
  
 ---------------------------------------------------------------
 Warning -- This program may not be used in any manner that
 competes with the business of Gaussian, Inc. or will provide
 assistance to any competitor of Gaussian, Inc.  The licensee
 of this program is prohibited from giving any competitor of
 Gaussian, Inc. access to this program.  By using this program,
 the user acknowledges that Gaussian, Inc. is engaged in the
 business of creating and licensing software in the field of
 computational chemistry and represents and warrants to the
 licensee that it is not a competitor of Gaussian, Inc. and that
 it will not use this program in any manner prohibited above.
 ---------------------------------------------------------------
  

 Cite this work as:
 Gaussian 16, Revision A.03,
 M. J. Frisch, G. W. Trucks, H. B. Schlegel, G. E. Scuseria, 
 M. A. Robb, J. R. Cheeseman, G. Scalmani, V. Barone, 
 G. A. Petersson, H. Nakatsuji, X. Li, M. Caricato, A. V. Marenich, 
 J. Bloino, B. G. Janesko, R. Gomperts, B. Mennucci, H. P. Hratchian, 
 J. V. Ortiz, A. F. Izmaylov, J. L. Sonnenberg, D. Williams-Young, 
 F. Ding, F. Lipparini, F. Egidi, J. Goings, B. Peng, A. Petrone, 
 T. Henderson, D. Ranasinghe, V. G. Zakrzewski, J. Gao, N. Rega, 
 G. Zheng, W. Liang, M. Hada, M. Ehara, K. Toyota, R. Fukuda, 
 J. Hasegawa, M. Ishida, T. Nakajima, Y. Honda, O. Kitao, H. Nakai, 
 T. Vreven, K. Throssell, J. A. Montgomery, Jr., J. E. Peralta, 
 F. Ogliaro, M. J. Bearpark, J. J. Heyd, E. N. Brothers, K. N. Kudin, 
 V. N. Staroverov, T. A. Keith, R. Kobayashi, J. Normand, 
 K. Raghavachari, A. P. Rendell, J. C. Burant, S. S. Iyengar, 
 J. Tomasi, M. Cossi, J. M. Millam, M. Klene, C. Adamo, R. Cammi, 
 J. W. Ochterski, R. L. Martin, K. Morokuma, O. Farkas, 
 J. B. Foresman, and D. J. Fox, Gaussian, Inc., Wallingford CT, 2016.
 
 ******************************************
 Gaussian 16:  ES64L-G16RevA.03 25-Dec-2016
                17-Apr-2025 
 ******************************************
 %chk=ethyl_propiolate.chk
 %nprocshared=24
 Will use up to   24 processors via shared memory.
 %mem=12GB
 --------------------------
 # ccsd(t)/6-311++g(d,p) sp
 --------------------------
 1/38=1,172=1/1;
 2/12=2,17=6,18=5,40=1/2;
 3/5=4,6=6,7=1111,11=9,25=1,30=1/1,2,3;
 4//1;
 5/5=2,38=5/2;
 8/6=4,9=120000,10=2/1,4;
 9/5=7,14=2/13;
 6/7=2,8=2,9=2,10=2/1;
 99/5=1,9=1/99;
 -------------------
 Title Card Required
 -------------------
 Symbolic Z-matrix:
 Charge =  0 Multiplicity = 2
 C                     2.18305  -0.41146  -0.06316 
 H                     3.39296  -0.87207  -0.12519 
 C                     1.07521   0.06656  -0.01769 
 C                    -0.27938   0.61386  -0.0038 
 O                    -0.51704   1.78918   0.01212 
 O                    -1.19256  -0.35425  -0.01013 
 C                    -2.56591   0.08431   0.00855 
 C                    -3.4271   -1.15715  -0.00408 
 H                    -2.72338   0.68928   0.90388 
 H                    -2.73897   0.71852  -0.8633 
 H                    -3.237    -1.7463   -0.90195 
 H                    -3.21997  -1.77607   0.86966 
 H                    -4.48087  -0.87377   0.0106 
 O                     4.50004  -0.60411   0.08798 
 H                     4.60859   0.24687  -0.36671 
 
                          Input orientation:                          
 ---------------------------------------------------------------------
 Center     Atomic      Atomic             Coordinates (Angstroms)
 Number     Number       Type             X           Y           Z
 ---------------------------------------------------------------------
      1          6           0        2.183049   -0.411458   -0.063162
      2          1           0        3.392964   -0.872066   -0.125190
      3          6           0        1.075213    0.066555   -0.017688
      4          6           0       -0.279377    0.613860   -0.003797
      5          8           0       -0.517035    1.789177    0.012123
      6          8           0       -1.192559   -0.354250   -0.010131
      7          6           0       -2.565912    0.084309    0.008554
      8          6           0       -3.427095   -1.157149   -0.004079
      9          1           0       -2.723381    0.689279    0.903877
     10          1           0       -2.738973    0.718524   -0.863303
     11          1           0       -3.237001   -1.746303   -0.901953
     12          1           0       -3.219967   -1.776072    0.869657
     13          1           0       -4.480872   -0.873774    0.010604
     14          8           0        4.500037   -0.604106    0.087983
     15          1           0        4.608592    0.246871   -0.366711
 ---------------------------------------------------------------------
                    Distance matrix (angstroms):
                    1          2          3          4          5
     1  C    0.000000
     2  H    1.296110   0.000000
     3  C    1.207421   2.502905   0.000000
     4  C    2.668022   3.963433   1.461044   0.000000
     5  O    3.484095   4.731719   2.345969   1.199210   0.000000
     6  O    3.376509   4.616102   2.306496   1.330856   2.247467
     7  C    4.775307   6.036617   3.641263   2.347087   2.665424
     8  C    5.659793   6.827089   4.665663   3.611731   4.141201
     9  H    5.120531   6.395815   3.958078   2.608202   2.621634
    10  H    5.113060   6.377730   3.960826   2.607550   2.617189
    11  H    5.644672   6.732317   4.760627   3.889035   4.553391
    12  H    5.650213   6.748170   4.757229   3.888672   4.555459
    13  H    6.680346   7.875007   5.635166   4.457109   4.775282
    14  O    2.329891   1.158817   3.491471   4.933018   5.559188
    15  H    2.531560   1.669762   3.555151   4.915143   5.366030
                    6          7          8          9         10
     6  O    0.000000
     7  C    1.441798   0.000000
     8  C    2.374412   1.510964   0.000000
     9  H    2.065860   1.091965   2.174602   0.000000
    10  H    2.066432   1.091931   2.174840   1.767491   0.000000
    11  H    2.629240   2.151865   1.090603   3.075205   2.514935
    12  H    2.627925   2.151814   1.090588   2.515099   3.075307
    13  H    3.329165   2.141261   1.091312   2.515919   2.516613
    14  O    5.698921   7.099849   7.946934   7.383515   7.420078
    15  H    5.843103   7.186150   8.165479   7.454391   7.379415
                   11         12         13         14         15
    11  H    0.000000
    12  H    1.771942   0.000000
    13  H    1.772366   1.772567   0.000000
    14  O    7.883295   7.847482   8.985290   0.000000
    15  H    8.112494   8.179685   9.166055   0.970924   0.000000
 Stoichiometry    C5H7O3(2)
 Framework group  C1[X(C5H7O3)]
 Deg. of freedom    39
 Full point group                 C1      NOp   1
 Largest Abelian subgroup         C1      NOp   1
 Largest concise Abelian subgroup C1      NOp   1
                         Standard orientation:                         
 ---------------------------------------------------------------------
 Center     Atomic      Atomic             Coordinates (Angstroms)
 Number     Number       Type             X           Y           Z
 ---------------------------------------------------------------------
      1          6           0        2.250980   -0.383563   -0.059901
      2          1           0        3.460581   -0.844939   -0.122350
      3          6           0        1.143467    0.095158   -0.014018
      4          6           0       -0.210760    0.643347    0.000357
      5          8           0       -0.447643    1.818813    0.016823
      6          8           0       -1.124580   -0.324160   -0.006222
      7          6           0       -2.497641    0.115293    0.012905
      8          6           0       -3.359641   -1.125593   -0.000099
      9          1           0       -2.654547    0.719984    0.908515
     10          1           0       -2.670446    0.749994   -0.858649
     11          1           0       -3.170100   -1.714488   -0.898260
     12          1           0       -3.152759   -1.745025    0.873334
     13          1           0       -4.413229   -0.841532    0.014900
     14          8           0        4.567869   -0.577798    0.090733
     15          1           0        4.676899    0.273302   -0.363618
 ---------------------------------------------------------------------
 Rotational constants (GHZ):           5.3754576           0.6868724           0.6142024
 Standard basis: 6-311++G(d,p) (5D, 7F)
 There are   233 symmetry adapted cartesian basis functions of A   symmetry.
 There are   225 symmetry adapted basis functions of A   symmetry.
   225 basis functions,   351 primitive gaussians,   233 cartesian basis functions
    31 alpha electrons       30 beta electrons
       nuclear repulsion energy       330.9029826184 Hartrees.
 NAtoms=   15 NActive=   15 NUniq=   15 SFac= 1.00D+00 NAtFMM=   60 NAOKFM=F Big=F
 Integral buffers will be    131072 words long.
 Raffenetti 2 integral format.
 Two-electron integral symmetry is turned on.
 One-electron integrals computed using PRISM.
 NBasis=   225 RedAO= T EigKep=  4.40D-06  NBF=   225
 NBsUse=   224 1.00D-06 EigRej=  4.25D-07 NBFU=   224
 ExpMin= 3.60D-02 ExpMax= 8.59D+03 ExpMxC= 1.30D+03 IAcc=3 IRadAn=         5 AccDes= 0.00D+00
 Harris functional with IExCor=  205 and IRadAn=       5 diagonalized for initial guess.
 HarFok:  IExCor=  205 AccDes= 0.00D+00 IRadAn=         5 IDoV= 1 UseB2=F ITyADJ=14
 ICtDFT=  3500011 ScaDFX=  1.000000  1.000000  1.000000  1.000000
 FoFCou: FMM=F IPFlag=           0 FMFlag=      100000 FMFlg1=           0
         NFxFlg=           0 DoJE=T BraDBF=F KetDBF=T FulRan=T
         wScrn=  0.000000 ICntrl=       500 IOpCl=  0 I1Cent=   200000004 NGrid=           0
         NMat0=    1 NMatS0=      1 NMatT0=    0 NMatD0=    1 NMtDS0=    0 NMtDT0=    0
 Petite list used in FoFCou.
 Initial guess <Sx>= 0.0000 <Sy>= 0.0000 <Sz>= 0.5000 <S**2>= 0.7500 S= 0.5000
 Requested convergence on RMS density matrix=1.00D-08 within 128 cycles.
 Requested convergence on MAX density matrix=1.00D-06.
 Requested convergence on             energy=1.00D-06.
 No special actions if energy rises.
 Initial convergence to 2.7D-05 achieved.  Increase integral accuracy.
 SCF Done:  E(UHF) =  -417.941125030     A.U. after   40 cycles
            NFock= 40  Conv=0.60D-08     -V/T= 2.0007
 <Sx>= 0.0000 <Sy>= 0.0000 <Sz>= 0.5000 <S**2>= 0.9895 S= 0.6133
 <L.S>=  0.00000000000    
 Annihilation of the first spin contaminant:
 S**2 before annihilation     0.9895,   after     0.7963
 ExpMin= 3.60D-02 ExpMax= 8.59D+03 ExpMxC= 1.30D+03 IAcc=3 IRadAn=         5 AccDes= 0.00D+00
 HarFok:  IExCor=  205 AccDes= 0.00D+00 IRadAn=         5 IDoV=-2 UseB2=F ITyADJ=14
 ICtDFT= 12500011 ScaDFX=  1.000000  1.000000  1.000000  1.000000
 Range of M.O.s used for correlation:     9   224
 NBasis=   225 NAE=    31 NBE=    30 NFC=     8 NFV=     0
 NROrb=    216 NOA=    23 NOB=    22 NVA=   193 NVB=   194

 **** Warning!!: The largest alpha MO coefficient is  0.16778949D+03


 **** Warning!!: The largest beta MO coefficient is  0.15660351D+03

 Semi-Direct transformation.
 ModeAB=           4 MOrb=            23 LenV=    1609197005
 LASXX=    107793295 LTotXX=   107793295 LenRXX=   218294035
 LTotAB=   110500740 MaxLAS=   119525112 LenRXY=           0
 NonZer=   326087330 LenScr=   491049984 LnRSAI=   119525112
 LnScr1=   180055040 LExtra=           0 Total=   1008924171
 MaxDsk=          -1 SrtSym=           T ITran=            4
 JobTyp=1 Pass  1:  I=   1 to  23.
 (rs|ai) integrals will be sorted in core.
 ModeAB=           4 MOrb=            22 LenV=    1609197005
 LASXX=    103454307 LTotXX=   103454307 LenRXX=   188091948
 LTotAB=    84637641 MaxLAS=   114328368 LenRXY=           0
 NonZer=   291546255 LenScr=   439034880 LnRSAI=   114328368
 LnScr1=   172261376 LExtra=           0 Total=    913716572
 MaxDsk=          -1 SrtSym=           T ITran=            4
 JobTyp=2 Pass  1:  I=   1 to  22.
 (rs|ai) integrals will be sorted in core.
 SymMOI:  orbitals are not symmetric.
 Spin components of T(2) and E(2):
     alpha-alpha T2 =       0.5294198025D-01 E2=     -0.1712449047D+00
     alpha-beta  T2 =       0.2875939696D+00 E2=     -0.9379797778D+00
     beta-beta   T2 =       0.5162207012D-01 E2=     -0.1605130650D+00
 ANorm=    0.1179897462D+01
 E2 =    -0.1269737747D+01 EUMP2 =    -0.41921086277724D+03
 (S**2,0)=  0.98952D+00           (S**2,1)=  0.92074D+00
 E(PUHF)=      -0.41796236170D+03        E(PMP2)=      -0.41922935624D+03
 Keep R2 and R3 ints in memory in canonical form, NReq=652883968.
 CIDS: In Core Option IDoMem=           1.
 Iterations=  50 Convergence= 0.100D-06
 Produce multiple copies of IABC intergrals
 Iteration Nr.   1
 **********************
 DD1Dir will call FoFMem   1 times, MxPair=      1496
 NAB=   506 NAA=   253 NBB=   231.
 E(PMP3)=      -0.41925070607D+03
 MP4(R+Q)=  0.24919941D-01
 E3=       -0.25865317D-01        EUMP3=      -0.41923672809D+03
 E4(DQ)=   -0.61418040D-02        UMP4(DQ)=   -0.41924286990D+03
 E4(SDQ)=  -0.28120921D-01        UMP4(SDQ)=  -0.41926484901D+03
 DE(Corr)=  -1.2704085     E(Corr)=     -419.21153351    
 NORM(A)=   0.11883094D+01
 Iteration Nr.   2
 **********************
 DD1Dir will call FoFMem   1 times, MxPair=      1496
 NAB=   506 NAA=   253 NBB=   231.
 DE(Corr)=  -1.3150579     E(CORR)=     -419.25618289     Delta=-4.46D-02
 NORM(A)=   0.12109933D+01
 Iteration Nr.   3
 **********************
 DD1Dir will call FoFMem   1 times, MxPair=      1496
 NAB=   506 NAA=   253 NBB=   231.
 DE(Corr)=  -1.3186528     E(CORR)=     -419.25977779     Delta=-3.59D-03
 NORM(A)=   0.12245169D+01
 Iteration Nr.   4
 **********************
 DD1Dir will call FoFMem   1 times, MxPair=      1496
 NAB=   506 NAA=   253 NBB=   231.
 DE(Corr)=  -1.3265201     E(CORR)=     -419.26764508     Delta=-7.87D-03
 NORM(A)=   0.12334632D+01
 Iteration Nr.   5
 **********************
 DD1Dir will call FoFMem   1 times, MxPair=      1496
 NAB=   506 NAA=   253 NBB=   231.
 DE(Corr)=  -1.3288567     E(CORR)=     -419.26998169     Delta=-2.34D-03
 NORM(A)=   0.12385234D+01
 Iteration Nr.   6
 **********************
 DD1Dir will call FoFMem   1 times, MxPair=      1496
 NAB=   506 NAA=   253 NBB=   231.
 DE(Corr)=  -1.3296358     E(CORR)=     -419.27076084     Delta=-7.79D-04
 NORM(A)=   0.12397194D+01
 Iteration Nr.   7
 **********************
 DD1Dir will call FoFMem   1 times, MxPair=      1496
 NAB=   506 NAA=   253 NBB=   231.
 DE(Corr)=  -1.3297861     E(CORR)=     -419.27091116     Delta=-1.50D-04
 NORM(A)=   0.12401905D+01
 Iteration Nr.   8
 **********************
 DD1Dir will call FoFMem   1 times, MxPair=      1496
 NAB=   506 NAA=   253 NBB=   231.
 DE(Corr)=  -1.3297876     E(CORR)=     -419.27091266     Delta=-1.50D-06
 NORM(A)=   0.12403934D+01
 Iteration Nr.   9
 **********************
 DD1Dir will call FoFMem   1 times, MxPair=      1496
 NAB=   506 NAA=   253 NBB=   231.
 DE(Corr)=  -1.3297747     E(CORR)=     -419.27089970     Delta= 1.30D-05
 NORM(A)=   0.12404723D+01
 Iteration Nr.  10
 **********************
 DD1Dir will call FoFMem   1 times, MxPair=      1496
 NAB=   506 NAA=   253 NBB=   231.
 DE(Corr)=  -1.3297685     E(CORR)=     -419.27089357     Delta= 6.13D-06
 NORM(A)=   0.12405444D+01
 Iteration Nr.  11
 **********************
 DD1Dir will call FoFMem   1 times, MxPair=      1496
 NAB=   506 NAA=   253 NBB=   231.
 DE(Corr)=  -1.3297757     E(CORR)=     -419.27090077     Delta=-7.20D-06
 NORM(A)=   0.12406469D+01
 Iteration Nr.  12
 **********************
 DD1Dir will call FoFMem   1 times, MxPair=      1496
 NAB=   506 NAA=   253 NBB=   231.
 DE(Corr)=  -1.3297936     E(CORR)=     -419.27091862     Delta=-1.79D-05
 NORM(A)=   0.12407605D+01
 Iteration Nr.  13
 **********************
 DD1Dir will call FoFMem   1 times, MxPair=      1496
 NAB=   506 NAA=   253 NBB=   231.
 DE(Corr)=  -1.3298139     E(CORR)=     -419.27093890     Delta=-2.03D-05
 NORM(A)=   0.12408576D+01
 Iteration Nr.  14
 **********************
 DD1Dir will call FoFMem   1 times, MxPair=      1496
 NAB=   506 NAA=   253 NBB=   231.
 DE(Corr)=  -1.3298343     E(CORR)=     -419.27095928     Delta=-2.04D-05
 NORM(A)=   0.12409504D+01
 Iteration Nr.  15
 **********************
 DD1Dir will call FoFMem   1 times, MxPair=      1496
 NAB=   506 NAA=   253 NBB=   231.
 DE(Corr)=  -1.3298504     E(CORR)=     -419.27097541     Delta=-1.61D-05
 NORM(A)=   0.12410042D+01
 Iteration Nr.  16
 **********************
 DD1Dir will call FoFMem   1 times, MxPair=      1496
 NAB=   506 NAA=   253 NBB=   231.
 DE(Corr)=  -1.3298597     E(CORR)=     -419.27098471     Delta=-9.29D-06
 NORM(A)=   0.12410274D+01
 Iteration Nr.  17
 **********************
 DD1Dir will call FoFMem   1 times, MxPair=      1496
 NAB=   506 NAA=   253 NBB=   231.
 DE(Corr)=  -1.3298624     E(CORR)=     -419.27098739     Delta=-2.68D-06
 NORM(A)=   0.12410216D+01
 Iteration Nr.  18
 **********************
 DD1Dir will call FoFMem   1 times, MxPair=      1496
 NAB=   506 NAA=   253 NBB=   231.
 DE(Corr)=  -1.3298594     E(CORR)=     -419.27098446     Delta= 2.93D-06
 NORM(A)=   0.12410070D+01
 Iteration Nr.  19
 **********************
 DD1Dir will call FoFMem   1 times, MxPair=      1496
 NAB=   506 NAA=   253 NBB=   231.
 DE(Corr)=  -1.3298555     E(CORR)=     -419.27098049     Delta= 3.97D-06
 NORM(A)=   0.12409928D+01
 Iteration Nr.  20
 **********************
 DD1Dir will call FoFMem   1 times, MxPair=      1496
 NAB=   506 NAA=   253 NBB=   231.
 DE(Corr)=  -1.3298518     E(CORR)=     -419.27097682     Delta= 3.67D-06
 NORM(A)=   0.12409860D+01
 Iteration Nr.  21
 **********************
 DD1Dir will call FoFMem   1 times, MxPair=      1496
 NAB=   506 NAA=   253 NBB=   231.
 DE(Corr)=  -1.3298500     E(CORR)=     -419.27097505     Delta= 1.77D-06
 NORM(A)=   0.12409859D+01
 Iteration Nr.  22
 **********************
 DD1Dir will call FoFMem   1 times, MxPair=      1496
 NAB=   506 NAA=   253 NBB=   231.
 DE(Corr)=  -1.3298497     E(CORR)=     -419.27097469     Delta= 3.64D-07
 NORM(A)=   0.12409900D+01
 Iteration Nr.  23
 **********************
 DD1Dir will call FoFMem   1 times, MxPair=      1496
 NAB=   506 NAA=   253 NBB=   231.
 DE(Corr)=  -1.3298501     E(CORR)=     -419.27097511     Delta=-4.29D-07
 NORM(A)=   0.12409970D+01
 Iteration Nr.  24
 **********************
 DD1Dir will call FoFMem   1 times, MxPair=      1496
 NAB=   506 NAA=   253 NBB=   231.
 DE(Corr)=  -1.3298511     E(CORR)=     -419.27097611     Delta=-9.97D-07
 NORM(A)=   0.12410034D+01
 Iteration Nr.  25
 **********************
 DD1Dir will call FoFMem   1 times, MxPair=      1496
 NAB=   506 NAA=   253 NBB=   231.
 DE(Corr)=  -1.3298520     E(CORR)=     -419.27097699     Delta=-8.74D-07
 NORM(A)=   0.12410076D+01
 Iteration Nr.  26
 **********************
 DD1Dir will call FoFMem   1 times, MxPair=      1496
 NAB=   506 NAA=   253 NBB=   231.
 DE(Corr)=  -1.3298526     E(CORR)=     -419.27097760     Delta=-6.13D-07
 NORM(A)=   0.12410104D+01
 Iteration Nr.  27
 **********************
 DD1Dir will call FoFMem   1 times, MxPair=      1496
 NAB=   506 NAA=   253 NBB=   231.
 DE(Corr)=  -1.3298530     E(CORR)=     -419.27097799     Delta=-3.90D-07
 NORM(A)=   0.12410116D+01
 Iteration Nr.  28
 **********************
 DD1Dir will call FoFMem   1 times, MxPair=      1496
 NAB=   506 NAA=   253 NBB=   231.
 DE(Corr)=  -1.3298531     E(CORR)=     -419.27097812     Delta=-1.28D-07
 NORM(A)=   0.12410114D+01
 Iteration Nr.  29
 **********************
 DD1Dir will call FoFMem   1 times, MxPair=      1496
 NAB=   506 NAA=   253 NBB=   231.
 DE(Corr)=  -1.3298531     E(CORR)=     -419.27097810     Delta= 1.67D-08
 NORM(A)=   0.12410104D+01
 Wavefunction amplitudes converged. E(Corr)=     -419.27097810    
 Largest amplitude= 7.77D-02
 Time for triples=    37675.83 seconds.
 T4(CCSD)= -0.59284968D-01
 T5(CCSD)=  0.42366831D-02
 CCSD(T)= -0.41932602639D+03

 S**2, projected HF & approx projected MPn energies after annihilation of
 unwanted spin states (see manual for definitions):

 spins       (S**2,0) (S**2,1)    PUHF        PMP2        PMP3        PMP4
 annihilated
 s+1         0.72330  0.74091 -417.962362 -419.229356 -419.250706
 s+1,s+2     0.75082  0.74989 -417.960370 -419.227487 -419.248994
 s+1 to s+3  0.74999  0.75001 -417.960431 -419.227529 -419.249008
 s+1 to s+4  0.75000  0.75000 -417.960431 -419.227529 -419.249008
 s+1 to s+5  0.75000  0.75000 -417.960431
 s+1 to s+6  0.75000  0.75000 -417.960431

 Discarding MO integrals.

 **********************************************************************

            Population analysis using the SCF density.

 **********************************************************************

 Orbital symmetries:
 Alpha Orbitals:
       Occupied  (A) (A) (A) (A) (A) (A) (A) (A) (A) (A) (A) (A)
                 (A) (A) (A) (A) (A) (A) (A) (A) (A) (A) (A) (A)
                 (A) (A) (A) (A) (A) (A) (A)
       Virtual   (A) (A) (A) (A) (A) (A) (A) (A) (A) (A) (A) (A)
                 (A) (A) (A) (A) (A) (A) (A) (A) (A) (A) (A) (A)
                 (A) (A) (A) (A) (A) (A) (A) (A) (A) (A) (A) (A)
                 (A) (A) (A) (A) (A) (A) (A) (A) (A) (A) (A) (A)
                 (A) (A) (A) (A) (A) (A) (A) (A) (A) (A) (A) (A)
                 (A) (A) (A) (A) (A) (A) (A) (A) (A) (A) (A) (A)
                 (A) (A) (A) (A) (A) (A) (A) (A) (A) (A) (A) (A)
                 (A) (A) (A) (A) (A) (A) (A) (A) (A) (A) (A) (A)
                 (A) (A) (A) (A) (A) (A) (A) (A) (A) (A) (A) (A)
                 (A) (A) (A) (A) (A) (A) (A) (A) (A) (A) (A) (A)
                 (A) (A) (A) (A) (A) (A) (A) (A) (A) (A) (A) (A)
                 (A) (A) (A) (A) (A) (A) (A) (A) (A) (A) (A) (A)
                 (A) (A) (A) (A) (A) (A) (A) (A) (A) (A) (A) (A)
                 (A) (A) (A) (A) (A) (A) (A) (A) (A) (A) (A) (A)
                 (A) (A) (A) (A) (A) (A) (A) (A) (A) (A) (A) (A)
                 (A) (A) (A) (A) (A) (A) (A) (A) (A) (A) (A) (A)
                 (A)
 Beta  Orbitals:
       Occupied  (A) (A) (A) (A) (A) (A) (A) (A) (A) (A) (A) (A)
                 (A) (A) (A) (A) (A) (A) (A) (A) (A) (A) (A) (A)
                 (A) (A) (A) (A) (A) (A)
       Virtual   (A) (A) (A) (A) (A) (A) (A) (A) (A) (A) (A) (A)
                 (A) (A) (A) (A) (A) (A) (A) (A) (A) (A) (A) (A)
                 (A) (A) (A) (A) (A) (A) (A) (A) (A) (A) (A) (A)
                 (A) (A) (A) (A) (A) (A) (A) (A) (A) (A) (A) (A)
                 (A) (A) (A) (A) (A) (A) (A) (A) (A) (A) (A) (A)
                 (A) (A) (A) (A) (A) (A) (A) (A) (A) (A) (A) (A)
                 (A) (A) (A) (A) (A) (A) (A) (A) (A) (A) (A) (A)
                 (A) (A) (A) (A) (A) (A) (A) (A) (A) (A) (A) (A)
                 (A) (A) (A) (A) (A) (A) (A) (A) (A) (A) (A) (A)
                 (A) (A) (A) (A) (A) (A) (A) (A) (A) (A) (A) (A)
                 (A) (A) (A) (A) (A) (A) (A) (A) (A) (A) (A) (A)
                 (A) (A) (A) (A) (A) (A) (A) (A) (A) (A) (A) (A)
                 (A) (A) (A) (A) (A) (A) (A) (A) (A) (A) (A) (A)
                 (A) (A) (A) (A) (A) (A) (A) (A) (A) (A) (A) (A)
                 (A) (A) (A) (A) (A) (A) (A) (A) (A) (A) (A) (A)
                 (A) (A) (A) (A) (A) (A) (A) (A) (A) (A) (A) (A)
                 (A) (A)
 The electronic state is 2-A.
 Alpha  occ. eigenvalues --  -20.67468 -20.61322 -20.55794 -11.41446 -11.29775
 Alpha  occ. eigenvalues --  -11.28077 -11.24568 -11.22967  -1.48128  -1.45132
 Alpha  occ. eigenvalues --   -1.37691  -1.07379  -1.04483  -0.92022  -0.84163
 Alpha  occ. eigenvalues --   -0.81611  -0.76215  -0.71879  -0.69456  -0.68856
 Alpha  occ. eigenvalues --   -0.61000  -0.59750  -0.59214  -0.56532  -0.55791
 Alpha  occ. eigenvalues --   -0.52121  -0.51952  -0.47707  -0.46405  -0.43189
 Alpha  occ. eigenvalues --   -0.42935
 Alpha virt. eigenvalues --    0.03910   0.04291   0.06299   0.06576   0.06877
 Alpha virt. eigenvalues --    0.08048   0.09468   0.09881   0.11547   0.12259
 Alpha virt. eigenvalues --    0.12823   0.14345   0.15598   0.15692   0.16211
 Alpha virt. eigenvalues --    0.17037   0.18234   0.18518   0.19246   0.19813
 Alpha virt. eigenvalues --    0.20171   0.20894   0.22443   0.22607   0.23386
 Alpha virt. eigenvalues --    0.24743   0.26372   0.27431   0.28495   0.29425
 Alpha virt. eigenvalues --    0.29779   0.29991   0.30952   0.32397   0.32424
 Alpha virt. eigenvalues --    0.33442   0.35633   0.36485   0.37850   0.39182
 Alpha virt. eigenvalues --    0.40521   0.41039   0.41891   0.42192   0.43907
 Alpha virt. eigenvalues --    0.45162   0.46133   0.47523   0.48499   0.49757
 Alpha virt. eigenvalues --    0.54248   0.57048   0.57637   0.58325   0.63677
 Alpha virt. eigenvalues --    0.65158   0.67791   0.70060   0.70747   0.73256
 Alpha virt. eigenvalues --    0.76251   0.78771   0.81551   0.84524   0.85653
 Alpha virt. eigenvalues --    0.85961   0.86755   0.86940   0.87530   0.89849
 Alpha virt. eigenvalues --    0.90781   0.92940   0.95610   0.98040   0.99875
 Alpha virt. eigenvalues --    1.07932   1.08878   1.11359   1.18567   1.19127
 Alpha virt. eigenvalues --    1.20207   1.22690   1.24559   1.28195   1.32608
 Alpha virt. eigenvalues --    1.35664   1.36860   1.38934   1.39361   1.42073
 Alpha virt. eigenvalues --    1.42816   1.43297   1.49092   1.49164   1.50721
 Alpha virt. eigenvalues --    1.51442   1.52644   1.57615   1.60902   1.64280
 Alpha virt. eigenvalues --    1.68696   1.71566   1.72341   1.77785   1.80161
 Alpha virt. eigenvalues --    1.81037   1.81742   1.84518   1.85455   1.87779
 Alpha virt. eigenvalues --    1.89275   1.92600   1.93374   1.95068   1.99646
 Alpha virt. eigenvalues --    2.01180   2.02204   2.08917   2.11374   2.16509
 Alpha virt. eigenvalues --    2.19543   2.22157   2.28755   2.30378   2.34684
 Alpha virt. eigenvalues --    2.41289   2.41476   2.48105   2.56103   2.60790
 Alpha virt. eigenvalues --    2.64834   2.72952   2.77554   2.78114   2.79860
 Alpha virt. eigenvalues --    2.82015   2.85675   2.88363   2.92505   2.94855
 Alpha virt. eigenvalues --    2.96417   2.98435   3.02389   3.03736   3.13889
 Alpha virt. eigenvalues --    3.14543   3.17083   3.21750   3.27915   3.29170
 Alpha virt. eigenvalues --    3.31201   3.34792   3.35753   3.38394   3.42319
 Alpha virt. eigenvalues --    3.43967   3.45037   3.49438   3.53260   3.61168
 Alpha virt. eigenvalues --    3.63637   3.68527   3.72290   3.78663   3.94019
 Alpha virt. eigenvalues --    3.96969   4.04129   4.11416   4.19882   4.21186
 Alpha virt. eigenvalues --    4.21751   4.22007   4.42680   4.50862   4.52411
 Alpha virt. eigenvalues --    4.69336   5.46797   5.56456   5.62454   5.72654
 Alpha virt. eigenvalues --    5.77220   5.91287   6.01556   6.21590   6.43152
 Alpha virt. eigenvalues --   24.56226  24.99561  25.01706  25.13920  26.13559
 Alpha virt. eigenvalues --   51.47516  51.60258  51.71358
  Beta  occ. eigenvalues --  -20.64095 -20.61341 -20.56254 -11.41104 -11.29781
  Beta  occ. eigenvalues --  -11.25953 -11.24711 -11.22967  -1.48355  -1.38442
  Beta  occ. eigenvalues --   -1.33011  -1.07533  -1.03400  -0.90620  -0.82688
  Beta  occ. eigenvalues --   -0.76608  -0.73759  -0.69585  -0.69364  -0.61386
  Beta  occ. eigenvalues --   -0.60459  -0.59021  -0.55959  -0.54671  -0.52745
  Beta  occ. eigenvalues --   -0.52176  -0.48520  -0.47497  -0.42059  -0.41734
  Beta virt. eigenvalues --    0.00150   0.04205   0.05326   0.06314   0.06582
  Beta virt. eigenvalues --    0.06942   0.08125   0.09689   0.10260   0.11535
  Beta virt. eigenvalues --    0.12864   0.13190   0.14307   0.15264   0.16197
  Beta virt. eigenvalues --    0.16791   0.17349   0.18548   0.18593   0.19347
  Beta virt. eigenvalues --    0.19806   0.20231   0.21316   0.22548   0.23116
  Beta virt. eigenvalues --    0.24104   0.24948   0.26584   0.27795   0.28796
  Beta virt. eigenvalues --    0.29639   0.29741   0.30115   0.31345   0.32517
  Beta virt. eigenvalues --    0.32824   0.33709   0.35777   0.36790   0.37837
  Beta virt. eigenvalues --    0.39078   0.40659   0.41071   0.41800   0.42854
  Beta virt. eigenvalues --    0.44472   0.45362   0.46138   0.47678   0.49584
  Beta virt. eigenvalues --    0.50312   0.54389   0.57056   0.57741   0.58951
  Beta virt. eigenvalues --    0.63978   0.65100   0.68212   0.70210   0.72387
  Beta virt. eigenvalues --    0.73806   0.78042   0.80473   0.81851   0.84336
  Beta virt. eigenvalues --    0.85594   0.86120   0.86260   0.86987   0.87288
  Beta virt. eigenvalues --    0.90111   0.91793   0.94018   0.97064   0.98108
  Beta virt. eigenvalues --    1.00990   1.07885   1.08413   1.11272   1.19389
  Beta virt. eigenvalues --    1.20819   1.21830   1.23090   1.26690   1.30856
  Beta virt. eigenvalues --    1.35853   1.36123   1.37089   1.38723   1.39285
  Beta virt. eigenvalues --    1.42489   1.43283   1.43299   1.49178   1.49661
  Beta virt. eigenvalues --    1.51436   1.52059   1.53063   1.58793   1.62364
  Beta virt. eigenvalues --    1.65060   1.70031   1.71567   1.72699   1.79299
  Beta virt. eigenvalues --    1.80173   1.81072   1.82517   1.84646   1.85948
  Beta virt. eigenvalues --    1.88028   1.89366   1.92571   1.93487   1.95107
  Beta virt. eigenvalues --    2.00008   2.01453   2.02679   2.09614   2.11733
  Beta virt. eigenvalues --    2.16613   2.20112   2.23983   2.28758   2.31222
  Beta virt. eigenvalues --    2.35065   2.41458   2.42316   2.48119   2.56124
  Beta virt. eigenvalues --    2.62134   2.64840   2.73573   2.77723   2.79786
  Beta virt. eigenvalues --    2.80578   2.82033   2.85747   2.88361   2.92544
  Beta virt. eigenvalues --    2.94976   2.96417   2.98576   3.02795   3.04414
  Beta virt. eigenvalues --    3.13666   3.14804   3.18023   3.21601   3.28098
  Beta virt. eigenvalues --    3.30383   3.33964   3.35490   3.37429   3.38247
  Beta virt. eigenvalues --    3.44118   3.44620   3.44876   3.50998   3.58261
  Beta virt. eigenvalues --    3.61192   3.63982   3.69306   3.73001   3.77915
  Beta virt. eigenvalues --    3.96460   3.99022   4.05036   4.11619   4.19877
  Beta virt. eigenvalues --    4.21750   4.21893   4.26268   4.43012   4.51083
  Beta virt. eigenvalues --    4.52392   4.69341   5.49615   5.56338   5.61250
  Beta virt. eigenvalues --    5.76932   5.81065   5.91258   6.04257   6.21450
  Beta virt. eigenvalues --    6.43060  24.57187  24.99725  25.01835  25.13919
  Beta virt. eigenvalues --   26.14234  51.49415  51.60225  51.71107
          Condensed to atoms (all electrons):
               1          2          3          4          5          6
     1  C    6.391099   0.204780  -1.928519   2.188207  -0.088860  -0.126305
     2  H    0.204780   0.322393  -0.149642   0.087531  -0.000729  -0.003067
     3  C   -1.928519  -0.149642  15.899325  -8.689188   0.271547   0.023256
     4  C    2.188207   0.087531  -8.689188  12.931241   0.187432  -0.134076
     5  O   -0.088860  -0.000729   0.271547   0.187432   8.084186  -0.100661
     6  O   -0.126305  -0.003067   0.023256  -0.134076  -0.100661   8.465278
     7  C    0.049612   0.001933  -0.533745   0.055086  -0.039245   0.247248
     8  C    0.059628   0.001230  -0.354316   0.304429   0.016764  -0.202959
     9  H   -0.000848  -0.000056  -0.000996  -0.006063  -0.013908  -0.035026
    10  H   -0.001973  -0.000029   0.005485  -0.008714  -0.013753  -0.034627
    11  H   -0.001907  -0.000072   0.017095  -0.006220  -0.000968  -0.009290
    12  H   -0.001252  -0.000074   0.013736  -0.002689  -0.001091  -0.009779
    13  H   -0.000719  -0.000005   0.002269  -0.003111   0.001591   0.024760
    14  O   -0.014370   0.157545  -0.033709   0.019538   0.000028   0.000120
    15  H    0.033669  -0.040883   0.005881   0.000719  -0.000117  -0.000015
               7          8          9         10         11         12
     1  C    0.049612   0.059628  -0.000848  -0.001973  -0.001907  -0.001252
     2  H    0.001933   0.001230  -0.000056  -0.000029  -0.000072  -0.000074
     3  C   -0.533745  -0.354316  -0.000996   0.005485   0.017095   0.013736
     4  C    0.055086   0.304429  -0.006063  -0.008714  -0.006220  -0.002689
     5  O   -0.039245   0.016764  -0.013908  -0.013753  -0.000968  -0.001091
     6  O    0.247248  -0.202959  -0.035026  -0.034627  -0.009290  -0.009779
     7  C    5.448712   0.027186   0.447030   0.444109  -0.033750  -0.036886
     8  C    0.027186   5.682172  -0.059633  -0.059684   0.393038   0.396437
     9  H    0.447030  -0.059633   0.547698  -0.049885   0.004398  -0.006081
    10  H    0.444109  -0.059684  -0.049885   0.549150  -0.006216   0.004460
    11  H   -0.033750   0.393038   0.004398  -0.006216   0.565096  -0.039979
    12  H   -0.036886   0.396437  -0.006081   0.004460  -0.039979   0.563846
    13  H   -0.049406   0.411983  -0.003932  -0.004025  -0.034355  -0.034433
    14  O    0.000139   0.000101   0.000021   0.000009  -0.000004   0.000000
    15  H   -0.000188   0.000008   0.000006  -0.000004   0.000001   0.000002
              13         14         15
     1  C   -0.000719  -0.014370   0.033669
     2  H   -0.000005   0.157545  -0.040883
     3  C    0.002269  -0.033709   0.005881
     4  C   -0.003111   0.019538   0.000719
     5  O    0.001591   0.000028  -0.000117
     6  O    0.024760   0.000120  -0.000015
     7  C   -0.049406   0.000139  -0.000188
     8  C    0.411983   0.000101   0.000008
     9  H   -0.003932   0.000021   0.000006
    10  H   -0.004025   0.000009  -0.000004
    11  H   -0.034355  -0.000004   0.000001
    12  H   -0.034433   0.000000   0.000002
    13  H    0.549388  -0.000000  -0.000001
    14  O   -0.000000   7.788963   0.293178
    15  H   -0.000001   0.293178   0.429066
          Atomic-Atomic Spin Densities.
               1          2          3          4          5          6
     1  C    1.429834  -0.042334  -0.257657   0.141781   0.002873  -0.006449
     2  H   -0.042334  -0.109479  -0.016067   0.013300  -0.000050  -0.000172
     3  C   -0.257657  -0.016067   0.011727  -0.543564  -0.008600   0.078684
     4  C    0.141781   0.013300  -0.543564   0.500010   0.037852  -0.075877
     5  O    0.002873  -0.000050  -0.008600   0.037852  -0.129771   0.000920
     6  O   -0.006449  -0.000172   0.078684  -0.075877   0.000920   0.007294
     7  C   -0.000469  -0.000627   0.003230   0.006285   0.000748  -0.000907
     8  C    0.007061   0.000386  -0.029200   0.014065   0.000981  -0.000412
     9  H   -0.000554  -0.000034   0.003993  -0.002403   0.000170  -0.000106
    10  H   -0.000445  -0.000023   0.003021  -0.001674   0.000135  -0.000057
    11  H   -0.000185  -0.000014   0.001078  -0.000531   0.000003  -0.000064
    12  H   -0.000053  -0.000010   0.000566  -0.000166   0.000018  -0.000141
    13  H   -0.000151  -0.000007   0.001017  -0.000396   0.000005   0.000035
    14  O   -0.059698   0.005501  -0.036882   0.020486   0.000064   0.000002
    15  H   -0.003144   0.002450   0.000744  -0.001888  -0.000007   0.000003
               7          8          9         10         11         12
     1  C   -0.000469   0.007061  -0.000554  -0.000445  -0.000185  -0.000053
     2  H   -0.000627   0.000386  -0.000034  -0.000023  -0.000014  -0.000010
     3  C    0.003230  -0.029200   0.003993   0.003021   0.001078   0.000566
     4  C    0.006285   0.014065  -0.002403  -0.001674  -0.000531  -0.000166
     5  O    0.000748   0.000981   0.000170   0.000135   0.000003   0.000018
     6  O   -0.000907  -0.000412  -0.000106  -0.000057  -0.000064  -0.000141
     7  C   -0.009711   0.001408  -0.000156  -0.000300   0.000300   0.000236
     8  C    0.001408   0.008225  -0.000968  -0.000570  -0.000496  -0.000383
     9  H   -0.000156  -0.000968   0.000151  -0.000190  -0.000015   0.000026
    10  H   -0.000300  -0.000570  -0.000190   0.000115   0.000017  -0.000006
    11  H    0.000300  -0.000496  -0.000015   0.000017  -0.000093   0.000012
    12  H    0.000236  -0.000383   0.000026  -0.000006   0.000012  -0.000069
    13  H   -0.000019  -0.000377  -0.000026  -0.000018  -0.000008  -0.000027
    14  O    0.000102   0.000029   0.000004   0.000001  -0.000001   0.000001
    15  H    0.000038  -0.000026   0.000002   0.000001   0.000000   0.000000
              13         14         15
     1  C   -0.000151  -0.059698  -0.003144
     2  H   -0.000007   0.005501   0.002450
     3  C    0.001017  -0.036882   0.000744
     4  C   -0.000396   0.020486  -0.001888
     5  O    0.000005   0.000064  -0.000007
     6  O    0.000035   0.000002   0.000003
     7  C   -0.000019   0.000102   0.000038
     8  C   -0.000377   0.000029  -0.000026
     9  H   -0.000026   0.000004   0.000002
    10  H   -0.000018   0.000001   0.000001
    11  H   -0.000008  -0.000001   0.000000
    12  H   -0.000027   0.000001   0.000000
    13  H   -0.000082  -0.000000   0.000000
    14  O   -0.000000   0.806004   0.005550
    15  H    0.000000   0.005550  -0.035329
 Mulliken charges and spin densities:
               1          2
     1  C   -0.762242   1.210411
     2  H    0.419143  -0.147180
     3  C    1.451520  -0.787910
     4  C   -0.924123   0.107282
     5  O   -0.302217  -0.094657
     6  O   -0.104858   0.002755
     7  C   -0.027837   0.000158
     8  C   -0.616385  -0.000275
     9  H    0.177273  -0.000104
    10  H    0.175696   0.000006
    11  H    0.153132   0.000003
    12  H    0.153782   0.000006
    13  H    0.139996  -0.000054
    14  O   -0.211559   0.741164
    15  H    0.278679  -0.031604
 Sum of Mulliken charges =  -0.00000   1.00000
 Mulliken charges and spin densities with hydrogens summed into heavy atoms:
               1          2
     1  C   -0.762242   1.210411
     3  C    1.451520  -0.787910
     4  C   -0.924123   0.107282
     5  O   -0.302217  -0.094657
     6  O   -0.104858   0.002755
     7  C    0.325132   0.000060
     8  C   -0.169475  -0.000320
    14  O    0.486263   0.562380
 Electronic spatial extent (au):  <R**2>=           1750.7300
 Charge=             -0.0000 electrons
 Dipole moment (field-independent basis, Debye):
    X=              0.0897    Y=             -0.8021    Z=             -0.9590  Tot=              1.2534
 Quadrupole moment (field-independent basis, Debye-Ang):
   XX=            -29.4059   YY=            -55.0219   ZZ=            -47.3716
   XY=              5.2691   XZ=             -4.7101   YZ=             -0.3270
 Traceless Quadrupole moment (field-independent basis, Debye-Ang):
   XX=             14.5272   YY=            -11.0887   ZZ=             -3.4385
   XY=              5.2691   XZ=             -4.7101   YZ=             -0.3270
 Octapole moment (field-independent basis, Debye-Ang**2):
  XXX=             38.8605  YYY=            -11.4786  ZZZ=             -0.0740  XYY=              4.4906
  XXY=             25.2908  XXZ=            -21.5502  XZZ=             -1.4970  YZZ=              1.9044
  YYZ=             -0.0847  XYZ=             -1.1226
 Hexadecapole moment (field-independent basis, Debye-Ang**3):
 XXXX=          -1532.6385 YYYY=           -299.1474 ZZZZ=            -60.8748 XXXY=            114.8896
 XXXZ=           -101.0805 YYYX=             -1.7469 YYYZ=             -0.9647 ZZZX=             -1.7444
 ZZZY=             -0.2727 XXYY=           -360.1757 XXZZ=           -327.0925 YYZZ=            -53.2046
 XXYZ=             -6.1531 YYXZ=             -0.0430 ZZXY=             -1.2651
 N-N= 3.309029826184D+02 E-N=-1.644410229657D+03  KE= 4.176302549116D+02
 1\1\GINC-AJ\SP\UCCSD(T)-FC\6-311++G(d,p)\C5H7O3(2)\AAYUSH\17-Apr-2025\
 0\\# ccsd(t)/6-311++g(d,p) sp\\Title Card Required\\0,2\C,0,2.183049,-
 0.411458,-0.063162\H,0,3.392964,-0.872066,-0.12519\C,0,1.075213,0.0665
 55,-0.017688\C,0,-0.279377,0.61386,-0.003797\O,0,-0.517035,1.789177,0.
 012123\O,0,-1.192559,-0.35425,-0.010131\C,0,-2.565912,0.084309,0.00855
 4\C,0,-3.427095,-1.157149,-0.004079\H,0,-2.723381,0.689279,0.903877\H,
 0,-2.738973,0.718524,-0.863303\H,0,-3.237001,-1.746303,-0.901953\H,0,-
 3.219967,-1.776072,0.869657\H,0,-4.480872,-0.873774,0.010604\O,0,4.500
 037,-0.604106,0.087983\H,0,4.608592,0.246871,-0.366711\\Version=ES64L-
 G16RevA.03\State=2-A\HF=-417.941125\MP2=-419.2108628\MP3=-419.2367281\
 MP4D=-419.2677898\MP4DQ=-419.2428699\PUHF=-417.9623617\PMP2-0=-419.229
 3562\PMP3-0=-419.2507061\MP4SDQ=-419.264849\CCSD=-419.2709781\CCSD(T)=
 -419.3260264\S2=0.989521\S2-1=0.920743\S2A=0.796285\RMSD=5.982e-09\PG=
 C01 [X(C5H7O3)]\\@


 ...THE PHYSICISTS HAVE MADE THEIR UNIVERSE, AND IF YOU DO NOT LIKE
 IT, YOU MUST MAKE YOUR OWN.
                               -- E. R. HARRISON IN "COSMOLOGY" (1980)
 Job cpu time:       0 days 21 hours 29 minutes 38.1 seconds.
 Elapsed time:       0 days  0 hours 54 minutes  6.3 seconds.
 File lengths (MBytes):  RWF=  44258 Int=      0 D2E=      0 Chk=      5 Scr=      1
 Normal termination of Gaussian 16 at Thu Apr 17 20:55:47 2025.
