 Entering Link 1 = C:\G09W\l1.exe PID=     18416.
  
 Copyright (c) 1988,1990,1992,1993,1995,1998,2003,2009,2013,
            Gaussian, Inc.  All Rights Reserved.
  
 This is part of the Gaussian(R) 09 program.  It is based on
 the Gaussian(R) 03 system (copyright 2003, Gaussian, Inc.),
 the Gaussian(R) 98 system (copyright 1998, Gaussian, Inc.),
 the Gaussian(R) 94 system (copyright 1995, Gaussian, Inc.),
 the Gaussian 92(TM) system (copyright 1992, Gaussian, Inc.),
 the Gaussian 90(TM) system (copyright 1990, Gaussian, Inc.),
 the Gaussian 88(TM) system (copyright 1988, Gaussian, Inc.),
 the Gaussian 86(TM) system (copyright 1986, Carnegie Mellon
 University), and the Gaussian 82(TM) system (copyright 1983,
 Carnegie Mellon University). Gaussian is a federally registered
 trademark of Gaussian, Inc.
  
 This software contains proprietary and confidential information,
 including trade secrets, belonging to Gaussian, Inc.
  
 This software is provided under written license and may be
 used, copied, transmitted, or stored only in accord with that
 written license.
  
 The following legend is applicable only to US Government
 contracts under FAR:
  
                    RESTRICTED RIGHTS LEGEND
  
 Use, reproduction and disclosure by the US Government is
 subject to restrictions as set forth in subparagraphs (a)
 and (c) of the Commercial Computer Software - Restricted
 Rights clause in FAR 52.227-19.
  
 Gaussian, Inc.
 340 Quinnipiac St., Bldg. 40, Wallingford CT 06492
  
  
 ---------------------------------------------------------------
 Warning -- This program may not be used in any manner that
 competes with the business of Gaussian, Inc. or will provide
 assistance to any competitor of Gaussian, Inc.  The licensee
 of this program is prohibited from giving any competitor of
 Gaussian, Inc. access to this program.  By using this program,
 the user acknowledges that Gaussian, Inc. is engaged in the
 business of creating and licensing software in the field of
 computational chemistry and represents and warrants to the
 licensee that it is not a competitor of Gaussian, Inc. and that
 it will not use this program in any manner prohibited above.
 ---------------------------------------------------------------
  

 Cite this work as:
 Gaussian 09, Revision D.01,
 M. J. Frisch, G. W. Trucks, H. B. Schlegel, G. E. Scuseria, 
 M. A. Robb, J. R. Cheeseman, G. Scalmani, V. Barone, B. Mennucci, 
 G. A. Petersson, H. Nakatsuji, M. Caricato, X. Li, H. P. Hratchian, 
 A. F. Izmaylov, J. Bloino, G. Zheng, J. L. Sonnenberg, M. Hada, 
 M. Ehara, K. Toyota, R. Fukuda, J. Hasegawa, M. Ishida, T. Nakajima, 
 Y. Honda, O. Kitao, H. Nakai, T. Vreven, J. A. Montgomery, Jr., 
 J. E. Peralta, F. Ogliaro, M. Bearpark, J. J. Heyd, E. Brothers, 
 K. N. Kudin, V. N. Staroverov, T. Keith, R. Kobayashi, J. Normand, 
 K. Raghavachari, A. Rendell, J. C. Burant, S. S. Iyengar, J. Tomasi, 
 M. Cossi, N. Rega, J. M. Millam, M. Klene, J. E. Knox, J. B. Cross, 
 V. Bakken, C. Adamo, J. Jaramillo, R. Gomperts, R. E. Stratmann, 
 O. Yazyev, A. J. Austin, R. Cammi, C. Pomelli, J. W. Ochterski, 
 R. L. Martin, K. Morokuma, V. G. Zakrzewski, G. A. Voth, 
 P. Salvador, J. J. Dannenberg, S. Dapprich, A. D. Daniels, 
 O. Farkas, J. B. Foresman, J. V. Ortiz, J. Cioslowski, 
 and D. J. Fox, Gaussian, Inc., Wallingford CT, 2013.
 
 ******************************************
 Gaussian 09:  IA32W-G09RevD.01 24-Apr-2013
                27-Mar-2025 
 ******************************************
 %chk=ethyl_propiolate.chk
 %nprocshared=4
 Will use up to    4 processors via shared memory.
 %mem=1700MB
 --------------------------
 # freq 6-311++g(d,p) m062x
 --------------------------
 1/10=4,30=1,38=1/1,3;
 2/12=2,17=6,18=5,40=1/2;
 3/5=4,6=6,7=1111,11=2,16=1,25=1,30=1,71=2,74=-55,140=1/1,2,3;
 4//1;
 5/5=2,38=5,98=1/2;
 8/6=4,10=90,11=11/1;
 11/6=1,8=1,9=11,15=111,16=1/1,2,10;
 10/6=1/2;
 6/7=2,8=2,9=2,10=2,18=1,28=1/1;
 7/8=1,10=1,25=1/1,2,3,16;
 1/10=4,30=1/3;
 99//99;
 -------------------
 Title Card Required
 -------------------
 Symbolic Z-matrix:
 Charge =  0 Multiplicity = 2
 C                     3.27817  -0.52373  -0.44103 
 H                     4.27161  -0.79064  -0.71711 
 C                     2.16065  -0.22501  -0.13045 
 C                     0.82425   0.18625   0.26028 
 O                     0.56577   1.24149   0.77111 
 O                    -0.07768  -0.76045  -0.01958 
 C                    -1.41779  -0.48317   0.35533 
 C                    -2.29476  -1.61897  -0.0907 
 H                    -1.47157  -0.23897   1.41826 
 H                    -1.76127   0.54946  -0.21363 
 H                    -2.21447  -1.76313  -1.16842 
 H                    -1.99699  -2.54392   0.4104 
 H                    -3.33318  -1.40189   0.16056 
 O                    -1.91593   1.77002  -0.69772 
 H                    -1.20217   2.19051  -0.18951 
 

 GradGradGradGradGradGradGradGradGradGradGradGradGradGradGradGradGradGrad
 Berny optimization.
 Initialization pass.
 Trust Radius=3.00D-01 FncErr=1.00D-07 GrdErr=1.00D-07
 Number of steps in this run=      2 maximum allowed number of steps=      2.
 GradGradGradGradGradGradGradGradGradGradGradGradGradGradGradGradGradGrad

                          Input orientation:                          
 ---------------------------------------------------------------------
 Center     Atomic      Atomic             Coordinates (Angstroms)
 Number     Number       Type             X           Y           Z
 ---------------------------------------------------------------------
      1          6           0        3.278170   -0.523728   -0.441031
      2          1           0        4.271612   -0.790643   -0.717111
      3          6           0        2.160654   -0.225010   -0.130451
      4          6           0        0.824252    0.186251    0.260279
      5          8           0        0.565773    1.241494    0.771106
      6          8           0       -0.077676   -0.760448   -0.019582
      7          6           0       -1.417785   -0.483168    0.355327
      8          6           0       -2.294761   -1.618972   -0.090697
      9          1           0       -1.471574   -0.238968    1.418261
     10          1           0       -1.761274    0.549460   -0.213625
     11          1           0       -2.214470   -1.763126   -1.168421
     12          1           0       -1.996988   -2.543921    0.410404
     13          1           0       -3.333183   -1.401893    0.160558
     14          8           0       -1.915925    1.770019   -0.697720
     15          1           0       -1.202172    2.190512   -0.189507
 ---------------------------------------------------------------------
                    Distance matrix (angstroms):
                    1          2          3          4          5
     1  C    0.000000
     2  H    1.065078   0.000000
     3  C    1.197720   2.262798   0.000000
     4  C    2.649079   3.714015   1.451818   0.000000
     5  O    3.455775   4.480805   2.346718   1.200539   0.000000
     6  O    3.390480   4.404970   2.304150   1.337174   2.246550
     7  C    4.763174   5.797750   3.620477   2.341770   2.661171
     8  C    5.690330   6.647991   4.668558   3.620809   4.136136
     9  H    5.108632   6.152101   3.948643   2.606252   2.600262
    10  H    5.157465   6.200410   3.998530   2.653573   2.619877
    11  H    5.677526   6.574090   4.752357   3.882665   4.529819
    12  H    5.712566   6.606105   4.791227   3.928838   4.585544
    13  H    6.696497   7.679638   5.626010   4.451563   4.749960
    14  O    5.683818   6.696490   4.573886   3.306759   2.931828
    15  H    5.244409   6.255235   4.140873   2.885440   2.224644
                    6          7          8          9         10
     6  O    0.000000
     7  C    1.418920   0.000000
     8  C    2.378568   1.502689   0.000000
     9  H    2.069368   1.091950   2.204314   0.000000
    10  H    2.141965   1.228011   2.236474   1.835374   0.000000
    11  H    2.625087   2.143550   1.090283   3.092875   2.542651
    12  H    2.655075   2.141311   1.093299   2.569950   3.164487
    13  H    3.322985   2.133246   1.090217   2.529782   2.533513
    14  O    3.200358   2.536514   3.463705   2.951415   1.322131
    15  H    3.162520   2.737133   3.964301   2.925725   1.733848
                   11         12         13         14         15
    11  H    0.000000
    12  H    1.774719   0.000000
    13  H    1.774315   1.775406   0.000000
    14  O    3.576842   4.454727   3.578587   0.000000
    15  H    4.196936   4.838025   4.191554   0.971874   0.000000
 Stoichiometry    C5H7O3(2)
 Framework group  C1[X(C5H7O3)]
 Deg. of freedom    39
 Full point group                 C1      NOp   1
 Largest Abelian subgroup         C1      NOp   1
 Largest concise Abelian subgroup C1      NOp   1
                         Standard orientation:                         
 ---------------------------------------------------------------------
 Center     Atomic      Atomic             Coordinates (Angstroms)
 Number     Number       Type             X           Y           Z
 ---------------------------------------------------------------------
      1          6           0        3.340967   -0.491217   -0.438302
      2          1           0        4.334434   -0.758298   -0.714135
      3          6           0        2.223425   -0.192312   -0.127998
      4          6           0        0.886982    0.219197    0.262331
      5          8           0        0.628346    1.275061    0.771794
      6          8           0       -0.014787   -0.728050   -0.016187
      7          6           0       -1.354912   -0.450543    0.358497
      8          6           0       -2.231708   -1.587108   -0.085937
      9          1           0       -1.408637   -0.204953    1.421114
     10          1           0       -1.698666    0.581266   -0.211779
     11          1           0       -2.151502   -1.732667   -1.163478
     12          1           0       -1.933698   -2.511337    0.416351
     13          1           0       -3.270147   -1.369905    0.165141
     14          8           0       -1.853612    1.801155   -0.697466
     15          1           0       -1.139889    2.222460   -0.189883
 ---------------------------------------------------------------------
 Rotational constants (GHZ):      3.0389471      1.2138697      0.9539683
 Standard basis: 6-311++G(d,p) (5D, 7F)
 There are   233 symmetry adapted cartesian basis functions of A   symmetry.
 There are   225 symmetry adapted basis functions of A   symmetry.
   225 basis functions,   351 primitive gaussians,   233 cartesian basis functions
    31 alpha electrons       30 beta electrons
       nuclear repulsion energy       351.9284758540 Hartrees.
 NAtoms=   15 NActive=   15 NUniq=   15 SFac= 1.00D+00 NAtFMM=   60 NAOKFM=F Big=F
 Integral buffers will be    262144 words long.
 Raffenetti 2 integral format.
 Two-electron integral symmetry is turned on.
 One-electron integrals computed using PRISM.
 NBasis=   225 RedAO= T EigKep=  5.77D-06  NBF=   225
 NBsUse=   224 1.00D-06 EigRej=  7.15D-07 NBFU=   224
 ExpMin= 3.60D-02 ExpMax= 8.59D+03 ExpMxC= 1.30D+03 IAcc=3 IRadAn=         5 AccDes= 0.00D+00
 Harris functional with IExCor= 1009 and IRadAn=       5 diagonalized for initial guess.
 HarFok:  IExCor= 1009 AccDes= 0.00D+00 IRadAn=         5 IDoV= 1 UseB2=F ITyADJ=14
 ICtDFT=  3500011 ScaDFX=  1.000000  1.000000  1.000000  1.000000
 FoFCou: FMM=F IPFlag=           0 FMFlag=      100000 FMFlg1=           0
         NFxFlg=           0 DoJE=T BraDBF=F KetDBF=T FulRan=T
         wScrn=  0.000000 ICntrl=     500 IOpCl=  0 I1Cent=   200000004 NGrid=           0
         NMat0=    1 NMatS0=      1 NMatT0=    0 NMatD0=    1 NMtDS0=    0 NMtDT0=    0
 Petite list used in FoFCou.
 Initial guess <Sx>= 0.0000 <Sy>= 0.0000 <Sz>= 0.5000 <S**2>= 0.7500 S= 0.5000
 Requested convergence on RMS density matrix=1.00D-08 within 128 cycles.
 Requested convergence on MAX density matrix=1.00D-06.
 Requested convergence on             energy=1.00D-06.
 No special actions if energy rises.
 SCF Done:  E(UM062X) =  -420.204889814     A.U. after   20 cycles
            NFock= 20  Conv=0.68D-08     -V/T= 2.0034
 <Sx>= 0.0000 <Sy>= 0.0000 <Sz>= 0.5000 <S**2>= 0.7598 S= 0.5049
 <L.S>= 0.000000000000E+00
 Annihilation of the first spin contaminant:
 S**2 before annihilation     0.7598,   after     0.7500
 DoSCS=F DFT=T ScalE2(SS,OS)=  1.000000  1.000000
 Range of M.O.s used for correlation:     1   224
 NBasis=   225 NAE=    31 NBE=    30 NFC=     0 NFV=     0
 NROrb=    224 NOA=    31 NOB=    30 NVA=   193 NVB=   194

 **** Warning!!: The largest alpha MO coefficient is  0.12379961D+03


 **** Warning!!: The largest beta MO coefficient is  0.11511264D+03

 Symmetrizing basis deriv contribution to polar:
 IMax=3 JMax=2 DiffMx= 0.00D+00
 G2DrvN: will do    16 centers at a time, making    1 passes.
 Calling FoFCou, ICntrl=  3107 FMM=F I1Cent=   0 AccDes= 0.00D+00.
 End of G2Drv F.D. properties file   721 does not exist.
 End of G2Drv F.D. properties file   722 does not exist.
 End of G2Drv F.D. properties file   788 does not exist.
          IDoAtm=111111111111111
          Differentiating once with respect to electric field.
                with respect to dipole field.
          Differentiating once with respect to nuclear coordinates.
          There are    48 degrees of freedom in the 1st order CPHF.  IDoFFX=6 NUNeed=     3.
     46 vectors produced by pass  0 Test12= 2.46D-14 2.08D-09 XBig12= 9.87D+01 3.66D+00.
 AX will form    46 AO Fock derivatives at one time.
     45 vectors produced by pass  1 Test12= 2.46D-14 2.08D-09 XBig12= 1.95D+01 7.28D-01.
     45 vectors produced by pass  2 Test12= 2.46D-14 2.08D-09 XBig12= 8.10D-01 1.63D-01.
     45 vectors produced by pass  3 Test12= 2.46D-14 2.08D-09 XBig12= 1.32D-02 1.40D-02.
     45 vectors produced by pass  4 Test12= 2.46D-14 2.08D-09 XBig12= 1.34D-04 1.92D-03.
     45 vectors produced by pass  5 Test12= 2.46D-14 2.08D-09 XBig12= 1.23D-06 1.07D-04.
     43 vectors produced by pass  6 Test12= 2.46D-14 2.08D-09 XBig12= 8.29D-09 8.56D-06.
     21 vectors produced by pass  7 Test12= 2.46D-14 2.08D-09 XBig12= 5.09D-11 5.70D-07.
      4 vectors produced by pass  8 Test12= 2.46D-14 2.08D-09 XBig12= 3.97D-13 5.27D-08.
      4 vectors produced by pass  9 Test12= 2.46D-14 2.08D-09 XBig12= 3.68D-14 2.34D-08.
      4 vectors produced by pass 10 Test12= 2.46D-14 2.08D-09 XBig12= 2.47D-15 6.21D-09.
      4 vectors produced by pass 11 Test12= 2.46D-14 2.08D-09 XBig12= 9.40D-16 3.52D-09.
      4 vectors produced by pass 12 Test12= 2.46D-14 2.08D-09 XBig12= 7.91D-16 2.86D-09.
      2 vectors produced by pass 13 Test12= 2.46D-14 2.08D-09 XBig12= 5.32D-16 2.90D-09.
      1 vectors produced by pass 14 Test12= 2.46D-14 2.08D-09 XBig12= 6.28D-16 2.63D-09.
 InvSVY:  IOpt=1 It=  1 EMax= 7.11D-15
 Solved reduced A of dimension   358 with    48 vectors.
 Isotropic polarizability for W=    0.000000       77.56 Bohr**3.
 End of Minotr F.D. properties file   721 does not exist.
 End of Minotr F.D. properties file   722 does not exist.
 End of Minotr F.D. properties file   788 does not exist.

 **********************************************************************

            Population analysis using the SCF density.

 **********************************************************************

 Orbital symmetries:
 Alpha Orbitals:
       Occupied  (A) (A) (A) (A) (A) (A) (A) (A) (A) (A) (A) (A)
                 (A) (A) (A) (A) (A) (A) (A) (A) (A) (A) (A) (A)
                 (A) (A) (A) (A) (A) (A) (A)
       Virtual   (A) (A) (A) (A) (A) (A) (A) (A) (A) (A) (A) (A)
                 (A) (A) (A) (A) (A) (A) (A) (A) (A) (A) (A) (A)
                 (A) (A) (A) (A) (A) (A) (A) (A) (A) (A) (A) (A)
                 (A) (A) (A) (A) (A) (A) (A) (A) (A) (A) (A) (A)
                 (A) (A) (A) (A) (A) (A) (A) (A) (A) (A) (A) (A)
                 (A) (A) (A) (A) (A) (A) (A) (A) (A) (A) (A) (A)
                 (A) (A) (A) (A) (A) (A) (A) (A) (A) (A) (A) (A)
                 (A) (A) (A) (A) (A) (A) (A) (A) (A) (A) (A) (A)
                 (A) (A) (A) (A) (A) (A) (A) (A) (A) (A) (A) (A)
                 (A) (A) (A) (A) (A) (A) (A) (A) (A) (A) (A) (A)
                 (A) (A) (A) (A) (A) (A) (A) (A) (A) (A) (A) (A)
                 (A) (A) (A) (A) (A) (A) (A) (A) (A) (A) (A) (A)
                 (A) (A) (A) (A) (A) (A) (A) (A) (A) (A) (A) (A)
                 (A) (A) (A) (A) (A) (A) (A) (A) (A) (A) (A) (A)
                 (A) (A) (A) (A) (A) (A) (A) (A) (A) (A) (A) (A)
                 (A) (A) (A) (A) (A) (A) (A) (A) (A) (A) (A) (A)
                 (A)
 Beta  Orbitals:
       Occupied  (A) (A) (A) (A) (A) (A) (A) (A) (A) (A) (A) (A)
                 (A) (A) (A) (A) (A) (A) (A) (A) (A) (A) (A) (A)
                 (A) (A) (A) (A) (A) (A)
       Virtual   (A) (A) (A) (A) (A) (A) (A) (A) (A) (A) (A) (A)
                 (A) (A) (A) (A) (A) (A) (A) (A) (A) (A) (A) (A)
                 (A) (A) (A) (A) (A) (A) (A) (A) (A) (A) (A) (A)
                 (A) (A) (A) (A) (A) (A) (A) (A) (A) (A) (A) (A)
                 (A) (A) (A) (A) (A) (A) (A) (A) (A) (A) (A) (A)
                 (A) (A) (A) (A) (A) (A) (A) (A) (A) (A) (A) (A)
                 (A) (A) (A) (A) (A) (A) (A) (A) (A) (A) (A) (A)
                 (A) (A) (A) (A) (A) (A) (A) (A) (A) (A) (A) (A)
                 (A) (A) (A) (A) (A) (A) (A) (A) (A) (A) (A) (A)
                 (A) (A) (A) (A) (A) (A) (A) (A) (A) (A) (A) (A)
                 (A) (A) (A) (A) (A) (A) (A) (A) (A) (A) (A) (A)
                 (A) (A) (A) (A) (A) (A) (A) (A) (A) (A) (A) (A)
                 (A) (A) (A) (A) (A) (A) (A) (A) (A) (A) (A) (A)
                 (A) (A) (A) (A) (A) (A) (A) (A) (A) (A) (A) (A)
                 (A) (A) (A) (A) (A) (A) (A) (A) (A) (A) (A) (A)
                 (A) (A) (A) (A) (A) (A) (A) (A) (A) (A) (A) (A)
                 (A) (A)
 The electronic state is 2-A.
 Alpha  occ. eigenvalues --  -19.70709 -19.65075 -19.64180 -10.72413 -10.63284
 Alpha  occ. eigenvalues --  -10.58176 -10.57687 -10.55379  -1.27995  -1.18508
 Alpha  occ. eigenvalues --   -1.11198  -0.92182  -0.88477  -0.79205  -0.71439
 Alpha  occ. eigenvalues --   -0.67678  -0.62067  -0.61786  -0.59724  -0.55897
 Alpha  occ. eigenvalues --   -0.52154  -0.51050  -0.48904  -0.48660  -0.45828
 Alpha  occ. eigenvalues --   -0.43265  -0.41008  -0.39993  -0.38396  -0.37575
 Alpha  occ. eigenvalues --   -0.33664
 Alpha virt. eigenvalues --   -0.02979  -0.00475   0.00379   0.01710   0.02382
 Alpha virt. eigenvalues --    0.03043   0.03298   0.04721   0.05818   0.06044
 Alpha virt. eigenvalues --    0.06294   0.07671   0.08394   0.08787   0.10392
 Alpha virt. eigenvalues --    0.10702   0.12045   0.12349   0.12816   0.13043
 Alpha virt. eigenvalues --    0.13605   0.14273   0.15173   0.16507   0.17059
 Alpha virt. eigenvalues --    0.17650   0.18056   0.18521   0.19391   0.20661
 Alpha virt. eigenvalues --    0.21572   0.22175   0.22840   0.23805   0.25851
 Alpha virt. eigenvalues --    0.26302   0.28159   0.28549   0.29699   0.30350
 Alpha virt. eigenvalues --    0.31079   0.31194   0.32312   0.32753   0.33343
 Alpha virt. eigenvalues --    0.35069   0.36340   0.36974   0.39687   0.40243
 Alpha virt. eigenvalues --    0.42658   0.43923   0.46322   0.47684   0.48775
 Alpha virt. eigenvalues --    0.52558   0.55071   0.55909   0.56919   0.59132
 Alpha virt. eigenvalues --    0.61355   0.63700   0.64839   0.66995   0.67826
 Alpha virt. eigenvalues --    0.68147   0.69200   0.69734   0.71983   0.73225
 Alpha virt. eigenvalues --    0.74110   0.77966   0.80090   0.81753   0.84796
 Alpha virt. eigenvalues --    0.88673   0.90461   0.93438   1.02070   1.05452
 Alpha virt. eigenvalues --    1.06201   1.09262   1.10237   1.11048   1.13315
 Alpha virt. eigenvalues --    1.14543   1.16186   1.18099   1.20567   1.21202
 Alpha virt. eigenvalues --    1.22892   1.23341   1.27850   1.29770   1.31649
 Alpha virt. eigenvalues --    1.33427   1.35885   1.37745   1.43966   1.45642
 Alpha virt. eigenvalues --    1.48146   1.49142   1.50395   1.54104   1.56904
 Alpha virt. eigenvalues --    1.59149   1.60124   1.61247   1.62846   1.65111
 Alpha virt. eigenvalues --    1.66628   1.67819   1.69827   1.72381   1.75051
 Alpha virt. eigenvalues --    1.78505   1.83858   1.84084   1.86084   1.89965
 Alpha virt. eigenvalues --    1.94528   1.97857   2.00323   2.06596   2.10027
 Alpha virt. eigenvalues --    2.12891   2.13686   2.17434   2.24202   2.29577
 Alpha virt. eigenvalues --    2.40609   2.43588   2.49458   2.51442   2.54628
 Alpha virt. eigenvalues --    2.58181   2.59034   2.60815   2.61380   2.65060
 Alpha virt. eigenvalues --    2.65832   2.66205   2.68529   2.72497   2.80201
 Alpha virt. eigenvalues --    2.81831   2.85909   2.88078   2.94562   2.96819
 Alpha virt. eigenvalues --    3.01051   3.03087   3.03465   3.06161   3.10015
 Alpha virt. eigenvalues --    3.12315   3.19494   3.20591   3.21224   3.25068
 Alpha virt. eigenvalues --    3.30703   3.34251   3.35913   3.41643   3.47048
 Alpha virt. eigenvalues --    3.55548   3.66449   3.73672   3.79986   3.83772
 Alpha virt. eigenvalues --    3.85213   3.98700   4.07214   4.14383   4.16387
 Alpha virt. eigenvalues --    4.27916   5.08757   5.12605   5.16015   5.31656
 Alpha virt. eigenvalues --    5.37227   5.44474   5.60888   5.73473   5.94040
 Alpha virt. eigenvalues --   23.61902  23.87368  23.93490  24.03361  25.17125
 Alpha virt. eigenvalues --   49.97859  49.98909  50.09505
  Beta  occ. eigenvalues --  -19.70639 -19.65055 -19.62986 -10.72414 -10.62854
  Beta  occ. eigenvalues --  -10.58175 -10.57689 -10.55382  -1.27756  -1.18332
  Beta  occ. eigenvalues --   -1.06595  -0.91634  -0.88097  -0.79034  -0.70462
  Beta  occ. eigenvalues --   -0.66987  -0.62039  -0.60163  -0.59303  -0.53917
  Beta  occ. eigenvalues --   -0.51396  -0.49727  -0.48511  -0.45418  -0.44194
  Beta  occ. eigenvalues --   -0.41089  -0.40271  -0.38234  -0.37527  -0.37251
  Beta virt. eigenvalues --   -0.10524  -0.02674  -0.00402   0.00412   0.01829
  Beta virt. eigenvalues --    0.02618   0.03124   0.03355   0.05110   0.05886
  Beta virt. eigenvalues --    0.06130   0.06439   0.07766   0.08516   0.08957
  Beta virt. eigenvalues --    0.10467   0.10983   0.12129   0.12415   0.12881
  Beta virt. eigenvalues --    0.13196   0.13759   0.14494   0.15409   0.16652
  Beta virt. eigenvalues --    0.17179   0.17826   0.18337   0.18698   0.19603
  Beta virt. eigenvalues --    0.21050   0.21751   0.22246   0.22933   0.24141
  Beta virt. eigenvalues --    0.26042   0.26302   0.28184   0.28515   0.29850
  Beta virt. eigenvalues --    0.30413   0.31269   0.31386   0.32356   0.32752
  Beta virt. eigenvalues --    0.33629   0.35098   0.36941   0.37374   0.39915
  Beta virt. eigenvalues --    0.41309   0.42946   0.44065   0.46469   0.47920
  Beta virt. eigenvalues --    0.48837   0.52607   0.55406   0.55989   0.57010
  Beta virt. eigenvalues --    0.59475   0.61632   0.63927   0.64978   0.67240
  Beta virt. eigenvalues --    0.68199   0.68545   0.69228   0.69816   0.72132
  Beta virt. eigenvalues --    0.73556   0.74172   0.78211   0.80124   0.82093
  Beta virt. eigenvalues --    0.84837   0.88700   0.90622   0.93438   1.02479
  Beta virt. eigenvalues --    1.05932   1.06315   1.09992   1.10428   1.11828
  Beta virt. eigenvalues --    1.14105   1.14978   1.16296   1.18473   1.21027
  Beta virt. eigenvalues --    1.22504   1.23368   1.23509   1.27990   1.29922
  Beta virt. eigenvalues --    1.31745   1.33631   1.35950   1.37849   1.44007
  Beta virt. eigenvalues --    1.45879   1.48593   1.49276   1.50893   1.55430
  Beta virt. eigenvalues --    1.57309   1.59378   1.60154   1.61545   1.62778
  Beta virt. eigenvalues --    1.65150   1.66746   1.68183   1.70063   1.72858
  Beta virt. eigenvalues --    1.75384   1.78908   1.83909   1.84487   1.86114
  Beta virt. eigenvalues --    1.90305   1.94601   1.97874   2.00480   2.06634
  Beta virt. eigenvalues --    2.10220   2.13368   2.14202   2.17551   2.25279
  Beta virt. eigenvalues --    2.30095   2.40748   2.43941   2.49561   2.51607
  Beta virt. eigenvalues --    2.53043   2.58391   2.59162   2.60886   2.61568
  Beta virt. eigenvalues --    2.65087   2.65516   2.66103   2.67608   2.72346
  Beta virt. eigenvalues --    2.79876   2.81717   2.84096   2.88240   2.95617
  Beta virt. eigenvalues --    2.99025   3.02538   3.03058   3.03538   3.06052
  Beta virt. eigenvalues --    3.10383   3.12339   3.20607   3.21168   3.23967
  Beta virt. eigenvalues --    3.25676   3.31072   3.34440   3.36120   3.41991
  Beta virt. eigenvalues --    3.48774   3.55566   3.66483   3.73770   3.81451
  Beta virt. eigenvalues --    3.83968   3.85302   4.00665   4.07424   4.14786
  Beta virt. eigenvalues --    4.16895   4.28504   5.09552   5.14046   5.16366
  Beta virt. eigenvalues --    5.31710   5.41604   5.45321   5.63227   5.73807
  Beta virt. eigenvalues --    5.94102  23.61902  23.87753  23.93509  24.03372
  Beta virt. eigenvalues --   25.17127  49.97575  49.98430  50.09469
          Condensed to atoms (all electrons):
               1          2          3          4          5          6
     1  C    6.597284   0.473045  -1.644933   1.447819  -0.123064  -0.111584
     2  H    0.473045   0.428789  -0.103233   0.027915  -0.003087  -0.005234
     3  C   -1.644933  -0.103233   9.922091  -2.895279   0.166857  -0.171029
     4  C    1.447819   0.027915  -2.895279   7.801157   0.278163   0.035408
     5  O   -0.123064  -0.003087   0.166857   0.278163   8.068109  -0.130486
     6  O   -0.111584  -0.005234  -0.171029   0.035408  -0.130486   8.333062
     7  C    0.053726  -0.002044  -0.446943  -0.083630  -0.015763   0.242170
     8  C    0.034657   0.000083  -0.184750   0.010571   0.014853  -0.156381
     9  H   -0.000492   0.000231   0.022759   0.032335  -0.014876  -0.037355
    10  H   -0.002671   0.000127   0.011473  -0.016583   0.005564  -0.029702
    11  H   -0.001813  -0.000140   0.007376  -0.003838  -0.001036  -0.006019
    12  H    0.002355   0.000050  -0.008307   0.004804  -0.001592  -0.016111
    13  H   -0.001033  -0.000033   0.002992  -0.006710   0.001825   0.025808
    14  O    0.002951   0.000129  -0.011386   0.006361  -0.008300   0.014565
    15  H    0.000747  -0.000126  -0.013807  -0.024117   0.013398  -0.001146
               7          8          9         10         11         12
     1  C    0.053726   0.034657  -0.000492  -0.002671  -0.001813   0.002355
     2  H   -0.002044   0.000083   0.000231   0.000127  -0.000140   0.000050
     3  C   -0.446943  -0.184750   0.022759   0.011473   0.007376  -0.008307
     4  C   -0.083630   0.010571   0.032335  -0.016583  -0.003838   0.004804
     5  O   -0.015763   0.014853  -0.014876   0.005564  -0.001036  -0.001592
     6  O    0.242170  -0.156381  -0.037355  -0.029702  -0.006019  -0.016111
     7  C    6.130140  -0.078529   0.388821   0.301765  -0.020998  -0.047409
     8  C   -0.078529   5.907615  -0.119263  -0.099077   0.389752   0.411469
     9  H    0.388821  -0.119263   0.553734  -0.044509   0.005402  -0.011901
    10  H    0.301765  -0.099077  -0.044509   0.540303  -0.018786   0.015258
    11  H   -0.020998   0.389752   0.005402  -0.018786   0.509816  -0.035103
    12  H   -0.047409   0.411469  -0.011901   0.015258  -0.035103   0.534580
    13  H   -0.063316   0.428757  -0.005411  -0.013532  -0.027070  -0.030196
    14  O   -0.033585   0.013471  -0.008136   0.081068   0.000379  -0.003535
    15  H    0.042982   0.017874  -0.005683  -0.045599   0.001226   0.000187
              13         14         15
     1  C   -0.001033   0.002951   0.000747
     2  H   -0.000033   0.000129  -0.000126
     3  C    0.002992  -0.011386  -0.013807
     4  C   -0.006710   0.006361  -0.024117
     5  O    0.001825  -0.008300   0.013398
     6  O    0.025808   0.014565  -0.001146
     7  C   -0.063316  -0.033585   0.042982
     8  C    0.428757   0.013471   0.017874
     9  H   -0.005411  -0.008136  -0.005683
    10  H   -0.013532   0.081068  -0.045599
    11  H   -0.027070   0.000379   0.001226
    12  H   -0.030196  -0.003535   0.000187
    13  H    0.503485   0.002206   0.000477
    14  O    0.002206   8.034156   0.287679
    15  H    0.000477   0.287679   0.468433
          Atomic-Atomic Spin Densities.
               1          2          3          4          5          6
     1  C   -0.003768  -0.000929  -0.005446   0.011662   0.000607  -0.003210
     2  H   -0.000929  -0.000516   0.000817   0.000359   0.000069  -0.000015
     3  C   -0.005446   0.000817   0.014717  -0.020189   0.001277   0.007042
     4  C    0.011662   0.000359  -0.020189   0.008015  -0.002125  -0.004564
     5  O    0.000607   0.000069   0.001277  -0.002125   0.012642  -0.000837
     6  O   -0.003210  -0.000015   0.007042  -0.004564  -0.000837   0.060451
     7  C    0.000454   0.000050   0.008037   0.005903   0.001087  -0.055112
     8  C    0.001922   0.000051  -0.005614   0.000274   0.000357   0.001273
     9  H    0.000515  -0.000044  -0.007444  -0.010944   0.001548   0.001751
    10  H   -0.000280   0.000141   0.014588   0.040966  -0.006337  -0.012634
    11  H    0.000193  -0.000011  -0.001461  -0.002462  -0.000018   0.000980
    12  H   -0.000372   0.000018   0.002599   0.004044  -0.000114   0.003227
    13  H    0.000044  -0.000003  -0.000393  -0.000752   0.000021  -0.000055
    14  O    0.000418  -0.000075  -0.012277  -0.028722   0.002442   0.017364
    15  H   -0.000302   0.000024   0.004553   0.005052   0.000304  -0.002285
               7          8          9         10         11         12
     1  C    0.000454   0.001922   0.000515  -0.000280   0.000193  -0.000372
     2  H    0.000050   0.000051  -0.000044   0.000141  -0.000011   0.000018
     3  C    0.008037  -0.005614  -0.007444   0.014588  -0.001461   0.002599
     4  C    0.005903   0.000274  -0.010944   0.040966  -0.002462   0.004044
     5  O    0.001087   0.000357   0.001548  -0.006337  -0.000018  -0.000114
     6  O   -0.055112   0.001273   0.001751  -0.012634   0.000980   0.003227
     7  C    0.522933  -0.044903  -0.019405   0.078117  -0.012648   0.003750
     8  C   -0.044903   0.005961   0.020522  -0.028047   0.013011  -0.011981
     9  H   -0.019405   0.020522  -0.009623   0.015116   0.001142  -0.002828
    10  H    0.078117  -0.028047   0.015116  -0.119429  -0.003073   0.000082
    11  H   -0.012648   0.013011   0.001142  -0.003073   0.010419  -0.006726
    12  H    0.003750  -0.011981  -0.002828   0.000082  -0.006726   0.038797
    13  H   -0.003642   0.005064   0.001425  -0.003547   0.001060  -0.003185
    14  O   -0.094344   0.028662   0.004394  -0.037570   0.003593  -0.002018
    15  H    0.001952  -0.003112  -0.001216   0.009264  -0.000401   0.000369
              13         14         15
     1  C    0.000044   0.000418  -0.000302
     2  H   -0.000003  -0.000075   0.000024
     3  C   -0.000393  -0.012277   0.004553
     4  C   -0.000752  -0.028722   0.005052
     5  O    0.000021   0.002442   0.000304
     6  O   -0.000055   0.017364  -0.002285
     7  C   -0.003642  -0.094344   0.001952
     8  C    0.005064   0.028662  -0.003112
     9  H    0.001425   0.004394  -0.001216
    10  H   -0.003547  -0.037570   0.009264
    11  H    0.001060   0.003593  -0.000401
    12  H   -0.003185  -0.002018   0.000369
    13  H    0.002163   0.002356  -0.000231
    14  O    0.002356   0.743642   0.000014
    15  H   -0.000231   0.000014  -0.022447
 Mulliken charges and spin densities:
               1          2
     1  C   -0.726997   0.001508
     2  H    0.183527  -0.000064
     3  C    1.346120   0.000806
     4  C   -0.614377   0.006516
     5  O   -0.250566   0.010924
     6  O    0.014032   0.013376
     7  C   -0.367386   0.392228
     8  C   -0.591102  -0.016559
     9  H    0.244343  -0.005091
    10  H    0.314900  -0.052643
    11  H    0.200851   0.003598
    12  H    0.185451   0.025664
    13  H    0.181751   0.000324
    14  O   -0.378023   0.627878
    15  H    0.257475  -0.008464
 Sum of Mulliken charges =   0.00000   1.00000
 Mulliken charges and spin densities with hydrogens summed into heavy atoms:
               1          2
     1  C   -0.543470   0.001445
     3  C    1.346120   0.000806
     4  C   -0.614377   0.006516
     5  O   -0.250566   0.010924
     6  O    0.014032   0.013376
     7  C    0.191857   0.334493
     8  C   -0.023048   0.013026
    14  O   -0.120548   0.619414
 APT charges:
               1
     1  C   -0.166144
     2  H    0.238967
     3  C   -0.324595
     4  C    1.460577
     5  O   -0.744700
     6  O   -1.041313
     7  C    0.981325
     8  C   -0.102404
     9  H   -0.082087
    10  H   -0.382352
    11  H    0.035883
    12  H    0.015895
    13  H    0.026952
    14  O   -0.226699
    15  H    0.310695
 Sum of APT charges =   0.00000
 APT charges with hydrogens summed into heavy atoms:
               1
     1  C    0.072823
     3  C   -0.324595
     4  C    1.460577
     5  O   -0.744700
     6  O   -1.041313
     7  C    0.516886
     8  C   -0.023674
    14  O    0.083996
 Electronic spatial extent (au):  <R**2>=           1212.3924
 Charge=              0.0000 electrons
 Dipole moment (field-independent basis, Debye):
    X=              1.4728    Y=             -2.9846    Z=              0.6898  Tot=              3.3989
 Quadrupole moment (field-independent basis, Debye-Ang):
   XX=            -38.2982   YY=            -50.4233   ZZ=            -49.1983
   XY=              2.7862   XZ=             -5.8955   YZ=              0.4246
 Traceless Quadrupole moment (field-independent basis, Debye-Ang):
   XX=              7.6750   YY=             -4.4500   ZZ=             -3.2250
   XY=              2.7862   XZ=             -5.8955   YZ=              0.4246
 Octapole moment (field-independent basis, Debye-Ang**2):
  XXX=             50.9314  YYY=              6.8995  ZZZ=              3.4640  XYY=             -2.7784
  XXY=            -27.0547  XXZ=             -6.5163  XZZ=             -2.6585  YZZ=             -2.7955
  YYZ=              1.3902  XYZ=             -3.8249
 Hexadecapole moment (field-independent basis, Debye-Ang**3):
 XXXX=           -827.3759 YYYY=           -378.0801 ZZZZ=           -115.4990 XXXY=            -29.7746
 XXXZ=            -67.1181 YYYX=              3.2825 YYYZ=             -1.5863 ZZZX=              2.3258
 ZZZY=              2.5908 XXYY=           -267.3347 XXZZ=           -204.7683 YYZZ=            -91.6350
 XXYZ=             19.0348 YYXZ=             -8.8306 ZZXY=              1.9741
 N-N= 3.519284758540D+02 E-N=-1.688014191668D+03  KE= 4.187908866770D+02
  Exact polarizability:  96.074  -9.032  82.588  -4.017  -2.899  54.014
 Approx polarizability: 100.560 -12.506  92.435  -7.404   1.665  65.153
                          Isotropic Fermi Contact Couplings
        Atom                 a.u.       MegaHertz       Gauss      10(-4) cm-1
     1  C(13)              0.00011       0.12207       0.04356       0.04072
     2  H(1)              -0.00003      -0.15123      -0.05396      -0.05044
     3  C(13)             -0.00155      -1.74104      -0.62125      -0.58075
     4  C(13)              0.00132       1.48250       0.52899       0.49451
     5  O(17)             -0.00034       0.20774       0.07413       0.06930
     6  O(17)              0.00077      -0.46958      -0.16756      -0.15663
     7  C(13)              0.16603     186.65456      66.60299      62.26126
     8  C(13)             -0.00173      -1.94776      -0.69501      -0.64970
     9  H(1)              -0.00012      -0.52386      -0.18693      -0.17474
    10  H(1)              -0.02220     -99.25123     -35.41530     -33.10665
    11  H(1)               0.00248      11.10212       3.96151       3.70327
    12  H(1)               0.01148      51.32915      18.31552      17.12156
    13  H(1)               0.00052       2.30806       0.82357       0.76989
    14  O(17)              0.10874     -65.92071     -23.52215     -21.98878
    15  H(1)              -0.01066     -47.63625     -16.99780     -15.88974
 --------------------------------------------------------
       Center         ----  Spin Dipole Couplings  ----
                      3XX-RR        3YY-RR        3ZZ-RR
 --------------------------------------------------------
     1   Atom        0.000635     -0.000307     -0.000328
     2   Atom        0.001161     -0.000524     -0.000638
     3   Atom        0.003754     -0.001564     -0.002190
     4   Atom        0.009800     -0.004460     -0.005340
     5   Atom       -0.020656     -0.023726      0.044382
     6   Atom       -0.045958      0.068685     -0.022727
     7   Atom       -0.226662      0.273664     -0.047002
     8   Atom       -0.011553      0.026589     -0.015035
     9   Atom       -0.029371     -0.006641      0.036012
    10   Atom       -0.102856      0.164593     -0.061736
    11   Atom       -0.005274      0.004580      0.000694
    12   Atom       -0.003294      0.007478     -0.004183
    13   Atom        0.005411      0.001050     -0.006461
    14   Atom       -1.142317      1.704357     -0.562040
    15   Atom        0.024765      0.000548     -0.025313
 --------------------------------------------------------
                        XY            XZ            YZ
 --------------------------------------------------------
     1   Atom       -0.000408     -0.000416     -0.002423
     2   Atom       -0.000437     -0.000246     -0.000056
     3   Atom       -0.000449      0.000042      0.000187
     4   Atom        0.001091      0.005122      0.003421
     5   Atom       -0.001249      0.024465     -0.018130
     6   Atom       -0.092606      0.084546     -0.109852
     7   Atom       -0.138077      0.089596     -0.334892
     8   Atom        0.014080      0.000066     -0.002999
     9   Atom       -0.004938     -0.000507      0.005138
    10   Atom       -0.057192      0.027928     -0.124270
    11   Atom        0.003246      0.003422      0.006917
    12   Atom        0.001601      0.001614     -0.002193
    13   Atom        0.007228      0.000051     -0.001258
    14   Atom       -0.704757      0.334051     -1.489389
    15   Atom        0.061255      0.085092      0.027445
 --------------------------------------------------------


 ---------------------------------------------------------------------------------
              Anisotropic Spin Dipole Couplings in Principal Axis System
 ---------------------------------------------------------------------------------

       Atom             a.u.   MegaHertz   Gauss  10(-4) cm-1        Axes

              Baa    -0.0028    -0.381    -0.136    -0.127  0.1655  0.6958  0.6989
     1 C(13)  Bbb     0.0007     0.098     0.035     0.033  0.9862 -0.1189 -0.1152
              Bcc     0.0021     0.283     0.101     0.094  0.0029  0.7084 -0.7058
 
              Baa    -0.0008    -0.406    -0.145    -0.135  0.2359  0.6144  0.7529
     2 H(1)   Bbb    -0.0005    -0.285    -0.102    -0.095  0.1008  0.7551 -0.6478
              Bcc     0.0013     0.691     0.246     0.230  0.9665 -0.2287 -0.1162
 
              Baa    -0.0022    -0.301    -0.108    -0.101 -0.0277 -0.2815  0.9592
     3 C(13)  Bbb    -0.0015    -0.207    -0.074    -0.069  0.0787  0.9559  0.2829
              Bcc     0.0038     0.509     0.182     0.170  0.9965 -0.0833  0.0044
 
              Baa    -0.0089    -1.200    -0.428    -0.400 -0.1863 -0.5667  0.8026
     4 C(13)  Bbb    -0.0027    -0.361    -0.129    -0.121 -0.2800  0.8136  0.5095
              Bcc     0.0116     1.562     0.557     0.521  0.9417  0.1298  0.3103
 
              Baa    -0.0327     2.367     0.845     0.790  0.6739 -0.6424 -0.3649
     5 O(17)  Bbb    -0.0237     1.716     0.612     0.572  0.6758  0.7356 -0.0470
              Bcc     0.0564    -4.083    -1.457    -1.362  0.2986 -0.2150  0.9299
 
              Baa    -0.1198     8.666     3.092     2.891  0.7333 -0.0355 -0.6790
     6 O(17)  Bbb    -0.0840     6.079     2.169     2.028  0.5131  0.6841  0.5184
              Bcc     0.2038   -14.745    -5.262    -4.919 -0.4461  0.7285 -0.5198
 
              Baa    -0.2637   -35.388   -12.627   -11.804  0.9141 -0.0175 -0.4050
     7 C(13)  Bbb    -0.2572   -34.507   -12.313   -11.510  0.3437  0.5634  0.7513
              Bcc     0.5209    69.895    24.940    23.314 -0.2150  0.8260 -0.5210
 
              Baa    -0.0168    -2.256    -0.805    -0.752  0.7965 -0.2949 -0.5279
     8 C(13)  Bbb    -0.0146    -1.957    -0.698    -0.653  0.5186 -0.1156  0.8472
              Bcc     0.0314     4.213     1.503     1.405  0.3109  0.9485 -0.0608
 
              Baa    -0.0304   -16.221    -5.788    -5.411  0.9787  0.2052 -0.0084
     9 H(1)   Bbb    -0.0062    -3.328    -1.188    -1.110 -0.2047  0.9714 -0.1206
              Bcc     0.0366    19.549     6.976     6.521 -0.0166  0.1197  0.9927
 
              Baa    -0.1183   -63.137   -22.529   -21.060 -0.5668  0.2326  0.7904
    10 H(1)   Bbb    -0.1133   -60.433   -21.564   -20.158  0.8024  0.3734  0.4655
              Bcc     0.2316   123.570    44.093    41.218 -0.1868  0.8981 -0.3982
 
              Baa    -0.0068    -3.645    -1.301    -1.216  0.9164 -0.0184 -0.3997
    11 H(1)   Bbb    -0.0043    -2.301    -0.821    -0.767  0.2923 -0.6514  0.7002
              Bcc     0.0111     5.946     2.122     1.983  0.2733  0.7585  0.5915
 
              Baa    -0.0060    -3.180    -1.135    -1.061 -0.5917  0.1980  0.7814
    12 H(1)   Bbb    -0.0021    -1.102    -0.393    -0.368  0.7978  0.0047  0.6029
              Bcc     0.0080     4.282     1.528     1.428  0.1157  0.9802 -0.1607
 
              Baa    -0.0069    -3.686    -1.315    -1.229 -0.1923  0.3213  0.9272
    13 H(1)   Bbb    -0.0039    -2.082    -0.743    -0.695 -0.5678  0.7342 -0.3722
              Bcc     0.0108     5.768     2.058     1.924  0.8004  0.5981 -0.0412
 
              Baa    -1.3160    95.228    33.980    31.764  0.7449  0.4267  0.5129
    14 O(17)  Bbb    -1.2889    93.262    33.278    31.109 -0.6354  0.2189  0.7405
              Bcc     2.6049  -188.490   -67.258   -62.873 -0.2037  0.8775 -0.4342
 
              Baa    -0.0921   -49.149   -17.538   -16.394 -0.6447  0.2083  0.7356
    15 H(1)   Bbb    -0.0315   -16.785    -5.989    -5.599 -0.2433  0.8563 -0.4557
              Bcc     0.1236    65.934    23.527    21.993  0.7247  0.4727  0.5013
 

 ---------------------------------------------------------------------------------

 Calling FoFJK, ICntrl=    100127 FMM=F ISym2X=0 I1Cent= 0 IOpClX= 1 NMat=1 NMatS=1 NMatT=0.
 Full mass-weighted force constant matrix:
 Low frequencies ----1596.6734   -0.0007   -0.0003    0.0006   12.8291   22.5513
 Low frequencies ---   33.7850   70.6065  119.9214
 ******    1 imaginary frequencies (negative Signs) ****** 
 Diagonal vibrational polarizability:
       42.9089472      47.3459059      22.0691656
 Harmonic frequencies (cm**-1), IR intensities (KM/Mole), Raman scattering
 activities (A**4/AMU), depolarization ratios for plane and unpolarized
 incident light, reduced masses (AMU), force constants (mDyne/A),
 and normal coordinates:
                      1                      2                      3
                      A                      A                      A
 Frequencies --  -1596.6731                68.4267               119.9105
 Red. masses --      1.1067                 7.3711                 4.5463
 Frc consts  --      1.6622                 0.0203                 0.0385
 IR Inten    --   1787.3084                 2.8097                 0.8942
  Atom  AN      X      Y      Z        X      Y      Z        X      Y      Z
     1   6     0.00   0.00   0.00     0.09  -0.20   0.29     0.06   0.01   0.14
     2   1     0.00   0.00   0.00     0.12  -0.31   0.50     0.10   0.01   0.28
     3   6     0.00   0.00   0.00     0.06  -0.07   0.05     0.02   0.00  -0.03
     4   6     0.01   0.01   0.00     0.03   0.05  -0.15     0.00  -0.01  -0.07
     5   8     0.00   0.00   0.00     0.03   0.13  -0.32     0.02  -0.12   0.16
     6   8    -0.02   0.00   0.00     0.03   0.03  -0.08    -0.04   0.10  -0.32
     7   6     0.02  -0.03   0.01     0.04  -0.02  -0.01     0.01   0.05  -0.09
     8   6     0.00   0.02  -0.01     0.05   0.00  -0.06    -0.01  -0.06   0.24
     9   1    -0.03   0.15  -0.04     0.10  -0.12   0.02     0.21   0.15  -0.11
    10   1    -0.14   0.90  -0.36    -0.05   0.03   0.12    -0.11   0.00  -0.11
    11   1     0.00  -0.01   0.00    -0.04   0.13  -0.08    -0.28  -0.19   0.24
    12   1     0.02   0.02   0.01     0.13  -0.05  -0.20     0.19   0.02   0.28
    13   1     0.00   0.00   0.00     0.06  -0.07   0.05     0.04  -0.11   0.48
    14   8     0.01  -0.06   0.02    -0.28   0.05   0.29    -0.04   0.04  -0.05
    15   1    -0.03   0.01  -0.02    -0.15   0.03   0.11    -0.07   0.00   0.04
                      4                      5                      6
                      A                      A                      A
 Frequencies --    133.5396               166.9703               175.7325
 Red. masses --      4.1718                 3.0347                 1.5044
 Frc consts  --      0.0438                 0.0498                 0.0274
 IR Inten    --      2.6376                 5.4501                 4.2202
  Atom  AN      X      Y      Z        X      Y      Z        X      Y      Z
     1   6     0.15   0.30   0.10    -0.07  -0.04   0.05     0.02   0.00   0.00
     2   1     0.25   0.57   0.21    -0.07  -0.12   0.13     0.02   0.01  -0.01
     3   6     0.02  -0.04  -0.03    -0.07   0.07  -0.04     0.02  -0.01   0.00
     4   6    -0.02  -0.13  -0.08    -0.07   0.07  -0.06     0.02  -0.01   0.02
     5   8    -0.02  -0.09  -0.15    -0.08   0.07  -0.06     0.03  -0.02   0.04
     6   8    -0.03  -0.14   0.01    -0.04   0.04  -0.03     0.01   0.01   0.00
     7   6    -0.01  -0.02   0.03    -0.03  -0.06   0.05     0.03   0.00   0.07
     8   6    -0.18   0.10   0.05     0.02  -0.09   0.01    -0.04   0.09  -0.04
     9   1     0.04  -0.02   0.03     0.01  -0.14   0.07     0.07  -0.11   0.10
    10   1     0.07   0.02   0.05    -0.05  -0.01   0.11     0.01   0.00   0.15
    11   1    -0.24   0.10   0.05    -0.28   0.20  -0.05    -0.41   0.50  -0.12
    12   1    -0.31   0.05   0.04     0.36  -0.17  -0.33     0.21  -0.07  -0.49
    13   1    -0.14   0.26   0.09     0.06  -0.35   0.39     0.04  -0.07   0.40
    14   8     0.10   0.02   0.06     0.27  -0.02   0.06    -0.07  -0.07  -0.07
    15   1     0.15  -0.02   0.01     0.26  -0.12   0.15    -0.08   0.04  -0.16
                      7                      8                      9
                      A                      A                      A
 Frequencies --    241.1093               272.7213               307.7935
 Red. masses --      2.4098                 4.7636                 4.1044
 Frc consts  --      0.0825                 0.2087                 0.2291
 IR Inten    --      2.4034                 3.5078                 1.3306
  Atom  AN      X      Y      Z        X      Y      Z        X      Y      Z
     1   6     0.00  -0.07   0.08     0.06   0.09   0.11    -0.03   0.06  -0.10
     2   1     0.01  -0.22   0.25     0.17   0.26   0.35    -0.07   0.21  -0.38
     3   6    -0.01   0.13  -0.15    -0.10  -0.14  -0.23     0.03  -0.15   0.30
     4   6    -0.01   0.06  -0.06    -0.01  -0.01  -0.04     0.00   0.02   0.04
     5   8    -0.03  -0.01   0.07     0.28   0.02   0.05     0.08   0.09  -0.05
     6   8     0.03   0.02  -0.05    -0.16   0.12   0.07    -0.06   0.15  -0.19
     7   6     0.06  -0.06   0.12    -0.17   0.03   0.10    -0.03  -0.05   0.08
     8   6    -0.06   0.09  -0.02     0.06  -0.11  -0.07    -0.06   0.00  -0.01
     9   1     0.15  -0.21   0.16    -0.23  -0.07   0.12     0.14  -0.27   0.15
    10   1     0.04  -0.06   0.24    -0.21   0.02   0.12    -0.16  -0.08   0.29
    11   1     0.24   0.00   0.01     0.34  -0.06  -0.06     0.14  -0.03   0.01
    12   1    -0.48   0.05   0.15     0.15  -0.06  -0.04    -0.29  -0.02   0.08
    13   1    -0.08   0.40  -0.37    -0.03  -0.33  -0.29    -0.08   0.15  -0.23
    14   8     0.03  -0.13  -0.01    -0.01  -0.02  -0.03     0.05  -0.14   0.03
    15   1    -0.04  -0.01   0.00     0.06  -0.06  -0.09     0.24  -0.21  -0.18
                     10                     11                     12
                      A                      A                      A
 Frequencies --    374.5275               399.0485               530.1135
 Red. masses --      1.8978                 1.3993                 3.3305
 Frc consts  --      0.1568                 0.1313                 0.5514
 IR Inten    --     56.6004                71.9308                16.6018
  Atom  AN      X      Y      Z        X      Y      Z        X      Y      Z
     1   6    -0.02   0.01   0.00     0.01  -0.01   0.00    -0.12   0.05   0.04
     2   1    -0.01   0.04   0.01     0.00  -0.08   0.02    -0.06   0.21   0.13
     3   6    -0.03  -0.03   0.00     0.02   0.07  -0.03    -0.18  -0.13  -0.05
     4   6    -0.03  -0.05  -0.02     0.02   0.02   0.02    -0.04   0.01   0.02
     5   8    -0.11  -0.08  -0.01     0.04   0.03   0.03     0.01   0.03   0.02
     6   8    -0.03  -0.02  -0.03     0.03   0.00   0.03     0.06  -0.01   0.00
     7   6     0.04   0.05   0.11    -0.03  -0.04  -0.08     0.09   0.13  -0.15
     8   6     0.15   0.04   0.00    -0.09  -0.04   0.00     0.10   0.15   0.01
     9   1     0.13  -0.01   0.13    -0.09   0.02  -0.09     0.04   0.33  -0.20
    10   1     0.01   0.16   0.19    -0.03  -0.04  -0.08     0.09  -0.36  -0.29
    11   1     0.35   0.10   0.01    -0.21  -0.10   0.00     0.00   0.10   0.00
    12   1     0.20   0.05   0.00    -0.11  -0.04   0.02     0.13   0.17   0.02
    13   1     0.09  -0.10  -0.15    -0.05   0.04   0.09     0.13   0.19   0.09
    14   8    -0.02   0.06   0.00    -0.03   0.00   0.05     0.01  -0.18   0.09
    15   1     0.45   0.03  -0.64     0.61  -0.25  -0.65     0.18  -0.46   0.09
                     13                     14                     15
                      A                      A                      A
 Frequencies --    549.8182               625.1955               741.4943
 Red. masses --      3.7395                 7.3956                 1.3250
 Frc consts  --      0.6660                 1.7032                 0.4292
 IR Inten    --      4.1779                 7.9789                37.0777
  Atom  AN      X      Y      Z        X      Y      Z        X      Y      Z
     1   6     0.17  -0.06  -0.05    -0.24   0.05   0.06    -0.05  -0.13  -0.06
     2   1     0.12  -0.21  -0.11    -0.42  -0.38  -0.10     0.33   0.85   0.37
     3   6     0.21   0.11   0.01    -0.06   0.43   0.20     0.02   0.07   0.03
     4   6     0.02  -0.05  -0.03    -0.06  -0.17  -0.07     0.00   0.00   0.00
     5   8    -0.10  -0.08  -0.02     0.34  -0.09  -0.08     0.01   0.00   0.00
     6   8    -0.10   0.07   0.03    -0.08  -0.19  -0.07     0.00   0.00   0.00
     7   6    -0.18   0.19   0.00    -0.02   0.06   0.01     0.00   0.00   0.00
     8   6     0.01   0.07  -0.01     0.05   0.05   0.01     0.00   0.00   0.00
     9   1    -0.22   0.31  -0.03     0.07   0.12   0.00     0.00   0.01   0.00
    10   1    -0.20  -0.23  -0.16     0.03  -0.03  -0.05     0.00   0.00   0.00
    11   1     0.16   0.12  -0.01     0.21   0.11   0.01     0.01   0.00   0.00
    12   1     0.19   0.12  -0.03     0.19   0.08  -0.02     0.00   0.00   0.00
    13   1    -0.06  -0.17  -0.10     0.00  -0.13  -0.09    -0.01  -0.01  -0.01
    14   8     0.01  -0.14   0.06    -0.01  -0.02   0.00     0.00   0.00   0.00
    15   1     0.11  -0.49   0.22    -0.02  -0.06   0.05     0.00  -0.01   0.00
                     16                     17                     18
                      A                      A                      A
 Frequencies --    772.9475               785.3607               805.1735
 Red. masses --      2.1809                 2.2723                 1.3355
 Frc consts  --      0.7677                 0.8258                 0.5101
 IR Inten    --      3.5017                50.2236               163.2646
  Atom  AN      X      Y      Z        X      Y      Z        X      Y      Z
     1   6     0.02  -0.07   0.14    -0.01   0.05  -0.10     0.01  -0.01   0.00
     2   1    -0.12   0.42  -0.83     0.12  -0.40   0.81     0.00   0.02  -0.04
     3   6    -0.02   0.06  -0.13    -0.01   0.02  -0.05     0.01   0.00   0.02
     4   6     0.03  -0.09   0.20     0.04  -0.12   0.26    -0.02   0.02  -0.05
     5   8    -0.01   0.02  -0.06    -0.01   0.03  -0.07     0.00  -0.01   0.01
     6   8    -0.01   0.02  -0.05    -0.02   0.03  -0.06    -0.01  -0.01   0.02
     7   6     0.00   0.01  -0.01     0.00   0.01  -0.02    -0.03   0.06  -0.08
     8   6     0.00   0.01   0.00     0.00   0.01   0.00     0.00   0.04  -0.03
     9   1     0.03  -0.10   0.01     0.03  -0.14   0.02    -0.09  -0.33   0.01
    10   1    -0.02   0.03   0.07    -0.01   0.04   0.11     0.19   0.09   0.30
    11   1    -0.02  -0.04   0.00    -0.03  -0.07   0.01    -0.13  -0.31   0.01
    12   1     0.03   0.04   0.04     0.05   0.06   0.06     0.23   0.26   0.24
    13   1     0.01   0.00   0.02     0.01  -0.01   0.03     0.01  -0.09   0.13
    14   8     0.00  -0.01   0.00     0.01  -0.02   0.00     0.03  -0.08   0.04
    15   1    -0.02   0.04   0.00    -0.05   0.09  -0.01    -0.14   0.57  -0.26
                     19                     20                     21
                      A                      A                      A
 Frequencies --    899.0547               933.7869               968.8264
 Red. masses --      1.7161                 1.6488                 3.8192
 Frc consts  --      0.8173                 0.8471                 2.1121
 IR Inten    --     75.8724                57.2376                 7.2687
  Atom  AN      X      Y      Z        X      Y      Z        X      Y      Z
     1   6    -0.03   0.01   0.01    -0.04   0.01   0.01    -0.13   0.04   0.04
     2   1    -0.04   0.00   0.00    -0.04   0.00   0.01    -0.14   0.05   0.04
     3   6    -0.01   0.03   0.02    -0.01   0.03   0.01    -0.09   0.00   0.01
     4   6     0.02  -0.05  -0.04     0.03  -0.05  -0.02     0.19  -0.03  -0.05
     5   8     0.00  -0.09  -0.03    -0.01  -0.08  -0.04    -0.03  -0.13  -0.05
     6   8    -0.04   0.11   0.08    -0.02   0.13   0.04     0.23   0.11   0.03
     7   6     0.04  -0.05  -0.03     0.04   0.00  -0.01    -0.02   0.14   0.07
     8   6     0.10   0.02  -0.04     0.02  -0.08   0.01    -0.19  -0.06  -0.04
     9   1    -0.14  -0.42   0.06    -0.06   0.42  -0.11     0.14  -0.08   0.13
    10   1    -0.21   0.10   0.13     0.20  -0.17  -0.14    -0.09   0.18   0.15
    11   1    -0.31  -0.23  -0.03    -0.06   0.17  -0.03     0.05  -0.22  -0.01
    12   1    -0.11   0.08   0.19    -0.31  -0.29  -0.19     0.20   0.10   0.03
    13   1     0.24   0.40   0.28     0.06   0.21  -0.04    -0.33  -0.58  -0.17
    14   8    -0.02   0.04  -0.03     0.02  -0.04   0.04    -0.01   0.00  -0.01
    15   1     0.08  -0.38   0.18    -0.12   0.54  -0.25     0.03  -0.23   0.13
                     22                     23                     24
                      A                      A                      A
 Frequencies --   1128.6983              1149.6746              1161.3523
 Red. masses --      2.7673                 1.8629                 2.0625
 Frc consts  --      2.0771                 1.4508                 1.6390
 IR Inten    --     93.3745                26.3371                 7.1419
  Atom  AN      X      Y      Z        X      Y      Z        X      Y      Z
     1   6     0.03  -0.01  -0.01     0.02  -0.01  -0.01     0.01   0.00   0.00
     2   1     0.04  -0.02  -0.02     0.02  -0.01  -0.01     0.01   0.00   0.00
     3   6     0.02   0.02   0.00     0.01   0.00   0.00     0.00  -0.01   0.00
     4   6    -0.07  -0.01   0.00    -0.06  -0.01   0.00    -0.01   0.00   0.01
     5   8     0.01   0.00   0.00     0.01   0.03   0.02     0.00   0.03   0.01
     6   8    -0.16   0.07   0.06    -0.03  -0.05   0.04     0.02  -0.06  -0.06
     7   6     0.29  -0.03   0.01     0.07   0.20  -0.08    -0.01   0.12   0.19
     8   6    -0.13   0.01  -0.07     0.00  -0.12   0.01     0.03  -0.08  -0.15
     9   1     0.39   0.17  -0.02     0.50  -0.13   0.03    -0.12   0.35   0.14
    10   1     0.33  -0.16  -0.10    -0.36   0.24   0.42     0.20  -0.06  -0.20
    11   1     0.04  -0.35  -0.01    -0.16   0.08  -0.04    -0.49  -0.45  -0.13
    12   1     0.29   0.20   0.06    -0.31  -0.31  -0.16    -0.21   0.04   0.22
    13   1    -0.20  -0.44  -0.03     0.01   0.11  -0.13     0.16   0.14   0.26
    14   8    -0.01   0.01  -0.01     0.00  -0.02   0.00     0.00   0.00   0.00
    15   1     0.05  -0.18   0.05     0.00  -0.06   0.05     0.01  -0.03   0.01
                     25                     26                     27
                      A                      A                      A
 Frequencies --   1289.9304              1306.8892              1383.6613
 Red. masses --      6.5290                 1.1593                 1.2224
 Frc consts  --      6.4008                 1.1666                 1.3789
 IR Inten    --    727.4967                35.5890                19.4474
  Atom  AN      X      Y      Z        X      Y      Z        X      Y      Z
     1   6    -0.10   0.03   0.03     0.00   0.00   0.00     0.01   0.00   0.00
     2   1    -0.11   0.07   0.05     0.00   0.00   0.00     0.02  -0.01  -0.01
     3   6    -0.03  -0.01   0.00     0.00   0.00   0.00     0.00   0.00   0.00
     4   6     0.54   0.19   0.00     0.01   0.01   0.00    -0.07  -0.02   0.01
     5   8    -0.06   0.01   0.01     0.00   0.00   0.00     0.01   0.00   0.00
     6   8    -0.28  -0.17  -0.03    -0.03   0.00  -0.01     0.03   0.00  -0.02
     7   6     0.11   0.02  -0.03     0.03   0.08   0.00     0.09   0.01   0.00
     8   6     0.01   0.00   0.00     0.00  -0.03   0.05     0.01   0.05   0.04
     9   1    -0.45   0.17  -0.07    -0.29  -0.59   0.14    -0.73   0.16  -0.07
    10   1    -0.34  -0.17   0.36     0.54   0.06  -0.39    -0.15   0.07   0.35
    11   1    -0.02  -0.06   0.00     0.00   0.10   0.03    -0.09  -0.23   0.06
    12   1    -0.01  -0.03  -0.05    -0.09  -0.16  -0.13    -0.16  -0.16  -0.23
    13   1     0.01   0.02   0.00    -0.05  -0.02  -0.13    -0.10  -0.27  -0.13
    14   8     0.01  -0.01   0.01    -0.01   0.00   0.00     0.00   0.00   0.00
    15   1    -0.02   0.06  -0.04     0.04  -0.11   0.02     0.00  -0.04   0.03
                     28                     29                     30
                      A                      A                      A
 Frequencies --   1418.3787              1456.2674              1484.1499
 Red. masses --      1.2580                 1.1553                 1.0425
 Frc consts  --      1.4911                 1.4435                 1.3530
 IR Inten    --     12.1700                14.9446                 8.9403
  Atom  AN      X      Y      Z        X      Y      Z        X      Y      Z
     1   6     0.01   0.00   0.00    -0.01   0.00   0.00     0.00   0.00   0.00
     2   1     0.01   0.00   0.00    -0.01   0.00   0.00     0.00   0.00   0.00
     3   6     0.00   0.00   0.00     0.00   0.00   0.00     0.00   0.00   0.00
     4   6    -0.03  -0.01   0.00     0.03   0.00  -0.01     0.00   0.00   0.00
     5   8     0.00   0.00   0.00     0.00   0.01   0.00     0.00   0.00   0.00
     6   8     0.01   0.00  -0.01    -0.01   0.01   0.00     0.00   0.00   0.00
     7   6     0.04   0.02   0.00    -0.07  -0.04  -0.03    -0.02  -0.01   0.02
     8   6    -0.08  -0.11  -0.02     0.05   0.02   0.01     0.00   0.00   0.05
     9   1    -0.35   0.15  -0.04     0.17   0.26  -0.09     0.07   0.04   0.02
    10   1     0.20   0.14   0.33     0.66   0.25   0.44     0.00  -0.02  -0.03
    11   1     0.29   0.33  -0.05    -0.21   0.04  -0.01    -0.38  -0.28   0.04
    12   1     0.39   0.15   0.16    -0.17  -0.03   0.06     0.49  -0.02  -0.29
    13   1     0.08   0.48   0.11    -0.02  -0.16  -0.12    -0.05   0.38  -0.54
    14   8    -0.01   0.00  -0.01    -0.02   0.00  -0.01     0.00   0.00   0.00
    15   1     0.02  -0.12   0.06     0.05  -0.24   0.11     0.00   0.01   0.00
                     31                     32                     33
                      A                      A                      A
 Frequencies --   1493.5759              1829.6434              2267.4558
 Red. masses --      1.0507                12.3564                 5.6998
 Frc consts  --      1.3810                24.3711                17.2660
 IR Inten    --      9.0194               297.3518                86.9656
  Atom  AN      X      Y      Z        X      Y      Z        X      Y      Z
     1   6     0.00   0.00   0.00     0.07  -0.02  -0.02    -0.35   0.09   0.10
     2   1     0.00   0.00   0.00     0.12  -0.01  -0.02    -0.71   0.19   0.20
     3   6     0.00   0.00   0.00    -0.04   0.00   0.01     0.49  -0.13  -0.14
     4   6     0.01   0.00   0.00    -0.21   0.69   0.34    -0.08   0.04   0.03
     5   8     0.00   0.00   0.00     0.13  -0.46  -0.22     0.00  -0.01   0.00
     6   8     0.00   0.00   0.00     0.00  -0.05  -0.02     0.00   0.00   0.00
     7   6    -0.04   0.01  -0.01    -0.03   0.03   0.00     0.00   0.00   0.00
     8   6    -0.03   0.03   0.00     0.01  -0.01  -0.01     0.00   0.00   0.00
     9   1     0.12   0.03   0.00     0.12   0.04   0.03     0.00   0.00   0.00
    10   1     0.17   0.06   0.07     0.13  -0.04   0.07     0.00   0.01   0.00
    11   1     0.45  -0.50   0.10    -0.02  -0.03   0.00     0.00   0.00   0.00
    12   1     0.00  -0.24  -0.48    -0.03  -0.02  -0.02     0.00   0.00   0.00
    13   1     0.11   0.20   0.38     0.03   0.04   0.02     0.00   0.00   0.00
    14   8     0.00   0.00   0.00     0.00   0.00   0.00     0.00   0.00   0.00
    15   1     0.01  -0.05   0.02     0.03  -0.09   0.00     0.00  -0.01   0.00
                     34                     35                     36
                      A                      A                      A
 Frequencies --   3055.3080              3122.8378              3135.9033
 Red. masses --      1.0387                 1.0880                 1.0962
 Frc consts  --      5.7130                 6.2514                 6.3516
 IR Inten    --      3.9240                 3.3695                 5.3699
  Atom  AN      X      Y      Z        X      Y      Z        X      Y      Z
     1   6     0.00   0.00   0.00     0.00   0.00   0.00     0.00   0.00   0.00
     2   1     0.00   0.00   0.00     0.00   0.00   0.00     0.00   0.00   0.00
     3   6     0.00   0.00   0.00     0.00   0.00   0.00     0.00   0.00   0.00
     4   6     0.00   0.00   0.00     0.00   0.00   0.00     0.00   0.00   0.00
     5   8     0.00   0.00   0.00     0.00   0.00   0.00     0.00   0.00   0.00
     6   8     0.00   0.00   0.00     0.00   0.00   0.00     0.00   0.00   0.00
     7   6     0.00   0.00   0.00     0.00  -0.02  -0.07     0.00   0.01   0.03
     8   6    -0.01  -0.05   0.00     0.01  -0.01   0.04     0.04  -0.04   0.06
     9   1     0.00   0.00   0.01    -0.04   0.20   0.87     0.02  -0.09  -0.40
    10   1     0.00   0.01   0.00     0.00   0.00  -0.01     0.00   0.01   0.00
    11   1    -0.04   0.05   0.48     0.03  -0.05  -0.36     0.05  -0.08  -0.54
    12   1    -0.21   0.64  -0.36    -0.07   0.20  -0.11    -0.15   0.49  -0.26
    13   1     0.40  -0.09  -0.10    -0.05   0.00   0.02    -0.42   0.08   0.11
    14   8     0.00   0.00   0.00     0.00   0.00   0.00     0.00   0.00   0.00
    15   1     0.00   0.00   0.00     0.00   0.00   0.00     0.00   0.00   0.00
                     37                     38                     39
                      A                      A                      A
 Frequencies --   3162.6044              3473.5595              3787.4989
 Red. masses --      1.1023                 1.1733                 1.0666
 Frc consts  --      6.4961                 8.3406                 9.0147
 IR Inten    --      6.0616                64.5983                66.5842
  Atom  AN      X      Y      Z        X      Y      Z        X      Y      Z
     1   6     0.00   0.00   0.00    -0.11   0.03   0.03     0.00   0.00   0.00
     2   1     0.00   0.00   0.00     0.92  -0.25  -0.26     0.00   0.00   0.00
     3   6     0.00   0.00   0.00     0.03  -0.01  -0.01     0.00   0.00   0.00
     4   6     0.00   0.00   0.00     0.00   0.00   0.00     0.00   0.00   0.00
     5   8     0.00   0.00   0.00     0.00   0.00   0.00     0.00   0.00   0.00
     6   8     0.00   0.00   0.00     0.00   0.00   0.00     0.00   0.00   0.00
     7   6     0.00   0.00  -0.01     0.00   0.00   0.00     0.00   0.00   0.00
     8   6     0.07  -0.02  -0.06     0.00   0.00   0.00     0.00   0.00   0.00
     9   1    -0.01   0.04   0.17     0.00   0.00   0.00     0.00   0.00   0.00
    10   1     0.00   0.00   0.00     0.00   0.00   0.00     0.01  -0.02   0.01
    11   1    -0.03   0.07   0.57     0.00   0.00   0.00     0.00   0.00   0.00
    12   1    -0.01   0.05  -0.04     0.00   0.00   0.00     0.00   0.00   0.00
    13   1    -0.75   0.16   0.18     0.00   0.00   0.00     0.00   0.00   0.00
    14   8     0.00   0.00   0.00     0.00   0.00   0.00     0.05   0.03   0.03
    15   1     0.00   0.00   0.00     0.00   0.00   0.00    -0.73  -0.44  -0.52

 -------------------
 - Thermochemistry -
 -------------------
 Temperature   298.150 Kelvin.  Pressure   1.00000 Atm.
 Atom     1 has atomic number  6 and mass  12.00000
 Atom     2 has atomic number  1 and mass   1.00783
 Atom     3 has atomic number  6 and mass  12.00000
 Atom     4 has atomic number  6 and mass  12.00000
 Atom     5 has atomic number  8 and mass  15.99491
 Atom     6 has atomic number  8 and mass  15.99491
 Atom     7 has atomic number  6 and mass  12.00000
 Atom     8 has atomic number  6 and mass  12.00000
 Atom     9 has atomic number  1 and mass   1.00783
 Atom    10 has atomic number  1 and mass   1.00783
 Atom    11 has atomic number  1 and mass   1.00783
 Atom    12 has atomic number  1 and mass   1.00783
 Atom    13 has atomic number  1 and mass   1.00783
 Atom    14 has atomic number  8 and mass  15.99491
 Atom    15 has atomic number  1 and mass   1.00783
 Molecular mass:   115.03952 amu.
 Principal axes and moments of inertia in atomic units:
                           1         2         3
     Eigenvalues --   593.870551486.766881891.82504
           X            0.99960   0.02691  -0.00905
           Y           -0.02688   0.99963   0.00346
           Z            0.00914  -0.00321   0.99995
 This molecule is an asymmetric top.
 Rotational symmetry number  1.
 Warning -- assumption of classical behavior for rotation
           may cause significant error
 Rotational temperatures (Kelvin)      0.14585     0.05826     0.04578
 Rotational constants (GHZ):           3.03895     1.21387     0.95397
    1 imaginary frequencies ignored.
 Zero-point vibrational energy     280996.5 (Joules/Mol)
                                   67.15977 (Kcal/Mol)
 Warning -- explicit consideration of  12 degrees of freedom as
           vibrations may cause significant error
 Vibrational temperatures:     98.45   172.52   192.13   240.23   252.84
          (Kelvin)            346.90   392.38   442.85   538.86   574.14
                              762.71   791.06   899.52  1066.84  1112.10
                             1129.96  1158.46  1293.54  1343.51  1393.92
                             1623.94  1654.12  1670.92  1855.92  1880.32
                             1990.78  2040.73  2095.24  2135.36  2148.92
                             2632.45  3262.36  4395.90  4493.06  4511.86
                             4550.28  4997.67  5449.36
 
 Zero-point correction=                           0.107026 (Hartree/Particle)
 Thermal correction to Energy=                    0.116392
 Thermal correction to Enthalpy=                  0.117336
 Thermal correction to Gibbs Free Energy=         0.072038
 Sum of electronic and zero-point Energies=           -419.35386
 Sum of electronic and thermal Energies=              -420.088498
 Sum of electronic and thermal Enthalpies=            -420.087553
 Sum of electronic and thermal Free Energies=         -420.132852
 
                     E (Thermal)             CV                S
                      KCal/Mol        Cal/Mol-Kelvin    Cal/Mol-Kelvin
 Total                   73.037             32.640             95.338
 Electronic               0.000              0.000              1.377
 Translational            0.889              2.981             40.136
 Rotational               0.889              2.981             28.903
 Vibrational             71.260             26.679             24.922
 Vibration     1          0.598              1.969              4.198
 Vibration     2          0.609              1.933              3.102
 Vibration     3          0.613              1.920              2.894
 Vibration     4          0.624              1.883              2.469
 Vibration     5          0.628              1.872              2.373
 Vibration     6          0.658              1.777              1.795
 Vibration     7          0.676              1.724              1.579
 Vibration     8          0.698              1.659              1.374
 Vibration     9          0.746              1.524              1.061
 Vibration    10          0.765              1.472              0.966
 Vibration    11          0.885              1.183              0.587
 Vibration    12          0.905              1.140              0.545
                       Q            Log10(Q)             Ln(Q)
 Total Bot       0.732492D-33        -33.135197        -76.296611
 Total V=0       0.123935D+17         16.093194         37.055949
 Vib (Bot)       0.163227D-46        -46.787207       -107.731525
 Vib (Bot)    1  0.301471D+01          0.479245          1.103502
 Vib (Bot)    2  0.170429D+01          0.231543          0.533147
 Vib (Bot)    3  0.152526D+01          0.183343          0.422163
 Vib (Bot)    4  0.120814D+01          0.082118          0.189083
 Vib (Bot)    5  0.114460D+01          0.058653          0.135055
 Vib (Bot)    6  0.812833D+00         -0.089999         -0.207230
 Vib (Bot)    7  0.707654D+00         -0.150179         -0.345800
 Vib (Bot)    8  0.615135D+00         -0.211030         -0.485914
 Vib (Bot)    9  0.484595D+00         -0.314621         -0.724441
 Vib (Bot)   10  0.446964D+00         -0.349727         -0.805277
 Vib (Bot)   11  0.301656D+00         -0.520488         -1.198467
 Vib (Bot)   12  0.285476D+00         -0.544430         -1.253597
 Vib (V=0)       0.276175D+03          2.441184          5.621034
 Vib (V=0)    1  0.355589D+01          0.550948          1.268605
 Vib (V=0)    2  0.227612D+01          0.357195          0.822471
 Vib (V=0)    3  0.210512D+01          0.323277          0.744372
 Vib (V=0)    4  0.180752D+01          0.257083          0.591955
 Vib (V=0)    5  0.174904D+01          0.242800          0.559069
 Vib (V=0)    6  0.145430D+01          0.162655          0.374528
 Vib (V=0)    7  0.136647D+01          0.135601          0.312233
 Vib (V=0)    8  0.129271D+01          0.111501          0.256741
 Vib (V=0)    9  0.119630D+01          0.077840          0.179233
 Vib (V=0)   10  0.117065D+01          0.068429          0.157563
 Vib (V=0)   11  0.108395D+01          0.035009          0.080611
 Vib (V=0)   12  0.107576D+01          0.031714          0.073025
 Electronic      0.200000D+01          0.301030          0.693147
 Translational   0.484982D+08          7.685726         17.697038
 Rotational      0.462652D+06          5.665254         13.044730
 ***** Axes restored to original set *****
 -------------------------------------------------------------------
 Center     Atomic                   Forces (Hartrees/Bohr)
 Number     Number              X              Y              Z
 -------------------------------------------------------------------
      1        6          -0.000057104   -0.000018350   -0.000006394
      2        1          -0.000002406    0.000005947   -0.000006243
      3        6          -0.000116799   -0.000134454   -0.000043787
      4        6           0.000796040    0.000820746    0.000307824
      5        8           0.000343018   -0.000300425    0.000319456
      6        8          -0.002386758    0.000852314   -0.000294175
      7        6           0.002027751   -0.001821990    0.000147686
      8        6          -0.000318016    0.002057284   -0.000701844
      9        1          -0.000183899    0.001159882   -0.000381235
     10        1          -0.000968546    0.006282051   -0.002584653
     11        1           0.000004574   -0.000031366   -0.000036398
     12        1           0.000155579    0.000228092    0.000074319
     13        1          -0.000022312    0.000050512    0.000005857
     14        8           0.001003372   -0.009152309    0.003331827
     15        1          -0.000274493    0.000002065   -0.000132242
 -------------------------------------------------------------------
 Cartesian Forces:  Max     0.009152309 RMS     0.001916003

 GradGradGradGradGradGradGradGradGradGradGradGradGradGradGradGradGradGrad
 Berny optimization.
 Search for a local minimum.
 Step number   1 out of a maximum of    2
 All quantities printed in internal units (Hartrees-Bohrs-Radians)
 Second derivative matrix not updated -- analytic derivatives used.
 ITU=  0
     Eigenvalues ---   -0.16981   0.00104   0.00193   0.00271   0.00314
     Eigenvalues ---    0.00635   0.00828   0.01073   0.01410   0.02086
     Eigenvalues ---    0.02271   0.02958   0.04290   0.05453   0.06509
     Eigenvalues ---    0.07295   0.08509   0.08970   0.09129   0.09384
     Eigenvalues ---    0.10754   0.11495   0.14184   0.17644   0.19134
     Eigenvalues ---    0.25064   0.29584   0.35901   0.47538   0.51930
     Eigenvalues ---    0.66165   0.72643   0.77130   0.80118   0.87361
     Eigenvalues ---    0.91021   0.95634   1.70770   2.73304
 Eigenvalue     1 is  -1.70D-01 should be greater than     0.000000 Eigenvector:
                          Y10       Y14       Z10       Z14       Y7
   1                    0.77487  -0.43932  -0.28443   0.14695  -0.14160
                          X10       Y9        X14       X7        Y8
   1                   -0.11358   0.11071   0.09081   0.08670   0.07306
 Angle between quadratic step and forces=  43.86 degrees.
 Linear search not attempted -- first point.
 TrRot=  0.001529 -0.003191  0.001326 -1.810389 -0.000457  1.811219
 Variable       Old X    -DE/DX   Delta X   Delta X   Delta X     New X
                                 (Linear)    (Quad)   (Total)
    X1        6.19484  -0.00006   0.00000  -0.00093   0.00133   6.19617
    Y1       -0.98970  -0.00002   0.00000   0.00032   0.00191  -0.98780
    Z1       -0.83343  -0.00001   0.00000  -0.00134  -0.00024  -0.83367
    X2        8.07218   0.00000   0.00000  -0.00159   0.00103   8.07320
    Y2       -1.49410   0.00001   0.00000  -0.00159   0.00132  -1.49278
    Z2       -1.35514  -0.00001   0.00000  -0.00321  -0.00210  -1.35724
    X3        4.08304  -0.00012   0.00000   0.00017   0.00202   4.08506
    Y3       -0.42521  -0.00013   0.00000   0.00408   0.00417  -0.42103
    Z3       -0.24652  -0.00004   0.00000  -0.00090   0.00017  -0.24635
    X4        1.55761   0.00080   0.00000   0.00438   0.00566   1.56327
    Y4        0.35196   0.00082   0.00000   0.01100   0.00933   0.36129
    Z4        0.49186   0.00031   0.00000   0.00248   0.00347   0.49533
    X5        1.06916   0.00034   0.00000   0.00820   0.00793   1.07709
    Y5        2.34608  -0.00030   0.00000   0.00540   0.00375   2.34984
    Z5        1.45718   0.00032   0.00000   0.01143   0.01159   1.46877
    X6       -0.14679  -0.00239   0.00000  -0.00381  -0.00111  -0.14789
    Y6       -1.43704   0.00085   0.00000   0.01401   0.01067  -1.42636
    Z6       -0.03700  -0.00029   0.00000  -0.00755  -0.00558  -0.04258
    X7       -2.67923   0.00203   0.00000   0.01315   0.01552  -2.66370
    Y7       -0.91306  -0.00182   0.00000  -0.00988  -0.01498  -0.92803
    Z7        0.67147   0.00015   0.00000   0.01164   0.01366   0.68514
    X8       -4.33647  -0.00032   0.00000  -0.00862  -0.00459  -4.34106
    Y8       -3.05941   0.00206   0.00000   0.02512   0.01825  -3.04117
    Z8       -0.17139  -0.00070   0.00000  -0.00771  -0.00457  -0.17596
    X9       -2.78087  -0.00018   0.00000   0.00697   0.00917  -2.77171
    Y9       -0.45158   0.00116   0.00000   0.00419  -0.00011  -0.45169
    Z9        2.68012  -0.00038   0.00000   0.00601   0.00784   2.68796
   X10       -3.32833  -0.00097   0.00000  -0.00298  -0.00237  -3.33069
   Y10        1.03833   0.00628   0.00000   0.01844   0.01230   1.05063
   Z10       -0.40369  -0.00258   0.00000  -0.00566  -0.00444  -0.40814
   X11       -4.18474   0.00000   0.00000  -0.00665  -0.00262  -4.18736
   Y11       -3.33183  -0.00003   0.00000   0.02926   0.02161  -3.31022
   Z11       -2.20800  -0.00004   0.00000  -0.00734  -0.00410  -2.21209
   X12       -3.77376   0.00016   0.00000  -0.02111  -0.01552  -3.78928
   Y12       -4.80731   0.00023   0.00000   0.01537   0.00937  -4.79795
   Z12        0.77555   0.00007   0.00000  -0.01275  -0.00889   0.76666
   X13       -6.29880  -0.00002   0.00000  -0.00521  -0.00147  -6.30028
   Y13       -2.64919   0.00005   0.00000   0.03430   0.02601  -2.62319
   Z13        0.30341   0.00001   0.00000  -0.00533  -0.00216   0.30125
   X14       -3.62057   0.00100   0.00000   0.00542   0.00410  -3.61648
   Y14        3.34485  -0.00915   0.00000  -0.07569  -0.08246   3.26239
   Z14       -1.31850   0.00333   0.00000   0.00646   0.00673  -1.31177
   X15       -2.27178  -0.00027   0.00000  -0.01713  -0.01907  -2.29084
   Y15        4.13947   0.00000   0.00000  -0.01587  -0.02112   4.11834
   Z15       -0.35812  -0.00013   0.00000  -0.01113  -0.01139  -0.36950
         Item               Value     Threshold  Converged?
 Maximum Force            0.009152     0.000450     NO 
 RMS     Force            0.001916     0.000300     NO 
 Maximum Displacement     0.082463     0.001800     NO 
 RMS     Displacement     0.015815     0.001200     NO 
 Predicted change in Energy=-1.263084D-03
 GradGradGradGradGradGradGradGradGradGradGradGradGradGradGradGradGradGrad

 1|1|UNPC-DIT|Freq|UM062X|6-311++G(d,p)|C5H7O3(2)|NDITM|27-Mar-2025|0||
 # freq 6-311++g(d,p) m062x||Title Card Required||0,2|C,3.27817,-0.5237
 28,-0.441031|H,4.271612,-0.790643,-0.717111|C,2.160654,-0.22501,-0.130
 451|C,0.824252,0.186251,0.260279|O,0.565773,1.241494,0.771106|O,-0.077
 676,-0.760448,-0.019582|C,-1.417785,-0.483168,0.355327|C,-2.294761,-1.
 618972,-0.090697|H,-1.471574,-0.238968,1.418261|H,-1.761274,0.54946,-0
 .213625|H,-2.21447,-1.763126,-1.168421|H,-1.996988,-2.543921,0.410404|
 H,-3.333183,-1.401893,0.160558|O,-1.915925,1.770019,-0.69772|H,-1.2021
 72,2.190512,-0.189507||Version=IA32W-G09RevD.01|State=2-A|HF=-420.2048
 898|S2=0.759792|S2-1=0.|S2A=0.750041|RMSD=6.810e-009|RMSF=1.916e-003|Z
 eroPoint=0.1070259|Thermal=0.1163922|Dipole=0.5791789,-1.1747046,0.269
 8824|DipoleDeriv=-0.2235415,0.0150767,0.0072852,0.0133889,-0.143669,-0
 .0064237,0.0162438,-0.009125,-0.131222,0.2810086,-0.0127625,-0.0131453
 ,-0.0125972,0.2240613,0.0107885,-0.0181013,0.0106798,0.2118313,-0.6777
 887,0.1466316,0.1238291,0.1124861,-0.1551186,-0.0477956,0.1559365,-0.0
 453595,-0.140878,2.3842345,-0.1312985,-0.1311833,0.571611,1.2994641,0.
 5843106,-0.0179059,0.4029776,0.6980323,-0.824333,0.1705009,0.1381739,-
 0.0670493,-0.8804444,-0.3605693,-0.003348,-0.2952155,-0.5293214,-1.991
 0969,0.0030497,-0.1923665,-0.5168582,-0.7923541,-0.1479289,-0.032064,-
 0.1159835,-0.3404885,1.2160109,-0.3529194,0.1825339,-0.2718332,1.31140
 7,-0.3644647,-0.0131631,-0.3259485,0.4165566,-0.0594127,0.0685657,-0.0
 43146,-0.0710959,-0.2246635,0.0261277,-0.0223579,0.1177398,-0.0231351,
 -0.0479697,-0.0135731,-0.0604661,0.0523298,-0.1340606,0.047532,0.01023
 92,0.013078,-0.0642304,0.0142814,0.1653378,-0.075148,0.3689295,-1.0705
 14,0.4567753,-0.1299313,0.4905173,-0.0908221,0.0829348,-0.0111113,0.03
 49074,-0.0227147,0.0767005,-0.0016898,-0.0016328,-0.0344161,-0.0519864
 ,0.0606434,-0.017413,-0.0208734,0.0024172,-0.0678968,0.0568293,-0.0396
 409,0.0157579,0.0549381,-0.0578947,-0.0019826,0.0308404,0.0305921,0.06
 02364,-0.0217873,0.0333747,-0.0231333,0.0785131,-0.4264437,-0.0657872,
 0.1177681,-0.06992,0.0627556,-0.1797464,0.110507,-0.2336866,-0.3164101
 ,0.2693673,0.0376853,-0.0990092,-0.1196862,0.4340962,-0.0519577,-0.048
 1558,0.0321177,0.2286225|Polar=96.0712352,-9.0287094,82.5996618,-4.025
 4746,-2.8610848,54.0052486|PG=C01 [X(C5H7O3)]|NImag=1||1.36779824,-0.3
 5399934,0.15282292,-0.36642193,0.09797445,0.16248882,-0.36828405,0.092
 53266,0.09518633,0.35841881,0.09254540,-0.05252849,-0.02467496,-0.0925
 8666,0.04187149,0.09510903,-0.02460977,-0.05618732,-0.09556796,0.02523
 694,0.04458218,-0.99909155,0.25924793,0.26975566,0.00953694,-0.0016833
 1,-0.00092331,1.30834610,0.26087306,-0.10427287,-0.07369349,-0.0013875
 3,0.00555535,-0.00074677,-0.32278573,0.19133429,0.27044299,-0.07356601
 ,-0.10891312,-0.00089282,-0.00060185,0.00744803,-0.34238181,0.10989924
 ,0.16290713,0.00644570,0.00054237,-0.00054499,-0.00080794,0.00204176,0
 .00196286,-0.24636348,0.05240304,0.05137356,0.64467311,0.00113703,0.00
 230364,0.00006295,0.00117718,0.00523556,-0.00055807,0.04264299,-0.0733
 2216,-0.00719800,-0.09178688,0.83141660,-0.00012116,0.00019559,0.00172
 451,0.00159300,-0.00071448,0.00554220,0.04611342,-0.00897306,-0.082625
 68,-0.11107719,0.28933946,0.35454845,-0.00331722,0.00031608,0.00070824
 ,0.00009997,-0.00140958,-0.00076838,-0.01360265,0.04219708,0.02396083,
 -0.14856055,0.13879106,0.07214876,0.14657240,-0.00133134,0.00154382,0.
 00073068,0.00006935,0.00031374,0.00059959,0.03544949,-0.02619103,-0.02
 677931,0.13514571,-0.59044536,-0.24720641,-0.13893327,0.70253016,-0.00
 011972,0.00040736,0.00071567,-0.00014038,0.00081172,-0.00067578,0.0213
 6291,-0.02714006,0.00561144,0.07008904,-0.25045256,-0.20186919,-0.0745
 1175,0.31863935,0.19054485,-0.00413796,0.00149184,0.00134102,0.0013435
 8,0.00090132,0.00010410,-0.06095700,-0.02831185,-0.00134045,-0.1907631
 2,-0.08045987,-0.01421041,0.02147696,-0.04616974,-0.01673988,0.4949768
 9,0.00151735,-0.00039039,-0.00072327,0.00007928,-0.00055785,-0.0000603
 2,-0.00879934,0.00887661,0.00032069,-0.07119648,-0.18485659,-0.0406703
 5,-0.03723788,-0.08403501,-0.04462728,0.09656098,0.35038428,0.00151244
 ,-0.00064144,-0.00002413,-0.00021573,-0.00023349,-0.00049220,0.0072868
 8,0.00345340,0.01179444,-0.00948434,-0.03628657,-0.08481808,-0.0145231
 7,-0.04528960,0.01310427,-0.03868448,0.11431826,0.14070511,0.00123752,
 -0.00027521,-0.00031555,-0.00049499,0.00008969,0.00007854,0.00486039,-
 0.00145171,-0.00042018,-0.06813300,-0.03762170,-0.00664060,-0.00018427
 ,0.02448255,0.00805222,-0.17079399,0.03076439,0.03592539,0.43408686,-0
 .00082812,0.00043591,0.00034993,0.00024877,0.00019844,0.00013732,-0.00
 596698,-0.00265535,-0.00237940,-0.01643522,0.02895283,0.01464637,-0.00
 058562,-0.01391977,0.00020028,0.01832968,-0.09350576,-0.03001777,0.079
 79476,0.37228682,-0.00038496,0.00027714,0.00015990,-0.00001467,0.00017
 472,-0.00022503,-0.00120289,-0.00300031,0.00438134,-0.00702861,0.00397
 218,0.00478278,-0.00286831,0.00033280,-0.00626237,0.05915209,-0.029286
 75,-0.08648720,-0.01274008,0.11188150,0.54627360,-0.00040729,0.0001717
 7,0.00012261,0.00008255,0.00007047,0.00001798,-0.00159027,-0.00120444,
 -0.00022509,-0.00238135,0.00737442,0.00388786,0.00216005,-0.00299158,-
 0.00134272,-0.04441242,-0.03387892,-0.00850082,-0.11182131,-0.05848654
 ,-0.02121159,0.56399694,0.00023996,-0.00013794,-0.00010969,-0.00003504
 ,-0.00003971,0.00000636,0.00058040,0.00074671,0.00011608,0.00205179,-0
 .00431656,-0.00190866,-0.00181469,0.00225210,0.00037908,0.00620334,0.0
 0939420,0.00385299,-0.07712657,-0.15953560,-0.04784434,-0.03529209,0.5
 1775661,0.00012952,-0.00009333,-0.00002458,-0.00001409,-0.00000750,-0.
 00001257,0.00041788,0.00042178,-0.00001107,0.00272016,-0.00151628,-0.0
 0062486,-0.00075336,-0.00022996,0.00137976,0.00872747,0.00973814,0.004
 94494,-0.02566653,-0.04557193,-0.09608855,-0.02009241,-0.00796194,0.57
 362627,-0.00013678,0.00000287,0.00001899,0.00007057,-0.00001562,0.0000
 5646,-0.00071612,0.00028376,-0.00098739,0.00340622,0.00777356,0.004601
 59,0.00073150,-0.00332876,-0.00155858,-0.02078210,0.00568669,0.0386043
 8,-0.04787597,-0.00412086,-0.00216344,0.00340773,-0.00167867,-0.018669
 98,0.06199596,0.00006078,0.00000116,0.00004053,-0.00003277,-0.00000678
 ,0.00000498,0.00064710,-0.00002826,-0.00025185,-0.00364858,-0.00194755
 ,0.00058610,0.00049366,0.00116963,-0.00023665,0.00998124,0.00026126,-0
 .00947739,-0.00628267,-0.04597127,-0.05510117,0.00053233,-0.00331861,-
 0.02425985,-0.00162325,0.05691858,-0.00008363,0.00002559,0.00005269,-0
 .00000039,-0.00002012,0.00001236,0.00020005,0.00030585,-0.00030406,-0.
 00118275,-0.00358070,-0.00083446,-0.00157702,0.00091049,0.00120301,0.0
 0844556,-0.00075238,-0.00332687,0.01069761,-0.06495518,-0.31169097,-0.
 00025888,0.00105744,-0.00315972,-0.01388787,0.06755358,0.32879409,-0.0
 0000062,-0.00010349,0.00019114,0.00002904,0.00006289,-0.00008011,-0.00
 046180,-0.00034141,0.00022123,0.00237003,0.00867061,0.00253669,0.00089
 570,-0.00348619,-0.00115913,-0.02747377,0.02015217,-0.00911413,-0.0270
 9182,-0.00887652,0.00124735,0.00279447,-0.00925088,0.00442801,0.001162
 91,0.00238964,-0.00126535,0.06171239,0.00025974,0.00005690,-0.00005426
 ,-0.00020792,-0.00006414,0.00004611,0.00223731,0.00050237,-0.00029709,
 -0.01533239,-0.01808240,-0.00655908,-0.00260279,0.00953434,0.00127372,
 0.03907490,-0.00722843,0.00330694,-0.03734909,0.04364472,-0.02183266,0
 .00650371,-0.02980725,0.01499757,0.00188609,-0.01353017,0.00247705,0.0
 2255605,-0.06149741,-0.00000827,-0.00008206,0.00000378,0.00008178,0.00
 004571,0.00001217,-0.00073986,-0.00024198,-0.00031997,0.00511828,0.008
 20728,0.00397406,0.00200999,-0.00402565,-0.00088367,-0.00837135,-0.005
 82528,0.00237351,0.00954384,-0.01619997,-0.03251497,-0.00059835,-0.000
 15390,-0.00057749,-0.00675488,0.02316203,-0.01336293,-0.00099641,0.044
 21624,0.03621505,0.00001763,0.00001383,0.00001770,-0.00002087,-0.00000
 759,-0.00000659,0.00008917,0.00003539,0.00002519,-0.00026538,-0.001290
 06,-0.00039640,-0.00044156,0.00059191,0.00039829,0.00230399,0.00127575
 ,0.00014920,0.00054085,-0.00250609,-0.02182365,-0.04906711,0.00277570,
 0.02226467,-0.00184465,-0.00317853,-0.00055681,0.00020756,0.00042430,0
 .00021871,0.04858304,-0.00001287,-0.00000388,0.00003413,0.00000290,0.0
 0000398,-0.00000302,0.00000133,0.00004677,-0.00010500,0.00010246,-0.00
 050292,-0.00016410,-0.00033422,-0.00001393,0.00035378,0.00184796,0.001
 26398,0.00145287,0.00285893,-0.00626927,-0.02950280,0.00192011,-0.0506
 0095,-0.03181232,-0.00392715,-0.00301183,-0.00061685,0.00019534,0.0016
 1342,-0.00115798,-0.00001863,0.05527529,-0.00001891,0.00001684,0.00001
 628,-0.00000218,-0.00000542,-0.00000264,-0.00001601,0.00000641,-0.0000
 3606,-0.00019543,-0.00037808,-0.00003045,-0.00005251,0.00033778,0.0001
 7489,0.00026306,0.00058445,0.00095932,0.00059885,-0.00252158,-0.009460
 52,0.02060190,-0.03409549,-0.31474161,-0.00077460,-0.00090990,0.001145
 49,-0.00020122,0.00042301,0.00014293,-0.02169599,0.03940381,0.33913755
 ,0.00002474,0.00002451,-0.00000051,-0.00001779,-0.00001749,0.00000249,
 0.00008539,0.00007448,-0.00001581,-0.00030052,-0.00132497,-0.00053909,
 -0.00052555,0.00078056,0.00017583,0.00229769,0.00125471,-0.00002032,0.
 00303284,-0.01743527,0.00919745,-0.06561664,0.06198743,-0.03421913,0.0
 0043597,0.00083773,-0.00001556,-0.00080515,-0.00455311,0.00042031,-0.0
 0013888,-0.00287901,0.00163159,0.06799260,-0.00003757,0.00003580,-0.00
 000874,0.00000070,-0.00001118,0.00000289,0.00001420,-0.00001026,0.0000
 7978,-0.00033171,-0.00078974,-0.00053611,-0.00041833,0.00060945,0.0001
 2883,0.00131498,0.00223288,-0.00033629,0.00536600,-0.02576296,0.010654
 88,0.06300201,-0.23220700,0.10513865,-0.00004228,0.00103849,-0.0003740
 4,-0.00252138,-0.00152306,-0.00155270,-0.00165108,0.00461319,-0.002475
 07,-0.06576404,0.25550148,-0.00000461,-0.00000062,-0.00002497,0.000007
 25,0.00000037,0.00000525,0.00002702,0.00001409,0.00006680,0.00014787,-
 0.00017680,-0.00011321,-0.00023254,0.00001534,-0.00015609,0.00054078,0
 .00055506,0.00000937,0.00320748,-0.00887623,0.00452292,-0.03498796,0.1
 0336056,-0.10387329,0.00060514,0.00034951,0.00033573,-0.00071847,-0.00
 301945,0.00112572,-0.00949198,0.02727075,-0.01279400,0.03910438,-0.112
 65135,0.10828119,-0.00009105,0.00003046,0.00001831,0.00002605,0.000005
 16,-0.00000180,-0.00030103,-0.00017842,0.00001106,0.00030209,0.0016274
 4,0.00063902,0.00018045,-0.00067724,-0.00034590,-0.00274176,-0.0044081
 0,-0.00177900,-0.01607477,0.00699705,0.00582644,-0.29712600,0.05124757
 ,0.06030632,0.00041059,-0.00009222,-0.00051824,-0.00007245,-0.00001740
 ,0.00017250,0.00003874,0.00006435,-0.00022548,-0.00656518,0.00071426,0
 .00179645,0.32187556,-0.00014427,0.00008243,0.00006853,0.00001650,0.00
 001291,-0.00000174,-0.00043426,-0.00039541,-0.00008696,-0.00096355,0.0
 0182457,0.00068452,0.00041940,-0.00058254,-0.00021677,-0.00628475,-0.0
 0511550,-0.00210545,-0.02191405,0.00708051,0.00879612,0.05454783,-0.05
 912392,-0.01458101,0.00072630,0.00058146,-0.00042904,-0.00023142,0.000
 81630,0.00023097,0.00350153,-0.00215960,0.00002896,0.02559688,-0.00389
 269,-0.00785865,-0.05520059,0.06102702,-0.00006283,0.00004525,-0.00000
 393,0.00000582,0.00000008,0.00000786,-0.00016842,-0.00014734,-0.000014
 81,-0.00036849,0.00036828,0.00070894,0.00012326,-0.00006105,-0.0002211
 8,-0.00261682,-0.00241432,0.00039930,-0.00840368,0.00459455,0.00096792
 ,0.06144737,-0.01433090,-0.06239958,0.00037675,0.00048025,-0.00013586,
 0.00023545,0.00001651,0.00021242,0.03083069,-0.00572788,-0.00467227,-0
 .01532734,0.00176022,0.00290878,-0.06593643,0.01539943,0.06231563,-0.0
 0016505,0.00013666,-0.00010292,0.00007380,-0.00007475,-0.00000607,-0.0
 0012965,0.00023243,0.00083027,-0.00099384,-0.00766583,-0.00246030,-0.0
 0401144,0.00612229,-0.00224346,0.00730685,0.00058969,-0.00005994,-0.00
 834219,0.01767551,-0.00941388,0.00110144,-0.00135761,0.00148453,0.0000
 4610,-0.00106712,0.00006451,-0.01307569,-0.02319359,0.00442707,-0.0000
 6200,0.00032521,0.00006872,-0.00034307,0.00004401,-0.00021764,0.000205
 52,0.00049712,-0.00012049,0.29675180,0.00011156,-0.00006391,0.00003889
 ,0.00001787,0.00002857,-0.00001369,-0.00061361,-0.00015701,-0.00013723
 ,0.00375599,0.00620971,0.00154560,0.00304083,-0.00308663,0.00154083,-0
 .01325432,0.00304614,-0.00104515,0.03822412,-0.09986863,0.04982294,-0.
 00211124,0.00836854,-0.00414184,-0.00126131,0.00704002,-0.00165681,-0.
 01663382,0.07918379,-0.03695767,-0.00002959,-0.00039043,-0.00051075,0.
 00123048,-0.00013485,0.00089894,-0.00019331,-0.00022096,0.00003064,0.1
 5426436,0.11446194,-0.00010414,-0.00000266,0.00013919,-0.00003768,-0.0
 0001555,-0.00006329,0.00004631,0.00048042,0.00031633,-0.00294597,-0.00
 555291,-0.00291081,-0.00297128,0.00427990,0.00048307,0.00629292,0.0001
 0843,0.00146985,-0.01790015,0.04346228,-0.02139366,0.00169209,-0.00345
 432,0.00264751,0.00068779,-0.00326247,0.00192356,0.00263726,-0.0448967
 1,0.00247778,0.00010989,0.00075784,0.00021474,-0.00064992,0.00002939,-
 0.00051661,0.00005531,0.00015664,-0.00011014,0.20756300,0.10529769,0.1
 6387973,0.00010775,-0.00013292,0.00002589,-0.00005569,0.00007829,0.000
 02275,0.00029553,-0.00043813,-0.00060159,0.00137202,0.01095503,0.00392
 481,-0.00147378,-0.00572373,-0.00191677,-0.00764385,-0.00236028,-0.001
 09636,0.00705385,-0.00780455,0.00342875,-0.00112079,0.00146937,-0.0010
 6307,-0.00031193,0.00098266,-0.00006123,-0.00019082,0.01031421,-0.0045
 2336,0.00005948,-0.00014673,0.00001821,0.00044356,0.00031024,0.0002168
 2,-0.00006677,-0.00013267,-0.00001484,-0.27836259,-0.16654802,-0.19447
 543,0.27989403,-0.00039137,0.00011491,-0.00003570,0.00010473,-0.000011
 91,-0.00004082,-0.00053752,-0.00002975,0.00098690,0.00365169,-0.001679
 65,-0.00026537,-0.00192172,0.00032101,-0.00106163,-0.00122571,0.000230
 17,-0.00095131,0.00044057,-0.00511063,0.00065574,-0.00015784,0.0005693
 6,-0.00012017,-0.00036137,0.00080386,0.00005511,-0.01258159,-0.0036189
 7,-0.00966503,0.00006316,0.00013617,0.00009502,0.00018712,0.00030045,0
 .00011848,0.00008098,0.00006541,-0.00001373,-0.14652838,-0.11441629,-0
 .09738796,0.15917724,0.12232589,0.00013620,0.00005367,-0.00012279,0.00
 001172,0.00000382,0.00004878,0.00022218,-0.00063820,-0.00030075,0.0014
 1600,0.00374983,0.00254579,-0.00069277,-0.00225396,-0.00314870,-0.0029
 0362,-0.00126508,-0.00061164,0.00398281,-0.00475018,0.00303481,-0.0005
 5202,0.00108674,-0.00108515,-0.00015437,0.00132229,-0.00065207,0.00203
 770,0.00990211,0.00112160,-0.00004293,-0.00018321,-0.00005364,0.000255
 65,0.00013966,0.00022240,-0.00001857,-0.00008556,0.00003692,-0.1998134
 1,-0.11471239,-0.14855725,0.19611542,0.10763047,0.14752169||0.00005710
 ,0.00001835,0.00000639,0.00000241,-0.00000595,0.00000624,0.00011680,0.
 00013445,0.00004379,-0.00079604,-0.00082075,-0.00030782,-0.00034302,0.
 00030043,-0.00031946,0.00238676,-0.00085231,0.00029417,-0.00202775,0.0
 0182199,-0.00014769,0.00031802,-0.00205728,0.00070184,0.00018390,-0.00
 115988,0.00038123,0.00096855,-0.00628205,0.00258465,-0.00000457,0.0000
 3137,0.00003640,-0.00015558,-0.00022809,-0.00007432,0.00002231,-0.0000
 5051,-0.00000586,-0.00100337,0.00915231,-0.00333183,0.00027449,-0.0000
 0207,0.00013224|||@


 ONLY THE DAY DAWNS TO WHICH YOU ARE AWAKE.

                                 -- THOREAU
 Job cpu time:       0 days  0 hours 20 minutes  6.0 seconds.
 File lengths (MBytes):  RWF=    152 Int=      0 D2E=      0 Chk=      9 Scr=      1
 Normal termination of Gaussian 09 at Thu Mar 27 05:40:32 2025.
