 Entering Gaussian System, Link 0=g16
 Initial command:
 /opt/g16/l1.exe "/home/aayush/scratches/g16/Gau-14033.inp" -scrdir="/home/aayush/scratches/g16/"
 Entering Link 1 = /opt/g16/l1.exe PID=     14036.
  
 Copyright (c) 1988,1990,1992,1993,1995,1998,2003,2009,2016,
            Gaussian, Inc.  All Rights Reserved.
  
 This is part of the Gaussian(R) 16 program.  It is based on
 the Gaussian(R) 09 system (copyright 2009, Gaussian, Inc.),
 the Gaussian(R) 03 system (copyright 2003, Gaussian, Inc.),
 the Gaussian(R) 98 system (copyright 1998, Gaussian, Inc.),
 the Gaussian(R) 94 system (copyright 1995, Gaussian, Inc.),
 the Gaussian 92(TM) system (copyright 1992, Gaussian, Inc.),
 the Gaussian 90(TM) system (copyright 1990, Gaussian, Inc.),
 the Gaussian 88(TM) system (copyright 1988, Gaussian, Inc.),
 the Gaussian 86(TM) system (copyright 1986, Carnegie Mellon
 University), and the Gaussian 82(TM) system (copyright 1983,
 Carnegie Mellon University). Gaussian is a federally registered
 trademark of Gaussian, Inc.
  
 This software contains proprietary and confidential information,
 including trade secrets, belonging to Gaussian, Inc.
  
 This software is provided under written license and may be
 used, copied, transmitted, or stored only in accord with that
 written license.
  
 The following legend is applicable only to US Government
 contracts under FAR:
  
                    RESTRICTED RIGHTS LEGEND
  
 Use, reproduction and disclosure by the US Government is
 subject to restrictions as set forth in subparagraphs (a)
 and (c) of the Commercial Computer Software - Restricted
 Rights clause in FAR 52.227-19.
  
 Gaussian, Inc.
 340 Quinnipiac St., Bldg. 40, Wallingford CT 06492
  
  
 ---------------------------------------------------------------
 Warning -- This program may not be used in any manner that
 competes with the business of Gaussian, Inc. or will provide
 assistance to any competitor of Gaussian, Inc.  The licensee
 of this program is prohibited from giving any competitor of
 Gaussian, Inc. access to this program.  By using this program,
 the user acknowledges that Gaussian, Inc. is engaged in the
 business of creating and licensing software in the field of
 computational chemistry and represents and warrants to the
 licensee that it is not a competitor of Gaussian, Inc. and that
 it will not use this program in any manner prohibited above.
 ---------------------------------------------------------------
  

 Cite this work as:
 Gaussian 16, Revision A.03,
 M. J. Frisch, G. W. Trucks, H. B. Schlegel, G. E. Scuseria, 
 M. A. Robb, J. R. Cheeseman, G. Scalmani, V. Barone, 
 G. A. Petersson, H. Nakatsuji, X. Li, M. Caricato, A. V. Marenich, 
 J. Bloino, B. G. Janesko, R. Gomperts, B. Mennucci, H. P. Hratchian, 
 J. V. Ortiz, A. F. Izmaylov, J. L. Sonnenberg, D. Williams-Young, 
 F. Ding, F. Lipparini, F. Egidi, J. Goings, B. Peng, A. Petrone, 
 T. Henderson, D. Ranasinghe, V. G. Zakrzewski, J. Gao, N. Rega, 
 G. Zheng, W. Liang, M. Hada, M. Ehara, K. Toyota, R. Fukuda, 
 J. Hasegawa, M. Ishida, T. Nakajima, Y. Honda, O. Kitao, H. Nakai, 
 T. Vreven, K. Throssell, J. A. Montgomery, Jr., J. E. Peralta, 
 F. Ogliaro, M. J. Bearpark, J. J. Heyd, E. N. Brothers, K. N. Kudin, 
 V. N. Staroverov, T. A. Keith, R. Kobayashi, J. Normand, 
 K. Raghavachari, A. P. Rendell, J. C. Burant, S. S. Iyengar, 
 J. Tomasi, M. Cossi, J. M. Millam, M. Klene, C. Adamo, R. Cammi, 
 J. W. Ochterski, R. L. Martin, K. Morokuma, O. Farkas, 
 J. B. Foresman, and D. J. Fox, Gaussian, Inc., Wallingford CT, 2016.
 
 ******************************************
 Gaussian 16:  ES64L-G16RevA.03 25-Dec-2016
                17-Apr-2025 
 ******************************************
 %chk=ethyl_propiolate.chk
 %nprocshared=24
 Will use up to   24 processors via shared memory.
 %mem=12GB
 --------------------------
 # ccsd(t)/6-311++g(d,p) sp
 --------------------------
 1/38=1,172=1/1;
 2/12=2,17=6,18=5,40=1/2;
 3/5=4,6=6,7=1111,11=9,25=1,30=1/1,2,3;
 4//1;
 5/5=2,38=5/2;
 8/6=4,9=120000,10=2/1,4;
 9/5=7,14=2/13;
 6/7=2,8=2,9=2,10=2/1;
 99/5=1,9=1/99;
 -------------------
 Title Card Required
 -------------------
 Symbolic Z-matrix:
 Charge =  0 Multiplicity = 2
 C                     2.18414  -0.41222  -0.0637 
 H                     3.28743  -0.86105  -0.12246 
 C                     1.07659   0.06528  -0.01797 
 C                    -0.27846   0.6139   -0.00362 
 O                    -0.51712   1.7892    0.0121 
 O                    -1.19252  -0.35427  -0.01013 
 C                    -2.56577   0.08432   0.00855 
 C                    -3.42708  -1.15713  -0.00408 
 H                    -2.7234    0.68933   0.90385 
 H                    -2.73901   0.71856  -0.86326 
 H                    -3.23698  -1.7463   -0.90195 
 H                    -3.21994  -1.77609   0.86964 
 H                    -4.48088  -0.87377   0.01061 
 O                     4.5038   -0.60355   0.08819 
 H                     4.61296   0.25034  -0.36462 
 
                          Input orientation:                          
 ---------------------------------------------------------------------
 Center     Atomic      Atomic             Coordinates (Angstroms)
 Number     Number       Type             X           Y           Z
 ---------------------------------------------------------------------
      1          6           0        2.184138   -0.412221   -0.063704
      2          1           0        3.287434   -0.861053   -0.122460
      3          6           0        1.076589    0.065278   -0.017968
      4          6           0       -0.278463    0.613903   -0.003622
      5          8           0       -0.517122    1.789200    0.012100
      6          8           0       -1.192521   -0.354265   -0.010125
      7          6           0       -2.565770    0.084319    0.008553
      8          6           0       -3.427084   -1.157133   -0.004082
      9          1           0       -2.723398    0.689325    0.903849
     10          1           0       -2.739005    0.718562   -0.863262
     11          1           0       -3.236975   -1.746304   -0.901953
     12          1           0       -3.219939   -1.776092    0.869636
     13          1           0       -4.480882   -0.873773    0.010606
     14          8           0        4.503797   -0.603546    0.088189
     15          1           0        4.612961    0.250341   -0.364621
 ---------------------------------------------------------------------
                    Distance matrix (angstroms):
                    1          2          3          4          5
     1  C    0.000000
     2  H    1.192545   0.000000
     3  C    1.206964   2.399342   0.000000
     4  C    2.668510   3.860730   1.461972   0.000000
     5  O    3.485514   4.638598   2.347919   1.199387   0.000000
     6  O    3.377581   4.509928   2.307583   1.331501   2.247465
     7  C    4.776337   5.930505   3.642505   2.347846   2.665256
     8  C    5.660765   6.722085   4.666642   3.612531   4.141137
     9  H    5.121862   6.291827   3.959682   2.609003   2.621563
    10  H    5.114225   6.273909   3.962330   2.608486   2.617115
    11  H    5.645432   6.630173   4.761312   3.889777   4.553337
    12  H    5.651134   6.645860   4.758008   3.889336   4.555425
    13  H    6.681395   7.769466   5.636321   4.457994   4.775230
    14  O    2.332487   1.261040   3.493472   4.935648   5.562432
    15  H    2.535492   1.746671   3.558138   4.918183   5.369149
                    6          7          8          9         10
     6  O    0.000000
     7  C    1.441706   0.000000
     8  C    2.374427   1.511034   0.000000
     9  H    2.065917   1.091986   2.174608   0.000000
    10  H    2.066498   1.091941   2.174828   1.767422   0.000000
    11  H    2.629244   2.151910   1.090613   3.075219   2.514962
    12  H    2.627926   2.151867   1.090597   2.515155   3.075310
    13  H    3.329210   2.141401   1.091329   2.515931   2.516607
    14  O    5.702617   7.103399   7.950714   7.387094   7.423706
    15  H    5.847635   7.190341   8.170269   7.458142   7.383717
                   11         12         13         14         15
    11  H    0.000000
    12  H    1.771921   0.000000
    13  H    1.772394   1.772594   0.000000
    14  O    7.887067   7.851218   8.989077   0.000000
    15  H    8.117685   8.184384   9.170737   0.972665   0.000000
 Stoichiometry    C5H7O3(2)
 Framework group  C1[X(C5H7O3)]
 Deg. of freedom    39
 Full point group                 C1      NOp   1
 Largest Abelian subgroup         C1      NOp   1
 Largest concise Abelian subgroup C1      NOp   1
                         Standard orientation:                         
 ---------------------------------------------------------------------
 Center     Atomic      Atomic             Coordinates (Angstroms)
 Number     Number       Type             X           Y           Z
 ---------------------------------------------------------------------
      1          6           0        2.252752   -0.385240   -0.060680
      2          1           0        3.355578   -0.835158   -0.119944
      3          6           0        1.145698    0.093356   -0.014420
      4          6           0       -0.208794    0.643344    0.000550
      5          8           0       -0.446261    1.818874    0.016913
      6          8           0       -1.123832   -0.323896   -0.006192
      7          6           0       -2.496632    0.116067    0.013061
      8          6           0       -3.359204   -1.124508    0.000039
      9          1           0       -2.653416    0.720791    0.908695
     10          1           0       -2.669453    0.750914   -0.858397
     11          1           0       -3.169925   -1.713428   -0.898172
     12          1           0       -3.152458   -1.744106    0.873398
     13          1           0       -4.412712   -0.840090    0.015141
     14          8           0        4.572256   -0.578984    0.090514
     15          1           0        4.682165    0.275015   -0.361904
 ---------------------------------------------------------------------
 Rotational constants (GHZ):           5.3765399           0.6869242           0.6142564
 Standard basis: 6-311++G(d,p) (5D, 7F)
 There are   233 symmetry adapted cartesian basis functions of A   symmetry.
 There are   225 symmetry adapted basis functions of A   symmetry.
   225 basis functions,   351 primitive gaussians,   233 cartesian basis functions
    31 alpha electrons       30 beta electrons
       nuclear repulsion energy       330.8550781472 Hartrees.
 NAtoms=   15 NActive=   15 NUniq=   15 SFac= 1.00D+00 NAtFMM=   60 NAOKFM=F Big=F
 Integral buffers will be    131072 words long.
 Raffenetti 2 integral format.
 Two-electron integral symmetry is turned on.
 One-electron integrals computed using PRISM.
 NBasis=   225 RedAO= T EigKep=  4.58D-06  NBF=   225
 NBsUse=   224 1.00D-06 EigRej=  4.58D-07 NBFU=   224
 ExpMin= 3.60D-02 ExpMax= 8.59D+03 ExpMxC= 1.30D+03 IAcc=3 IRadAn=         5 AccDes= 0.00D+00
 Harris functional with IExCor=  205 and IRadAn=       5 diagonalized for initial guess.
 HarFok:  IExCor=  205 AccDes= 0.00D+00 IRadAn=         5 IDoV= 1 UseB2=F ITyADJ=14
 ICtDFT=  3500011 ScaDFX=  1.000000  1.000000  1.000000  1.000000
 FoFCou: FMM=F IPFlag=           0 FMFlag=      100000 FMFlg1=           0
         NFxFlg=           0 DoJE=T BraDBF=F KetDBF=T FulRan=T
         wScrn=  0.000000 ICntrl=       500 IOpCl=  0 I1Cent=   200000004 NGrid=           0
         NMat0=    1 NMatS0=      1 NMatT0=    0 NMatD0=    1 NMtDS0=    0 NMtDT0=    0
 Petite list used in FoFCou.
 Initial guess <Sx>= 0.0000 <Sy>= 0.0000 <Sz>= 0.5000 <S**2>= 0.7500 S= 0.5000
 Requested convergence on RMS density matrix=1.00D-08 within 128 cycles.
 Requested convergence on MAX density matrix=1.00D-06.
 Requested convergence on             energy=1.00D-06.
 No special actions if energy rises.
 Initial convergence to 2.9D-05 achieved.  Increase integral accuracy.
 Restarting incremental Fock formation.
 SCF Done:  E(UHF) =  -417.955511058     A.U. after   42 cycles
            NFock= 42  Conv=0.58D-08     -V/T= 2.0007
 <Sx>= 0.0000 <Sy>= 0.0000 <Sz>= 0.5000 <S**2>= 0.8659 S= 0.5564
 <L.S>=  0.00000000000    
 Annihilation of the first spin contaminant:
 S**2 before annihilation     0.8659,   after     0.7603
 ExpMin= 3.60D-02 ExpMax= 8.59D+03 ExpMxC= 1.30D+03 IAcc=3 IRadAn=         5 AccDes= 0.00D+00
 HarFok:  IExCor=  205 AccDes= 0.00D+00 IRadAn=         5 IDoV=-2 UseB2=F ITyADJ=14
 ICtDFT= 12500011 ScaDFX=  1.000000  1.000000  1.000000  1.000000
 Range of M.O.s used for correlation:     9   224
 NBasis=   225 NAE=    31 NBE=    30 NFC=     8 NFV=     0
 NROrb=    216 NOA=    23 NOB=    22 NVA=   193 NVB=   194

 **** Warning!!: The largest alpha MO coefficient is  0.15769894D+03


 **** Warning!!: The largest beta MO coefficient is  0.15685689D+03

 Semi-Direct transformation.
 ModeAB=           4 MOrb=            23 LenV=    1609196771
 LASXX=    107793295 LTotXX=   107793295 LenRXX=   218294035
 LTotAB=   110500740 MaxLAS=   119604600 LenRXY=           0
 NonZer=   326087330 LenScr=   491049984 LnRSAI=   119604600
 LnScr1=   180172800 LExtra=           0 Total=   1009121419
 MaxDsk=          -1 SrtSym=           T ITran=            4
 JobTyp=1 Pass  1:  I=   1 to  23.
 (rs|ai) integrals will be sorted in core.
 ModeAB=           4 MOrb=            22 LenV=    1609196771
 LASXX=    103454307 LTotXX=   103454307 LenRXX=   188091948
 LTotAB=    84637641 MaxLAS=   114404400 LenRXY=           0
 NonZer=   291546255 LenScr=   439034880 LnRSAI=   114404400
 LnScr1=   172376064 LExtra=           0 Total=    913907292
 MaxDsk=          -1 SrtSym=           T ITran=            4
 JobTyp=2 Pass  1:  I=   1 to  22.
 (rs|ai) integrals will be sorted in core.
 SymMOI:  orbitals are not symmetric.
 Spin components of T(2) and E(2):
     alpha-alpha T2 =       0.5300600605D-01 E2=     -0.1710945058D+00
     alpha-beta  T2 =       0.2887689778D+00 E2=     -0.9393023865D+00
     beta-beta   T2 =       0.5074174857D-01 E2=     -0.1579476807D+00
 ANorm=    0.1180049462D+01
 E2 =    -0.1268344573D+01 EUMP2 =    -0.41922385563066D+03
 (S**2,0)=  0.86588D+00           (S**2,1)=  0.83035D+00
 E(PUHF)=      -0.41796681297D+03        E(PMP2)=      -0.41923351119D+03
 Keep R2 and R3 ints in memory in canonical form, NReq=652883968.
 CIDS: In Core Option IDoMem=           1.
 Iterations=  50 Convergence= 0.100D-06
 Produce multiple copies of IABC intergrals
 Iteration Nr.   1
 **********************
 DD1Dir will call FoFMem   1 times, MxPair=      1496
 NAB=   506 NAA=   253 NBB=   231.
 E(PMP3)=      -0.41925700174D+03
 MP4(R+Q)=  0.25239777D-01
 E3=       -0.26126100D-01        EUMP3=      -0.41924998173D+03
 E4(DQ)=   -0.57813995D-02        UMP4(DQ)=   -0.41925576313D+03
 E4(SDQ)=  -0.26019805D-01        UMP4(SDQ)=  -0.41927600154D+03
 DE(Corr)=  -1.2687617     E(Corr)=     -419.22427278    
 NORM(A)=   0.11869806D+01
 Iteration Nr.   2
 **********************
 DD1Dir will call FoFMem   1 times, MxPair=      1496
 NAB=   506 NAA=   253 NBB=   231.
 DE(Corr)=  -1.3120773     E(CORR)=     -419.26758838     Delta=-4.33D-02
 NORM(A)=   0.12070473D+01
 Iteration Nr.   3
 **********************
 DD1Dir will call FoFMem   1 times, MxPair=      1496
 NAB=   506 NAA=   253 NBB=   231.
 DE(Corr)=  -1.3144851     E(CORR)=     -419.26999613     Delta=-2.41D-03
 NORM(A)=   0.12167000D+01
 Iteration Nr.   4
 **********************
 DD1Dir will call FoFMem   1 times, MxPair=      1496
 NAB=   506 NAA=   253 NBB=   231.
 DE(Corr)=  -1.3207785     E(CORR)=     -419.27628959     Delta=-6.29D-03
 NORM(A)=   0.12224586D+01
 Iteration Nr.   5
 **********************
 DD1Dir will call FoFMem   1 times, MxPair=      1496
 NAB=   506 NAA=   253 NBB=   231.
 DE(Corr)=  -1.3223701     E(CORR)=     -419.27788114     Delta=-1.59D-03
 NORM(A)=   0.12258832D+01
 Iteration Nr.   6
 **********************
 DD1Dir will call FoFMem   1 times, MxPair=      1496
 NAB=   506 NAA=   253 NBB=   231.
 DE(Corr)=  -1.3228994     E(CORR)=     -419.27841048     Delta=-5.29D-04
 NORM(A)=   0.12266894D+01
 Iteration Nr.   7
 **********************
 DD1Dir will call FoFMem   1 times, MxPair=      1496
 NAB=   506 NAA=   253 NBB=   231.
 DE(Corr)=  -1.3230043     E(CORR)=     -419.27851534     Delta=-1.05D-04
 NORM(A)=   0.12269750D+01
 Iteration Nr.   8
 **********************
 DD1Dir will call FoFMem   1 times, MxPair=      1496
 NAB=   506 NAA=   253 NBB=   231.
 DE(Corr)=  -1.3230041     E(CORR)=     -419.27851512     Delta= 2.16D-07
 NORM(A)=   0.12270985D+01
 Iteration Nr.   9
 **********************
 DD1Dir will call FoFMem   1 times, MxPair=      1496
 NAB=   506 NAA=   253 NBB=   231.
 DE(Corr)=  -1.3229969     E(CORR)=     -419.27850798     Delta= 7.15D-06
 NORM(A)=   0.12271369D+01
 Iteration Nr.  10
 **********************
 DD1Dir will call FoFMem   1 times, MxPair=      1496
 NAB=   506 NAA=   253 NBB=   231.
 DE(Corr)=  -1.3230006     E(CORR)=     -419.27851165     Delta=-3.67D-06
 NORM(A)=   0.12271632D+01
 Iteration Nr.  11
 **********************
 DD1Dir will call FoFMem   1 times, MxPair=      1496
 NAB=   506 NAA=   253 NBB=   231.
 DE(Corr)=  -1.3230046     E(CORR)=     -419.27851564     Delta=-4.00D-06
 NORM(A)=   0.12272062D+01
 Iteration Nr.  12
 **********************
 DD1Dir will call FoFMem   1 times, MxPair=      1496
 NAB=   506 NAA=   253 NBB=   231.
 DE(Corr)=  -1.3230146     E(CORR)=     -419.27852562     Delta=-9.98D-06
 NORM(A)=   0.12272674D+01
 Iteration Nr.  13
 **********************
 DD1Dir will call FoFMem   1 times, MxPair=      1496
 NAB=   506 NAA=   253 NBB=   231.
 DE(Corr)=  -1.3230256     E(CORR)=     -419.27853669     Delta=-1.11D-05
 NORM(A)=   0.12273337D+01
 Iteration Nr.  14
 **********************
 DD1Dir will call FoFMem   1 times, MxPair=      1496
 NAB=   506 NAA=   253 NBB=   231.
 DE(Corr)=  -1.3230390     E(CORR)=     -419.27855005     Delta=-1.34D-05
 NORM(A)=   0.12274078D+01
 Iteration Nr.  15
 **********************
 DD1Dir will call FoFMem   1 times, MxPair=      1496
 NAB=   506 NAA=   253 NBB=   231.
 DE(Corr)=  -1.3230505     E(CORR)=     -419.27856152     Delta=-1.15D-05
 NORM(A)=   0.12274462D+01
 Iteration Nr.  16
 **********************
 DD1Dir will call FoFMem   1 times, MxPair=      1496
 NAB=   506 NAA=   253 NBB=   231.
 DE(Corr)=  -1.3230548     E(CORR)=     -419.27856591     Delta=-4.39D-06
 NORM(A)=   0.12274582D+01
 Iteration Nr.  17
 **********************
 DD1Dir will call FoFMem   1 times, MxPair=      1496
 NAB=   506 NAA=   253 NBB=   231.
 DE(Corr)=  -1.3230545     E(CORR)=     -419.27856551     Delta= 3.97D-07
 NORM(A)=   0.12274528D+01
 Iteration Nr.  18
 **********************
 DD1Dir will call FoFMem   1 times, MxPair=      1496
 NAB=   506 NAA=   253 NBB=   231.
 DE(Corr)=  -1.3230515     E(CORR)=     -419.27856252     Delta= 2.99D-06
 NORM(A)=   0.12274456D+01
 Iteration Nr.  19
 **********************
 DD1Dir will call FoFMem   1 times, MxPair=      1496
 NAB=   506 NAA=   253 NBB=   231.
 DE(Corr)=  -1.3230486     E(CORR)=     -419.27855965     Delta= 2.88D-06
 NORM(A)=   0.12274407D+01
 Iteration Nr.  20
 **********************
 DD1Dir will call FoFMem   1 times, MxPair=      1496
 NAB=   506 NAA=   253 NBB=   231.
 DE(Corr)=  -1.3230469     E(CORR)=     -419.27855793     Delta= 1.72D-06
 NORM(A)=   0.12274395D+01
 Iteration Nr.  21
 **********************
 DD1Dir will call FoFMem   1 times, MxPair=      1496
 NAB=   506 NAA=   253 NBB=   231.
 DE(Corr)=  -1.3230461     E(CORR)=     -419.27855718     Delta= 7.47D-07
 NORM(A)=   0.12274415D+01
 Iteration Nr.  22
 **********************
 DD1Dir will call FoFMem   1 times, MxPair=      1496
 NAB=   506 NAA=   253 NBB=   231.
 DE(Corr)=  -1.3230462     E(CORR)=     -419.27855729     Delta=-1.06D-07
 NORM(A)=   0.12274448D+01
 Iteration Nr.  23
 **********************
 DD1Dir will call FoFMem   1 times, MxPair=      1496
 NAB=   506 NAA=   253 NBB=   231.
 DE(Corr)=  -1.3230467     E(CORR)=     -419.27855778     Delta=-4.91D-07
 NORM(A)=   0.12274492D+01
 Iteration Nr.  24
 **********************
 DD1Dir will call FoFMem   1 times, MxPair=      1496
 NAB=   506 NAA=   253 NBB=   231.
 DE(Corr)=  -1.3230474     E(CORR)=     -419.27855844     Delta=-6.61D-07
 NORM(A)=   0.12274529D+01
 Iteration Nr.  25
 **********************
 DD1Dir will call FoFMem   1 times, MxPair=      1496
 NAB=   506 NAA=   253 NBB=   231.
 DE(Corr)=  -1.3230479     E(CORR)=     -419.27855900     Delta=-5.63D-07
 NORM(A)=   0.12274559D+01
 Iteration Nr.  26
 **********************
 DD1Dir will call FoFMem   1 times, MxPair=      1496
 NAB=   506 NAA=   253 NBB=   231.
 DE(Corr)=  -1.3230483     E(CORR)=     -419.27855937     Delta=-3.67D-07
 NORM(A)=   0.12274578D+01
 Iteration Nr.  27
 **********************
 DD1Dir will call FoFMem   1 times, MxPair=      1496
 NAB=   506 NAA=   253 NBB=   231.
 DE(Corr)=  -1.3230484     E(CORR)=     -419.27855950     Delta=-1.27D-07
 NORM(A)=   0.12274581D+01
 Iteration Nr.  28
 **********************
 DD1Dir will call FoFMem   1 times, MxPair=      1496
 NAB=   506 NAA=   253 NBB=   231.
 DE(Corr)=  -1.3230483     E(CORR)=     -419.27855934     Delta= 1.56D-07
 NORM(A)=   0.12274575D+01
 Iteration Nr.  29
 **********************
 DD1Dir will call FoFMem   1 times, MxPair=      1496
 NAB=   506 NAA=   253 NBB=   231.
 DE(Corr)=  -1.3230480     E(CORR)=     -419.27855910     Delta= 2.40D-07
 NORM(A)=   0.12274568D+01
 Iteration Nr.  30
 **********************
 DD1Dir will call FoFMem   1 times, MxPair=      1496
 NAB=   506 NAA=   253 NBB=   231.
 DE(Corr)=  -1.3230478     E(CORR)=     -419.27855887     Delta= 2.28D-07
 NORM(A)=   0.12274563D+01
 Iteration Nr.  31
 **********************
 DD1Dir will call FoFMem   1 times, MxPair=      1496
 NAB=   506 NAA=   253 NBB=   231.
 DE(Corr)=  -1.3230477     E(CORR)=     -419.27855878     Delta= 9.51D-08
 NORM(A)=   0.12274565D+01
 Wavefunction amplitudes converged. E(Corr)=     -419.27855878    
 Largest amplitude= 5.22D-02
 Time for triples=    36179.48 seconds.
 T4(CCSD)= -0.57926859D-01
 T5(CCSD)=  0.38496366D-02
 CCSD(T)= -0.41933263600D+03

 S**2, projected HF & approx projected MPn energies after annihilation of
 unwanted spin states (see manual for definitions):

 spins       (S**2,0) (S**2,1)    PUHF        PMP2        PMP3        PMP4
 annihilated
 s+1         0.74394  0.74818 -417.966813 -419.233511 -419.257002
 s+1,s+2     0.75010  0.74998 -417.966288 -419.233021 -419.256554
 s+1 to s+3  0.75000  0.75000 -417.966297 -419.233027 -419.256555
 s+1 to s+4  0.75000  0.75000 -417.966297 -419.233027 -419.256555
 s+1 to s+5  0.75000  0.75000 -417.966297
 s+1 to s+6  0.75000  0.75000 -417.966297

 Discarding MO integrals.

 **********************************************************************

            Population analysis using the SCF density.

 **********************************************************************

 Orbital symmetries:
 Alpha Orbitals:
       Occupied  (A) (A) (A) (A) (A) (A) (A) (A) (A) (A) (A) (A)
                 (A) (A) (A) (A) (A) (A) (A) (A) (A) (A) (A) (A)
                 (A) (A) (A) (A) (A) (A) (A)
       Virtual   (A) (A) (A) (A) (A) (A) (A) (A) (A) (A) (A) (A)
                 (A) (A) (A) (A) (A) (A) (A) (A) (A) (A) (A) (A)
                 (A) (A) (A) (A) (A) (A) (A) (A) (A) (A) (A) (A)
                 (A) (A) (A) (A) (A) (A) (A) (A) (A) (A) (A) (A)
                 (A) (A) (A) (A) (A) (A) (A) (A) (A) (A) (A) (A)
                 (A) (A) (A) (A) (A) (A) (A) (A) (A) (A) (A) (A)
                 (A) (A) (A) (A) (A) (A) (A) (A) (A) (A) (A) (A)
                 (A) (A) (A) (A) (A) (A) (A) (A) (A) (A) (A) (A)
                 (A) (A) (A) (A) (A) (A) (A) (A) (A) (A) (A) (A)
                 (A) (A) (A) (A) (A) (A) (A) (A) (A) (A) (A) (A)
                 (A) (A) (A) (A) (A) (A) (A) (A) (A) (A) (A) (A)
                 (A) (A) (A) (A) (A) (A) (A) (A) (A) (A) (A) (A)
                 (A) (A) (A) (A) (A) (A) (A) (A) (A) (A) (A) (A)
                 (A) (A) (A) (A) (A) (A) (A) (A) (A) (A) (A) (A)
                 (A) (A) (A) (A) (A) (A) (A) (A) (A) (A) (A) (A)
                 (A) (A) (A) (A) (A) (A) (A) (A) (A) (A) (A) (A)
                 (A)
 Beta  Orbitals:
       Occupied  (A) (A) (A) (A) (A) (A) (A) (A) (A) (A) (A) (A)
                 (A) (A) (A) (A) (A) (A) (A) (A) (A) (A) (A) (A)
                 (A) (A) (A) (A) (A) (A)
       Virtual   (A) (A) (A) (A) (A) (A) (A) (A) (A) (A) (A) (A)
                 (A) (A) (A) (A) (A) (A) (A) (A) (A) (A) (A) (A)
                 (A) (A) (A) (A) (A) (A) (A) (A) (A) (A) (A) (A)
                 (A) (A) (A) (A) (A) (A) (A) (A) (A) (A) (A) (A)
                 (A) (A) (A) (A) (A) (A) (A) (A) (A) (A) (A) (A)
                 (A) (A) (A) (A) (A) (A) (A) (A) (A) (A) (A) (A)
                 (A) (A) (A) (A) (A) (A) (A) (A) (A) (A) (A) (A)
                 (A) (A) (A) (A) (A) (A) (A) (A) (A) (A) (A) (A)
                 (A) (A) (A) (A) (A) (A) (A) (A) (A) (A) (A) (A)
                 (A) (A) (A) (A) (A) (A) (A) (A) (A) (A) (A) (A)
                 (A) (A) (A) (A) (A) (A) (A) (A) (A) (A) (A) (A)
                 (A) (A) (A) (A) (A) (A) (A) (A) (A) (A) (A) (A)
                 (A) (A) (A) (A) (A) (A) (A) (A) (A) (A) (A) (A)
                 (A) (A) (A) (A) (A) (A) (A) (A) (A) (A) (A) (A)
                 (A) (A) (A) (A) (A) (A) (A) (A) (A) (A) (A) (A)
                 (A) (A) (A) (A) (A) (A) (A) (A) (A) (A) (A) (A)
                 (A) (A)
 The electronic state is 2-A.
 Alpha  occ. eigenvalues --  -20.68010 -20.61218 -20.55675 -11.41290 -11.29684
 Alpha  occ. eigenvalues --  -11.26639 -11.24536 -11.22893  -1.48005  -1.45339
 Alpha  occ. eigenvalues --   -1.37638  -1.07108  -1.04102  -0.91832  -0.84244
 Alpha  occ. eigenvalues --   -0.81384  -0.76036  -0.72703  -0.69345  -0.68772
 Alpha  occ. eigenvalues --   -0.61924  -0.59713  -0.59237  -0.57186  -0.55755
 Alpha  occ. eigenvalues --   -0.52033  -0.51942  -0.47652  -0.46436  -0.42193
 Alpha  occ. eigenvalues --   -0.41998
 Alpha virt. eigenvalues --    0.03790   0.04307   0.06329   0.06635   0.06822
 Alpha virt. eigenvalues --    0.08116   0.09546   0.09961   0.11584   0.12442
 Alpha virt. eigenvalues --    0.12900   0.14442   0.15428   0.15811   0.16384
 Alpha virt. eigenvalues --    0.17242   0.18243   0.18589   0.19323   0.19877
 Alpha virt. eigenvalues --    0.20207   0.20951   0.22532   0.22609   0.23459
 Alpha virt. eigenvalues --    0.24732   0.26261   0.27176   0.28560   0.29494
 Alpha virt. eigenvalues --    0.29837   0.29954   0.30952   0.32336   0.32480
 Alpha virt. eigenvalues --    0.33348   0.35638   0.36506   0.37949   0.39286
 Alpha virt. eigenvalues --    0.40790   0.41161   0.41994   0.42259   0.44049
 Alpha virt. eigenvalues --    0.45258   0.46193   0.47626   0.48804   0.49843
 Alpha virt. eigenvalues --    0.54060   0.57121   0.57752   0.58208   0.63823
 Alpha virt. eigenvalues --    0.65232   0.67664   0.70025   0.71226   0.73376
 Alpha virt. eigenvalues --    0.76605   0.79145   0.81707   0.84604   0.85863
 Alpha virt. eigenvalues --    0.86062   0.86814   0.86984   0.87509   0.89874
 Alpha virt. eigenvalues --    0.90787   0.93841   0.96901   0.98315   1.00788
 Alpha virt. eigenvalues --    1.08061   1.08977   1.11478   1.19103   1.19543
 Alpha virt. eigenvalues --    1.20631   1.22831   1.24671   1.28005   1.32614
 Alpha virt. eigenvalues --    1.35797   1.36947   1.39062   1.39371   1.42033
 Alpha virt. eigenvalues --    1.42957   1.43484   1.49208   1.49435   1.51069
 Alpha virt. eigenvalues --    1.51548   1.52632   1.58717   1.61154   1.63930
 Alpha virt. eigenvalues --    1.67912   1.71639   1.72498   1.78971   1.80244
 Alpha virt. eigenvalues --    1.81193   1.82267   1.84671   1.85891   1.88028
 Alpha virt. eigenvalues --    1.89526   1.92763   1.94910   1.95337   2.00463
 Alpha virt. eigenvalues --    2.01586   2.05054   2.09698   2.12355   2.17059
 Alpha virt. eigenvalues --    2.19668   2.23996   2.28835   2.30204   2.35160
 Alpha virt. eigenvalues --    2.41456   2.41821   2.48223   2.56237   2.64368
 Alpha virt. eigenvalues --    2.64952   2.73741   2.77802   2.78593   2.81368
 Alpha virt. eigenvalues --    2.82267   2.85876   2.88441   2.92507   2.95003
 Alpha virt. eigenvalues --    2.96480   2.98530   3.00744   3.03437   3.13995
 Alpha virt. eigenvalues --    3.14860   3.17922   3.21793   3.25170   3.29170
 Alpha virt. eigenvalues --    3.30942   3.35662   3.38488   3.40608   3.41525
 Alpha virt. eigenvalues --    3.44205   3.45061   3.48816   3.51499   3.61264
 Alpha virt. eigenvalues --    3.63277   3.68035   3.72259   3.78675   3.93073
 Alpha virt. eigenvalues --    3.94851   4.04183   4.11698   4.19966   4.20246
 Alpha virt. eigenvalues --    4.21820   4.22043   4.43885   4.51952   4.52895
 Alpha virt. eigenvalues --    4.69545   5.45554   5.56554   5.62450   5.65092
 Alpha virt. eigenvalues --    5.77362   5.91368   5.98087   6.21630   6.43274
 Alpha virt. eigenvalues --   24.61779  24.99721  25.01882  25.13990  26.19707
 Alpha virt. eigenvalues --   51.47042  51.60333  51.71504
  Beta  occ. eigenvalues --  -20.64170 -20.61231 -20.55999 -11.41056 -11.29688
  Beta  occ. eigenvalues --  -11.25539 -11.24471 -11.22893  -1.48163  -1.38165
  Beta  occ. eigenvalues --   -1.31207  -1.07268  -1.03347  -0.90791  -0.82757
  Beta  occ. eigenvalues --   -0.76673  -0.73509  -0.69436  -0.69126  -0.63667
  Beta  occ. eigenvalues --   -0.60214  -0.58899  -0.55853  -0.55321  -0.52506
  Beta  occ. eigenvalues --   -0.52072  -0.48229  -0.47225  -0.41543  -0.41315
  Beta virt. eigenvalues --    0.01599   0.04255   0.05651   0.06342   0.06640
  Beta virt. eigenvalues --    0.06873   0.08195   0.09694   0.10177   0.11637
  Beta virt. eigenvalues --    0.12934   0.13128   0.14436   0.15388   0.16189
  Beta virt. eigenvalues --    0.16778   0.17377   0.18536   0.18623   0.19406
  Beta virt. eigenvalues --    0.19872   0.20284   0.21265   0.22596   0.23214
  Beta virt. eigenvalues --    0.23967   0.24983   0.26559   0.27452   0.28922
  Beta virt. eigenvalues --    0.29654   0.29817   0.30137   0.31281   0.32461
  Beta virt. eigenvalues --    0.32898   0.33635   0.35840   0.36852   0.37944
  Beta virt. eigenvalues --    0.39216   0.40881   0.41152   0.42030   0.42928
  Beta virt. eigenvalues --    0.44572   0.45475   0.46241   0.47883   0.49767
  Beta virt. eigenvalues --    0.50459   0.54303   0.57126   0.57906   0.58590
  Beta virt. eigenvalues --    0.64091   0.65191   0.68155   0.70127   0.72360
  Beta virt. eigenvalues --    0.73871   0.77983   0.80334   0.81917   0.84482
  Beta virt. eigenvalues --    0.85788   0.86242   0.86355   0.87063   0.87411
  Beta virt. eigenvalues --    0.90184   0.92113   0.94263   0.97541   0.98286
  Beta virt. eigenvalues --    1.01838   1.08058   1.08710   1.11413   1.19649
  Beta virt. eigenvalues --    1.20848   1.22956   1.23625   1.26493   1.30746
  Beta virt. eigenvalues --    1.35910   1.36422   1.37335   1.38999   1.39590
  Beta virt. eigenvalues --    1.42459   1.43158   1.43525   1.49268   1.49840
  Beta virt. eigenvalues --    1.51568   1.52064   1.53154   1.59977   1.62152
  Beta virt. eigenvalues --    1.64472   1.69061   1.71639   1.72757   1.79972
  Beta virt. eigenvalues --    1.80259   1.81261   1.83388   1.84771   1.86332
  Beta virt. eigenvalues --    1.88160   1.89620   1.92728   1.95247   1.95835
  Beta virt. eigenvalues --    2.00481   2.01721   2.05689   2.10049   2.12563
  Beta virt. eigenvalues --    2.17139   2.20480   2.25520   2.28840   2.31156
  Beta virt. eigenvalues --    2.35416   2.41559   2.42698   2.48236   2.56241
  Beta virt. eigenvalues --    2.64955   2.65511   2.74309   2.77866   2.80467
  Beta virt. eigenvalues --    2.81787   2.82616   2.85967   2.88440   2.92537
  Beta virt. eigenvalues --    2.95111   2.96483   2.98657   3.00875   3.04407
  Beta virt. eigenvalues --    3.14060   3.15071   3.18822   3.21692   3.28402
  Beta virt. eigenvalues --    3.30469   3.33044   3.36800   3.38403   3.40905
  Beta virt. eigenvalues --    3.44054   3.44900   3.46011   3.50517   3.56056
  Beta virt. eigenvalues --    3.61280   3.63681   3.68757   3.72650   3.78146
  Beta virt. eigenvalues --    3.95214   3.97493   4.04756   4.11836   4.19962
  Beta virt. eigenvalues --    4.21818   4.21966   4.25353   4.44046   4.51982
  Beta virt. eigenvalues --    4.53051   4.69553   5.48818   5.56473   5.61599
  Beta virt. eigenvalues --    5.75322   5.77166   5.91367   6.00657   6.21532
  Beta virt. eigenvalues --    6.43209  24.62274  24.99828  25.01975  25.13989
  Beta virt. eigenvalues --   26.20160  51.49230  51.60311  51.71328
          Condensed to atoms (all electrons):
               1          2          3          4          5          6
     1  C    6.349909   0.292655  -1.916687   2.169183  -0.090623  -0.133386
     2  H    0.292655   0.330467  -0.135699   0.071240  -0.000939  -0.004074
     3  C   -1.916687  -0.135699  15.276180  -8.134842   0.253739   0.028562
     4  C    2.169183   0.071240  -8.134842  12.421558   0.207256  -0.127413
     5  O   -0.090623  -0.000939   0.253739   0.207256   8.085366  -0.100047
     6  O   -0.133386  -0.004074   0.028562  -0.127413  -0.100047   8.461119
     7  C    0.046133   0.001537  -0.508235   0.034622  -0.038485   0.247382
     8  C    0.058059   0.001350  -0.328242   0.286835   0.017804  -0.203837
     9  H   -0.000846  -0.000104  -0.001717  -0.005381  -0.013956  -0.034939
    10  H   -0.002075  -0.000063   0.005330  -0.008634  -0.013765  -0.034457
    11  H   -0.001959  -0.000084   0.016725  -0.005819  -0.000975  -0.009289
    12  H   -0.001282  -0.000086   0.013351  -0.002358  -0.001091  -0.009785
    13  H   -0.000767  -0.000008   0.002377  -0.003162   0.001590   0.024791
    14  O   -0.018568   0.080339  -0.038092   0.022439   0.000038   0.000136
    15  H    0.034134  -0.037628   0.004006   0.001872  -0.000122  -0.000002
               7          8          9         10         11         12
     1  C    0.046133   0.058059  -0.000846  -0.002075  -0.001959  -0.001282
     2  H    0.001537   0.001350  -0.000104  -0.000063  -0.000084  -0.000086
     3  C   -0.508235  -0.328242  -0.001717   0.005330   0.016725   0.013351
     4  C    0.034622   0.286835  -0.005381  -0.008634  -0.005819  -0.002358
     5  O   -0.038485   0.017804  -0.013956  -0.013765  -0.000975  -0.001091
     6  O    0.247382  -0.203837  -0.034939  -0.034457  -0.009289  -0.009785
     7  C    5.444781   0.030196   0.446559   0.443869  -0.034288  -0.037202
     8  C    0.030196   5.669569  -0.059207  -0.059460   0.393624   0.396845
     9  H    0.446559  -0.059207   0.548149  -0.050010   0.004403  -0.006088
    10  H    0.443869  -0.059460  -0.050010   0.549476  -0.006216   0.004467
    11  H   -0.034288   0.393624   0.004403  -0.006216   0.565188  -0.039942
    12  H   -0.037202   0.396845  -0.006088   0.004467  -0.039942   0.564010
    13  H   -0.049350   0.411824  -0.003959  -0.004047  -0.034412  -0.034498
    14  O    0.000199   0.000099   0.000021   0.000010  -0.000005  -0.000000
    15  H   -0.000191   0.000013   0.000007  -0.000003   0.000001   0.000002
              13         14         15
     1  C   -0.000767  -0.018568   0.034134
     2  H   -0.000008   0.080339  -0.037628
     3  C    0.002377  -0.038092   0.004006
     4  C   -0.003162   0.022439   0.001872
     5  O    0.001590   0.000038  -0.000122
     6  O    0.024791   0.000136  -0.000002
     7  C   -0.049350   0.000199  -0.000191
     8  C    0.411824   0.000099   0.000013
     9  H   -0.003959   0.000021   0.000007
    10  H   -0.004047   0.000010  -0.000003
    11  H   -0.034412  -0.000005   0.000001
    12  H   -0.034498  -0.000000   0.000002
    13  H    0.549936  -0.000000  -0.000001
    14  O   -0.000000   7.843164   0.286103
    15  H   -0.000001   0.286103   0.434474
          Atomic-Atomic Spin Densities.
               1          2          3          4          5          6
     1  C    0.949528  -0.003585  -0.263713   0.147818   0.001520  -0.004649
     2  H   -0.003585  -0.065189   0.001023   0.001785  -0.000144  -0.000147
     3  C   -0.263713   0.001023   0.183658  -0.479912  -0.005314   0.056609
     4  C    0.147818   0.001785  -0.479912   0.401809   0.027223  -0.053326
     5  O    0.001520  -0.000144  -0.005314   0.027223  -0.091755   0.000654
     6  O   -0.004649  -0.000147   0.056609  -0.053326   0.000654   0.004381
     7  C   -0.000992  -0.000934   0.001786   0.007108   0.000165  -0.000287
     8  C    0.005387   0.000245  -0.022230   0.010973   0.000764  -0.000854
     9  H   -0.000309  -0.000029   0.002180  -0.001335   0.000124  -0.000085
    10  H   -0.000251  -0.000019   0.001562  -0.000848   0.000107  -0.000063
    11  H   -0.000158  -0.000015   0.000766  -0.000371   0.000001  -0.000051
    12  H    0.000004  -0.000013   0.000124   0.000089   0.000011  -0.000110
    13  H   -0.000125  -0.000007   0.000745  -0.000302   0.000005   0.000013
    14  O   -0.028264  -0.039486  -0.033171   0.020539   0.000048  -0.000005
    15  H   -0.004659   0.005550  -0.000458  -0.001302   0.000003  -0.000002
               7          8          9         10         11         12
     1  C   -0.000992   0.005387  -0.000309  -0.000251  -0.000158   0.000004
     2  H   -0.000934   0.000245  -0.000029  -0.000019  -0.000015  -0.000013
     3  C    0.001786  -0.022230   0.002180   0.001562   0.000766   0.000124
     4  C    0.007108   0.010973  -0.001335  -0.000848  -0.000371   0.000089
     5  O    0.000165   0.000764   0.000124   0.000107   0.000001   0.000011
     6  O   -0.000287  -0.000854  -0.000085  -0.000063  -0.000051  -0.000110
     7  C   -0.007940   0.001118  -0.000098  -0.000177   0.000220   0.000052
     8  C    0.001118   0.005942  -0.000537  -0.000249  -0.000337  -0.000103
     9  H   -0.000098  -0.000537   0.000126  -0.000119  -0.000011   0.000020
    10  H   -0.000177  -0.000249  -0.000119   0.000071   0.000014  -0.000006
    11  H    0.000220  -0.000337  -0.000011   0.000014  -0.000061   0.000007
    12  H    0.000052  -0.000103   0.000020  -0.000006   0.000007  -0.000050
    13  H   -0.000001  -0.000262  -0.000020  -0.000012  -0.000001  -0.000020
    14  O    0.000076   0.000039   0.000004   0.000000  -0.000001   0.000001
    15  H    0.000040  -0.000021   0.000001   0.000001   0.000000   0.000000
              13         14         15
     1  C   -0.000125  -0.028264  -0.004659
     2  H   -0.000007  -0.039486   0.005550
     3  C    0.000745  -0.033171  -0.000458
     4  C   -0.000302   0.020539  -0.001302
     5  O    0.000005   0.000048   0.000003
     6  O    0.000013  -0.000005  -0.000002
     7  C   -0.000001   0.000076   0.000040
     8  C   -0.000262   0.000039  -0.000021
     9  H   -0.000020   0.000004   0.000001
    10  H   -0.000012   0.000000   0.000001
    11  H   -0.000001  -0.000001   0.000000
    12  H   -0.000020   0.000001   0.000000
    13  H   -0.000050  -0.000001   0.000000
    14  O   -0.000001   0.954586   0.005930
    15  H    0.000000   0.005930  -0.040972
 Mulliken charges and spin densities:
               1          2
     1  C   -0.783882   0.797553
     2  H    0.401098  -0.100964
     3  C    1.463242  -0.556346
     4  C   -0.927396   0.079950
     5  O   -0.305791  -0.066586
     6  O   -0.104762   0.002081
     7  C   -0.027527   0.000135
     8  C   -0.615471  -0.000125
     9  H    0.177068  -0.000086
    10  H    0.175577   0.000011
    11  H    0.153048   0.000002
    12  H    0.153657   0.000006
    13  H    0.139687  -0.000038
    14  O   -0.175884   0.880296
    15  H    0.277335  -0.035888
 Sum of Mulliken charges =  -0.00000   1.00000
 Mulliken charges and spin densities with hydrogens summed into heavy atoms:
               1          2
     1  C   -0.382784   0.696589
     3  C    1.463242  -0.556346
     4  C   -0.927396   0.079950
     5  O   -0.305791  -0.066586
     6  O   -0.104762   0.002081
     7  C    0.325118   0.000060
     8  C   -0.169078  -0.000156
    14  O    0.101451   0.844409
 Electronic spatial extent (au):  <R**2>=           1747.8026
 Charge=             -0.0000 electrons
 Dipole moment (field-independent basis, Debye):
    X=              0.4270    Y=             -0.8224    Z=             -0.9329  Tot=              1.3149
 Quadrupole moment (field-independent basis, Debye-Ang):
   XX=            -27.1407   YY=            -55.1281   ZZ=            -47.4304
   XY=              5.0551   XZ=             -4.6447   YZ=             -0.3474
 Traceless Quadrupole moment (field-independent basis, Debye-Ang):
   XX=             16.0924   YY=            -11.8950   ZZ=             -4.1974
   XY=              5.0551   XZ=             -4.6447   YZ=             -0.3474
 Octapole moment (field-independent basis, Debye-Ang**2):
  XXX=             53.0465  YYY=            -11.5851  ZZZ=             -0.0844  XYY=              4.5960
  XXY=             23.5783  XXZ=            -21.5121  XZZ=             -1.4876  YZZ=              1.8631
  YYZ=             -0.0700  XYZ=             -1.1950
 Hexadecapole moment (field-independent basis, Debye-Ang**3):
 XXXX=          -1451.9938 YYYY=           -299.4926 ZZZZ=            -61.1122 XXXY=            103.0572
 XXXZ=           -102.0931 YYYX=             -2.0270 YYYZ=             -0.9808 ZZZX=             -1.8031
 ZZZY=             -0.2622 XXYY=           -358.6788 XXZZ=           -326.6427 YYZZ=            -53.2762
 XXYZ=             -6.3849 YYXZ=              0.0241 ZZXY=             -1.3989
 N-N= 3.308550781472D+02 E-N=-1.644439554360D+03  KE= 4.176669368442D+02
 1\1\GINC-AJ\SP\UCCSD(T)-FC\6-311++G(d,p)\C5H7O3(2)\AAYUSH\17-Apr-2025\
 0\\# ccsd(t)/6-311++g(d,p) sp\\Title Card Required\\0,2\C,0,2.184138,-
 0.412221,-0.063704\H,0,3.287434,-0.861053,-0.12246\C,0,1.076589,0.0652
 78,-0.017968\C,0,-0.278463,0.613903,-0.003622\O,0,-0.517122,1.7892,0.0
 121\O,0,-1.192521,-0.354265,-0.010125\C,0,-2.56577,0.084319,0.008553\C
 ,0,-3.427084,-1.157133,-0.004082\H,0,-2.723398,0.689325,0.903849\H,0,-
 2.739005,0.718562,-0.863262\H,0,-3.236975,-1.746304,-0.901953\H,0,-3.2
 19939,-1.776092,0.869636\H,0,-4.480882,-0.873773,0.010606\O,0,4.503797
 ,-0.603546,0.088189\H,0,4.612961,0.250341,-0.364621\\Version=ES64L-G16
 RevA.03\State=2-A\HF=-417.9555111\MP2=-419.2238556\MP3=-419.2499817\MP
 4D=-419.2810029\MP4DQ=-419.2557631\PUHF=-417.966813\PMP2-0=-419.233511
 2\PMP3-0=-419.2570017\MP4SDQ=-419.2760015\CCSD=-419.2785588\CCSD(T)=-4
 19.332636\S2=0.865876\S2-1=0.830351\S2A=0.760346\RMSD=5.824e-09\PG=C01
  [X(C5H7O3)]\\@


 ... IT IS NO ONE DREAME THAT
     CAN PLEASE THESE ALL ...

                -- BEN JONSON
 Job cpu time:       0 days 21 hours 23 minutes 44.2 seconds.
 Elapsed time:       0 days  0 hours 53 minutes 44.4 seconds.
 File lengths (MBytes):  RWF=  44258 Int=      0 D2E=      0 Chk=      5 Scr=      1
 Normal termination of Gaussian 16 at Thu Apr 17 23:07:21 2025.
