 Entering Link 1 = C:\G09W\l1.exe PID=     18196.
  
 Copyright (c) 1988,1990,1992,1993,1995,1998,2003,2009,2013,
            Gaussian, Inc.  All Rights Reserved.
  
 This is part of the Gaussian(R) 09 program.  It is based on
 the Gaussian(R) 03 system (copyright 2003, Gaussian, Inc.),
 the Gaussian(R) 98 system (copyright 1998, Gaussian, Inc.),
 the Gaussian(R) 94 system (copyright 1995, Gaussian, Inc.),
 the Gaussian 92(TM) system (copyright 1992, Gaussian, Inc.),
 the Gaussian 90(TM) system (copyright 1990, Gaussian, Inc.),
 the Gaussian 88(TM) system (copyright 1988, Gaussian, Inc.),
 the Gaussian 86(TM) system (copyright 1986, Carnegie Mellon
 University), and the Gaussian 82(TM) system (copyright 1983,
 Carnegie Mellon University). Gaussian is a federally registered
 trademark of Gaussian, Inc.
  
 This software contains proprietary and confidential information,
 including trade secrets, belonging to Gaussian, Inc.
  
 This software is provided under written license and may be
 used, copied, transmitted, or stored only in accord with that
 written license.
  
 The following legend is applicable only to US Government
 contracts under FAR:
  
                    RESTRICTED RIGHTS LEGEND
  
 Use, reproduction and disclosure by the US Government is
 subject to restrictions as set forth in subparagraphs (a)
 and (c) of the Commercial Computer Software - Restricted
 Rights clause in FAR 52.227-19.
  
 Gaussian, Inc.
 340 Quinnipiac St., Bldg. 40, Wallingford CT 06492
  
  
 ---------------------------------------------------------------
 Warning -- This program may not be used in any manner that
 competes with the business of Gaussian, Inc. or will provide
 assistance to any competitor of Gaussian, Inc.  The licensee
 of this program is prohibited from giving any competitor of
 Gaussian, Inc. access to this program.  By using this program,
 the user acknowledges that Gaussian, Inc. is engaged in the
 business of creating and licensing software in the field of
 computational chemistry and represents and warrants to the
 licensee that it is not a competitor of Gaussian, Inc. and that
 it will not use this program in any manner prohibited above.
 ---------------------------------------------------------------
  

 Cite this work as:
 Gaussian 09, Revision D.01,
 M. J. Frisch, G. W. Trucks, H. B. Schlegel, G. E. Scuseria, 
 M. A. Robb, J. R. Cheeseman, G. Scalmani, V. Barone, B. Mennucci, 
 G. A. Petersson, H. Nakatsuji, M. Caricato, X. Li, H. P. Hratchian, 
 A. F. Izmaylov, J. Bloino, G. Zheng, J. L. Sonnenberg, M. Hada, 
 M. Ehara, K. Toyota, R. Fukuda, J. Hasegawa, M. Ishida, T. Nakajima, 
 Y. Honda, O. Kitao, H. Nakai, T. Vreven, J. A. Montgomery, Jr., 
 J. E. Peralta, F. Ogliaro, M. Bearpark, J. J. Heyd, E. Brothers, 
 K. N. Kudin, V. N. Staroverov, T. Keith, R. Kobayashi, J. Normand, 
 K. Raghavachari, A. Rendell, J. C. Burant, S. S. Iyengar, J. Tomasi, 
 M. Cossi, N. Rega, J. M. Millam, M. Klene, J. E. Knox, J. B. Cross, 
 V. Bakken, C. Adamo, J. Jaramillo, R. Gomperts, R. E. Stratmann, 
 O. Yazyev, A. J. Austin, R. Cammi, C. Pomelli, J. W. Ochterski, 
 R. L. Martin, K. Morokuma, V. G. Zakrzewski, G. A. Voth, 
 P. Salvador, J. J. Dannenberg, S. Dapprich, A. D. Daniels, 
 O. Farkas, J. B. Foresman, J. V. Ortiz, J. Cioslowski, 
 and D. J. Fox, Gaussian, Inc., Wallingford CT, 2013.
 
 ******************************************
 Gaussian 09:  IA32W-G09RevD.01 24-Apr-2013
                27-Mar-2025 
 ******************************************
 %chk=ethyl_propiolate.chk
 %nprocshared=4
 Will use up to    4 processors via shared memory.
 %mem=1700MB
 --------------------------
 # freq 6-311++g(d,p) m062x
 --------------------------
 1/10=4,30=1,38=1/1,3;
 2/12=2,17=6,18=5,40=1/2;
 3/5=4,6=6,7=1111,11=2,16=1,25=1,30=1,71=2,74=-55,140=1/1,2,3;
 4//1;
 5/5=2,38=5,98=1/2;
 8/6=4,10=90,11=11/1;
 11/6=1,8=1,9=11,15=111,16=1/1,2,10;
 10/6=1/2;
 6/7=2,8=2,9=2,10=2,18=1,28=1/1;
 7/8=1,10=1,25=1/1,2,3,16;
 1/10=4,30=1/3;
 99//99;
 -------------------
 Title Card Required
 -------------------
 Symbolic Z-matrix:
 Charge =  0 Multiplicity = 2
 C                     3.27836  -0.52364  -0.4411 
 H                     4.27156  -0.791    -0.71726 
 C                     2.16107  -0.22434  -0.13026 
 C                     0.82194   0.18379   0.25929 
 O                     0.5644    1.24208   0.76971 
 O                    -0.07206  -0.7635   -0.01871 
 C                    -1.4211   -0.49072   0.36172 
 C                    -2.29351  -1.62934  -0.08762 
 H                    -1.46472  -0.28115   1.4324 
 H                    -1.75949   0.43948  -0.17185 
 H                    -2.21449  -1.76403  -1.16686 
 H                    -2.00455  -2.55907   0.40628 
 H                    -3.33195  -1.40689   0.16143 
 O                    -1.91803   1.79774  -0.707 
 H                    -1.19352   2.19446  -0.18959 
 

 GradGradGradGradGradGradGradGradGradGradGradGradGradGradGradGradGradGrad
 Berny optimization.
 Initialization pass.
 Trust Radius=3.00D-01 FncErr=1.00D-07 GrdErr=1.00D-07
 Number of steps in this run=      2 maximum allowed number of steps=      2.
 GradGradGradGradGradGradGradGradGradGradGradGradGradGradGradGradGradGrad

                          Input orientation:                          
 ---------------------------------------------------------------------
 Center     Atomic      Atomic             Coordinates (Angstroms)
 Number     Number       Type             X           Y           Z
 ---------------------------------------------------------------------
      1          6           0        3.278360   -0.523636   -0.441099
      2          1           0        4.271563   -0.791000   -0.717255
      3          6           0        2.161070   -0.224343   -0.130255
      4          6           0        0.821939    0.183792    0.259294
      5          8           0        0.564404    1.242082    0.769705
      6          8           0       -0.072056   -0.763496   -0.018714
      7          6           0       -1.421099   -0.490718    0.361716
      8          6           0       -2.293510   -1.629338   -0.087624
      9          1           0       -1.464721   -0.281153    1.432400
     10          1           0       -1.759489    0.439478   -0.171849
     11          1           0       -2.214492   -1.764029   -1.166858
     12          1           0       -2.004548   -2.559066    0.406280
     13          1           0       -3.331951   -1.406888    0.161429
     14          8           0       -1.918027    1.797739   -0.706998
     15          1           0       -1.193518    2.194461   -0.189590
 ---------------------------------------------------------------------
                    Distance matrix (angstroms):
                    1          2          3          4          5
     1  C    0.000000
     2  H    1.064987   0.000000
     3  C    1.197722   2.262709   0.000000
     4  C    2.650473   3.715343   1.453133   0.000000
     5  O    3.456785   4.481908   2.347269   1.202839   0.000000
     6  O    3.385444   4.399516   2.299995   1.331867   2.247004
     7  C    4.767653   5.801788   3.625593   2.344499   2.666697
     8  C    5.691507   6.648265   4.671093   3.621300   4.140983
     9  H    5.105449   6.147025   3.948605   2.611736   2.622357
    10  H    5.136147   6.179412   3.976578   2.629644   2.632713
    11  H    5.677739   6.574028   4.752970   3.879153   4.528713
    12  H    5.724521   6.616491   4.805328   3.941307   4.602208
    13  H    6.696222   7.678856   5.626435   4.449117   4.750645
    14  O    5.697536   6.709150   4.589170   3.323546   2.941406
    15  H    5.239179   6.249681   4.136109   2.882075   2.217558
                    6          7          8          9         10
     6  O    0.000000
     7  C    1.427954   0.000000
     8  C    2.385223   1.503151   0.000000
     9  H    2.068309   1.091872   2.194303   0.000000
    10  H    2.077986   1.124484   2.138287   1.783203   0.000000
    11  H    2.628561   2.141806   1.090473   3.084999   2.460186
    12  H    2.671931   2.149526   1.091712   2.556017   3.063585
    13  H    3.327660   2.128576   1.090812   2.523726   2.448015
    14  O    3.231295   2.574126   3.502780   3.017334   1.468466
    15  H    3.168025   2.750621   3.980178   2.972048   1.844072
                   11         12         13         14         15
    11  H    0.000000
    12  H    1.775084   0.000000
    13  H    1.772177   1.774673   0.000000
    14  O    3.603547   4.497624   3.608737   0.000000
    15  H    4.203223   4.858894   4.203073   0.974686   0.000000
 Stoichiometry    C5H7O3(2)
 Framework group  C1[X(C5H7O3)]
 Deg. of freedom    39
 Full point group                 C1      NOp   1
 Largest Abelian subgroup         C1      NOp   1
 Largest concise Abelian subgroup C1      NOp   1
                         Standard orientation:                         
 ---------------------------------------------------------------------
 Center     Atomic      Atomic             Coordinates (Angstroms)
 Number     Number       Type             X           Y           Z
 ---------------------------------------------------------------------
      1          6           0        3.341096   -0.487765   -0.440782
      2          1           0        4.334350   -0.753824   -0.718013
      3          6           0        2.223749   -0.189941   -0.128735
      4          6           0        0.884547    0.216352    0.262491
      5          8           0        0.626925    1.272202    0.777889
      6          8           0       -0.009406   -0.729587   -0.020204
      7          6           0       -1.358521   -0.458606    0.361256
      8          6           0       -2.230858   -1.595059   -0.093677
      9          1           0       -1.402351   -0.254145    1.432918
     10          1           0       -1.696793    0.474127   -0.167937
     11          1           0       -2.151630   -1.724607   -1.173525
     12          1           0       -1.942006   -2.527134    0.395848
     13          1           0       -3.269345   -1.373784    0.156229
     14          8           0       -1.855207    1.834925   -0.696638
     15          1           0       -1.130795    2.229167   -0.177203
 ---------------------------------------------------------------------
 Rotational constants (GHZ):      2.9957196      1.2128736      0.9498637
 Standard basis: 6-311++G(d,p) (5D, 7F)
 There are   233 symmetry adapted cartesian basis functions of A   symmetry.
 There are   225 symmetry adapted basis functions of A   symmetry.
   225 basis functions,   351 primitive gaussians,   233 cartesian basis functions
    31 alpha electrons       30 beta electrons
       nuclear repulsion energy       351.2983481370 Hartrees.
 NAtoms=   15 NActive=   15 NUniq=   15 SFac= 1.00D+00 NAtFMM=   60 NAOKFM=F Big=F
 Integral buffers will be    262144 words long.
 Raffenetti 2 integral format.
 Two-electron integral symmetry is turned on.
 One-electron integrals computed using PRISM.
 NBasis=   225 RedAO= T EigKep=  5.78D-06  NBF=   225
 NBsUse=   224 1.00D-06 EigRej=  7.14D-07 NBFU=   224
 ExpMin= 3.60D-02 ExpMax= 8.59D+03 ExpMxC= 1.30D+03 IAcc=3 IRadAn=         5 AccDes= 0.00D+00
 Harris functional with IExCor= 1009 and IRadAn=       5 diagonalized for initial guess.
 HarFok:  IExCor= 1009 AccDes= 0.00D+00 IRadAn=         5 IDoV= 1 UseB2=F ITyADJ=14
 ICtDFT=  3500011 ScaDFX=  1.000000  1.000000  1.000000  1.000000
 FoFCou: FMM=F IPFlag=           0 FMFlag=      100000 FMFlg1=           0
         NFxFlg=           0 DoJE=T BraDBF=F KetDBF=T FulRan=T
         wScrn=  0.000000 ICntrl=     500 IOpCl=  0 I1Cent=   200000004 NGrid=           0
         NMat0=    1 NMatS0=      1 NMatT0=    0 NMatD0=    1 NMtDS0=    0 NMtDT0=    0
 Petite list used in FoFCou.
 Initial guess <Sx>= 0.0000 <Sy>= 0.0000 <Sz>= 0.5000 <S**2>= 0.7500 S= 0.5000
 Requested convergence on RMS density matrix=1.00D-08 within 128 cycles.
 Requested convergence on MAX density matrix=1.00D-06.
 Requested convergence on             energy=1.00D-06.
 No special actions if energy rises.
 Restarting incremental Fock formation.
 SCF Done:  E(UM062X) =  -420.204978862     A.U. after   22 cycles
            NFock= 22  Conv=0.57D-08     -V/T= 2.0032
 <Sx>= 0.0000 <Sy>= 0.0000 <Sz>= 0.5000 <S**2>= 0.7567 S= 0.5033
 <L.S>= 0.000000000000E+00
 Annihilation of the first spin contaminant:
 S**2 before annihilation     0.7567,   after     0.7500
 DoSCS=F DFT=T ScalE2(SS,OS)=  1.000000  1.000000
 Range of M.O.s used for correlation:     1   224
 NBasis=   225 NAE=    31 NBE=    30 NFC=     0 NFV=     0
 NROrb=    224 NOA=    31 NOB=    30 NVA=   193 NVB=   194

 **** Warning!!: The largest alpha MO coefficient is  0.12261949D+03


 **** Warning!!: The largest beta MO coefficient is  0.13589444D+03

 Symmetrizing basis deriv contribution to polar:
 IMax=3 JMax=2 DiffMx= 0.00D+00
 G2DrvN: will do    16 centers at a time, making    1 passes.
 Calling FoFCou, ICntrl=  3107 FMM=F I1Cent=   0 AccDes= 0.00D+00.
 End of G2Drv F.D. properties file   721 does not exist.
 End of G2Drv F.D. properties file   722 does not exist.
 End of G2Drv F.D. properties file   788 does not exist.
          IDoAtm=111111111111111
          Differentiating once with respect to electric field.
                with respect to dipole field.
          Differentiating once with respect to nuclear coordinates.
          There are    48 degrees of freedom in the 1st order CPHF.  IDoFFX=6 NUNeed=     3.
     46 vectors produced by pass  0 Test12= 2.46D-14 2.08D-09 XBig12= 9.54D+01 3.82D+00.
 AX will form    46 AO Fock derivatives at one time.
     45 vectors produced by pass  1 Test12= 2.46D-14 2.08D-09 XBig12= 1.89D+01 7.10D-01.
     45 vectors produced by pass  2 Test12= 2.46D-14 2.08D-09 XBig12= 7.43D-01 1.37D-01.
     45 vectors produced by pass  3 Test12= 2.46D-14 2.08D-09 XBig12= 1.13D-02 1.52D-02.
     45 vectors produced by pass  4 Test12= 2.46D-14 2.08D-09 XBig12= 1.12D-04 1.23D-03.
     45 vectors produced by pass  5 Test12= 2.46D-14 2.08D-09 XBig12= 1.03D-06 8.40D-05.
     43 vectors produced by pass  6 Test12= 2.46D-14 2.08D-09 XBig12= 7.03D-09 7.48D-06.
     21 vectors produced by pass  7 Test12= 2.46D-14 2.08D-09 XBig12= 3.79D-11 4.88D-07.
      3 vectors produced by pass  8 Test12= 2.46D-14 2.08D-09 XBig12= 2.51D-13 3.86D-08.
      3 vectors produced by pass  9 Test12= 2.46D-14 2.08D-09 XBig12= 2.06D-14 2.67D-08.
      3 vectors produced by pass 10 Test12= 2.46D-14 2.08D-09 XBig12= 1.60D-15 6.52D-09.
      3 vectors produced by pass 11 Test12= 2.46D-14 2.08D-09 XBig12= 1.55D-15 5.06D-09.
      3 vectors produced by pass 12 Test12= 2.46D-14 2.08D-09 XBig12= 1.29D-15 4.69D-09.
      3 vectors produced by pass 13 Test12= 2.46D-14 2.08D-09 XBig12= 8.34D-16 3.28D-09.
      2 vectors produced by pass 14 Test12= 2.46D-14 2.08D-09 XBig12= 5.35D-16 2.81D-09.
      2 vectors produced by pass 15 Test12= 2.46D-14 2.08D-09 XBig12= 6.37D-16 3.25D-09.
      2 vectors produced by pass 16 Test12= 2.46D-14 2.08D-09 XBig12= 8.74D-16 3.35D-09.
      2 vectors produced by pass 17 Test12= 2.46D-14 2.08D-09 XBig12= 1.48D-15 5.37D-09.
      1 vectors produced by pass 18 Test12= 2.46D-14 2.08D-09 XBig12= 5.05D-16 2.51D-09.
 InvSVY:  IOpt=1 It=  1 EMax= 3.55D-15
 Solved reduced A of dimension   362 with    48 vectors.
 Isotropic polarizability for W=    0.000000       75.29 Bohr**3.
 End of Minotr F.D. properties file   721 does not exist.
 End of Minotr F.D. properties file   722 does not exist.
 End of Minotr F.D. properties file   788 does not exist.

 **********************************************************************

            Population analysis using the SCF density.

 **********************************************************************

 Orbital symmetries:
 Alpha Orbitals:
       Occupied  (A) (A) (A) (A) (A) (A) (A) (A) (A) (A) (A) (A)
                 (A) (A) (A) (A) (A) (A) (A) (A) (A) (A) (A) (A)
                 (A) (A) (A) (A) (A) (A) (A)
       Virtual   (A) (A) (A) (A) (A) (A) (A) (A) (A) (A) (A) (A)
                 (A) (A) (A) (A) (A) (A) (A) (A) (A) (A) (A) (A)
                 (A) (A) (A) (A) (A) (A) (A) (A) (A) (A) (A) (A)
                 (A) (A) (A) (A) (A) (A) (A) (A) (A) (A) (A) (A)
                 (A) (A) (A) (A) (A) (A) (A) (A) (A) (A) (A) (A)
                 (A) (A) (A) (A) (A) (A) (A) (A) (A) (A) (A) (A)
                 (A) (A) (A) (A) (A) (A) (A) (A) (A) (A) (A) (A)
                 (A) (A) (A) (A) (A) (A) (A) (A) (A) (A) (A) (A)
                 (A) (A) (A) (A) (A) (A) (A) (A) (A) (A) (A) (A)
                 (A) (A) (A) (A) (A) (A) (A) (A) (A) (A) (A) (A)
                 (A) (A) (A) (A) (A) (A) (A) (A) (A) (A) (A) (A)
                 (A) (A) (A) (A) (A) (A) (A) (A) (A) (A) (A) (A)
                 (A) (A) (A) (A) (A) (A) (A) (A) (A) (A) (A) (A)
                 (A) (A) (A) (A) (A) (A) (A) (A) (A) (A) (A) (A)
                 (A) (A) (A) (A) (A) (A) (A) (A) (A) (A) (A) (A)
                 (A) (A) (A) (A) (A) (A) (A) (A) (A) (A) (A) (A)
                 (A)
 Beta  Orbitals:
       Occupied  (A) (A) (A) (A) (A) (A) (A) (A) (A) (A) (A) (A)
                 (A) (A) (A) (A) (A) (A) (A) (A) (A) (A) (A) (A)
                 (A) (A) (A) (A) (A) (A)
       Virtual   (A) (A) (A) (A) (A) (A) (A) (A) (A) (A) (A) (A)
                 (A) (A) (A) (A) (A) (A) (A) (A) (A) (A) (A) (A)
                 (A) (A) (A) (A) (A) (A) (A) (A) (A) (A) (A) (A)
                 (A) (A) (A) (A) (A) (A) (A) (A) (A) (A) (A) (A)
                 (A) (A) (A) (A) (A) (A) (A) (A) (A) (A) (A) (A)
                 (A) (A) (A) (A) (A) (A) (A) (A) (A) (A) (A) (A)
                 (A) (A) (A) (A) (A) (A) (A) (A) (A) (A) (A) (A)
                 (A) (A) (A) (A) (A) (A) (A) (A) (A) (A) (A) (A)
                 (A) (A) (A) (A) (A) (A) (A) (A) (A) (A) (A) (A)
                 (A) (A) (A) (A) (A) (A) (A) (A) (A) (A) (A) (A)
                 (A) (A) (A) (A) (A) (A) (A) (A) (A) (A) (A) (A)
                 (A) (A) (A) (A) (A) (A) (A) (A) (A) (A) (A) (A)
                 (A) (A) (A) (A) (A) (A) (A) (A) (A) (A) (A) (A)
                 (A) (A) (A) (A) (A) (A) (A) (A) (A) (A) (A) (A)
                 (A) (A) (A) (A) (A) (A) (A) (A) (A) (A) (A) (A)
                 (A) (A) (A) (A) (A) (A) (A) (A) (A) (A) (A) (A)
                 (A) (A)
 The electronic state is 2-A.
 Alpha  occ. eigenvalues --  -19.69877 -19.66606 -19.64662 -10.72029 -10.61746
 Alpha  occ. eigenvalues --  -10.57857 -10.57395 -10.54651  -1.27324  -1.17877
 Alpha  occ. eigenvalues --   -1.12951  -0.91722  -0.88099  -0.78617  -0.71177
 Alpha  occ. eigenvalues --   -0.67114  -0.61774  -0.61369  -0.59329  -0.56135
 Alpha  occ. eigenvalues --   -0.52681  -0.50627  -0.49481  -0.47966  -0.45085
 Alpha  occ. eigenvalues --   -0.42953  -0.41966  -0.40636  -0.38179  -0.37285
 Alpha  occ. eigenvalues --   -0.36236
 Alpha virt. eigenvalues --   -0.02647  -0.00326   0.00498   0.01800   0.02292
 Alpha virt. eigenvalues --    0.03134   0.03525   0.04655   0.05952   0.06139
 Alpha virt. eigenvalues --    0.06345   0.07812   0.08513   0.08834   0.10536
 Alpha virt. eigenvalues --    0.10718   0.12212   0.12479   0.12957   0.13207
 Alpha virt. eigenvalues --    0.13689   0.14475   0.15262   0.16675   0.17161
 Alpha virt. eigenvalues --    0.17653   0.18123   0.18615   0.19566   0.20606
 Alpha virt. eigenvalues --    0.21709   0.22296   0.22544   0.23919   0.26066
 Alpha virt. eigenvalues --    0.26405   0.28265   0.28519   0.29388   0.30445
 Alpha virt. eigenvalues --    0.31028   0.31222   0.32266   0.32764   0.33504
 Alpha virt. eigenvalues --    0.35050   0.36724   0.37245   0.39878   0.40402
 Alpha virt. eigenvalues --    0.43058   0.43840   0.46761   0.48051   0.49045
 Alpha virt. eigenvalues --    0.52704   0.54823   0.56047   0.57044   0.59544
 Alpha virt. eigenvalues --    0.61149   0.64198   0.65123   0.67338   0.68409
 Alpha virt. eigenvalues --    0.68833   0.69719   0.70076   0.72373   0.73619
 Alpha virt. eigenvalues --    0.74395   0.78555   0.80417   0.82512   0.85025
 Alpha virt. eigenvalues --    0.88967   0.90865   0.93878   1.02258   1.05746
 Alpha virt. eigenvalues --    1.06399   1.08548   1.10262   1.11214   1.12242
 Alpha virt. eigenvalues --    1.14770   1.16513   1.18350   1.20679   1.21341
 Alpha virt. eigenvalues --    1.23131   1.23584   1.27971   1.30053   1.32332
 Alpha virt. eigenvalues --    1.33631   1.36203   1.38330   1.44135   1.44730
 Alpha virt. eigenvalues --    1.48480   1.49683   1.50398   1.52671   1.57680
 Alpha virt. eigenvalues --    1.59160   1.60552   1.61926   1.63181   1.66194
 Alpha virt. eigenvalues --    1.66966   1.68766   1.71378   1.74113   1.75449
 Alpha virt. eigenvalues --    1.79960   1.84202   1.85543   1.86689   1.91101
 Alpha virt. eigenvalues --    1.94950   1.99248   2.02157   2.06625   2.10269
 Alpha virt. eigenvalues --    2.13073   2.14874   2.19550   2.27835   2.32423
 Alpha virt. eigenvalues --    2.40877   2.45054   2.49877   2.51549   2.53400
 Alpha virt. eigenvalues --    2.58272   2.59762   2.61145   2.62117   2.65473
 Alpha virt. eigenvalues --    2.66218   2.66850   2.67595   2.72870   2.80597
 Alpha virt. eigenvalues --    2.82247   2.86169   2.88788   2.89592   2.96400
 Alpha virt. eigenvalues --    3.00801   3.03404   3.03820   3.06469   3.11301
 Alpha virt. eigenvalues --    3.13162   3.16378   3.17711   3.21406   3.25519
 Alpha virt. eigenvalues --    3.30408   3.34041   3.35511   3.40155   3.43977
 Alpha virt. eigenvalues --    3.55704   3.66395   3.73925   3.81115   3.84767
 Alpha virt. eigenvalues --    3.85760   3.95639   4.07813   4.14995   4.16768
 Alpha virt. eigenvalues --    4.29419   5.07790   5.11626   5.16403   5.23773
 Alpha virt. eigenvalues --    5.31961   5.44930   5.56765   5.73494   5.94578
 Alpha virt. eigenvalues --   23.62176  23.92190  23.94679  24.04579  25.17356
 Alpha virt. eigenvalues --   49.96036  49.98966  50.09718
  Beta  occ. eigenvalues --  -19.69845 -19.65162 -19.64648 -10.72030 -10.61489
  Beta  occ. eigenvalues --  -10.57857 -10.57396 -10.54651  -1.27204  -1.17781
  Beta  occ. eigenvalues --   -1.06539  -0.91374  -0.87858  -0.78527  -0.70430
  Beta  occ. eigenvalues --   -0.66624  -0.61741  -0.60180  -0.59090  -0.54113
  Beta  occ. eigenvalues --   -0.51157  -0.49977  -0.47887  -0.44880  -0.43957
  Beta  occ. eigenvalues --   -0.40660  -0.39920  -0.38725  -0.37910  -0.37229
  Beta virt. eigenvalues --   -0.10239  -0.02499  -0.00262   0.00525   0.01923
  Beta virt. eigenvalues --    0.02540   0.03218   0.03559   0.05047   0.06015
  Beta virt. eigenvalues --    0.06221   0.06448   0.07905   0.08646   0.09002
  Beta virt. eigenvalues --    0.10622   0.11017   0.12282   0.12561   0.13000
  Beta virt. eigenvalues --    0.13357   0.13843   0.14666   0.15503   0.16801
  Beta virt. eigenvalues --    0.17299   0.17796   0.18380   0.18794   0.19728
  Beta virt. eigenvalues --    0.20993   0.21928   0.22025   0.22630   0.24136
  Beta virt. eigenvalues --    0.25889   0.26502   0.28020   0.28491   0.29479
  Beta virt. eigenvalues --    0.30485   0.31272   0.31374   0.32240   0.32861
  Beta virt. eigenvalues --    0.33760   0.35005   0.37116   0.37620   0.40048
  Beta virt. eigenvalues --    0.41412   0.43273   0.43982   0.46854   0.48293
  Beta virt. eigenvalues --    0.49077   0.52778   0.55100   0.56069   0.57074
  Beta virt. eigenvalues --    0.59819   0.61493   0.64417   0.65217   0.67446
  Beta virt. eigenvalues --    0.68684   0.69128   0.69768   0.70156   0.72463
  Beta virt. eigenvalues --    0.73791   0.74443   0.78729   0.80440   0.82850
  Beta virt. eigenvalues --    0.85065   0.88980   0.90994   0.93920   1.02552
  Beta virt. eigenvalues --    1.06053   1.06511   1.09491   1.10437   1.12024
  Beta virt. eigenvalues --    1.13637   1.14928   1.16578   1.18709   1.21229
  Beta virt. eigenvalues --    1.22856   1.23594   1.23786   1.28091   1.30224
  Beta virt. eigenvalues --    1.32425   1.33910   1.36258   1.38440   1.44198
  Beta virt. eigenvalues --    1.45141   1.49264   1.49975   1.50877   1.53904
  Beta virt. eigenvalues --    1.57851   1.59303   1.60573   1.62131   1.63173
  Beta virt. eigenvalues --    1.66239   1.67098   1.68983   1.71430   1.74596
  Beta virt. eigenvalues --    1.75608   1.80261   1.84215   1.86141   1.86697
  Beta virt. eigenvalues --    1.91444   1.95018   1.99211   2.02264   2.06671
  Beta virt. eigenvalues --    2.10721   2.13225   2.15258   2.19451   2.28267
  Beta virt. eigenvalues --    2.32926   2.40943   2.45429   2.49929   2.51570
  Beta virt. eigenvalues --    2.53086   2.58274   2.59878   2.61194   2.62270
  Beta virt. eigenvalues --    2.65470   2.66221   2.66542   2.67798   2.72875
  Beta virt. eigenvalues --    2.80586   2.82278   2.85909   2.88913   2.94427
  Beta virt. eigenvalues --    2.96653   3.01248   3.03425   3.03780   3.06471
  Beta virt. eigenvalues --    3.11618   3.13200   3.19143   3.20492   3.21791
  Beta virt. eigenvalues --    3.26053   3.30635   3.34187   3.36139   3.41202
  Beta virt. eigenvalues --    3.44967   3.55714   3.66418   3.73963   3.82614
  Beta virt. eigenvalues --    3.84877   3.85846   3.97876   4.07931   4.15310
  Beta virt. eigenvalues --    4.16971   4.29720   5.09070   5.12731   5.16617
  Beta virt. eigenvalues --    5.30561   5.32170   5.45053   5.59222   5.73598
  Beta virt. eigenvalues --    5.94606  23.62175  23.92241  23.94734  24.04587
  Beta virt. eigenvalues --   25.17356  49.95539  49.98921  50.09696
          Condensed to atoms (all electrons):
               1          2          3          4          5          6
     1  C    6.573647   0.475435  -1.593650   1.422681  -0.120269  -0.111231
     2  H    0.475435   0.428657  -0.111214   0.034052  -0.002976  -0.005129
     3  C   -1.593650  -0.111214   9.651096  -2.732082   0.163623  -0.170046
     4  C    1.422681   0.034052  -2.732082   7.637030   0.279517   0.050320
     5  O   -0.120269  -0.002976   0.163623   0.279517   8.083115  -0.129468
     6  O   -0.111231  -0.005129  -0.170046   0.050320  -0.129468   8.331760
     7  C    0.051106  -0.001491  -0.408485  -0.093375  -0.018477   0.253229
     8  C    0.028096   0.000236  -0.142263   0.020737   0.013609  -0.158528
     9  H    0.000310   0.000118   0.009316   0.020544  -0.014624  -0.038419
    10  H   -0.001973   0.000149   0.009428  -0.011267   0.003190  -0.037942
    11  H   -0.002112  -0.000120   0.009487  -0.003095  -0.001089  -0.007129
    12  H    0.002511   0.000057  -0.008243   0.005192  -0.001594  -0.014589
    13  H   -0.001096  -0.000030   0.003615  -0.005223   0.001751   0.025796
    14  O    0.003170   0.000130  -0.012348   0.009384  -0.009455   0.009959
    15  H   -0.000315  -0.000114  -0.004945  -0.017905   0.012892  -0.001377
               7          8          9         10         11         12
     1  C    0.051106   0.028096   0.000310  -0.001973  -0.002112   0.002511
     2  H   -0.001491   0.000236   0.000118   0.000149  -0.000120   0.000057
     3  C   -0.408485  -0.142263   0.009316   0.009428   0.009487  -0.008243
     4  C   -0.093375   0.020737   0.020544  -0.011267  -0.003095   0.005192
     5  O   -0.018477   0.013609  -0.014624   0.003190  -0.001089  -0.001594
     6  O    0.253229  -0.158528  -0.038419  -0.037942  -0.007129  -0.014589
     7  C    5.914926  -0.010057   0.407945   0.364621  -0.015559  -0.055971
     8  C   -0.010057   5.797259  -0.095682  -0.112960   0.385564   0.417895
     9  H    0.407945  -0.095682   0.550838  -0.054030   0.006621  -0.011397
    10  H    0.364621  -0.112960  -0.054030   0.615389  -0.020880   0.018528
    11  H   -0.015559   0.385564   0.006621  -0.020880   0.517101  -0.033796
    12  H   -0.055971   0.417895  -0.011397   0.018528  -0.033796   0.531704
    13  H   -0.055544   0.421699  -0.005000  -0.016706  -0.029652  -0.028926
    14  O   -0.004750   0.006366  -0.006199   0.007889  -0.000341  -0.002538
    15  H    0.030484   0.015106  -0.003508  -0.037812   0.001008   0.000050
              13         14         15
     1  C   -0.001096   0.003170  -0.000315
     2  H   -0.000030   0.000130  -0.000114
     3  C    0.003615  -0.012348  -0.004945
     4  C   -0.005223   0.009384  -0.017905
     5  O    0.001751  -0.009455   0.012892
     6  O    0.025796   0.009959  -0.001377
     7  C   -0.055544  -0.004750   0.030484
     8  C    0.421699   0.006366   0.015106
     9  H   -0.005000  -0.006199  -0.003508
    10  H   -0.016706   0.007889  -0.037812
    11  H   -0.029652  -0.000341   0.001008
    12  H   -0.028926  -0.002538   0.000050
    13  H    0.510518   0.001553   0.000532
    14  O    0.001553   8.012295   0.279775
    15  H    0.000532   0.279775   0.464112
          Atomic-Atomic Spin Densities.
               1          2          3          4          5          6
     1  C   -0.009814  -0.001348   0.002577   0.006279   0.000865  -0.001546
     2  H   -0.001348  -0.000278   0.002293  -0.000743   0.000060   0.000001
     3  C    0.002577   0.002293   0.038375  -0.031049  -0.000888   0.002880
     4  C    0.006279  -0.000743  -0.031049   0.023661   0.000369  -0.003484
     5  O    0.000865   0.000060  -0.000888   0.000369   0.007031  -0.000625
     6  O   -0.001546   0.000001   0.002880  -0.003484  -0.000625   0.029713
     7  C    0.002107  -0.000108  -0.014689  -0.002090   0.001778  -0.023104
     8  C    0.001136   0.000041  -0.004246  -0.001923   0.000321  -0.000141
     9  H    0.000136  -0.000020  -0.003257  -0.007814   0.000675   0.002210
    10  H    0.000009   0.000155   0.013934   0.042268  -0.005637  -0.015159
    11  H    0.000037  -0.000011  -0.000854  -0.002239  -0.000020   0.000487
    12  H   -0.000225   0.000009   0.001766   0.003378  -0.000067   0.001726
    13  H    0.000008  -0.000003  -0.000299  -0.000828   0.000017   0.000004
    14  O    0.000082  -0.000071  -0.010684  -0.029742   0.001788   0.014427
    15  H   -0.000064   0.000029   0.003376   0.004494   0.000992  -0.001777
               7          8          9         10         11         12
     1  C    0.002107   0.001136   0.000136   0.000009   0.000037  -0.000225
     2  H   -0.000108   0.000041  -0.000020   0.000155  -0.000011   0.000009
     3  C   -0.014689  -0.004246  -0.003257   0.013934  -0.000854   0.001766
     4  C   -0.002090  -0.001923  -0.007814   0.042268  -0.002239   0.003378
     5  O    0.001778   0.000321   0.000675  -0.005637  -0.000020  -0.000067
     6  O   -0.023104  -0.000141   0.002210  -0.015159   0.000487   0.001726
     7  C    0.274047  -0.007615  -0.012813   0.047646  -0.004877   0.000934
     8  C   -0.007615   0.000882   0.010784  -0.026865   0.007146  -0.007182
     9  H   -0.012813   0.010784  -0.008123   0.012351   0.000509  -0.001166
    10  H    0.047646  -0.026865   0.012351  -0.054894  -0.003227   0.000034
    11  H   -0.004877   0.007146   0.000509  -0.003227   0.004850  -0.003402
    12  H    0.000934  -0.007182  -0.001166   0.000034  -0.003402   0.020478
    13  H   -0.000004   0.002232   0.000710  -0.003625   0.000583  -0.001781
    14  O   -0.042000   0.022129   0.001935  -0.054758   0.002399  -0.001217
    15  H   -0.001377  -0.001984  -0.000865   0.006966  -0.000205   0.000226
              13         14         15
     1  C    0.000008   0.000082  -0.000064
     2  H   -0.000003  -0.000071   0.000029
     3  C   -0.000299  -0.010684   0.003376
     4  C   -0.000828  -0.029742   0.004494
     5  O    0.000017   0.001788   0.000992
     6  O    0.000004   0.014427  -0.001777
     7  C   -0.000004  -0.042000  -0.001377
     8  C    0.002232   0.022129  -0.001984
     9  H    0.000710   0.001935  -0.000865
    10  H   -0.003625  -0.054758   0.006966
    11  H    0.000583   0.002399  -0.000205
    12  H   -0.001781  -0.001217   0.000226
    13  H    0.001209   0.001919  -0.000169
    14  O    0.001919   0.908229   0.005457
    15  H   -0.000169   0.005457  -0.028933
 Mulliken charges and spin densities:
               1          2
     1  C   -0.726310   0.000238
     2  H    0.182243   0.000005
     3  C    1.336712  -0.000768
     4  C   -0.616509   0.000537
     5  O   -0.259744   0.006659
     6  O    0.002795   0.005612
     7  C   -0.358602   0.217835
     8  C   -0.587076  -0.005286
     9  H    0.233167  -0.004748
    10  H    0.274374  -0.040802
    11  H    0.193992   0.001175
    12  H    0.181116   0.013511
    13  H    0.176714  -0.000027
    14  O   -0.294889   0.819893
    15  H    0.262018  -0.013834
 Sum of Mulliken charges =   0.00000   1.00000
 Mulliken charges and spin densities with hydrogens summed into heavy atoms:
               1          2
     1  C   -0.544067   0.000244
     3  C    1.336712  -0.000768
     4  C   -0.616509   0.000537
     5  O   -0.259744   0.006659
     6  O    0.002795   0.005612
     7  C    0.148938   0.172285
     8  C   -0.035253   0.009372
    14  O   -0.032871   0.806058
 APT charges:
               1
     1  C   -0.173614
     2  H    0.237867
     3  C   -0.318032
     4  C    1.471092
     5  O   -0.774822
     6  O   -1.015841
     7  C    0.863386
     8  C   -0.079072
     9  H   -0.075135
    10  H   -0.378777
    11  H    0.027497
    12  H    0.010674
    13  H    0.020325
    14  O   -0.156583
    15  H    0.341036
 Sum of APT charges =   0.00000
 APT charges with hydrogens summed into heavy atoms:
               1
     1  C    0.064253
     3  C   -0.318032
     4  C    1.471092
     5  O   -0.774822
     6  O   -1.015841
     7  C    0.409474
     8  C   -0.020576
    14  O    0.184453
 Electronic spatial extent (au):  <R**2>=           1216.1271
 Charge=              0.0000 electrons
 Dipole moment (field-independent basis, Debye):
    X=              1.1563    Y=             -2.2548    Z=              0.3760  Tot=              2.5617
 Quadrupole moment (field-independent basis, Debye-Ang):
   XX=            -38.2728   YY=            -49.5123   ZZ=            -49.0961
   XY=              1.3008   XZ=             -5.3329   YZ=             -0.2104
 Traceless Quadrupole moment (field-independent basis, Debye-Ang):
   XX=              7.3543   YY=             -3.8853   ZZ=             -3.4690
   XY=              1.3008   XZ=             -5.3329   YZ=             -0.2104
 Octapole moment (field-independent basis, Debye-Ang**2):
  XXX=             48.8358  YYY=             11.2659  ZZZ=              2.8044  XYY=             -4.8817
  XXY=            -23.5536  XXZ=             -7.5429  XZZ=             -3.1842  YZZ=             -2.0027
  YYZ=              0.1367  XYZ=             -2.7537
 Hexadecapole moment (field-independent basis, Debye-Ang**3):
 XXXX=           -832.0189 YYYY=           -376.2986 ZZZZ=           -115.8048 XXXY=            -37.6441
 XXXZ=            -64.2969 YYYX=             -5.4902 YYYZ=             -4.8103 ZZZX=              3.4586
 ZZZY=              1.0355 XXYY=           -265.0540 XXZZ=           -204.3188 YYZZ=            -91.3457
 XXYZ=             16.3982 YYXZ=             -6.4472 ZZXY=              0.0596
 N-N= 3.512983481370D+02 E-N=-1.686926573913D+03  KE= 4.188806024629D+02
  Exact polarizability:  94.238  -7.421  78.266  -4.704  -1.169  53.372
 Approx polarizability:  98.880 -10.693  85.627  -7.947   4.231  64.008
                          Isotropic Fermi Contact Couplings
        Atom                 a.u.       MegaHertz       Gauss      10(-4) cm-1
     1  C(13)             -0.00002      -0.02364      -0.00843      -0.00788
     2  H(1)              -0.00001      -0.03298      -0.01177      -0.01100
     3  C(13)             -0.00077      -0.87003      -0.31045      -0.29021
     4  C(13)              0.00037       0.41999       0.14986       0.14009
     5  O(17)             -0.00073       0.44427       0.15853       0.14819
     6  O(17)             -0.00022       0.13192       0.04707       0.04400
     7  C(13)              0.10415     117.08241      41.77792      39.05449
     8  C(13)             -0.00013      -0.14096      -0.05030      -0.04702
     9  H(1)              -0.00053      -2.37438      -0.84724      -0.79201
    10  H(1)              -0.00864     -38.61946     -13.78038     -12.88207
    11  H(1)               0.00109       4.85511       1.73242       1.61949
    12  H(1)               0.00594      26.53483       9.46829       8.85106
    13  H(1)               0.00025       1.13714       0.40576       0.37931
    14  O(17)              0.12571     -76.20685     -27.19250     -25.41987
    15  H(1)              -0.01389     -62.09649     -22.15757     -20.71316
 --------------------------------------------------------
       Center         ----  Spin Dipole Couplings  ----
                      3XX-RR        3YY-RR        3ZZ-RR
 --------------------------------------------------------
     1   Atom        0.001200      0.000062     -0.001262
     2   Atom        0.000917     -0.000353     -0.000564
     3   Atom        0.002671     -0.001135     -0.001536
     4   Atom        0.007857     -0.001923     -0.005935
     5   Atom       -0.005024     -0.018382      0.023406
     6   Atom       -0.020693      0.040469     -0.019776
     7   Atom       -0.131354      0.172204     -0.040851
     8   Atom       -0.007829      0.018543     -0.010714
     9   Atom       -0.018360     -0.003443      0.021804
    10   Atom       -0.079907      0.128556     -0.048649
    11   Atom       -0.004353      0.005158     -0.000805
    12   Atom       -0.002583      0.005455     -0.002872
    13   Atom        0.002363      0.002481     -0.004844
    14   Atom       -1.458585      2.184642     -0.726056
    15   Atom        0.034642     -0.006738     -0.027904
 --------------------------------------------------------
                        XY            XZ            YZ
 --------------------------------------------------------
     1   Atom       -0.000485     -0.000538     -0.001050
     2   Atom       -0.000446     -0.000117     -0.000027
     3   Atom       -0.001052      0.000346     -0.000039
     4   Atom       -0.001578      0.003010      0.001399
     5   Atom       -0.003534      0.028200     -0.010315
     6   Atom       -0.050165      0.040032     -0.049948
     7   Atom       -0.084420      0.050541     -0.188107
     8   Atom        0.009743      0.000295     -0.000924
     9   Atom       -0.003220      0.000872     -0.002059
    10   Atom       -0.042783      0.021211     -0.095461
    11   Atom        0.002151      0.001990      0.004372
    12   Atom        0.000864      0.000949     -0.001722
    13   Atom        0.005485     -0.000296     -0.001503
    14   Atom       -0.831669      0.397376     -1.861695
    15   Atom        0.072202      0.108842      0.031691
 --------------------------------------------------------


 ---------------------------------------------------------------------------------
              Anisotropic Spin Dipole Couplings in Principal Axis System
 ---------------------------------------------------------------------------------

       Atom             a.u.   MegaHertz   Gauss  10(-4) cm-1        Axes

              Baa    -0.0020    -0.268    -0.096    -0.089  0.2160  0.4833  0.8484
     1 C(13)  Bbb     0.0006     0.082     0.029     0.027  0.2022  0.8279 -0.5231
              Bcc     0.0014     0.187     0.067     0.062  0.9552 -0.2846 -0.0811
 
              Baa    -0.0006    -0.322    -0.115    -0.108  0.1981  0.4468  0.8724
     2 H(1)   Bbb    -0.0005    -0.246    -0.088    -0.082  0.2322  0.8434 -0.4846
              Bcc     0.0011     0.568     0.203     0.190  0.9523 -0.2986 -0.0633
 
              Baa    -0.0016    -0.212    -0.075    -0.071 -0.1397 -0.2486  0.9585
     3 C(13)  Bbb    -0.0014    -0.187    -0.067    -0.062  0.2190  0.9362  0.2748
              Bcc     0.0030     0.398     0.142     0.133  0.9657 -0.2483  0.0764
 
              Baa    -0.0071    -0.956    -0.341    -0.319 -0.2187 -0.3149  0.9236
     4 C(13)  Bbb    -0.0015    -0.203    -0.072    -0.068  0.0516  0.9415  0.3332
              Bcc     0.0086     1.159     0.414     0.387  0.9744 -0.1205  0.1897
 
              Baa    -0.0239     1.730     0.617     0.577  0.6702 -0.5337 -0.5157
     5 O(17)  Bbb    -0.0187     1.354     0.483     0.452  0.5382  0.8280 -0.1576
              Bcc     0.0426    -3.085    -1.101    -1.029  0.5111 -0.1720  0.8421
 
              Baa    -0.0603     4.362     1.556     1.455  0.7201  0.0146 -0.6937
     6 O(17)  Bbb    -0.0414     2.995     1.069     0.999  0.5180  0.6539  0.5515
              Bcc     0.1017    -7.357    -2.625    -2.454 -0.4617  0.7565 -0.4633
 
              Baa    -0.1539   -20.658    -7.371    -6.891  0.9276  0.0251 -0.3727
     7 C(13)  Bbb    -0.1501   -20.147    -7.189    -6.720  0.3016  0.5382  0.7870
              Bcc     0.3041    40.805    14.560    13.611 -0.2204  0.8424 -0.4917
 
              Baa    -0.0115    -1.540    -0.549    -0.514  0.7491 -0.2619 -0.6085
     8 C(13)  Bbb    -0.0103    -1.382    -0.493    -0.461  0.5842 -0.1720  0.7932
              Bcc     0.0218     2.921     1.042     0.975  0.3123  0.9497 -0.0242
 
              Baa    -0.0190   -10.154    -3.623    -3.387  0.9795  0.2009 -0.0108
     9 H(1)   Bbb    -0.0030    -1.586    -0.566    -0.529 -0.1992  0.9760  0.0881
              Bcc     0.0220    11.740     4.189     3.916  0.0282 -0.0842  0.9961
 
              Baa    -0.0919   -49.046   -17.501   -16.360 -0.5703  0.2307  0.7884
    10 H(1)   Bbb    -0.0871   -46.451   -16.575   -15.494  0.8012  0.3679  0.4719
              Bcc     0.1790    95.497    34.076    31.854 -0.1812  0.9008 -0.3946
 
              Baa    -0.0053    -2.801    -1.000    -0.934  0.9227 -0.0293 -0.3843
    11 H(1)   Bbb    -0.0029    -1.528    -0.545    -0.510  0.3148 -0.5180  0.7954
              Bcc     0.0081     4.329     1.545     1.444  0.2223  0.8549  0.4687
 
              Baa    -0.0041    -2.165    -0.773    -0.722 -0.6086  0.1945  0.7692
    12 H(1)   Bbb    -0.0018    -0.956    -0.341    -0.319  0.7895  0.0512  0.6117
              Bcc     0.0058     3.121     1.114     1.041  0.0796  0.9796 -0.1847
 
              Baa    -0.0053    -2.822    -1.007    -0.941 -0.1883  0.3130  0.9309
    13 H(1)   Bbb    -0.0027    -1.465    -0.523    -0.489  0.6945 -0.6278  0.3515
              Bcc     0.0080     4.287     1.530     1.430  0.6944  0.7127 -0.0992
 
              Baa    -1.6435   118.919    42.433    39.667  0.7899  0.3983  0.4662
    14 O(17)  Bbb    -1.6285   117.835    42.046    39.305 -0.5826  0.2504  0.7732
              Bcc     3.2719  -236.754   -84.480   -78.972 -0.1912  0.8824 -0.4299
 
              Baa    -0.1139   -60.772   -21.685   -20.271 -0.6433  0.2162  0.7345
    15 H(1)   Bbb    -0.0397   -21.195    -7.563    -7.070 -0.2070  0.8745 -0.4387
              Bcc     0.1536    81.967    29.248    27.341  0.7371  0.4342  0.5178
 

 ---------------------------------------------------------------------------------

 Calling FoFJK, ICntrl=    100127 FMM=F ISym2X=0 I1Cent= 0 IOpClX= 1 NMat=1 NMatS=1 NMatT=0.
 Full mass-weighted force constant matrix:
 Low frequencies --- -357.6580  -85.4662  -49.4758  -29.3020   -0.0007    0.0004
 Low frequencies ---    0.0008   10.7122   48.8826
 ******    2 imaginary frequencies (negative Signs) ****** 
 Diagonal vibrational polarizability:
       47.6116831      85.7354162      27.3958422
 Harmonic frequencies (cm**-1), IR intensities (KM/Mole), Raman scattering
 activities (A**4/AMU), depolarization ratios for plane and unpolarized
 incident light, reduced masses (AMU), force constants (mDyne/A),
 and normal coordinates:
                      1                      2                      3
                      A                      A                      A
 Frequencies --   -357.6540               -83.8268                45.1025
 Red. masses --      4.5547                 2.4565                 4.0883
 Frc consts  --      0.3433                 0.0102                 0.0049
 IR Inten    --    137.5838                 3.6411                 1.3547
  Atom  AN      X      Y      Z        X      Y      Z        X      Y      Z
     1   6     0.00  -0.01   0.00    -0.04   0.04  -0.07    -0.05   0.12  -0.12
     2   1     0.00  -0.01   0.00    -0.04   0.05  -0.09    -0.06   0.18  -0.20
     3   6     0.00  -0.01   0.00    -0.03   0.03  -0.04    -0.05   0.04  -0.03
     4   6     0.03   0.03   0.01    -0.02   0.02   0.02    -0.04  -0.02   0.06
     5   8     0.04   0.00   0.04     0.00  -0.01   0.08    -0.03  -0.09   0.22
     6   8    -0.04   0.05  -0.02    -0.03   0.02   0.02    -0.05   0.03  -0.06
     7   6     0.02   0.16  -0.11     0.00  -0.06   0.19    -0.06   0.04  -0.12
     8   6    -0.03   0.18  -0.04    -0.03   0.08  -0.07    -0.01  -0.11   0.15
     9   1    -0.07   0.44  -0.17     0.09  -0.36   0.25    -0.08   0.30  -0.17
    10   1     0.08   0.50  -0.35    -0.04   0.09   0.49    -0.09  -0.07  -0.35
    11   1    -0.02   0.07  -0.02    -0.13   0.42  -0.12     0.03  -0.40   0.19
    12   1     0.00   0.23   0.05     0.03  -0.07  -0.39     0.01   0.04   0.42
    13   1    -0.03   0.18  -0.04    -0.01  -0.01   0.09    -0.02  -0.08   0.06
    14   8    -0.01  -0.40   0.12     0.11  -0.11  -0.13     0.24   0.01  -0.12
    15   1    -0.13  -0.14   0.07     0.08   0.04  -0.19     0.14  -0.11   0.11
                      4                      5                      6
                      A                      A                      A
 Frequencies --    106.9362               127.4906               134.5317
 Red. masses --      3.3389                 5.3876                 4.6835
 Frc consts  --      0.0225                 0.0516                 0.0499
 IR Inten    --      3.4265                 3.4447                11.4441
  Atom  AN      X      Y      Z        X      Y      Z        X      Y      Z
     1   6     0.01  -0.12   0.17     0.10   0.25   0.16     0.16   0.18   0.06
     2   1     0.02  -0.23   0.33     0.21   0.46   0.32     0.23   0.37   0.12
     3   6    -0.01   0.02  -0.03    -0.02  -0.01  -0.04     0.08  -0.06  -0.01
     4   6    -0.02   0.07  -0.10    -0.06  -0.07  -0.13     0.05  -0.13  -0.01
     5   8     0.01   0.01   0.04    -0.07  -0.02  -0.24     0.06  -0.19   0.11
     6   8    -0.05   0.15  -0.27    -0.06  -0.11  -0.02     0.01  -0.06  -0.12
     7   6     0.00  -0.01   0.02    -0.04  -0.05   0.03     0.06   0.04   0.01
     8   6     0.04  -0.07   0.11    -0.15   0.03   0.05    -0.13   0.15   0.12
     9   1     0.21  -0.11   0.05     0.02  -0.06   0.03     0.19   0.03   0.02
    10   1    -0.20   0.01   0.18     0.00   0.01   0.06     0.09   0.05   0.06
    11   1    -0.27   0.10   0.06    -0.24   0.05   0.04    -0.30   0.14   0.10
    12   1     0.35  -0.10  -0.12    -0.21   0.00   0.01    -0.20   0.10   0.07
    13   1     0.08  -0.28   0.46    -0.12   0.12   0.12    -0.07   0.29   0.26
    14   8     0.01  -0.03   0.04     0.26  -0.02   0.17    -0.22   0.04  -0.14
    15   1     0.02  -0.06   0.04     0.33  -0.14   0.16    -0.22   0.17  -0.23
                      7                      8                      9
                      A                      A                      A
 Frequencies --    233.6741               261.3566               296.0043
 Red. masses --      1.3094                 4.3721                 3.8662
 Frc consts  --      0.0421                 0.1760                 0.1996
 IR Inten    --      1.0101                 1.7892                 3.5879
  Atom  AN      X      Y      Z        X      Y      Z        X      Y      Z
     1   6     0.00  -0.04   0.05     0.06   0.13   0.04    -0.03   0.05  -0.14
     2   1     0.01  -0.10   0.15     0.15   0.38   0.12    -0.10   0.17  -0.51
     3   6    -0.01   0.06  -0.08    -0.06  -0.21  -0.06     0.07  -0.13   0.37
     4   6    -0.01   0.03  -0.04     0.00  -0.03  -0.01     0.01  -0.01   0.06
     5   8    -0.01  -0.01   0.03     0.28   0.03  -0.01    -0.03   0.05  -0.09
     6   8     0.01   0.02  -0.05    -0.16   0.12   0.05    -0.01   0.08  -0.18
     7   6     0.02  -0.03   0.06    -0.18   0.04   0.06     0.02  -0.04   0.04
     8   6    -0.01   0.01   0.00     0.06  -0.11  -0.07    -0.02   0.00   0.02
     9   1     0.08  -0.13   0.08    -0.22  -0.03   0.08     0.19  -0.20   0.08
    10   1     0.00  -0.01   0.16    -0.28   0.02   0.09    -0.11   0.01   0.24
    11   1     0.42  -0.26   0.07     0.38  -0.15  -0.04     0.17  -0.13   0.05
    12   1    -0.42   0.07   0.35     0.11  -0.03   0.05    -0.25   0.02   0.19
    13   1    -0.07   0.30  -0.49    -0.04  -0.29  -0.35    -0.04   0.18  -0.21
    14   8     0.00  -0.02   0.00    -0.05   0.00   0.00     0.00  -0.02   0.03
    15   1    -0.01   0.02  -0.01     0.08  -0.09  -0.11     0.20  -0.09  -0.20
                     10                     11                     12
                      A                      A                      A
 Frequencies --    378.3272               398.5049               539.6994
 Red. masses --      3.0992                 1.1116                 5.5845
 Frc consts  --      0.2614                 0.1040                 0.9584
 IR Inten    --     26.1651               115.6411                 2.8741
  Atom  AN      X      Y      Z        X      Y      Z        X      Y      Z
     1   6     0.03  -0.02  -0.01     0.00  -0.01   0.00     0.26  -0.10  -0.09
     2   1     0.00  -0.10  -0.04     0.00  -0.05   0.03     0.17  -0.38  -0.20
     3   6     0.06   0.07   0.01     0.01   0.04  -0.02     0.35   0.22   0.04
     4   6     0.05   0.09   0.03     0.01   0.01   0.01     0.06  -0.06  -0.04
     5   8     0.16   0.12   0.03     0.00   0.00   0.03    -0.12  -0.11  -0.03
     6   8     0.05   0.04   0.02     0.01   0.00   0.01    -0.14   0.06   0.04
     7   6    -0.05  -0.16  -0.08    -0.01  -0.01  -0.03    -0.24   0.10   0.10
     8   6    -0.25  -0.09  -0.02    -0.03  -0.01   0.00    -0.06  -0.04  -0.01
     9   1    -0.11  -0.18  -0.08    -0.03   0.02  -0.04    -0.25   0.08   0.10
    10   1    -0.07  -0.22  -0.09    -0.02  -0.01  -0.04    -0.29   0.08   0.07
    11   1    -0.49  -0.12  -0.03    -0.08  -0.03  -0.01     0.14   0.02  -0.01
    12   1    -0.45  -0.15  -0.03    -0.03  -0.01   0.00     0.11   0.00  -0.03
    13   1    -0.16   0.20   0.15    -0.01   0.01   0.03    -0.15  -0.31  -0.16
    14   8     0.00  -0.04  -0.01    -0.03   0.00   0.04     0.00   0.00  -0.01
    15   1    -0.19  -0.10   0.30     0.64  -0.22  -0.72    -0.04  -0.13   0.14
                     13                     14                     15
                      A                      A                      A
 Frequencies --    622.2954               678.1225               739.4275
 Red. masses --      7.3904                 1.0896                 1.3256
 Frc consts  --      1.6862                 0.2952                 0.4270
 IR Inten    --      7.3229                61.3597                39.1806
  Atom  AN      X      Y      Z        X      Y      Z        X      Y      Z
     1   6    -0.24   0.05   0.06     0.02   0.00   0.00    -0.05  -0.13  -0.06
     2   1    -0.42  -0.39  -0.11     0.01  -0.01  -0.01     0.33   0.85   0.37
     3   6    -0.05   0.44   0.20     0.01   0.00   0.00     0.02   0.07   0.03
     4   6    -0.06  -0.17  -0.07     0.00   0.01   0.01     0.00   0.00   0.00
     5   8     0.34  -0.08  -0.08     0.00   0.01   0.00     0.01   0.00   0.00
     6   8    -0.08  -0.19  -0.08    -0.01  -0.01   0.01     0.00   0.00   0.00
     7   6    -0.02   0.03   0.02    -0.01   0.00  -0.04    -0.01   0.00   0.00
     8   6     0.04   0.03   0.01    -0.02  -0.04  -0.01     0.00   0.00   0.00
     9   1     0.07   0.05   0.02    -0.04  -0.16  -0.01     0.00   0.00   0.00
    10   1     0.07   0.08   0.01     0.12   0.24   0.16     0.00   0.01   0.00
    11   1     0.18   0.05   0.02    -0.08  -0.22   0.01     0.01   0.00   0.00
    12   1     0.18   0.07   0.00     0.09   0.07   0.13     0.01   0.00   0.00
    13   1    -0.02  -0.16  -0.08    -0.02  -0.10   0.06    -0.01  -0.01   0.00
    14   8     0.00   0.00   0.00     0.03  -0.01   0.03     0.00   0.00   0.00
    15   1    -0.05   0.12  -0.03    -0.16   0.80  -0.34     0.00   0.01   0.00
                     16                     17                     18
                      A                      A                      A
 Frequencies --    773.5601               786.1868               842.3479
 Red. masses --      1.8360                 2.7389                 1.1953
 Frc consts  --      0.6473                 0.9974                 0.4997
 IR Inten    --      3.0920                76.4065                32.1405
  Atom  AN      X      Y      Z        X      Y      Z        X      Y      Z
     1   6    -0.02   0.07  -0.14    -0.02   0.05  -0.09     0.01   0.00   0.00
     2   1     0.13  -0.41   0.85     0.11  -0.38   0.77     0.01  -0.01   0.02
     3   6     0.02  -0.05   0.11    -0.01   0.03  -0.07     0.00   0.00  -0.02
     4   6    -0.03   0.07  -0.15     0.05  -0.14   0.31     0.00  -0.01   0.06
     5   8     0.01  -0.02   0.05    -0.02   0.03  -0.09     0.00   0.02  -0.01
     6   8     0.01  -0.02   0.03    -0.01   0.03  -0.06     0.00   0.00  -0.05
     7   6     0.00   0.00   0.01     0.00   0.01  -0.03     0.00  -0.01   0.06
     8   6     0.00  -0.01   0.00     0.01   0.01   0.00    -0.03  -0.05   0.04
     9   1    -0.03   0.08  -0.01     0.04  -0.18   0.01     0.08   0.50  -0.04
    10   1     0.04  -0.03  -0.06    -0.07   0.08   0.14     0.04  -0.22  -0.33
    11   1     0.02   0.04   0.00    -0.04  -0.09   0.01     0.20   0.36   0.00
    12   1    -0.02  -0.03  -0.03     0.05   0.07   0.08    -0.18  -0.27  -0.30
    13   1    -0.01  -0.01  -0.02     0.02   0.02   0.05    -0.08  -0.04  -0.20
    14   8     0.00   0.00   0.00     0.00   0.00  -0.01     0.01  -0.01   0.02
    15   1     0.00   0.05  -0.04    -0.01  -0.11   0.09    -0.06   0.35  -0.16
                     19                     20                     21
                      A                      A                      A
 Frequencies --    913.4312               966.4875              1100.3082
 Red. masses --      2.4462                 4.6937                 3.2067
 Frc consts  --      1.2025                 2.5832                 2.2873
 IR Inten    --      5.8894                12.9503               175.9667
  Atom  AN      X      Y      Z        X      Y      Z        X      Y      Z
     1   6     0.04  -0.01  -0.01    -0.16   0.04   0.05    -0.04   0.01   0.01
     2   1     0.05   0.01  -0.01    -0.17   0.05   0.05    -0.05   0.02   0.02
     3   6     0.01  -0.05  -0.02    -0.10   0.00   0.02    -0.03  -0.02   0.00
     4   6    -0.03   0.08   0.04     0.23  -0.04  -0.06     0.08   0.01  -0.01
     5   8     0.01   0.13   0.06    -0.04  -0.17  -0.07    -0.01  -0.01   0.00
     6   8     0.07  -0.19  -0.09     0.23   0.17   0.04     0.20  -0.04  -0.06
     7   6    -0.06   0.05   0.03     0.00   0.14   0.07    -0.32  -0.01   0.00
     8   6    -0.12   0.04   0.01    -0.21  -0.11  -0.04     0.11   0.10   0.05
     9   1     0.16  -0.04   0.05     0.14   0.12   0.08    -0.46  -0.25   0.02
    10   1     0.12   0.16   0.10     0.04   0.22   0.14    -0.41  -0.28  -0.09
    11   1     0.29  -0.03   0.05     0.05  -0.18  -0.02     0.03   0.27   0.03
    12   1     0.39   0.20   0.04     0.10  -0.03  -0.05    -0.03   0.07   0.07
    13   1    -0.29  -0.59  -0.21    -0.35  -0.58  -0.22     0.16   0.32   0.08
    14   8    -0.01   0.01  -0.01     0.00   0.00  -0.01     0.01  -0.03   0.02
    15   1     0.05  -0.21   0.08    -0.01  -0.08   0.06    -0.06   0.23  -0.08
                     22                     23                     24
                      A                      A                      A
 Frequencies --   1154.2688              1158.8329              1284.0109
 Red. masses --      1.5552                 2.2154                 2.6234
 Frc consts  --      1.2208                 1.7529                 2.5483
 IR Inten    --      7.1681                 7.9199               602.2577
  Atom  AN      X      Y      Z        X      Y      Z        X      Y      Z
     1   6     0.00   0.00   0.00     0.00   0.00   0.00    -0.06   0.02   0.02
     2   1     0.00   0.00   0.00     0.00   0.00   0.00    -0.06   0.04   0.02
     3   6     0.00   0.00   0.00     0.00  -0.01   0.00    -0.02  -0.01   0.00
     4   6    -0.01   0.01  -0.01     0.00   0.01   0.01     0.29   0.11   0.00
     5   8     0.00   0.01   0.01     0.00   0.04   0.02    -0.03   0.00   0.00
     6   8     0.01  -0.05   0.04     0.03  -0.08  -0.06    -0.14  -0.08  -0.04
     7   6     0.00   0.13  -0.12    -0.03   0.16   0.17     0.02  -0.04  -0.02
     8   6     0.02  -0.09   0.07     0.05  -0.12  -0.13     0.02  -0.04   0.06
     9   1     0.38  -0.16  -0.05    -0.08   0.31   0.15    -0.64  -0.03  -0.03
    10   1    -0.46   0.28   0.38     0.09   0.14  -0.02     0.37   0.41   0.13
    11   1     0.00   0.26   0.01    -0.53  -0.37  -0.14     0.09   0.17   0.04
    12   1    -0.28  -0.32  -0.22    -0.36  -0.10   0.15    -0.08  -0.17  -0.12
    13   1     0.01   0.15  -0.17     0.20   0.24   0.23     0.03   0.11  -0.05
    14   8     0.00   0.00   0.00     0.00   0.00   0.00    -0.01   0.02  -0.01
    15   1    -0.01  -0.01   0.02     0.01  -0.05   0.03     0.03  -0.12   0.04
                     25                     26                     27
                      A                      A                      A
 Frequencies --   1300.7326              1364.3330              1409.8626
 Red. masses --      1.4469                 1.3222                 1.2344
 Frc consts  --      1.4423                 1.4500                 1.4456
 IR Inten    --    174.8784               127.2754                45.0769
  Atom  AN      X      Y      Z        X      Y      Z        X      Y      Z
     1   6     0.03  -0.01  -0.01     0.00   0.00   0.00     0.01   0.00   0.00
     2   1     0.03  -0.02  -0.01     0.00   0.00   0.00     0.02  -0.01  -0.01
     3   6     0.01   0.00   0.00     0.00   0.00   0.00     0.00   0.00   0.00
     4   6    -0.13  -0.05   0.00     0.01   0.01   0.00    -0.07  -0.01   0.01
     5   8     0.01   0.00   0.00     0.00   0.00   0.00     0.01   0.00   0.00
     6   8     0.06   0.05  -0.01    -0.03  -0.02  -0.01     0.04   0.01  -0.01
     7   6    -0.04   0.04  -0.01     0.10   0.12   0.02     0.05  -0.05  -0.01
     8   6     0.01  -0.05   0.06     0.00   0.03   0.03     0.03   0.08   0.03
     9   1    -0.29  -0.32   0.04    -0.31  -0.57   0.12    -0.52   0.36  -0.10
    10   1     0.74   0.28  -0.08    -0.21  -0.41  -0.38    -0.25   0.15   0.39
    11   1     0.02   0.19   0.03    -0.12  -0.16   0.03    -0.13  -0.28   0.06
    12   1    -0.12  -0.18  -0.12    -0.12  -0.10  -0.15    -0.21  -0.14  -0.22
    13   1    -0.01   0.04  -0.12    -0.11  -0.23  -0.15    -0.08  -0.32  -0.11
    14   8    -0.01   0.00   0.00     0.00  -0.02   0.01     0.00   0.01   0.00
    15   1     0.03  -0.12   0.05    -0.01   0.09  -0.05    -0.01  -0.02   0.02
                     28                     29                     30
                      A                      A                      A
 Frequencies --   1433.2427              1487.9977              1500.0229
 Red. masses --      1.4025                 1.0380                 1.0530
 Frc consts  --      1.6975                 1.3541                 1.3960
 IR Inten    --      9.8508                 9.2645                 8.0219
  Atom  AN      X      Y      Z        X      Y      Z        X      Y      Z
     1   6     0.01   0.00   0.00     0.00   0.00   0.00     0.00   0.00   0.00
     2   1     0.01  -0.01   0.00     0.00   0.00   0.00     0.00   0.00   0.00
     3   6     0.00   0.00   0.00     0.00   0.00   0.00     0.00   0.00   0.00
     4   6    -0.06  -0.01   0.01     0.00   0.00   0.00    -0.01   0.00   0.00
     5   8     0.01   0.00   0.00     0.00   0.00   0.00     0.00   0.00   0.00
     6   8     0.03  -0.01  -0.02     0.00   0.00   0.00     0.00   0.00   0.00
     7   6     0.09   0.05   0.01     0.00   0.01  -0.02     0.04  -0.01  -0.01
     8   6    -0.10  -0.09  -0.02    -0.01   0.01  -0.04     0.03  -0.04  -0.01
     9   1    -0.53   0.05   0.00    -0.02  -0.07  -0.01    -0.15   0.03  -0.02
    10   1    -0.29  -0.02   0.14     0.00   0.03  -0.01    -0.07  -0.02   0.05
    11   1     0.38   0.19  -0.02     0.48   0.11  -0.01    -0.32   0.58  -0.11
    12   1     0.39   0.11   0.06    -0.49  -0.06   0.13    -0.14   0.23   0.56
    13   1     0.07   0.43   0.18     0.07  -0.34   0.61    -0.08  -0.28  -0.21
    14   8     0.00   0.00   0.00     0.00   0.00   0.00     0.00   0.00   0.00
    15   1    -0.01   0.02  -0.01     0.00   0.00   0.00     0.00   0.01   0.00
                     31                     32                     33
                      A                      A                      A
 Frequencies --   1811.0624              2038.0426              2267.4452
 Red. masses --      9.2966                 1.1708                 5.6995
 Frc consts  --     17.9656                 2.8652                17.2647
 IR Inten    --    185.5852              1370.3045                80.8071
  Atom  AN      X      Y      Z        X      Y      Z        X      Y      Z
     1   6     0.06  -0.02  -0.02     0.00   0.00   0.00    -0.35   0.09   0.10
     2   1     0.10   0.00  -0.02     0.00   0.00   0.00    -0.71   0.19   0.20
     3   6    -0.03   0.00   0.00     0.00   0.00   0.00     0.49  -0.13  -0.14
     4   6    -0.18   0.59   0.29    -0.01  -0.05  -0.02    -0.08   0.03   0.03
     5   8     0.11  -0.39  -0.19    -0.01   0.02   0.01     0.00  -0.01   0.00
     6   8     0.01  -0.05  -0.02     0.02   0.00   0.00     0.00   0.00   0.00
     7   6    -0.02  -0.02   0.04     0.02  -0.08   0.05     0.00   0.00   0.00
     8   6     0.01  -0.01   0.00     0.00   0.00   0.00     0.00   0.00   0.00
     9   1     0.14  -0.11   0.08     0.01  -0.14   0.07     0.00   0.00   0.00
    10   1    -0.15   0.35  -0.35    -0.39   0.70  -0.56    -0.01   0.02  -0.01
    11   1    -0.03  -0.02   0.00    -0.01   0.01   0.01     0.00   0.00   0.00
    12   1    -0.02  -0.03  -0.01     0.00  -0.02   0.01     0.00   0.00   0.00
    13   1     0.02   0.03   0.00     0.00  -0.01  -0.02     0.00   0.00   0.00
    14   8     0.00   0.02  -0.01     0.00   0.03  -0.01     0.00   0.00   0.00
    15   1     0.01  -0.06  -0.02    -0.01  -0.01  -0.01     0.00  -0.01   0.00
                     34                     35                     36
                      A                      A                      A
 Frequencies --   3061.8042              3107.6932              3140.7501
 Red. masses --      1.0364                 1.0855                 1.1017
 Frc consts  --      5.7245                 6.1769                 6.4028
 IR Inten    --      7.5560                 6.9588                 8.7708
  Atom  AN      X      Y      Z        X      Y      Z        X      Y      Z
     1   6     0.00   0.00   0.00     0.00   0.00   0.00     0.00   0.00   0.00
     2   1     0.00   0.00   0.00     0.00   0.00   0.00     0.00   0.00   0.00
     3   6     0.00   0.00   0.00     0.00   0.00   0.00     0.00   0.00   0.00
     4   6     0.00   0.00   0.00     0.00   0.00   0.00     0.00   0.00   0.00
     5   8     0.00   0.00   0.00     0.00   0.00   0.00     0.00   0.00   0.00
     6   8     0.00   0.00   0.00     0.00   0.00   0.00     0.00   0.00   0.00
     7   6     0.00   0.00   0.00     0.00  -0.01  -0.08     0.00   0.00   0.02
     8   6    -0.02  -0.05  -0.01     0.00   0.00   0.02     0.04  -0.05   0.06
     9   1     0.00   0.00   0.01    -0.03   0.17   0.96     0.00  -0.03  -0.17
    10   1     0.00   0.01   0.00     0.00  -0.01  -0.01     0.00   0.02  -0.01
    11   1    -0.04   0.06   0.53     0.02  -0.02  -0.18     0.05  -0.08  -0.55
    12   1    -0.19   0.58  -0.32    -0.03   0.10  -0.05    -0.18   0.60  -0.31
    13   1     0.46  -0.10  -0.11     0.03  -0.01  -0.01    -0.38   0.07   0.10
    14   8     0.00   0.00   0.00     0.00   0.00   0.00     0.00   0.00   0.00
    15   1     0.00   0.00   0.00     0.00   0.00   0.00     0.00   0.00   0.00
                     37                     38                     39
                      A                      A                      A
 Frequencies --   3157.0396              3474.5232              3735.6586
 Red. masses --      1.1023                 1.1731                 1.0668
 Frc consts  --      6.4733                 8.3441                 8.7714
 IR Inten    --      8.0101                63.5835                61.5861
  Atom  AN      X      Y      Z        X      Y      Z        X      Y      Z
     1   6     0.00   0.00   0.00    -0.11   0.03   0.03     0.00   0.00   0.00
     2   1     0.00   0.00   0.00     0.92  -0.25  -0.26     0.00   0.00   0.00
     3   6     0.00   0.00   0.00     0.03  -0.01  -0.01     0.00   0.00   0.00
     4   6     0.00   0.00   0.00     0.00   0.00   0.00     0.00   0.00   0.00
     5   8     0.00   0.00   0.00     0.00   0.00   0.00     0.00   0.00   0.00
     6   8     0.00   0.00   0.00     0.00   0.00   0.00     0.00   0.00   0.00
     7   6     0.00   0.00  -0.01     0.00   0.00   0.00     0.00   0.00   0.00
     8   6     0.07  -0.02  -0.06     0.00   0.00   0.00     0.00   0.00   0.00
     9   1     0.00   0.03   0.14     0.00   0.00   0.00     0.00   0.00   0.00
    10   1     0.00   0.00   0.00     0.00   0.00   0.00     0.01  -0.02   0.01
    11   1    -0.03   0.07   0.60     0.00   0.00   0.00     0.00   0.00   0.00
    12   1    -0.01   0.06  -0.05     0.00   0.00   0.00     0.00   0.00   0.00
    13   1    -0.74   0.16   0.17     0.00   0.00   0.00     0.00   0.00   0.00
    14   8     0.00   0.00   0.00     0.00   0.00   0.00     0.05   0.03   0.03
    15   1     0.00   0.00   0.00     0.00   0.00   0.00    -0.74  -0.41  -0.53

 -------------------
 - Thermochemistry -
 -------------------
 Temperature   298.150 Kelvin.  Pressure   1.00000 Atm.
 Atom     1 has atomic number  6 and mass  12.00000
 Atom     2 has atomic number  1 and mass   1.00783
 Atom     3 has atomic number  6 and mass  12.00000
 Atom     4 has atomic number  6 and mass  12.00000
 Atom     5 has atomic number  8 and mass  15.99491
 Atom     6 has atomic number  8 and mass  15.99491
 Atom     7 has atomic number  6 and mass  12.00000
 Atom     8 has atomic number  6 and mass  12.00000
 Atom     9 has atomic number  1 and mass   1.00783
 Atom    10 has atomic number  1 and mass   1.00783
 Atom    11 has atomic number  1 and mass   1.00783
 Atom    12 has atomic number  1 and mass   1.00783
 Atom    13 has atomic number  1 and mass   1.00783
 Atom    14 has atomic number  8 and mass  15.99491
 Atom    15 has atomic number  1 and mass   1.00783
 Molecular mass:   115.03952 amu.
 Principal axes and moments of inertia in atomic units:
                           1         2         3
     Eigenvalues --   602.439971487.987871900.00022
           X            0.99955   0.02849  -0.00912
           Y           -0.02846   0.99959   0.00389
           Z            0.00923  -0.00363   0.99995
 This molecule is an asymmetric top.
 Rotational symmetry number  1.
 Warning -- assumption of classical behavior for rotation
           may cause significant error
 Rotational temperatures (Kelvin)      0.14377     0.05821     0.04559
 Rotational constants (GHZ):           2.99572     1.21287     0.94986
    2 imaginary frequencies ignored.
 Zero-point vibrational energy     286093.6 (Joules/Mol)
                                   68.37802 (Kcal/Mol)
 Warning -- explicit consideration of  10 degrees of freedom as
           vibrations may cause significant error
 Vibrational temperatures:     64.89   153.86   183.43   193.56   336.20
          (Kelvin)            376.03   425.88   544.33   573.36   776.51
                              895.34   975.67  1063.87  1112.98  1131.15
                             1211.95  1314.22  1390.56  1583.10  1660.73
                             1667.30  1847.40  1871.46  1962.97  2028.48
                             2062.11  2140.89  2158.20  2605.71  2932.29
                             3262.34  4405.25  4471.27  4518.83  4542.27
                             4999.06  5374.77
 
 Zero-point correction=                           0.108967 (Hartree/Particle)
 Thermal correction to Energy=                    0.117783
 Thermal correction to Enthalpy=                  0.118728
 Thermal correction to Gibbs Free Energy=         0.073904
 Sum of electronic and zero-point Energies=           -419.3555105
 Sum of electronic and thermal Energies=              -420.087196
 Sum of electronic and thermal Enthalpies=            -420.086251
 Sum of electronic and thermal Free Energies=         -420.131075
 
                     E (Thermal)             CV                S
                      KCal/Mol        Cal/Mol-Kelvin    Cal/Mol-Kelvin
 Total                   73.910             30.120             94.340
 Electronic               0.000              0.000              1.377
 Translational            0.889              2.981             40.136
 Rotational               0.889              2.981             28.923
 Vibrational             72.133             24.158             23.904
 Vibration     1          0.595              1.979              5.021
 Vibration     2          0.606              1.944              3.324
 Vibration     3          0.611              1.926              2.984
 Vibration     4          0.613              1.919              2.880
 Vibration     5          0.654              1.789              1.851
 Vibration     6          0.669              1.743              1.653
 Vibration     7          0.690              1.681              1.439
 Vibration     8          0.749              1.516              1.046
 Vibration     9          0.765              1.473              0.968
 Vibration    10          0.895              1.162              0.566
                       Q            Log10(Q)             Ln(Q)
 Total Bot       0.101566D-33        -33.993252        -78.272355
 Total V=0       0.134314D+17         16.128122         37.136372
 Vib (Bot)       0.224136D-47        -47.649488       -109.717000
 Vib (Bot)    1  0.458547D+01          0.661384          1.522893
 Vib (Bot)    2  0.191650D+01          0.282509          0.650501
 Vib (Bot)    3  0.160006D+01          0.204136          0.470040
 Vib (Bot)    4  0.151362D+01          0.180017          0.414505
 Vib (Bot)    5  0.841513D+00         -0.074939         -0.172554
 Vib (Bot)    6  0.742671D+00         -0.129204         -0.297503
 Vib (Bot)    7  0.643917D+00         -0.191170         -0.440185
 Vib (Bot)    8  0.478466D+00         -0.320149         -0.737169
 Vib (Bot)    9  0.447752D+00         -0.348963         -0.803517
 Vib (Bot)   10  0.293645D+00         -0.532177         -1.225384
 Vib (V=0)       0.296405D+03          2.471886          5.691728
 Vib (V=0)    1  0.511265D+01          0.708646          1.631718
 Vib (V=0)    2  0.248065D+01          0.394565          0.908520
 Vib (V=0)    3  0.217636D+01          0.337731          0.777654
 Vib (V=0)    4  0.209407D+01          0.320991          0.739108
 Vib (V=0)    5  0.147885D+01          0.169924          0.391264
 Vib (V=0)    6  0.139530D+01          0.144667          0.333108
 Vib (V=0)    7  0.131525D+01          0.119008          0.274025
 Vib (V=0)    8  0.119205D+01          0.076294          0.175673
 Vib (V=0)    9  0.117118D+01          0.068623          0.158011
 Vib (V=0)   10  0.107985D+01          0.033364          0.076823
 Electronic      0.200000D+01          0.301030          0.693147
 Translational   0.484982D+08          7.685726         17.697038
 Rotational      0.467175D+06          5.669480         13.054460
 ***** Axes restored to original set *****
 -------------------------------------------------------------------
 Center     Atomic                   Forces (Hartrees/Bohr)
 Number     Number              X              Y              Z
 -------------------------------------------------------------------
      1        6           0.000034800    0.000039729   -0.000014906
      2        1          -0.000000717   -0.000005043   -0.000001001
      3        6           0.000076749    0.000181522    0.000046290
      4        6          -0.000369474   -0.000389696   -0.000172484
      5        8          -0.000561175    0.000048083   -0.000573856
      6        8           0.001269188   -0.001129834    0.000316615
      7        6          -0.000205048   -0.003178843    0.002065198
      8        6           0.000296101   -0.002807807    0.000710782
      9        1           0.000111644   -0.000657067    0.000225088
     10        1          -0.000234209   -0.000543544    0.000294160
     11        1           0.000007066   -0.000066497    0.000030202
     12        1          -0.000107808   -0.000332459   -0.000075169
     13        1           0.000029629   -0.000154956    0.000033816
     14        8          -0.000467583    0.008901792   -0.002806467
     15        1           0.000120837    0.000094621   -0.000078268
 -------------------------------------------------------------------
 Cartesian Forces:  Max     0.008901792 RMS     0.001600989

 GradGradGradGradGradGradGradGradGradGradGradGradGradGradGradGradGradGrad
 Berny optimization.
 Search for a local minimum.
 Step number   1 out of a maximum of    2
 All quantities printed in internal units (Hartrees-Bohrs-Radians)
 Second derivative matrix not updated -- analytic derivatives used.
 ITU=  0
     Eigenvalues ---   -0.03725  -0.00126   0.00043   0.00136   0.00252
     Eigenvalues ---    0.00427   0.00552   0.00861   0.01236   0.02067
     Eigenvalues ---    0.02336   0.02856   0.03850   0.05270   0.06237
     Eigenvalues ---    0.07392   0.08244   0.08996   0.09156   0.10915
     Eigenvalues ---    0.11251   0.13116   0.14729   0.17799   0.19658
     Eigenvalues ---    0.28458   0.29908   0.42144   0.48130   0.58620
     Eigenvalues ---    0.67482   0.72471   0.79368   0.80184   0.89216
     Eigenvalues ---    0.90329   0.93110   1.68881   2.73317
 Eigenvalue     1 is  -3.73D-02 should be greater than     0.000000 Eigenvector:
                          Y14       Y10       Y9        Z14       Y8
   1                    0.70300  -0.49011  -0.18832  -0.18765  -0.16552
                          Y12       Y15       Z10       Y13       Y6
   1                   -0.15871   0.15744   0.13800  -0.12422  -0.10961
 Eigenvalue     2 is  -1.26D-03 should be greater than     0.000000 Eigenvector:
                          Z10       Z14       X14       Y9        Y11
   1                    0.39754  -0.35605   0.34064  -0.26844   0.26243
                          Z15       Z9        Z5        Z12       Z2
   1                   -0.23438   0.22901   0.22264  -0.22113  -0.19098
 Quadratic step=5.563D-01 exceeds max=3.000D-01 adjusted using Lamda=-8.802D-04.
 Angle between NR and scaled steps=  28.65 degrees.
 Angle between quadratic step and forces=  47.09 degrees.
 Linear search not attempted -- first point.
 TrRot= -0.002245  0.004685 -0.002630  1.609350  0.002043 -1.609706
 Variable       Old X    -DE/DX   Delta X   Delta X   Delta X     New X
                                 (Linear)    (Quad)   (Total)
    X1        6.19520   0.00003   0.00000   0.02159   0.01905   6.21426
    Y1       -0.98953   0.00004   0.00000  -0.01292  -0.01214  -1.00167
    Z1       -0.83356  -0.00001   0.00000   0.00641   0.00632  -0.82724
    X2        8.07208   0.00000   0.00000   0.01953   0.01685   8.08894
    Y2       -1.49477  -0.00001   0.00000  -0.01809  -0.01905  -1.51382
    Z2       -1.35542   0.00000   0.00000   0.00439   0.00550  -1.34992
    X3        4.08383   0.00008   0.00000   0.02320   0.02082   4.10465
    Y3       -0.42395   0.00018   0.00000  -0.01199  -0.00925  -0.43319
    Z3       -0.24615   0.00005   0.00000   0.01195   0.01054  -0.23561
    X4        1.55324  -0.00037   0.00000   0.01252   0.01035   1.56359
    Y4        0.34732  -0.00039   0.00000  -0.02733  -0.02221   0.32511
    Z4        0.48999  -0.00017   0.00000   0.00059  -0.00257   0.48742
    X5        1.06657  -0.00056   0.00000  -0.00874  -0.01026   1.05631
    Y5        2.34719   0.00005   0.00000  -0.00584   0.00133   2.34853
    Z5        1.45453  -0.00057   0.00000  -0.04614  -0.05347   1.40107
    X6       -0.13617   0.00127   0.00000   0.03834   0.03556  -0.10061
    Y6       -1.44280  -0.00113   0.00000  -0.05380  -0.04905  -1.49185
    Z6       -0.03536   0.00032   0.00000   0.04675   0.04717   0.01181
    X7       -2.68549  -0.00021   0.00000   0.01466   0.01202  -2.67347
    Y7       -0.92732  -0.00318   0.00000  -0.02543  -0.01834  -0.94566
    Z7        0.68354   0.00207   0.00000   0.02516   0.02426   0.70781
    X8       -4.33411   0.00030   0.00000   0.01200   0.00866  -4.32544
    Y8       -3.07900  -0.00281   0.00000  -0.01713  -0.01123  -3.09023
    Z8       -0.16559   0.00071   0.00000   0.00018   0.00352  -0.16206
    X9       -2.76792   0.00011   0.00000   0.01872   0.01605  -2.75187
    Y9       -0.53130  -0.00066   0.00000  -0.05260  -0.04135  -0.57265
    Z9        2.70684   0.00023   0.00000   0.03050   0.02883   2.73568
   X10       -3.32495  -0.00023   0.00000   0.05294   0.05098  -3.27397
   Y10        0.83049  -0.00054   0.00000  -0.09086  -0.08554   0.74495
   Z10       -0.32475   0.00029   0.00000   0.06179   0.05739  -0.26736
   X11       -4.18478   0.00001   0.00000   0.00878   0.00554  -4.17925
   Y11       -3.33353  -0.00007   0.00000   0.03679   0.03846  -3.29508
   Z11       -2.20504   0.00003   0.00000  -0.00823  -0.00446  -2.20950
   X12       -3.78805  -0.00011   0.00000  -0.01166  -0.01570  -3.80375
   Y12       -4.83593  -0.00033   0.00000  -0.03243  -0.02488  -4.86081
   Z12        0.76776  -0.00008   0.00000  -0.03165  -0.02464   0.74312
   X13       -6.29647   0.00003   0.00000   0.01517   0.01196  -6.28451
   Y13       -2.65863  -0.00015   0.00000   0.01499   0.02253  -2.63610
   Z13        0.30506   0.00003   0.00000  -0.00621  -0.00394   0.30112
   X14       -3.62455  -0.00047   0.00000  -0.11626  -0.11712  -3.74167
   Y14        3.39723   0.00890   0.00000   0.17518   0.17836   3.57560
   Z14       -1.33603  -0.00281   0.00000  -0.04810  -0.05832  -1.39435
   X15       -2.25542   0.00012   0.00000  -0.06404  -0.06476  -2.32018
   Y15        4.14693   0.00009   0.00000   0.04762   0.05234   4.19928
   Z15       -0.35827  -0.00008   0.00000  -0.02476  -0.03614  -0.39441
         Item               Value     Threshold  Converged?
 Maximum Force            0.008902     0.000450     NO 
 RMS     Force            0.001601     0.000300     NO 
 Maximum Displacement     0.178364     0.001800     NO 
 RMS     Displacement     0.044586     0.001200     NO 
 Predicted change in Energy=-3.013377D-03
 GradGradGradGradGradGradGradGradGradGradGradGradGradGradGradGradGradGrad

 1|1|UNPC-DIT|Freq|UM062X|6-311++G(d,p)|C5H7O3(2)|NDITM|27-Mar-2025|0||
 # freq 6-311++g(d,p) m062x||Title Card Required||0,2|C,3.27836,-0.5236
 36,-0.441099|H,4.271563,-0.791,-0.717255|C,2.16107,-0.224343,-0.130255
 |C,0.821939,0.183792,0.259294|O,0.564404,1.242082,0.769705|O,-0.072056
 ,-0.763496,-0.018714|C,-1.421099,-0.490718,0.361716|C,-2.29351,-1.6293
 38,-0.087624|H,-1.464721,-0.281153,1.4324|H,-1.759489,0.439478,-0.1718
 49|H,-2.214492,-1.764029,-1.166858|H,-2.004548,-2.559066,0.40628|H,-3.
 331951,-1.406888,0.161429|O,-1.918027,1.797739,-0.706998|H,-1.193518,2
 .194461,-0.18959||Version=IA32W-G09RevD.01|State=2-A|HF=-420.2049789|S
 2=0.7567|S2-1=0.|S2A=0.750027|RMSD=5.708e-009|RMSF=1.601e-003|ZeroPoin
 t=0.1089673|Thermal=0.1177833|Dipole=0.4549508,-0.8863678,0.1520751|Di
 poleDeriv=-0.2348076,0.0144143,0.0101588,0.0138669,-0.1487288,-0.00595
 59,0.0189928,-0.0094802,-0.137306,0.2770915,-0.0110291,-0.0126445,-0.0
 116166,0.2245458,0.0103984,-0.0168206,0.0101165,0.2119632,-0.658427,0.
 1372994,0.1227719,0.116067,-0.1559369,-0.0478287,0.1490637,-0.0403125,
 -0.1397322,2.3312576,-0.0789379,-0.1516542,0.5099262,1.3979468,0.55825
 67,-0.0497753,0.4373598,0.6840714,-0.8435106,0.1856224,0.1347684,-0.02
 69878,-0.9474404,-0.3472147,0.0100539,-0.3068403,-0.533516,-1.8917831,
 -0.0988701,-0.1447291,-0.5380395,-0.8114115,-0.1471057,-0.017265,-0.13
 43652,-0.3443289,1.1626631,-0.2943459,0.1513239,-0.1658013,1.026117,-0
 .2615827,-0.0390093,-0.2789646,0.4013774,-0.0663197,0.0461277,-0.04154
 76,-0.0416734,-0.1604295,0.0227436,-0.0344616,0.0898648,-0.0104667,-0.
 0542448,-0.0172551,-0.0550966,0.0395363,-0.092482,0.0234431,0.015453,0
 .0128011,-0.0786785,-0.0421194,0.1663955,-0.0718876,0.2968739,-0.98354
 81,0.4011424,-0.1042843,0.4823138,-0.1106633,0.083575,-0.007503,0.0345
 711,-0.0272816,0.0642895,-0.000662,-0.003647,-0.0367972,-0.0653739,0.0
 665942,0.0005181,-0.0220511,0.0007051,-0.0829653,0.0580995,-0.0341364,
 0.0293255,0.0483931,-0.0699848,0.0003566,0.03192,0.0308544,0.0545685,-
 0.0223145,0.0365788,-0.021208,0.0763925,-0.3733514,-0.0276852,0.088120
 8,-0.0678358,0.1707813,-0.1790013,0.0903402,-0.2239001,-0.267179,0.313
 3668,-0.0151076,-0.0740243,-0.1285938,0.4446936,-0.0624182,-0.0210831,
 -0.0099135,0.2650468|Polar=94.2361074,-7.4434168,78.2543683,-4.6762665
 ,-1.2859633,53.3854819|PG=C01 [X(C5H7O3)]|NImag=2||1.36762971,-0.35452
 872,0.15283937,-0.36670588,0.09816809,0.16260157,-0.36835356,0.0927396
 8,0.09528618,0.35854139,0.09272751,-0.05243916,-0.02472782,-0.09278518
 ,0.04186597,0.09519164,-0.02466492,-0.05616736,-0.09566586,0.02529985,
 0.04459167,-0.99919903,0.25973877,0.27007334,0.00944703,-0.00165139,-0
 .00089540,1.30812811,0.26123659,-0.10445270,-0.07382069,-0.00141293,0.
 00545820,-0.00075326,-0.32206611,0.19125124,0.27064210,-0.07370922,-0.
 10918952,-0.00088324,-0.00061706,0.00742978,-0.34198001,0.10941711,0.1
 6307131,0.00698084,0.00032138,-0.00073448,-0.00073653,0.00200644,0.001
 94913,-0.24559952,0.05191411,0.05058438,0.64858255,0.00069536,0.002407
 86,0.00007859,0.00122485,0.00524800,-0.00055656,0.04219968,-0.07296148
 ,-0.00669482,-0.08181362,0.83323537,-0.00036772,0.00022527,0.00198272,
 0.00160193,-0.00070168,0.00553056,0.04562352,-0.00859940,-0.08296612,-
 0.10676088,0.28630454,0.35445909,-0.00352825,0.00035812,0.00076365,0.0
 0009167,-0.00141449,-0.00077276,-0.01355453,0.04205760,0.02392875,-0.1
 4817344,0.13576757,0.07003092,0.14419848,-0.00092010,0.00148308,0.0006
 4405,0.00005123,0.00031587,0.00060023,0.03509571,-0.02615770,-0.026665
 53,0.13145299,-0.58342016,-0.24237929,-0.13582981,0.69488149,0.0000796
 2,0.00037759,0.00062470,-0.00014228,0.00079963,-0.00067594,0.02097444,
 -0.02683473,0.00584243,0.06806461,-0.24631116,-0.20008496,-0.07346899,
 0.31413223,0.18814144,-0.00425907,0.00155500,0.00142355,0.00129415,0.0
 0092726,0.00011570,-0.06089173,-0.02882529,-0.00136308,-0.20129882,-0.
 08987573,-0.01758751,0.02246461,-0.04401873,-0.01569196,0.50654868,0.0
 0152151,-0.00035928,-0.00067567,0.00008116,-0.00054910,-0.00007103,-0.
 00946945,0.00861879,0.00051214,-0.07519956,-0.19167032,-0.04229222,-0.
 03701717,-0.08448317,-0.04489178,0.09828552,0.35880916,0.00160267,-0.0
 0066498,-0.00003065,-0.00022841,-0.00024075,-0.00048924,0.00721004,0.0
 0367258,0.01183052,-0.01012291,-0.03778958,-0.08576373,-0.01417279,-0.
 04536684,0.01368801,-0.03533128,0.11290563,0.13995209,0.00143494,-0.00
 033884,-0.00039865,-0.00047806,0.00007765,0.00006904,0.00442745,-0.001
 20452,-0.00019867,-0.06400375,-0.03696919,-0.00564322,-0.00097833,0.02
 447762,0.00792833,-0.16710953,0.02955763,0.03467560,0.44459866,-0.0007
 8449,0.00045111,0.00035679,0.00019159,0.00016870,0.00016790,-0.0052682
 3,-0.00232068,-0.00281480,-0.02073793,0.02276625,0.01310489,-0.0013597
 8,-0.01144504,0.00076447,0.03064624,-0.09596300,-0.02591327,0.03746200
 ,0.49815983,-0.00049074,0.00032053,0.00013171,0.00000216,0.00018707,-0
 .00024164,-0.00125048,-0.00327052,0.00489736,-0.00605621,0.00408278,0.
 00447947,-0.00344338,0.00006986,-0.00668246,0.05287011,-0.02239292,-0.
 08630417,0.01432175,0.03505921,0.58785616,-0.00041424,0.00017808,0.000
 12332,0.00008379,0.00006933,0.00001630,-0.00157271,-0.00122785,-0.0001
 9868,-0.00264226,0.00759968,0.00383215,0.00232241,-0.00302454,-0.00133
 995,-0.04394048,-0.03367571,-0.00860190,-0.11045672,-0.05966391,-0.021
 96280,0.55982280,0.00026552,-0.00014185,-0.00011753,-0.00004687,-0.000
 02986,0.00000735,0.00067628,0.00069703,0.00013329,0.00129503,-0.004992
 86,-0.00227926,-0.00182228,0.00256494,0.00054213,0.00812960,0.01023704
 ,0.00352696,-0.07614986,-0.16925630,-0.04283078,-0.03412862,0.53769215
 ,0.00012734,-0.00009616,-0.00001986,-0.00000997,-0.00000991,-0.0000147
 5,0.00038664,0.00041737,0.00000763,0.00282092,-0.00097613,-0.00072398,
 -0.00061147,-0.00037438,0.00130778,0.00793256,0.00976520,0.00446717,-0
 .02737771,-0.04511906,-0.09769227,-0.01893080,-0.01238796,0.57543107,-
 0.00015159,0.00000373,0.00003364,0.00007268,-0.00001919,0.00005844,-0.
 00074406,0.00035071,-0.00107967,0.00343835,0.00777960,0.00486377,0.000
 76567,-0.00340545,-0.00152858,-0.02116054,0.00440155,0.03900592,-0.047
 80488,-0.00194993,-0.00414781,0.00249988,-0.00129912,-0.01941224,0.062
 52596,0.00009089,-0.00001172,0.00003262,-0.00002711,-0.00000443,0.0000
 0404,0.00047548,-0.00000936,-0.00022877,-0.00313961,-0.00088056,0.0006
 2174,0.00067392,0.00089748,-0.00015368,0.00814316,-0.00071193,-0.00897
 928,-0.00438132,-0.05020274,-0.04513489,0.00086639,-0.00332716,-0.0247
 5279,-0.00154999,0.05577529,-0.00008645,0.00002042,0.00006443,-0.00000
 391,-0.00001904,0.00001054,0.00027913,0.00031289,-0.00034268,-0.001479
 82,-0.00374403,-0.00083668,-0.00137948,0.00100490,0.00120531,0.0094770
 9,-0.00090312,-0.00390868,0.00670171,-0.04885882,-0.31073706,-0.000832
 23,0.00060316,-0.00412500,-0.01039413,0.05422807,0.33122884,-0.0001141
 9,-0.00007164,0.00016881,0.00005524,0.00006270,-0.00008698,-0.00056438
 ,-0.00049002,0.00050754,0.00392074,0.01028725,0.00302987,0.00158675,-0
 .00418048,-0.00161602,-0.03353936,0.02524873,-0.01142572,-0.04604141,0
 .02915980,-0.01935318,0.00406130,-0.01428111,0.00659818,0.00180462,0.0
 0123047,-0.00115487,0.07059008,0.00030116,0.00005570,-0.00009587,-0.00
 017777,-0.00006090,0.00001350,0.00184080,0.00042838,0.00025726,-0.0130
 7846,-0.01635989,-0.00621099,-0.00234539,0.00958974,0.00122115,0.03358
 647,-0.00403166,0.00107194,0.00748946,-0.09872233,0.04919595,0.0074875
 6,-0.03310382,0.01711739,-0.00000389,-0.00607256,-0.00021343,-0.023841
 06,0.09383093,-0.00001824,-0.00008098,0.00003819,0.00006937,0.00004165
 ,0.00001879,-0.00059685,-0.00018125,-0.00061971,0.00408181,0.00791763,
 0.00379161,0.00238865,-0.00411903,-0.00063079,-0.00463088,-0.01002677,
 0.00501477,-0.01364893,0.05386059,-0.07932564,-0.00021746,-0.00366999,
 0.00129843,-0.00828692,0.02659615,-0.01488675,0.01985640,-0.03673077,0
 .07269292,0.00002215,0.00001126,0.00001776,-0.00002159,-0.00000669,-0.
 00000681,0.00009890,0.00003315,0.00002548,-0.00033345,-0.00131303,-0.0
 0046803,-0.00044146,0.00061144,0.00041829,0.00256963,0.00138155,0.0000
 8453,-0.00012332,-0.00292579,-0.02223519,-0.04840421,0.00312333,0.0220
 5327,-0.00187281,-0.00327449,-0.00064296,0.00034470,0.00056129,0.00049
 840,0.04860447,-0.00001774,-0.00000202,0.00003377,0.00000445,0.0000025
 4,-0.00000375,-0.00001101,0.00004583,-0.00009216,0.00019601,-0.0004153
 6,-0.00016728,-0.00035363,-0.00004110,0.00033464,0.00165855,0.00132007
 ,0.00140122,0.00285624,-0.00534708,-0.02964585,0.00187755,-0.05126873,
 -0.02894366,-0.00386363,-0.00316655,-0.00062409,0.00051819,0.00152293,
 -0.00078732,0.00010103,0.05506106,-0.00002404,0.00001785,0.00001963,-0
 .00000131,-0.00000575,-0.00000403,-0.00002940,0.00000719,-0.00003428,-
 0.00014997,-0.00036483,-0.00004879,-0.00009085,0.00033794,0.00018436,0
 .00024471,0.00060156,0.00096689,0.00075479,-0.00197280,-0.00997082,0.0
 2015445,-0.03147951,-0.31511186,-0.00071105,-0.00119740,0.00125012,-0.
 00017132,0.00004847,0.00052292,-0.02142244,0.03654726,0.33948932,0.000
 03268,0.00002266,-0.00000211,-0.00002052,-0.00001539,0.00000406,0.0001
 0765,0.00007379,-0.00003543,-0.00052960,-0.00156541,-0.00063410,-0.000
 54957,0.00086968,0.00024016,0.00315553,0.00134969,0.00013091,0.0033099
 0,-0.01804268,0.00979131,-0.06580480,0.06194393,-0.03336585,0.00050958
 ,0.00087343,0.00010570,-0.00119275,-0.00519776,0.00007038,-0.00022798,
 -0.00312971,0.00157292,0.06742174,-0.00005030,0.00004190,-0.00000628,0
 .00000236,-0.00001290,0.00000313,-0.00000939,-0.00000967,0.00007933,-0
 .00020666,-0.00086591,-0.00049052,-0.00050042,0.00062469,0.00012004,0.
 00121260,0.00214689,-0.00024228,0.00672974,-0.02441004,0.01146821,0.06
 124565,-0.23764119,0.10445870,0.00014394,0.00089995,-0.00025463,-0.003
 10737,-0.00283163,-0.00172816,-0.00165698,0.00453640,-0.00237412,-0.06
 473689,0.26088503,0.00000110,-0.00000104,-0.00002641,0.00000480,0.0000
 0202,0.00000501,0.00004047,0.00000300,0.00007324,0.00001856,-0.0003066
 7,-0.00018542,-0.00025343,0.00007260,-0.00012031,0.00090854,0.00075676
 ,-0.00011329,0.00339435,-0.00961276,0.00512761,-0.03393919,0.10428765,
 -0.10487038,0.00079981,0.00015111,0.00051097,-0.00118309,-0.00338594,0
 .00119329,-0.00930216,0.02752511,-0.01244925,0.03786877,-0.11274914,0.
 10836908,-0.00009771,0.00003095,0.00002068,0.00002786,0.00000517,-0.00
 000171,-0.00030636,-0.00017545,0.00000395,0.00030633,0.00167784,0.0006
 8660,0.00018891,-0.00072417,-0.00036055,-0.00275704,-0.00463230,-0.001
 73067,-0.01643342,0.00735338,0.00573827,-0.29547297,0.05220703,0.05949
 799,0.00038053,-0.00001444,-0.00051852,0.00022142,-0.00018414,0.000307
 94,-0.00021106,0.00005934,-0.00019262,-0.00630193,0.00066742,0.0016448
 0,0.32039515,-0.00014901,0.00008432,0.00006951,0.00001729,0.00001246,-
 0.00000130,-0.00043887,-0.00039371,-0.00009434,-0.00094269,0.00188093,
 0.00075265,0.00044192,-0.00061580,-0.00023146,-0.00638707,-0.00528039,
 -0.00199046,-0.02164787,0.00725296,0.00833869,0.05541127,-0.05996246,-
 0.01433191,0.00064179,0.00073369,-0.00041519,0.00005355,0.00086509,0.0
 0045017,0.00323631,-0.00210742,-0.00000703,0.02585835,-0.00404303,-0.0
 0797009,-0.05632564,0.06165832,-0.00006204,0.00004492,-0.00000188,0.00
 000500,0.00000100,0.00000750,-0.00016236,-0.00015448,-0.00001609,-0.00
 044792,0.00036140,0.00066636,0.00013244,-0.00004558,-0.00021076,-0.002
 44711,-0.00237403,0.00031429,-0.00884117,0.00422210,0.00087722,0.06058
 086,-0.01384029,-0.06156415,0.00037777,0.00047818,-0.00014103,0.000276
 25,0.00006794,0.00026876,0.03098876,-0.00596187,-0.00488033,-0.0152278
 8,0.00176373,0.00285517,-0.06506601,0.01539955,0.06188474,-0.00015214,
 0.00012156,-0.00007947,0.00006772,-0.00006338,-0.00000804,-0.00015068,
 0.00018399,0.00073747,-0.00083353,-0.00642078,-0.00214206,-0.00346911,
 0.00563898,-0.00205218,0.00549057,0.00093140,-0.00014546,-0.00648374,0
 .01063471,-0.00617333,0.00091016,-0.00113965,0.00116558,0.00001469,-0.
 00052280,-0.00008691,-0.00087179,-0.01258723,0.00336671,-0.00006737,0.
 00022326,0.00003228,-0.00028130,-0.00003437,-0.00017840,0.00015170,0.0
 0037887,-0.00009443,0.28314496,0.00001165,-0.00007015,0.00008180,0.000
 03411,0.00003482,-0.00000884,-0.00058529,-0.00015254,-0.00036052,0.004
 13883,0.00744919,0.00217524,0.00295788,-0.00414894,0.00111805,-0.01371
 696,0.00176472,-0.00045438,0.03185079,-0.06787549,0.03441165,-0.002741
 28,0.00806061,-0.00455353,-0.00091489,0.00540794,-0.00109195,-0.014017
 20,0.05788116,-0.02697455,0.00006674,-0.00025307,-0.00027053,0.0014887
 4,0.00032996,0.00109601,-0.00002773,-0.00012275,0.00004941,0.14515681,
 0.08728256,-0.00007037,-0.00000394,0.00010727,-0.00003565,-0.00001425,
 -0.00005492,0.00003694,0.00042826,0.00035989,-0.00281624,-0.00536193,-
 0.00273591,-0.00262119,0.00438237,0.00054361,0.00611903,0.00043849,0.0
 0098645,-0.01468976,0.02942680,-0.01501019,0.00169734,-0.00333136,0.00
 246217,0.00050664,-0.00248561,0.00126351,0.00398937,-0.02830268,0.0098
 9738,0.00004281,0.00055098,0.00013140,-0.00069398,-0.00014850,-0.00052
 089,-0.00001333,0.00010434,-0.00009247,0.20302012,0.10161599,0.1492740
 1,0.00016946,-0.00014200,0.00000966,-0.00007127,0.00007963,0.00003324,
 0.00037387,-0.00044779,-0.00069088,0.00092206,0.01072593,0.00393478,-0
 .00092382,-0.00609436,-0.00150493,-0.00656660,-0.00276456,-0.00095054,
 0.00614222,-0.00471498,0.00238952,-0.00099196,0.00122679,-0.00087443,-
 0.00027808,0.00055602,0.00001564,-0.00026100,0.00614896,-0.00324039,0.
 00006340,-0.00011890,0.00003386,0.00037137,0.00030068,0.00017505,-0.00
 009141,-0.00014819,-0.00001216,-0.27747015,-0.15370221,-0.19447173,0.2
 7861190,-0.00039984,0.00011354,-0.00002136,0.00010315,-0.00001023,-0.0
 0003634,-0.00052699,-0.00004162,0.00087809,0.00379375,-0.00142106,-0.0
 0006369,-0.00161405,-0.00004541,-0.00098714,-0.00132062,0.00015219,-0.
 00093651,0.00019046,-0.00325614,0.00014100,-0.00027361,0.00047245,-0.0
 0021316,-0.00031524,0.00067265,-0.00004514,-0.00657181,-0.00299113,-0.
 00456735,0.00005087,0.00011249,0.00011171,0.00020757,0.00034955,0.0001
 3138,0.00008274,0.00003780,-0.00001197,-0.14250137,-0.09558802,-0.0972
 9894,0.14909499,0.10144293,0.00018100,0.00004657,-0.00013453,0.0000011
 9,0.00000505,0.00005403,0.00028999,-0.00064407,-0.00034377,0.00104901,
 0.00336077,0.00243577,-0.00043007,-0.00229353,-0.00313242,-0.00203947,
 -0.00135224,-0.00061045,0.00295256,-0.00267124,0.00259472,-0.00038141,
 0.00083614,-0.00085200,-0.00008559,0.00082052,-0.00055583,0.00056476,0
 .00594608,0.00072581,-0.00005171,-0.00016700,-0.00006529,0.00017515,0.
 00010049,0.00015159,-0.00001680,-0.00007313,0.00003269,-0.19736189,-0.
 10683384,-0.14661132,0.19515329,0.10291943,0.14631100||-0.00003480,-0.
 00003973,0.00001491,0.00000072,0.00000504,0.00000100,-0.00007675,-0.00
 018152,-0.00004629,0.00036947,0.00038970,0.00017248,0.00056118,-0.0000
 4808,0.00057386,-0.00126919,0.00112983,-0.00031661,0.00020505,0.003178
 84,-0.00206520,-0.00029610,0.00280781,-0.00071078,-0.00011164,0.000657
 07,-0.00022509,0.00023421,0.00054354,-0.00029416,-0.00000707,0.0000665
 0,-0.00003020,0.00010781,0.00033246,0.00007517,-0.00002963,0.00015496,
 -0.00003382,0.00046758,-0.00890179,0.00280647,-0.00012084,-0.00009462,
 0.00007827|||@


 VIRTUE IS LEARNED AT YOUR MOTHER'S KNEE,
 VICES ARE PICKED UP AT SOME OTHER JOINT.
 Job cpu time:       0 days  0 hours 20 minutes 41.0 seconds.
 File lengths (MBytes):  RWF=    152 Int=      0 D2E=      0 Chk=      9 Scr=      1
 Normal termination of Gaussian 09 at Thu Mar 27 07:44:45 2025.
