 Entering Link 1 = C:\G09W\l1.exe PID=      2596.
  
 Copyright (c) 1988,1990,1992,1993,1995,1998,2003,2009,2013,
            Gaussian, Inc.  All Rights Reserved.
  
 This is part of the Gaussian(R) 09 program.  It is based on
 the Gaussian(R) 03 system (copyright 2003, Gaussian, Inc.),
 the Gaussian(R) 98 system (copyright 1998, Gaussian, Inc.),
 the Gaussian(R) 94 system (copyright 1995, Gaussian, Inc.),
 the Gaussian 92(TM) system (copyright 1992, Gaussian, Inc.),
 the Gaussian 90(TM) system (copyright 1990, Gaussian, Inc.),
 the Gaussian 88(TM) system (copyright 1988, Gaussian, Inc.),
 the Gaussian 86(TM) system (copyright 1986, Carnegie Mellon
 University), and the Gaussian 82(TM) system (copyright 1983,
 Carnegie Mellon University). Gaussian is a federally registered
 trademark of Gaussian, Inc.
  
 This software contains proprietary and confidential information,
 including trade secrets, belonging to Gaussian, Inc.
  
 This software is provided under written license and may be
 used, copied, transmitted, or stored only in accord with that
 written license.
  
 The following legend is applicable only to US Government
 contracts under FAR:
  
                    RESTRICTED RIGHTS LEGEND
  
 Use, reproduction and disclosure by the US Government is
 subject to restrictions as set forth in subparagraphs (a)
 and (c) of the Commercial Computer Software - Restricted
 Rights clause in FAR 52.227-19.
  
 Gaussian, Inc.
 340 Quinnipiac St., Bldg. 40, Wallingford CT 06492
  
  
 ---------------------------------------------------------------
 Warning -- This program may not be used in any manner that
 competes with the business of Gaussian, Inc. or will provide
 assistance to any competitor of Gaussian, Inc.  The licensee
 of this program is prohibited from giving any competitor of
 Gaussian, Inc. access to this program.  By using this program,
 the user acknowledges that Gaussian, Inc. is engaged in the
 business of creating and licensing software in the field of
 computational chemistry and represents and warrants to the
 licensee that it is not a competitor of Gaussian, Inc. and that
 it will not use this program in any manner prohibited above.
 ---------------------------------------------------------------
  

 Cite this work as:
 Gaussian 09, Revision D.01,
 M. J. Frisch, G. W. Trucks, H. B. Schlegel, G. E. Scuseria, 
 M. A. Robb, J. R. Cheeseman, G. Scalmani, V. Barone, B. Mennucci, 
 G. A. Petersson, H. Nakatsuji, M. Caricato, X. Li, H. P. Hratchian, 
 A. F. Izmaylov, J. Bloino, G. Zheng, J. L. Sonnenberg, M. Hada, 
 M. Ehara, K. Toyota, R. Fukuda, J. Hasegawa, M. Ishida, T. Nakajima, 
 Y. Honda, O. Kitao, H. Nakai, T. Vreven, J. A. Montgomery, Jr., 
 J. E. Peralta, F. Ogliaro, M. Bearpark, J. J. Heyd, E. Brothers, 
 K. N. Kudin, V. N. Staroverov, T. Keith, R. Kobayashi, J. Normand, 
 K. Raghavachari, A. Rendell, J. C. Burant, S. S. Iyengar, J. Tomasi, 
 M. Cossi, N. Rega, J. M. Millam, M. Klene, J. E. Knox, J. B. Cross, 
 V. Bakken, C. Adamo, J. Jaramillo, R. Gomperts, R. E. Stratmann, 
 O. Yazyev, A. J. Austin, R. Cammi, C. Pomelli, J. W. Ochterski, 
 R. L. Martin, K. Morokuma, V. G. Zakrzewski, G. A. Voth, 
 P. Salvador, J. J. Dannenberg, S. Dapprich, A. D. Daniels, 
 O. Farkas, J. B. Foresman, J. V. Ortiz, J. Cioslowski, 
 and D. J. Fox, Gaussian, Inc., Wallingford CT, 2013.
 
 ******************************************
 Gaussian 09:  IA32W-G09RevD.01 24-Apr-2013
                27-Mar-2025 
 ******************************************
 %chk=ethyl_propiolate.chk
 %nprocshared=4
 Will use up to    4 processors via shared memory.
 %mem=1700MB
 --------------------------
 # freq 6-311++g(d,p) m062x
 --------------------------
 1/10=4,30=1,38=1/1,3;
 2/12=2,17=6,18=5,40=1/2;
 3/5=4,6=6,7=1111,11=2,16=1,25=1,30=1,71=2,74=-55,140=1/1,2,3;
 4//1;
 5/5=2,38=5,98=1/2;
 8/6=4,10=90,11=11/1;
 11/6=1,8=1,9=11,15=111,16=1/1,2,10;
 10/6=1/2;
 6/7=2,8=2,9=2,10=2,18=1,28=1/1;
 7/8=1,10=1,25=1/1,2,3,16;
 1/10=4,30=1/3;
 99//99;
 -------------------
 Title Card Required
 -------------------
 Symbolic Z-matrix:
 Charge =  0 Multiplicity = 2
 C                     3.27812  -0.52374  -0.44103 
 H                     4.27163  -0.79058  -0.71714 
 C                     2.16055  -0.22511  -0.13048 
 C                     0.82499   0.18706   0.26058 
 O                     0.56597   1.24126   0.77126 
 O                    -0.0793   -0.75995  -0.01978 
 C                    -1.41569  -0.48614   0.35605 
 C                    -2.29503  -1.61743  -0.09128 
 H                    -1.47365  -0.22575   1.41446 
 H                    -1.77488   0.63127  -0.24732 
 H                    -2.21438  -1.76361  -1.16874 
 H                    -1.9956   -2.54231   0.41105 
 H                    -3.33333  -1.40154   0.16068 
 O                    -1.91522   1.7642   -0.69552 
 H                    -1.20528   2.19118  -0.19145 
 

 GradGradGradGradGradGradGradGradGradGradGradGradGradGradGradGradGradGrad
 Berny optimization.
 Initialization pass.
 Trust Radius=3.00D-01 FncErr=1.00D-07 GrdErr=1.00D-07
 Number of steps in this run=      2 maximum allowed number of steps=      2.
 GradGradGradGradGradGradGradGradGradGradGradGradGradGradGradGradGradGrad

                          Input orientation:                          
 ---------------------------------------------------------------------
 Center     Atomic      Atomic             Coordinates (Angstroms)
 Number     Number       Type             X           Y           Z
 ---------------------------------------------------------------------
      1          6           0        3.278124   -0.523740   -0.441032
      2          1           0        4.271627   -0.790575   -0.717136
      3          6           0        2.160547   -0.225111   -0.130476
      4          6           0        0.824994    0.187062    0.260576
      5          8           0        0.565969    1.241262    0.771258
      6          8           0       -0.079295   -0.759954   -0.019780
      7          6           0       -1.415691   -0.486136    0.356046
      8          6           0       -2.295028   -1.617432   -0.091284
      9          1           0       -1.473651   -0.225751    1.414464
     10          1           0       -1.774882    0.631268   -0.247317
     11          1           0       -2.214381   -1.763608   -1.168736
     12          1           0       -1.995597   -2.542313    0.411051
     13          1           0       -3.333327   -1.401539    0.160682
     14          8           0       -1.915219    1.764195   -0.695524
     15          1           0       -1.205280    2.191185   -0.191454
 ---------------------------------------------------------------------
                    Distance matrix (angstroms):
                    1          2          3          4          5
     1  C    0.000000
     2  H    1.065121   0.000000
     3  C    1.197749   2.262869   0.000000
     4  C    2.648649   3.713620   1.451382   0.000000
     5  O    3.455527   4.480578   2.346498   1.199678   0.000000
     6  O    3.391978   4.406559   2.305472   1.339096   2.246547
     7  C    4.761160   5.795687   3.618607   2.341576   2.661443
     8  C    5.690212   6.648033   4.668216   3.621400   4.135386
     9  H    5.109895   6.153939   3.948954   2.604926   2.593432
    10  H    5.186949   6.229176   4.029223   2.686006   2.624723
    11  H    5.677538   6.574119   4.752363   3.884050   4.530250
    12  H    5.710763   6.604505   4.789176   3.927832   4.583319
    13  H    6.696557   7.679790   5.625958   4.452557   4.749917
    14  O    5.680689   6.693607   4.570392   3.303066   2.929369
    15  H    5.247287   6.258094   4.143790   2.888400   2.228563
                    6          7          8          9         10
     6  O    0.000000
     7  C    1.414983   0.000000
     8  C    2.376942   1.501056   0.000000
     9  H    2.070424   1.091517   2.208781   0.000000
    10  H    2.205059   1.319718   2.313342   1.893868   0.000000
    11  H    2.624121   2.143549   1.090309   3.096225   2.603383
    12  H    2.652288   2.137096   1.094260   2.577930   3.248658
    13  H    3.321584   2.133883   1.090028   2.532359   2.593746
    14  O    3.193521   2.533637   3.456120   2.933755   1.226421
    15  H    3.163311   2.740817   3.962720   2.914202   1.661598
                   11         12         13         14         15
    11  H    0.000000
    12  H    1.774817   0.000000
    13  H    1.774961   1.775830   0.000000
    14  O    3.571949   4.447132   3.572953   0.000000
    15  H    4.196874   4.836695   4.190495   0.969753   0.000000
 Stoichiometry    C5H7O3(2)
 Framework group  C1[X(C5H7O3)]
 Deg. of freedom    39
 Full point group                 C1      NOp   1
 Largest Abelian subgroup         C1      NOp   1
 Largest concise Abelian subgroup C1      NOp   1
                         Standard orientation:                         
 ---------------------------------------------------------------------
 Center     Atomic      Atomic             Coordinates (Angstroms)
 Number     Number       Type             X           Y           Z
 ---------------------------------------------------------------------
      1          6           0        3.341222   -0.490622   -0.438348
      2          1           0        4.334827   -0.757297   -0.714238
      3          6           0        2.223531   -0.192174   -0.128029
      4          6           0        0.887809    0.219822    0.262633
      5          8           0        0.628202    1.274827    0.771353
      6          8           0       -0.015903   -0.728367   -0.015614
      7          6           0       -1.352376   -0.454756    0.360089
      8          6           0       -2.231057   -1.587529   -0.084782
      9          1           0       -1.410196   -0.192363    1.418019
     10          1           0       -1.712531    0.661227   -0.245325
     11          1           0       -2.150635   -1.735734   -1.161974
     12          1           0       -1.930827   -2.511227    0.419250
     13          1           0       -3.269430   -1.371875    0.167082
     14          8           0       -1.853797    1.793187   -0.695681
     15          1           0       -1.144003    2.221647   -0.192655
 ---------------------------------------------------------------------
 Rotational constants (GHZ):      3.0446516      1.2140451      0.9545346
 Standard basis: 6-311++G(d,p) (5D, 7F)
 There are   233 symmetry adapted cartesian basis functions of A   symmetry.
 There are   225 symmetry adapted basis functions of A   symmetry.
   225 basis functions,   351 primitive gaussians,   233 cartesian basis functions
    31 alpha electrons       30 beta electrons
       nuclear repulsion energy       352.0148450263 Hartrees.
 NAtoms=   15 NActive=   15 NUniq=   15 SFac= 1.00D+00 NAtFMM=   60 NAOKFM=F Big=F
 Integral buffers will be    262144 words long.
 Raffenetti 2 integral format.
 Two-electron integral symmetry is turned on.
 One-electron integrals computed using PRISM.
 NBasis=   225 RedAO= T EigKep=  5.78D-06  NBF=   225
 NBsUse=   224 1.00D-06 EigRej=  7.21D-07 NBFU=   224
 ExpMin= 3.60D-02 ExpMax= 8.59D+03 ExpMxC= 1.30D+03 IAcc=3 IRadAn=         5 AccDes= 0.00D+00
 Harris functional with IExCor= 1009 and IRadAn=       5 diagonalized for initial guess.
 HarFok:  IExCor= 1009 AccDes= 0.00D+00 IRadAn=         5 IDoV= 1 UseB2=F ITyADJ=14
 ICtDFT=  3500011 ScaDFX=  1.000000  1.000000  1.000000  1.000000
 FoFCou: FMM=F IPFlag=           0 FMFlag=      100000 FMFlg1=           0
         NFxFlg=           0 DoJE=T BraDBF=F KetDBF=T FulRan=T
         wScrn=  0.000000 ICntrl=     500 IOpCl=  0 I1Cent=   200000004 NGrid=           0
         NMat0=    1 NMatS0=      1 NMatT0=    0 NMatD0=    1 NMtDS0=    0 NMtDT0=    0
 Petite list used in FoFCou.
 Initial guess <Sx>= 0.0000 <Sy>= 0.0000 <Sz>= 0.5000 <S**2>= 0.7500 S= 0.5000
 Requested convergence on RMS density matrix=1.00D-08 within 128 cycles.
 Requested convergence on MAX density matrix=1.00D-06.
 Requested convergence on             energy=1.00D-06.
 No special actions if energy rises.
 SCF Done:  E(UM062X) =  -420.208047398     A.U. after   19 cycles
            NFock= 19  Conv=0.59D-08     -V/T= 2.0035
 <Sx>= 0.0000 <Sy>= 0.0000 <Sz>= 0.5000 <S**2>= 0.7603 S= 0.5051
 <L.S>= 0.000000000000E+00
 Annihilation of the first spin contaminant:
 S**2 before annihilation     0.7603,   after     0.7500
 DoSCS=F DFT=T ScalE2(SS,OS)=  1.000000  1.000000
 Range of M.O.s used for correlation:     1   224
 NBasis=   225 NAE=    31 NBE=    30 NFC=     0 NFV=     0
 NROrb=    224 NOA=    31 NOB=    30 NVA=   193 NVB=   194

 **** Warning!!: The largest alpha MO coefficient is  0.12240673D+03


 **** Warning!!: The largest beta MO coefficient is  0.11817510D+03

 Symmetrizing basis deriv contribution to polar:
 IMax=3 JMax=2 DiffMx= 0.00D+00
 G2DrvN: will do    16 centers at a time, making    1 passes.
 Calling FoFCou, ICntrl=  3107 FMM=F I1Cent=   0 AccDes= 0.00D+00.
 End of G2Drv F.D. properties file   721 does not exist.
 End of G2Drv F.D. properties file   722 does not exist.
 End of G2Drv F.D. properties file   788 does not exist.
          IDoAtm=111111111111111
          Differentiating once with respect to electric field.
                with respect to dipole field.
          Differentiating once with respect to nuclear coordinates.
          There are    48 degrees of freedom in the 1st order CPHF.  IDoFFX=6 NUNeed=     3.
     46 vectors produced by pass  0 Test12= 2.46D-14 2.08D-09 XBig12= 1.00D+02 3.56D+00.
 AX will form    46 AO Fock derivatives at one time.
     45 vectors produced by pass  1 Test12= 2.46D-14 2.08D-09 XBig12= 1.97D+01 7.52D-01.
     45 vectors produced by pass  2 Test12= 2.46D-14 2.08D-09 XBig12= 8.55D-01 1.69D-01.
     45 vectors produced by pass  3 Test12= 2.46D-14 2.08D-09 XBig12= 1.40D-02 1.59D-02.
     45 vectors produced by pass  4 Test12= 2.46D-14 2.08D-09 XBig12= 1.36D-04 1.97D-03.
     45 vectors produced by pass  5 Test12= 2.46D-14 2.08D-09 XBig12= 1.28D-06 1.15D-04.
     44 vectors produced by pass  6 Test12= 2.46D-14 2.08D-09 XBig12= 8.42D-09 8.87D-06.
     22 vectors produced by pass  7 Test12= 2.46D-14 2.08D-09 XBig12= 5.17D-11 6.88D-07.
      4 vectors produced by pass  8 Test12= 2.46D-14 2.08D-09 XBig12= 4.58D-13 8.86D-08.
      4 vectors produced by pass  9 Test12= 2.46D-14 2.08D-09 XBig12= 3.43D-14 2.67D-08.
      4 vectors produced by pass 10 Test12= 2.46D-14 2.08D-09 XBig12= 9.92D-15 2.10D-08.
      3 vectors produced by pass 11 Test12= 2.46D-14 2.08D-09 XBig12= 7.76D-16 4.35D-09.
      3 vectors produced by pass 12 Test12= 2.46D-14 2.08D-09 XBig12= 6.88D-16 3.84D-09.
      3 vectors produced by pass 13 Test12= 2.46D-14 2.08D-09 XBig12= 1.55D-15 5.69D-09.
      2 vectors produced by pass 14 Test12= 2.46D-14 2.08D-09 XBig12= 7.45D-16 4.96D-09.
      2 vectors produced by pass 15 Test12= 2.46D-14 2.08D-09 XBig12= 3.75D-16 3.33D-09.
      1 vectors produced by pass 16 Test12= 2.46D-14 2.08D-09 XBig12= 1.07D-15 3.87D-09.
 InvSVY:  IOpt=1 It=  1 EMax= 8.88D-15
 Solved reduced A of dimension   363 with    48 vectors.
 Isotropic polarizability for W=    0.000000       76.86 Bohr**3.
 End of Minotr F.D. properties file   721 does not exist.
 End of Minotr F.D. properties file   722 does not exist.
 End of Minotr F.D. properties file   788 does not exist.

 **********************************************************************

            Population analysis using the SCF density.

 **********************************************************************

 Orbital symmetries:
 Alpha Orbitals:
       Occupied  (A) (A) (A) (A) (A) (A) (A) (A) (A) (A) (A) (A)
                 (A) (A) (A) (A) (A) (A) (A) (A) (A) (A) (A) (A)
                 (A) (A) (A) (A) (A) (A) (A)
       Virtual   (A) (A) (A) (A) (A) (A) (A) (A) (A) (A) (A) (A)
                 (A) (A) (A) (A) (A) (A) (A) (A) (A) (A) (A) (A)
                 (A) (A) (A) (A) (A) (A) (A) (A) (A) (A) (A) (A)
                 (A) (A) (A) (A) (A) (A) (A) (A) (A) (A) (A) (A)
                 (A) (A) (A) (A) (A) (A) (A) (A) (A) (A) (A) (A)
                 (A) (A) (A) (A) (A) (A) (A) (A) (A) (A) (A) (A)
                 (A) (A) (A) (A) (A) (A) (A) (A) (A) (A) (A) (A)
                 (A) (A) (A) (A) (A) (A) (A) (A) (A) (A) (A) (A)
                 (A) (A) (A) (A) (A) (A) (A) (A) (A) (A) (A) (A)
                 (A) (A) (A) (A) (A) (A) (A) (A) (A) (A) (A) (A)
                 (A) (A) (A) (A) (A) (A) (A) (A) (A) (A) (A) (A)
                 (A) (A) (A) (A) (A) (A) (A) (A) (A) (A) (A) (A)
                 (A) (A) (A) (A) (A) (A) (A) (A) (A) (A) (A) (A)
                 (A) (A) (A) (A) (A) (A) (A) (A) (A) (A) (A) (A)
                 (A) (A) (A) (A) (A) (A) (A) (A) (A) (A) (A) (A)
                 (A) (A) (A) (A) (A) (A) (A) (A) (A) (A) (A) (A)
                 (A)
 Beta  Orbitals:
       Occupied  (A) (A) (A) (A) (A) (A) (A) (A) (A) (A) (A) (A)
                 (A) (A) (A) (A) (A) (A) (A) (A) (A) (A) (A) (A)
                 (A) (A) (A) (A) (A) (A)
       Virtual   (A) (A) (A) (A) (A) (A) (A) (A) (A) (A) (A) (A)
                 (A) (A) (A) (A) (A) (A) (A) (A) (A) (A) (A) (A)
                 (A) (A) (A) (A) (A) (A) (A) (A) (A) (A) (A) (A)
                 (A) (A) (A) (A) (A) (A) (A) (A) (A) (A) (A) (A)
                 (A) (A) (A) (A) (A) (A) (A) (A) (A) (A) (A) (A)
                 (A) (A) (A) (A) (A) (A) (A) (A) (A) (A) (A) (A)
                 (A) (A) (A) (A) (A) (A) (A) (A) (A) (A) (A) (A)
                 (A) (A) (A) (A) (A) (A) (A) (A) (A) (A) (A) (A)
                 (A) (A) (A) (A) (A) (A) (A) (A) (A) (A) (A) (A)
                 (A) (A) (A) (A) (A) (A) (A) (A) (A) (A) (A) (A)
                 (A) (A) (A) (A) (A) (A) (A) (A) (A) (A) (A) (A)
                 (A) (A) (A) (A) (A) (A) (A) (A) (A) (A) (A) (A)
                 (A) (A) (A) (A) (A) (A) (A) (A) (A) (A) (A) (A)
                 (A) (A) (A) (A) (A) (A) (A) (A) (A) (A) (A) (A)
                 (A) (A) (A) (A) (A) (A) (A) (A) (A) (A) (A) (A)
                 (A) (A) (A) (A) (A) (A) (A) (A) (A) (A) (A) (A)
                 (A) (A)
 The electronic state is 2-A.
 Alpha  occ. eigenvalues --  -19.71237 -19.65295 -19.62627 -10.72635 -10.63913
 Alpha  occ. eigenvalues --  -10.58347 -10.57845 -10.55776  -1.28388  -1.18848
 Alpha  occ. eigenvalues --   -1.10347  -0.92438  -0.88690  -0.79544  -0.71466
 Alpha  occ. eigenvalues --   -0.67929  -0.62227  -0.61904  -0.59918  -0.56012
 Alpha  occ. eigenvalues --   -0.52314  -0.51175  -0.49055  -0.48196  -0.46248
 Alpha  occ. eigenvalues --   -0.43583  -0.41195  -0.38897  -0.38454  -0.37736
 Alpha  occ. eigenvalues --   -0.31879
 Alpha virt. eigenvalues --   -0.03157  -0.00577   0.00307   0.01623   0.02411
 Alpha virt. eigenvalues --    0.02981   0.03187   0.04766   0.05736   0.05977
 Alpha virt. eigenvalues --    0.06279   0.07585   0.08316   0.08763   0.10302
 Alpha virt. eigenvalues --    0.10709   0.11944   0.12273   0.12730   0.12946
 Alpha virt. eigenvalues --    0.13575   0.14141   0.15105   0.16403   0.16965
 Alpha virt. eigenvalues --    0.17625   0.18041   0.18449   0.19297   0.20649
 Alpha virt. eigenvalues --    0.21465   0.22146   0.22996   0.23743   0.25685
 Alpha virt. eigenvalues --    0.26292   0.27941   0.28563   0.29758   0.30240
 Alpha virt. eigenvalues --    0.31083   0.31215   0.32368   0.32776   0.33258
 Alpha virt. eigenvalues --    0.35056   0.36056   0.36826   0.39535   0.40111
 Alpha virt. eigenvalues --    0.42404   0.43929   0.46143   0.47472   0.48584
 Alpha virt. eigenvalues --    0.52480   0.55047   0.56002   0.56949   0.58726
 Alpha virt. eigenvalues --    0.61190   0.63679   0.64737   0.66641   0.67481
 Alpha virt. eigenvalues --    0.67890   0.68915   0.69619   0.71767   0.72945
 Alpha virt. eigenvalues --    0.73950   0.77520   0.79899   0.81314   0.84658
 Alpha virt. eigenvalues --    0.88489   0.90197   0.93182   1.01849   1.05321
 Alpha virt. eigenvalues --    1.06054   1.09446   1.10140   1.10799   1.13758
 Alpha virt. eigenvalues --    1.14540   1.16040   1.17986   1.20352   1.21151
 Alpha virt. eigenvalues --    1.22804   1.23175   1.27684   1.29532   1.31131
 Alpha virt. eigenvalues --    1.33214   1.35720   1.37191   1.43794   1.45913
 Alpha virt. eigenvalues --    1.47164   1.48746   1.50054   1.54170   1.56234
 Alpha virt. eigenvalues --    1.59035   1.59916   1.60389   1.62353   1.64004
 Alpha virt. eigenvalues --    1.66259   1.67066   1.68735   1.71424   1.74802
 Alpha virt. eigenvalues --    1.77532   1.83336   1.83750   1.85770   1.89473
 Alpha virt. eigenvalues --    1.94320   1.96240   1.99692   2.06124   2.09076
 Alpha virt. eigenvalues --    2.11863   2.13286   2.17196   2.22718   2.28673
 Alpha virt. eigenvalues --    2.40307   2.42701   2.49127   2.51245   2.54949
 Alpha virt. eigenvalues --    2.57927   2.58608   2.60392   2.60994   2.64518
 Alpha virt. eigenvalues --    2.65373   2.65730   2.69240   2.72225   2.79886
 Alpha virt. eigenvalues --    2.81470   2.84858   2.87821   2.95053   2.98856
 Alpha virt. eigenvalues --    3.02288   3.02820   3.03698   3.05884   3.09327
 Alpha virt. eigenvalues --    3.11854   3.20295   3.20930   3.22845   3.25201
 Alpha virt. eigenvalues --    3.30949   3.34289   3.35617   3.41793   3.47424
 Alpha virt. eigenvalues --    3.55395   3.66363   3.73381   3.80191   3.83204
 Alpha virt. eigenvalues --    3.84898   4.00270   4.06838   4.13749   4.16026
 Alpha virt. eigenvalues --    4.26850   5.08723   5.13441   5.15813   5.31495
 Alpha virt. eigenvalues --    5.42509   5.46650   5.64111   5.73818   5.93711
 Alpha virt. eigenvalues --   23.61727  23.84694  23.93251  24.02781  25.16972
 Alpha virt. eigenvalues --   49.97515  50.00243  50.09361
  Beta  occ. eigenvalues --  -19.71145 -19.65267 -19.61692 -10.72634 -10.63343
  Beta  occ. eigenvalues --  -10.58345 -10.57848 -10.55784  -1.28063  -1.18617
  Beta  occ. eigenvalues --   -1.06822  -0.91762  -0.88221  -0.79311  -0.70449
  Beta  occ. eigenvalues --   -0.67115  -0.62195  -0.60142  -0.59333  -0.54019
  Beta  occ. eigenvalues --   -0.51629  -0.49754  -0.48848  -0.45724  -0.44282
  Beta  occ. eigenvalues --   -0.41503  -0.40682  -0.38393  -0.37677  -0.36775
  Beta virt. eigenvalues --   -0.10129  -0.02699  -0.00491   0.00346   0.01769
  Beta virt. eigenvalues --    0.02637   0.03055   0.03263   0.05148   0.05815
  Beta virt. eigenvalues --    0.06064   0.06447   0.07675   0.08434   0.08906
  Beta virt. eigenvalues --    0.10371   0.10969   0.12032   0.12333   0.12810
  Beta virt. eigenvalues --    0.13097   0.13714   0.14384   0.15316   0.16560
  Beta virt. eigenvalues --    0.17099   0.17813   0.18312   0.18615   0.19526
  Beta virt. eigenvalues --    0.21028   0.21639   0.22299   0.23177   0.24213
  Beta virt. eigenvalues --    0.26116   0.26316   0.28232   0.28491   0.29965
  Beta virt. eigenvalues --    0.30346   0.31196   0.31429   0.32465   0.32748
  Beta virt. eigenvalues --    0.33548   0.35157   0.36832   0.37268   0.39839
  Beta virt. eigenvalues --    0.41220   0.42729   0.44068   0.46315   0.47757
  Beta virt. eigenvalues --    0.48680   0.52521   0.55374   0.56118   0.57156
  Beta virt. eigenvalues --    0.59243   0.61502   0.63874   0.64913   0.67061
  Beta virt. eigenvalues --    0.67916   0.68440   0.68992   0.69738   0.71970
  Beta virt. eigenvalues --    0.73479   0.74042   0.77848   0.79957   0.81730
  Beta virt. eigenvalues --    0.84712   0.88534   0.90424   0.93144   1.02718
  Beta virt. eigenvalues --    1.05987   1.06256   1.09986   1.10493   1.11501
  Beta virt. eigenvalues --    1.14123   1.15166   1.16182   1.18357   1.20919
  Beta virt. eigenvalues --    1.22142   1.23248   1.23330   1.27859   1.29695
  Beta virt. eigenvalues --    1.31348   1.33588   1.35795   1.37354   1.43850
  Beta virt. eigenvalues --    1.46077   1.47701   1.48823   1.50753   1.55364
  Beta virt. eigenvalues --    1.57053   1.59231   1.59971   1.60968   1.62462
  Beta virt. eigenvalues --    1.64300   1.66539   1.67506   1.69230   1.72151
  Beta virt. eigenvalues --    1.75299   1.77931   1.83660   1.83969   1.85964
  Beta virt. eigenvalues --    1.89885   1.94461   1.96546   1.99888   2.06380
  Beta virt. eigenvalues --    2.09497   2.12526   2.14035   2.17735   2.24360
  Beta virt. eigenvalues --    2.29394   2.40637   2.43515   2.49301   2.51475
  Beta virt. eigenvalues --    2.53720   2.58258   2.58820   2.60488   2.61271
  Beta virt. eigenvalues --    2.64584   2.65380   2.65957   2.68725   2.72214
  Beta virt. eigenvalues --    2.79563   2.81476   2.83553   2.88018   2.95454
  Beta virt. eigenvalues --    2.99775   3.02620   3.02946   3.05714   3.05904
  Beta virt. eigenvalues --    3.10144   3.12090   3.20406   3.21883   3.24080
  Beta virt. eigenvalues --    3.26371   3.31418   3.34790   3.35936   3.42138
  Beta virt. eigenvalues --    3.49532   3.55419   3.66416   3.73556   3.81683
  Beta virt. eigenvalues --    3.83499   3.85031   4.01840   4.07105   4.14453
  Beta virt. eigenvalues --    4.16714   4.27724   5.09353   5.14608   5.16336
  Beta virt. eigenvalues --    5.31542   5.43158   5.49713   5.65820   5.74479
  Beta virt. eigenvalues --    5.93810  23.61728  23.85444  23.93276  24.02793
  Beta virt. eigenvalues --   25.16976  49.97421  49.99452  50.09314
          Condensed to atoms (all electrons):
               1          2          3          4          5          6
     1  C    6.604320   0.470954  -1.682352   1.471394  -0.124044  -0.111362
     2  H    0.470954   0.428908  -0.097814   0.024103  -0.003125  -0.005252
     3  C   -1.682352  -0.097814  10.148780  -3.041508   0.168837  -0.170629
     4  C    1.471394   0.024103  -3.041508   7.931585   0.276474   0.028248
     5  O   -0.124044  -0.003125   0.168837   0.276474   8.060116  -0.131087
     6  O   -0.111362  -0.005252  -0.170629   0.028248  -0.131087   8.331336
     7  C    0.055124  -0.002358  -0.465575  -0.068437  -0.012978   0.231069
     8  C    0.040024  -0.000014  -0.217731   0.007710   0.015120  -0.157361
     9  H   -0.001177   0.000309   0.031351   0.036023  -0.015359  -0.035545
    10  H   -0.002825   0.000105   0.011680  -0.019731   0.006286  -0.020042
    11  H   -0.001484  -0.000159   0.005051  -0.004775  -0.000976  -0.005503
    12  H    0.002092   0.000045  -0.007484   0.004756  -0.001583  -0.016189
    13  H   -0.000968  -0.000035   0.002544  -0.007407   0.001865   0.025663
    14  O    0.002615   0.000126  -0.009918   0.004979  -0.007710   0.016706
    15  H    0.001373  -0.000132  -0.018766  -0.027754   0.014520  -0.000948
               7          8          9         10         11         12
     1  C    0.055124   0.040024  -0.001177  -0.002825  -0.001484   0.002092
     2  H   -0.002358  -0.000014   0.000309   0.000105  -0.000159   0.000045
     3  C   -0.465575  -0.217731   0.031351   0.011680   0.005051  -0.007484
     4  C   -0.068437   0.007710   0.036023  -0.019731  -0.004775   0.004756
     5  O   -0.012978   0.015120  -0.015359   0.006286  -0.000976  -0.001583
     6  O    0.231069  -0.157361  -0.035545  -0.020042  -0.005503  -0.016189
     7  C    6.293601  -0.131559   0.382831   0.215414  -0.027463  -0.041043
     8  C   -0.131559   5.984372  -0.135477  -0.081380   0.395361   0.404333
     9  H    0.382831  -0.135477   0.551728  -0.034602   0.004337  -0.011958
    10  H    0.215414  -0.081380  -0.034602   0.492787  -0.015986   0.012121
    11  H   -0.027463   0.395361   0.004337  -0.015986   0.506940  -0.036406
    12  H   -0.041043   0.404333  -0.011958   0.012121  -0.036406   0.538493
    13  H   -0.069452   0.433632  -0.005697  -0.011142  -0.025615  -0.031287
    14  O   -0.045002   0.014243  -0.009404   0.159835   0.000604  -0.004058
    15  H    0.047681   0.019710  -0.006951  -0.051856   0.001351   0.000291
              13         14         15
     1  C   -0.000968   0.002615   0.001373
     2  H   -0.000035   0.000126  -0.000132
     3  C    0.002544  -0.009918  -0.018766
     4  C   -0.007407   0.004979  -0.027754
     5  O    0.001865  -0.007710   0.014520
     6  O    0.025663   0.016706  -0.000948
     7  C   -0.069452  -0.045002   0.047681
     8  C    0.433632   0.014243   0.019710
     9  H   -0.005697  -0.009404  -0.006951
    10  H   -0.011142   0.159835  -0.051856
    11  H   -0.025615   0.000604   0.001351
    12  H   -0.031287  -0.004058   0.000291
    13  H    0.500325   0.002364   0.000455
    14  O    0.002364   8.010044   0.298520
    15  H    0.000455   0.298520   0.465070
          Atomic-Atomic Spin Densities.
               1          2          3          4          5          6
     1  C    0.000404  -0.000728  -0.005218   0.011069   0.000389  -0.004215
     2  H   -0.000728  -0.000621   0.000375   0.000624   0.000073  -0.000027
     3  C   -0.005218   0.000375  -0.008931  -0.009016   0.002907   0.009174
     4  C    0.011069   0.000624  -0.009016   0.000981  -0.004251  -0.003362
     5  O    0.000389   0.000073   0.002907  -0.004251   0.017769  -0.001310
     6  O   -0.004215  -0.000027   0.009174  -0.003362  -0.001310   0.081801
     7  C   -0.001824   0.000076   0.023340   0.009279   0.000542  -0.082059
     8  C    0.002364   0.000040  -0.007085   0.000736   0.000199   0.003174
     9  H    0.000770  -0.000046  -0.008759  -0.010073   0.002123   0.000938
    10  H    0.000279   0.000120   0.009748   0.035135  -0.005728  -0.009141
    11  H    0.000287  -0.000011  -0.001729  -0.002267  -0.000035   0.001370
    12  H   -0.000497   0.000023   0.003067   0.004077  -0.000137   0.004487
    13  H    0.000069  -0.000002  -0.000451  -0.000712   0.000016  -0.000111
    14  O    0.000409  -0.000067  -0.010617  -0.024393   0.002152   0.017204
    15  H   -0.000428   0.000019   0.004609   0.004144   0.000101  -0.002442
               7          8          9         10         11         12
     1  C   -0.001824   0.002364   0.000770   0.000279   0.000287  -0.000497
     2  H    0.000076   0.000040  -0.000046   0.000120  -0.000011   0.000023
     3  C    0.023340  -0.007085  -0.008759   0.009748  -0.001729   0.003067
     4  C    0.009279   0.000736  -0.010073   0.035135  -0.002267   0.004077
     5  O    0.000542   0.000199   0.002123  -0.005728  -0.000035  -0.000137
     6  O   -0.082059   0.003174   0.000938  -0.009141   0.001370   0.004487
     7  C    0.762268  -0.079251  -0.025971   0.068085  -0.019455   0.005292
     8  C   -0.079251   0.012829   0.024674  -0.020144   0.017567  -0.014980
     9  H   -0.025971   0.024674  -0.008581   0.015430   0.001635  -0.004217
    10  H    0.068085  -0.020144   0.015430  -0.144067  -0.002161  -0.000485
    11  H   -0.019455   0.017567   0.001635  -0.002161   0.015328  -0.009725
    12  H    0.005292  -0.014980  -0.004217  -0.000485  -0.009725   0.054700
    13  H   -0.006970   0.007734   0.001850  -0.002817   0.001456  -0.004408
    14  O   -0.117820   0.028725   0.005167  -0.012452   0.004004  -0.002415
    15  H    0.006021  -0.003568  -0.001478   0.008320  -0.000518   0.000479
              13         14         15
     1  C    0.000069   0.000409  -0.000428
     2  H   -0.000002  -0.000067   0.000019
     3  C   -0.000451  -0.010617   0.004609
     4  C   -0.000712  -0.024393   0.004144
     5  O    0.000016   0.002152   0.000101
     6  O   -0.000111   0.017204  -0.002442
     7  C   -0.006970  -0.117820   0.006021
     8  C    0.007734   0.028725  -0.003568
     9  H    0.001850   0.005167  -0.001478
    10  H   -0.002817  -0.012452   0.008320
    11  H    0.001456   0.004004  -0.000518
    12  H   -0.004408  -0.002415   0.000479
    13  H    0.003099   0.002381  -0.000264
    14  O    0.002381   0.577224  -0.003157
    15  H   -0.000264  -0.003157  -0.014865
 Mulliken charges and spin densities:
               1          2
     1  C   -0.723683   0.003129
     2  H    0.184337  -0.000150
     3  C    1.343533   0.001413
     4  C   -0.615661   0.011969
     5  O   -0.246353   0.014810
     6  O    0.020896   0.015479
     7  C   -0.361853   0.541553
     8  C   -0.590986  -0.026985
     9  H    0.249591  -0.006539
    10  H    0.339335  -0.059877
    11  H    0.204723   0.005747
    12  H    0.187876   0.035264
    13  H    0.184754   0.000870
    14  O   -0.433943   0.466346
    15  H    0.257434  -0.003028
 Sum of Mulliken charges =   0.00000   1.00000
 Mulliken charges and spin densities with hydrogens summed into heavy atoms:
               1          2
     1  C   -0.539347   0.002979
     3  C    1.343533   0.001413
     4  C   -0.615661   0.011969
     5  O   -0.246353   0.014810
     6  O    0.020896   0.015479
     7  C   -0.112261   0.535013
     8  C   -0.013634   0.014896
    14  O    0.162826   0.403440
 APT charges:
               1
     1  C   -0.162631
     2  H    0.239670
     3  C   -0.327529
     4  C    1.475749
     5  O   -0.746749
     6  O   -1.035236
     7  C    0.883018
     8  C   -0.094368
     9  H   -0.063214
    10  H   -0.178904
    11  H    0.039827
    12  H    0.017047
    13  H    0.030298
    14  O   -0.366615
    15  H    0.289637
 Sum of APT charges =   0.00000
 APT charges with hydrogens summed into heavy atoms:
               1
     1  C    0.077039
     3  C   -0.327529
     4  C    1.475749
     5  O   -0.746749
     6  O   -1.035236
     7  C    0.819804
     8  C   -0.007196
    14  O   -0.255882
 Electronic spatial extent (au):  <R**2>=           1212.5918
 Charge=              0.0000 electrons
 Dipole moment (field-independent basis, Debye):
    X=              1.6447    Y=             -3.4119    Z=              0.8645  Tot=              3.8850
 Quadrupole moment (field-independent basis, Debye-Ang):
   XX=            -38.3441   YY=            -51.0317   ZZ=            -49.2708
   XY=              3.6850   XZ=             -6.2289   YZ=              0.8068
 Traceless Quadrupole moment (field-independent basis, Debye-Ang):
   XX=              7.8714   YY=             -4.8162   ZZ=             -3.0553
   XY=              3.6850   XZ=             -6.2289   YZ=              0.8068
 Octapole moment (field-independent basis, Debye-Ang**2):
  XXX=             52.1065  YYY=              4.3149  ZZZ=              3.8459  XYY=             -1.3251
  XXY=            -29.0733  XXZ=             -5.9416  XZZ=             -2.3418  YZZ=             -3.2987
  YYZ=              2.2594  XYZ=             -4.5285
 Hexadecapole moment (field-independent basis, Debye-Ang**3):
 XXXX=           -825.3449 YYYY=           -381.7613 ZZZZ=           -115.6302 XXXY=            -24.9330
 XXXZ=            -68.9618 YYYX=              8.7203 YYYZ=              0.5737 ZZZX=              1.6099
 ZZZY=              3.4547 XXYY=           -269.8967 XXZZ=           -205.1386 YYZZ=            -92.4370
 XXYZ=             20.6932 YYXZ=            -10.4933 ZZXY=              3.1051
 N-N= 3.520148450263D+02 E-N=-1.688107285349D+03  KE= 4.187596455036D+02
  Exact polarizability:  96.911  -8.029  80.099  -4.394  -1.771  53.585
 Approx polarizability: 101.451 -12.320  92.332  -7.628   1.850  65.155
                          Isotropic Fermi Contact Couplings
        Atom                 a.u.       MegaHertz       Gauss      10(-4) cm-1
     1  C(13)              0.00028       0.31754       0.11331       0.10592
     2  H(1)              -0.00006      -0.28749      -0.10258      -0.09590
     3  C(13)             -0.00230      -2.58015      -0.92066      -0.86065
     4  C(13)              0.00248       2.79325       0.99670       0.93173
     5  O(17)              0.00054      -0.32534      -0.11609      -0.10852
     6  O(17)              0.00095      -0.57387      -0.20477      -0.19142
     7  C(13)              0.21538     242.12411      86.39590      80.76391
     8  C(13)             -0.00431      -4.84598      -1.72917      -1.61645
     9  H(1)              -0.00029      -1.30588      -0.46597      -0.43559
    10  H(1)              -0.03036    -135.71565     -48.42672     -45.26987
    11  H(1)               0.00372      16.61497       5.92863       5.54216
    12  H(1)               0.01582      70.70226      25.22832      23.58373
    13  H(1)               0.00081       3.61902       1.29135       1.20717
    14  O(17)              0.08796     -53.31879     -19.02547     -17.78523
    15  H(1)              -0.00752     -33.60489     -11.99106     -11.20938
 --------------------------------------------------------
       Center         ----  Spin Dipole Couplings  ----
                      3XX-RR        3YY-RR        3ZZ-RR
 --------------------------------------------------------
     1   Atom       -0.000111     -0.000877      0.000988
     2   Atom        0.001389     -0.000693     -0.000696
     3   Atom        0.004794     -0.001855     -0.002939
     4   Atom        0.010659     -0.007417     -0.003242
     5   Atom       -0.031729     -0.028073      0.059802
     6   Atom       -0.065670      0.088069     -0.022399
     7   Atom       -0.296565      0.347282     -0.050717
     8   Atom       -0.013783      0.030817     -0.017034
     9   Atom       -0.038200     -0.008915      0.047115
    10   Atom       -0.109445      0.175413     -0.065968
    11   Atom       -0.005863      0.004114      0.001749
    12   Atom       -0.003823      0.009044     -0.005221
    13   Atom        0.007625     -0.000016     -0.007609
    14   Atom       -0.886032      1.323680     -0.437648
    15   Atom        0.016948      0.004699     -0.021647
 --------------------------------------------------------
                        XY            XZ            YZ
 --------------------------------------------------------
     1   Atom       -0.000411     -0.000038     -0.003715
     2   Atom       -0.000454     -0.000364     -0.000081
     3   Atom       -0.000044     -0.000293      0.000455
     4   Atom        0.002837      0.007582      0.004467
     5   Atom        0.002162      0.016507     -0.024984
     6   Atom       -0.119894      0.117941     -0.151798
     7   Atom       -0.180350      0.120361     -0.443796
     8   Atom        0.015952     -0.000131     -0.004544
     9   Atom       -0.006473     -0.001515      0.010612
    10   Atom       -0.060006      0.028865     -0.131288
    11   Atom        0.004078      0.004534      0.008865
    12   Atom        0.002338      0.002032     -0.002313
    13   Atom        0.008625      0.000428     -0.001005
    14   Atom       -0.548165      0.255310     -1.153727
    15   Atom        0.048306      0.064235      0.020961
 --------------------------------------------------------


 ---------------------------------------------------------------------------------
              Anisotropic Spin Dipole Couplings in Principal Axis System
 ---------------------------------------------------------------------------------

       Atom             a.u.   MegaHertz   Gauss  10(-4) cm-1        Axes

              Baa    -0.0038    -0.511    -0.182    -0.170  0.0938  0.7867  0.6102
     1 C(13)  Bbb    -0.0001    -0.012    -0.004    -0.004  0.9940 -0.0398 -0.1016
              Bcc     0.0039     0.523     0.187     0.175  0.0556 -0.6161  0.7857
 
              Baa    -0.0009    -0.491    -0.175    -0.164  0.2438  0.7175  0.6524
     2 H(1)   Bbb    -0.0006    -0.328    -0.117    -0.109 -0.0166 -0.6696  0.7426
              Bcc     0.0015     0.819     0.292     0.273  0.9697 -0.1919 -0.1514
 
              Baa    -0.0031    -0.418    -0.149    -0.139  0.0330 -0.3388  0.9403
     3 C(13)  Bbb    -0.0017    -0.227    -0.081    -0.076  0.0217  0.9408  0.3382
              Bcc     0.0048     0.645     0.230     0.215  0.9992 -0.0093 -0.0384
 
              Baa    -0.0104    -1.402    -0.500    -0.468  0.1117  0.7878 -0.6057
     4 C(13)  Bbb    -0.0044    -0.594    -0.212    -0.198 -0.4496  0.5837  0.6762
              Bcc     0.0149     1.996     0.712     0.666  0.8862  0.1968  0.4193
 
              Baa    -0.0406     2.940     1.049     0.981  0.6830 -0.6746 -0.2801
     5 O(17)  Bbb    -0.0281     2.037     0.727     0.679  0.7144  0.6968  0.0639
              Bcc     0.0688    -4.977    -1.776    -1.660  0.1521 -0.2437  0.9579
 
              Baa    -0.1642    11.882     4.240     3.963  0.7395 -0.0523 -0.6711
     6 O(17)  Bbb    -0.1113     8.051     2.873     2.685  0.5102  0.6939  0.5082
              Bcc     0.2755   -19.933    -7.112    -6.649 -0.4391  0.7182 -0.5398
 
              Baa    -0.3457   -46.389   -16.553   -15.474  0.9110 -0.0264 -0.4115
     7 C(13)  Bbb    -0.3370   -45.216   -16.134   -15.083  0.3511  0.5729  0.7406
              Bcc     0.6827    91.606    32.687    30.556 -0.2162  0.8192 -0.5312
 
              Baa    -0.0196    -2.632    -0.939    -0.878  0.8167 -0.3026 -0.4914
     8 C(13)  Bbb    -0.0167    -2.238    -0.799    -0.747  0.4913 -0.0821  0.8671
              Bcc     0.0363     4.870     1.738     1.625  0.3027  0.9496 -0.0817
 
              Baa    -0.0396   -21.114    -7.534    -7.043  0.9778  0.2094 -0.0086
     9 H(1)   Bbb    -0.0096    -5.104    -1.821    -1.702 -0.2073  0.9605 -0.1854
              Bcc     0.0491    26.218     9.355     8.745 -0.0306  0.1830  0.9826
 
              Baa    -0.1252   -66.793   -23.833   -22.280 -0.5608  0.2348  0.7940
    10 H(1)   Bbb    -0.1203   -64.211   -22.912   -21.419  0.8072  0.3685  0.4611
              Bcc     0.2455   131.004    46.746    43.698 -0.1843  0.8995 -0.3962
 
              Baa    -0.0080    -4.256    -1.519    -1.420  0.9020  0.0123 -0.4317
    11 H(1)   Bbb    -0.0058    -3.078    -1.098    -1.027 -0.3150  0.7024 -0.6383
              Bcc     0.0137     7.335     2.617     2.447  0.2954  0.7117  0.6374
 
              Baa    -0.0073    -3.903    -1.393    -1.302 -0.5875  0.1950  0.7853
    12 H(1)   Bbb    -0.0024    -1.278    -0.456    -0.426  0.7953 -0.0402  0.6049
              Bcc     0.0097     5.181     1.849     1.728  0.1495  0.9800 -0.1315
 
              Baa    -0.0081    -4.312    -1.539    -1.438 -0.2122  0.3410  0.9158
    13 H(1)   Bbb    -0.0052    -2.752    -0.982    -0.918 -0.5030  0.7654 -0.4015
              Bcc     0.0132     7.064     2.521     2.356  0.8378  0.5458 -0.0091
 
              Baa    -1.0241    74.106    26.443    24.719  0.7327  0.4302  0.5273
    14 O(17)  Bbb    -0.9961    72.075    25.718    24.042 -0.6493  0.2101  0.7309
              Bcc     2.0202  -146.180   -52.161   -48.761 -0.2037  0.8780 -0.4333
 
              Baa    -0.0719   -38.380   -13.695   -12.802 -0.6439  0.2042  0.7374
    15 H(1)   Bbb    -0.0224   -11.954    -4.265    -3.987 -0.2691  0.8417 -0.4681
              Bcc     0.0943    50.334    17.960    16.790  0.7162  0.4999  0.4870
 

 ---------------------------------------------------------------------------------

 Calling FoFJK, ICntrl=    100127 FMM=F ISym2X=0 I1Cent= 0 IOpClX= 1 NMat=1 NMatS=1 NMatT=0.
 Full mass-weighted force constant matrix:
 Low frequencies ----1769.0970    0.0003    0.0005    0.0006   14.2530   25.8415
 Low frequencies ---   37.4414   77.0289  125.1577
 ******    1 imaginary frequencies (negative Signs) ****** 
 Diagonal vibrational polarizability:
       38.8679229      29.3070401      18.5687510
 Harmonic frequencies (cm**-1), IR intensities (KM/Mole), Raman scattering
 activities (A**4/AMU), depolarization ratios for plane and unpolarized
 incident light, reduced masses (AMU), force constants (mDyne/A),
 and normal coordinates:
                      1                      2                      3
                      A                      A                      A
 Frequencies --  -1769.0969                73.7376               125.1287
 Red. masses --      1.0760                 6.4730                 4.5736
 Frc consts  --      1.9841                 0.0207                 0.0422
 IR Inten    --    684.7988                 2.8684                 0.9556
  Atom  AN      X      Y      Z        X      Y      Z        X      Y      Z
     1   6     0.00   0.00   0.00     0.09  -0.18   0.28     0.07   0.02   0.14
     2   1     0.00   0.00   0.00     0.12  -0.28   0.49     0.11   0.04   0.27
     3   6     0.00   0.00   0.00     0.05  -0.06   0.04     0.02   0.00  -0.03
     4   6     0.01   0.01   0.00     0.02   0.05  -0.15     0.00  -0.02  -0.07
     5   8     0.00   0.00   0.00     0.02   0.12  -0.31     0.02  -0.13   0.17
     6   8    -0.01   0.00   0.00     0.02   0.03  -0.10    -0.04   0.09  -0.32
     7   6     0.02  -0.05   0.02     0.04  -0.02   0.01     0.02   0.05  -0.09
     8   6     0.00   0.01   0.00     0.04  -0.01  -0.05    -0.03  -0.04   0.24
     9   1    -0.02   0.11  -0.03     0.10  -0.14   0.04     0.22   0.14  -0.10
    10   1    -0.18   0.89  -0.39    -0.10   0.03   0.18    -0.09   0.01  -0.09
    11   1     0.00  -0.01   0.00    -0.09   0.16  -0.08    -0.33  -0.14   0.23
    12   1     0.00   0.00   0.00     0.16  -0.07  -0.23     0.18   0.03   0.24
    13   1     0.00   0.00   0.00     0.06  -0.10   0.12     0.03  -0.09   0.52
    14   8     0.01  -0.04   0.02    -0.23   0.04   0.27    -0.05   0.03  -0.06
    15   1    -0.03   0.03  -0.03    -0.11   0.02   0.12    -0.08   0.01   0.00
                      4                      5                      6
                      A                      A                      A
 Frequencies --    134.0298               172.2091               183.9688
 Red. masses --      4.1802                 1.1803                 4.9411
 Frc consts  --      0.0442                 0.0206                 0.0985
 IR Inten    --      2.6518                 0.4305                 6.2291
  Atom  AN      X      Y      Z        X      Y      Z        X      Y      Z
     1   6     0.15   0.30   0.09    -0.02   0.00   0.00     0.09   0.03  -0.06
     2   1     0.25   0.58   0.20    -0.03  -0.02   0.01     0.09   0.12  -0.15
     3   6     0.02  -0.04  -0.03    -0.02   0.02  -0.01     0.09  -0.09   0.05
     4   6    -0.02  -0.13  -0.07    -0.02   0.02   0.00     0.10  -0.07   0.08
     5   8    -0.02  -0.09  -0.15    -0.02   0.02   0.00     0.14  -0.06   0.09
     6   8    -0.03  -0.15   0.02    -0.01   0.01   0.01     0.04  -0.01   0.05
     7   6    -0.01  -0.02   0.04     0.00  -0.02   0.04     0.05   0.06   0.04
     8   6    -0.18   0.11   0.04    -0.01   0.01  -0.02    -0.07   0.21  -0.08
     9   1     0.04  -0.02   0.04     0.02  -0.08   0.06     0.05   0.02   0.05
    10   1     0.08   0.02   0.05     0.01  -0.01   0.06    -0.04  -0.02   0.02
    11   1    -0.23   0.11   0.04    -0.42   0.40  -0.10    -0.22   0.44  -0.12
    12   1    -0.31   0.05   0.03     0.33  -0.12  -0.47    -0.08   0.07  -0.32
    13   1    -0.14   0.27   0.07     0.06  -0.22   0.47    -0.02   0.25   0.10
    14   8     0.10   0.02   0.05     0.07  -0.04  -0.02    -0.35  -0.10  -0.12
    15   1     0.15  -0.01   0.00     0.06  -0.03  -0.02    -0.33   0.09  -0.30
                      7                      8                      9
                      A                      A                      A
 Frequencies --    240.1220               275.6715               308.7657
 Red. masses --      3.1102                 5.0519                 5.4163
 Frc consts  --      0.1057                 0.2262                 0.3042
 IR Inten    --      1.7278                 4.2832                 1.3313
  Atom  AN      X      Y      Z        X      Y      Z        X      Y      Z
     1   6    -0.01  -0.08   0.08     0.05   0.07   0.13    -0.03   0.09  -0.09
     2   1    -0.01  -0.26   0.25     0.18   0.20   0.46    -0.06   0.28  -0.37
     3   6    -0.01   0.16  -0.15    -0.11  -0.09  -0.30     0.00  -0.18   0.30
     4   6    -0.01   0.08  -0.07    -0.02   0.00  -0.06     0.00   0.04   0.04
     5   8    -0.05   0.00   0.07     0.27   0.01   0.07     0.14   0.12  -0.05
     6   8     0.04   0.02  -0.06    -0.15   0.10   0.10    -0.10   0.20  -0.20
     7   6     0.08  -0.06   0.11    -0.16   0.02   0.10    -0.06  -0.05   0.07
     8   6    -0.09   0.13  -0.03     0.06  -0.10  -0.07    -0.07  -0.02  -0.02
     9   1     0.17  -0.20   0.15    -0.24  -0.05   0.11     0.07  -0.24   0.12
    10   1     0.05  -0.11   0.19    -0.14   0.00   0.06    -0.15  -0.13   0.20
    11   1     0.12   0.10  -0.01     0.28  -0.02  -0.07     0.09  -0.04   0.00
    12   1    -0.49   0.05   0.07     0.17  -0.07  -0.09    -0.25  -0.04   0.05
    13   1    -0.08   0.44  -0.28    -0.03  -0.33  -0.24    -0.10   0.08  -0.20
    14   8     0.05  -0.19   0.00     0.00  -0.03  -0.04     0.09  -0.20   0.05
    15   1    -0.04  -0.08   0.04     0.03  -0.04  -0.05     0.25  -0.31  -0.08
                     10                     11                     12
                      A                      A                      A
 Frequencies --    380.7788               404.8833               497.6132
 Red. masses --      1.4661                 1.7687                 2.8375
 Frc consts  --      0.1252                 0.1708                 0.4140
 IR Inten    --     70.3673                46.6109                 9.0928
  Atom  AN      X      Y      Z        X      Y      Z        X      Y      Z
     1   6    -0.02   0.01   0.00     0.02  -0.02   0.00    -0.04   0.01   0.02
     2   1    -0.01   0.03   0.01     0.00  -0.10   0.02    -0.01   0.08   0.07
     3   6    -0.02  -0.02   0.00     0.04   0.08  -0.03    -0.07  -0.05  -0.04
     4   6    -0.02  -0.03  -0.01     0.03   0.04   0.03    -0.02  -0.02   0.01
     5   8    -0.07  -0.05   0.00     0.06   0.05   0.03    -0.03  -0.01   0.00
     6   8    -0.02   0.00  -0.04     0.04   0.00   0.04     0.00   0.00   0.04
     7   6     0.03   0.03   0.10    -0.04  -0.06  -0.11     0.01   0.19  -0.17
     8   6     0.10   0.04   0.00    -0.13  -0.07   0.00     0.09   0.12   0.01
     9   1     0.11  -0.05   0.12    -0.12   0.01  -0.13    -0.10   0.48  -0.25
    10   1    -0.02   0.09   0.17    -0.04  -0.04  -0.08    -0.01  -0.19  -0.32
    11   1     0.26   0.10   0.00    -0.31  -0.16   0.00     0.02   0.02   0.01
    12   1     0.11   0.03  -0.02    -0.16  -0.06   0.04     0.26   0.21   0.07
    13   1     0.06  -0.05  -0.12    -0.08   0.05   0.13     0.09   0.03   0.08
    14   8    -0.03   0.03   0.00    -0.03   0.01   0.05     0.02  -0.18   0.12
    15   1     0.53  -0.05  -0.71     0.56  -0.23  -0.58     0.22  -0.46   0.06
                     13                     14                     15
                      A                      A                      A
 Frequencies --    546.8033               625.8811               742.4486
 Red. masses --      5.3990                 7.4745                 1.3250
 Frc consts  --      0.9511                 1.7251                 0.4303
 IR Inten    --      1.2187                 8.1308                36.6136
  Atom  AN      X      Y      Z        X      Y      Z        X      Y      Z
     1   6     0.25  -0.09  -0.08    -0.25   0.05   0.06    -0.05  -0.13  -0.06
     2   1     0.16  -0.35  -0.19    -0.42  -0.38  -0.10     0.33   0.85   0.38
     3   6     0.33   0.20   0.04    -0.06   0.43   0.20     0.02   0.07   0.03
     4   6     0.04  -0.06  -0.04    -0.07  -0.17  -0.07     0.00   0.00   0.00
     5   8    -0.11  -0.10  -0.03     0.34  -0.09  -0.08     0.01   0.00   0.00
     6   8    -0.15   0.08   0.03    -0.08  -0.19  -0.07     0.00   0.00   0.00
     7   6    -0.24   0.14   0.08    -0.02   0.05   0.01    -0.01   0.00   0.00
     8   6    -0.04  -0.02  -0.01     0.05   0.05   0.01     0.00   0.00   0.00
     9   1    -0.27   0.16   0.07     0.09   0.11   0.01     0.00   0.01   0.00
    10   1    -0.22   0.00  -0.04     0.03   0.01  -0.04    -0.01   0.00  -0.01
    11   1     0.17   0.05  -0.01     0.20   0.09   0.01     0.01   0.01   0.00
    12   1     0.16   0.04  -0.03     0.19   0.08  -0.01     0.00   0.00   0.00
    13   1    -0.14  -0.32  -0.16     0.00  -0.13  -0.08    -0.01  -0.01  -0.01
    14   8     0.02  -0.06   0.02    -0.01  -0.01   0.00     0.00   0.00   0.00
    15   1     0.03  -0.23   0.16    -0.03  -0.01   0.03     0.00  -0.01   0.00
                     16                     17                     18
                      A                      A                      A
 Frequencies --    771.9126               784.2681               795.9403
 Red. masses --      2.5799                 1.8939                 1.2613
 Frc consts  --      0.9057                 0.6863                 0.4708
 IR Inten    --      1.5186                51.3217                94.6915
  Atom  AN      X      Y      Z        X      Y      Z        X      Y      Z
     1   6     0.02  -0.07   0.14    -0.01   0.05  -0.11     0.01  -0.01   0.00
     2   1    -0.11   0.41  -0.80     0.12  -0.40   0.81     0.00   0.04  -0.08
     3   6    -0.02   0.07  -0.14     0.00   0.02  -0.03     0.01   0.00   0.02
     4   6     0.04  -0.11   0.25     0.03  -0.09   0.21    -0.02   0.03  -0.06
     5   8    -0.01   0.03  -0.08    -0.01   0.02  -0.06     0.00  -0.01   0.02
     6   8    -0.02   0.03  -0.06    -0.02   0.02  -0.04    -0.01  -0.01   0.02
     7   6     0.00   0.01  -0.01     0.00   0.01  -0.02    -0.02   0.04  -0.06
     8   6     0.00   0.01   0.00     0.00   0.01  -0.01    -0.01   0.02  -0.03
     9   1     0.04  -0.13   0.02     0.02  -0.14   0.02    -0.07  -0.26   0.02
    10   1     0.00   0.05   0.09     0.03   0.06   0.12     0.24   0.18   0.33
    11   1    -0.02  -0.05   0.00    -0.03  -0.08   0.00    -0.10  -0.27   0.01
    12   1     0.04   0.04   0.05     0.06   0.06   0.06     0.20   0.21   0.20
    13   1     0.01  -0.01   0.02     0.01  -0.02   0.03     0.00  -0.09   0.10
    14   8     0.01  -0.01   0.00     0.01  -0.02   0.01     0.02  -0.07   0.04
    15   1    -0.04   0.08  -0.02    -0.06   0.15  -0.04    -0.16   0.60  -0.28
                     19                     20                     21
                      A                      A                      A
 Frequencies --    899.5607               931.0699               968.0382
 Red. masses --      1.7929                 1.5459                 4.0271
 Frc consts  --      0.8548                 0.7896                 2.2235
 IR Inten    --     32.9208                29.7890                 4.5471
  Atom  AN      X      Y      Z        X      Y      Z        X      Y      Z
     1   6    -0.03   0.01   0.01    -0.03   0.01   0.01    -0.14   0.04   0.04
     2   1    -0.04   0.00   0.00    -0.04   0.00   0.01    -0.15   0.05   0.05
     3   6    -0.01   0.03   0.02    -0.01   0.02   0.01    -0.09   0.00   0.01
     4   6     0.02  -0.05  -0.05     0.03  -0.04  -0.01     0.19  -0.03  -0.05
     5   8     0.00  -0.09  -0.04    -0.01  -0.07  -0.04    -0.03  -0.14  -0.05
     6   8    -0.04   0.12   0.08    -0.03   0.12   0.04     0.24   0.12   0.03
     7   6     0.04  -0.05  -0.03     0.05   0.00  -0.01    -0.03   0.15   0.07
     8   6     0.10   0.03  -0.04     0.01  -0.09   0.02    -0.19  -0.06  -0.05
     9   1    -0.16  -0.45   0.07    -0.06   0.50  -0.14     0.15  -0.12   0.15
    10   1    -0.23   0.04   0.08     0.29  -0.09  -0.05    -0.15   0.15   0.07
    11   1    -0.33  -0.24  -0.03    -0.04   0.20  -0.03     0.04  -0.22  -0.01
    12   1    -0.10   0.09   0.20    -0.32  -0.32  -0.22     0.21   0.11   0.04
    13   1     0.25   0.41   0.29     0.04   0.19  -0.07    -0.33  -0.58  -0.17
    14   8    -0.01   0.02  -0.03     0.01  -0.02   0.03     0.00  -0.01  -0.01
    15   1     0.06  -0.28   0.14    -0.10   0.45  -0.21     0.02  -0.18   0.11
                     22                     23                     24
                      A                      A                      A
 Frequencies --   1124.7321              1132.8245              1156.7793
 Red. masses --      2.0178                 1.9203                 2.3473
 Frc consts  --      1.5039                 1.4519                 1.8507
 IR Inten    --    111.0969                15.4974                13.5943
  Atom  AN      X      Y      Z        X      Y      Z        X      Y      Z
     1   6     0.02  -0.01   0.00     0.03  -0.01  -0.01     0.01   0.00   0.00
     2   1     0.02  -0.01  -0.01     0.03  -0.01  -0.01     0.01   0.00   0.00
     3   6     0.01   0.01   0.00     0.02   0.01   0.00     0.00  -0.01   0.00
     4   6    -0.03  -0.01   0.00    -0.06  -0.01   0.00    -0.03   0.00   0.01
     5   8     0.00  -0.01  -0.01     0.01   0.01   0.01     0.00   0.04   0.02
     6   8    -0.11   0.05   0.02    -0.09  -0.01   0.06     0.01  -0.08  -0.06
     7   6     0.19  -0.09   0.07     0.17   0.12  -0.10     0.01   0.19   0.17
     8   6    -0.10   0.04  -0.08    -0.05  -0.08   0.01     0.04  -0.12  -0.15
     9   1     0.13   0.21  -0.01     0.58  -0.07  -0.01     0.05   0.25   0.17
    10   1     0.40  -0.25  -0.35    -0.43   0.20   0.47     0.10   0.01  -0.17
    11   1     0.02  -0.37  -0.01    -0.02   0.02  -0.01    -0.56  -0.40  -0.14
    12   1     0.32   0.29   0.14    -0.11  -0.18  -0.15    -0.32  -0.06   0.17
    13   1    -0.13  -0.36   0.06    -0.10  -0.10  -0.17     0.18   0.20   0.22
    14   8    -0.02   0.02   0.00     0.01  -0.01  -0.01     0.00  -0.01   0.01
    15   1     0.04  -0.09   0.01     0.01  -0.11   0.07     0.01  -0.02   0.00
                     25                     26                     27
                      A                      A                      A
 Frequencies --   1248.3480              1284.5656              1370.8800
 Red. masses --      1.2384                 5.0620                 1.2919
 Frc consts  --      1.1371                 4.9214                 1.4304
 IR Inten    --     57.6027               738.9321                16.0242
  Atom  AN      X      Y      Z        X      Y      Z        X      Y      Z
     1   6    -0.02   0.01   0.00    -0.09   0.02   0.03     0.02   0.00  -0.01
     2   1    -0.02   0.01   0.01    -0.09   0.06   0.04     0.02  -0.01  -0.01
     3   6    -0.01   0.00   0.00    -0.03  -0.01   0.00     0.00   0.00   0.00
     4   6     0.08   0.03   0.00     0.45   0.16   0.00    -0.08  -0.02   0.01
     5   8    -0.01   0.00   0.00    -0.05   0.00   0.01     0.01   0.00   0.00
     6   8    -0.02  -0.03  -0.02    -0.24  -0.14  -0.03     0.03   0.00  -0.03
     7   6     0.00  -0.08   0.03     0.09   0.09  -0.03     0.10   0.04   0.01
     8   6     0.00   0.03  -0.05     0.01  -0.03   0.05     0.00   0.04   0.05
     9   1    -0.16   0.62  -0.16    -0.45  -0.51   0.11    -0.80  -0.07   0.00
    10   1    -0.40   0.00   0.56     0.21  -0.04  -0.23    -0.05   0.05   0.14
    11   1    -0.03  -0.14  -0.02    -0.01   0.07   0.03    -0.08  -0.22   0.07
    12   1     0.07   0.13   0.10    -0.09  -0.16  -0.14    -0.16  -0.19  -0.25
    13   1     0.04  -0.01   0.12    -0.02   0.02  -0.12    -0.11  -0.27  -0.15
    14   8     0.01   0.00  -0.01     0.00   0.00   0.01     0.00   0.00   0.00
    15   1    -0.02   0.01   0.02     0.03  -0.05  -0.01     0.01  -0.05   0.03
                     28                     29                     30
                      A                      A                      A
 Frequencies --   1418.8938              1480.1081              1486.2274
 Red. masses --      1.3656                 1.0440                 1.0479
 Frc consts  --      1.6198                 1.3475                 1.3637
 IR Inten    --     10.2591                 9.4241                 1.2254
  Atom  AN      X      Y      Z        X      Y      Z        X      Y      Z
     1   6     0.01   0.00   0.00     0.00   0.00   0.00     0.00   0.00   0.00
     2   1     0.01   0.00   0.00     0.00   0.00   0.00     0.00   0.00   0.00
     3   6     0.00   0.00   0.00     0.00   0.00   0.00     0.00   0.00   0.00
     4   6    -0.04  -0.01   0.00     0.01   0.00   0.00     0.00   0.00   0.00
     5   8     0.00   0.00   0.00     0.00   0.00   0.00     0.00   0.00   0.00
     6   8     0.01   0.00  -0.02     0.00   0.00   0.00     0.00  -0.01   0.00
     7   6     0.07   0.04   0.01    -0.03  -0.01   0.02    -0.01   0.02   0.00
     8   6    -0.10  -0.12  -0.02     0.00   0.01   0.04    -0.04   0.02  -0.02
     9   1    -0.39  -0.02   0.02     0.10   0.05   0.01     0.05  -0.05   0.02
    10   1     0.04   0.07   0.10     0.00  -0.01  -0.01    -0.15  -0.07  -0.10
    11   1     0.31   0.37  -0.06    -0.26  -0.39   0.07     0.55  -0.41   0.09
    12   1     0.45   0.18   0.17     0.48  -0.07  -0.39    -0.05  -0.20  -0.38
    13   1     0.07   0.52   0.10    -0.03   0.42  -0.44     0.12   0.15   0.50
    14   8     0.00   0.00   0.00     0.00   0.00   0.00     0.01   0.00   0.01
    15   1     0.01  -0.07   0.03     0.00   0.00   0.00    -0.02   0.09  -0.04
                     31                     32                     33
                      A                      A                      A
 Frequencies --   1516.1780              1832.3176              2267.0561
 Red. masses --      1.0528                12.3830                 5.6995
 Frc consts  --      1.4260                24.4950                17.2588
 IR Inten    --     69.9990               281.8892                88.7762
  Atom  AN      X      Y      Z        X      Y      Z        X      Y      Z
     1   6     0.00   0.00   0.00     0.07  -0.02  -0.02    -0.35   0.09   0.10
     2   1     0.00   0.00   0.00     0.12  -0.01  -0.02    -0.71   0.19   0.20
     3   6     0.00   0.00   0.00    -0.04   0.00   0.01     0.49  -0.13  -0.14
     4   6     0.01  -0.01  -0.01    -0.21   0.69   0.34    -0.08   0.04   0.03
     5   8     0.00   0.01   0.00     0.13  -0.46  -0.22     0.00  -0.01   0.00
     6   8    -0.01   0.00   0.00     0.00  -0.05  -0.02     0.00   0.00   0.00
     7   6    -0.04   0.00  -0.02    -0.03   0.03   0.01     0.00   0.00   0.00
     8   6     0.00   0.00   0.00     0.01  -0.01  -0.01     0.00   0.00   0.00
     9   1     0.06   0.10  -0.03     0.11   0.04   0.04     0.00   0.00   0.00
    10   1     0.68   0.34   0.39     0.12   0.02   0.06     0.00   0.01   0.00
    11   1     0.10  -0.09   0.02    -0.02  -0.03   0.00     0.00   0.00   0.00
    12   1    -0.07  -0.09  -0.11    -0.02  -0.02  -0.01     0.00   0.00   0.00
    13   1     0.04   0.02   0.11     0.02   0.04   0.02     0.00   0.00   0.00
    14   8    -0.03   0.00  -0.02     0.00   0.00   0.00     0.00   0.00   0.00
    15   1     0.08  -0.38   0.18     0.03  -0.12   0.01     0.00  -0.01   0.00
                     34                     35                     36
                      A                      A                      A
 Frequencies --   3048.8243              3127.1709              3138.0149
 Red. masses --      1.0407                 1.0939                 1.0883
 Frc consts  --      5.6997                 6.3030                 6.3142
 IR Inten    --      2.4293                 2.6549                 4.6568
  Atom  AN      X      Y      Z        X      Y      Z        X      Y      Z
     1   6     0.00   0.00   0.00     0.00   0.00   0.00     0.00   0.00   0.00
     2   1     0.00   0.00   0.00     0.00   0.00   0.00     0.00   0.00   0.00
     3   6     0.00   0.00   0.00     0.00   0.00   0.00     0.00   0.00   0.00
     4   6     0.00   0.00   0.00     0.00   0.00   0.00     0.00   0.00   0.00
     5   8     0.00   0.00   0.00     0.00   0.00   0.00     0.00   0.00   0.00
     6   8     0.00   0.00   0.00     0.00   0.00   0.00     0.00   0.00   0.00
     7   6     0.00   0.00   0.00     0.00   0.01   0.04     0.00  -0.02  -0.07
     8   6    -0.01  -0.05   0.00    -0.03   0.03  -0.07    -0.03   0.02  -0.02
     9   1     0.00   0.00   0.01     0.02  -0.11  -0.43    -0.04   0.22   0.83
    10   1     0.00   0.01   0.00     0.00   0.00   0.01     0.00   0.00  -0.01
    11   1    -0.03   0.05   0.44    -0.06   0.10   0.66    -0.02   0.04   0.19
    12   1    -0.23   0.67  -0.38     0.14  -0.42   0.22     0.07  -0.24   0.13
    13   1     0.37  -0.08  -0.09     0.30  -0.05  -0.08     0.35  -0.07  -0.09
    14   8     0.00   0.00   0.00     0.00   0.00   0.00     0.00   0.00   0.00
    15   1     0.00   0.00   0.00     0.00   0.00   0.00     0.00   0.00   0.00
                     37                     38                     39
                      A                      A                      A
 Frequencies --   3164.3804              3473.0750              3815.8464
 Red. masses --      1.1020                 1.1733                 1.0662
 Frc consts  --      6.5015                 8.3386                 9.1472
 IR Inten    --      5.4151                65.2254                66.3005
  Atom  AN      X      Y      Z        X      Y      Z        X      Y      Z
     1   6     0.00   0.00   0.00    -0.11   0.03   0.03     0.00   0.00   0.00
     2   1     0.00   0.00   0.00     0.92  -0.25  -0.26     0.00   0.00   0.00
     3   6     0.00   0.00   0.00     0.03  -0.01  -0.01     0.00   0.00   0.00
     4   6     0.00   0.00   0.00     0.00   0.00   0.00     0.00   0.00   0.00
     5   8     0.00   0.00   0.00     0.00   0.00   0.00     0.00   0.00   0.00
     6   8     0.00   0.00   0.00     0.00   0.00   0.00     0.00   0.00   0.00
     7   6     0.00  -0.01  -0.02     0.00   0.00   0.00     0.00   0.00   0.00
     8   6     0.07  -0.02  -0.06     0.00   0.00   0.00     0.00   0.00   0.00
     9   1    -0.01   0.06   0.22     0.00   0.00   0.00     0.00   0.00   0.00
    10   1     0.00   0.00   0.00     0.00   0.00   0.00     0.01  -0.01   0.01
    11   1    -0.03   0.07   0.56     0.00   0.00   0.00     0.00   0.00   0.00
    12   1    -0.01   0.05  -0.04     0.00   0.00   0.00     0.00   0.00   0.00
    13   1    -0.75   0.15   0.18     0.00   0.00   0.00     0.00   0.00   0.00
    14   8     0.00   0.00   0.00     0.00   0.00   0.00     0.05   0.03   0.03
    15   1     0.00   0.00   0.00     0.00   0.00   0.00    -0.73  -0.45  -0.51

 -------------------
 - Thermochemistry -
 -------------------
 Temperature   298.150 Kelvin.  Pressure   1.00000 Atm.
 Atom     1 has atomic number  6 and mass  12.00000
 Atom     2 has atomic number  1 and mass   1.00783
 Atom     3 has atomic number  6 and mass  12.00000
 Atom     4 has atomic number  6 and mass  12.00000
 Atom     5 has atomic number  8 and mass  15.99491
 Atom     6 has atomic number  8 and mass  15.99491
 Atom     7 has atomic number  6 and mass  12.00000
 Atom     8 has atomic number  6 and mass  12.00000
 Atom     9 has atomic number  1 and mass   1.00783
 Atom    10 has atomic number  1 and mass   1.00783
 Atom    11 has atomic number  1 and mass   1.00783
 Atom    12 has atomic number  1 and mass   1.00783
 Atom    13 has atomic number  1 and mass   1.00783
 Atom    14 has atomic number  8 and mass  15.99491
 Atom    15 has atomic number  1 and mass   1.00783
 Molecular mass:   115.03952 amu.
 Principal axes and moments of inertia in atomic units:
                           1         2         3
     Eigenvalues --   592.757861486.552001890.70268
           X            0.99962   0.02621  -0.00891
           Y           -0.02618   0.99965   0.00317
           Z            0.00899  -0.00294   0.99996
 This molecule is an asymmetric top.
 Rotational symmetry number  1.
 Warning -- assumption of classical behavior for rotation
           may cause significant error
 Rotational temperatures (Kelvin)      0.14612     0.05826     0.04581
 Rotational constants (GHZ):           3.04465     1.21405     0.95453
    1 imaginary frequencies ignored.
 Zero-point vibrational energy     280817.7 (Joules/Mol)
                                   67.11704 (Kcal/Mol)
 Warning -- explicit consideration of  12 degrees of freedom as
           vibrations may cause significant error
 Vibrational temperatures:    106.09   180.03   192.84   247.77   264.69
          (Kelvin)            345.48   396.63   444.24   547.86   582.54
                              715.95   786.73   900.50  1068.22  1110.61
                             1128.39  1145.18  1294.27  1339.60  1392.79
                             1618.24  1629.88  1664.35  1796.09  1848.20
                             1972.39  2041.47  2129.54  2138.35  2181.44
                             2636.29  3261.78  4386.57  4499.30  4514.90
                             4552.83  4996.97  5490.14
 
 Zero-point correction=                           0.106958 (Hartree/Particle)
 Thermal correction to Energy=                    0.116298
 Thermal correction to Enthalpy=                  0.117242
 Thermal correction to Gibbs Free Energy=         0.072106
 Sum of electronic and zero-point Energies=           -419.3559717
 Sum of electronic and thermal Energies=              -420.091750
 Sum of electronic and thermal Enthalpies=            -420.090805
 Sum of electronic and thermal Free Energies=         -420.135941
 
                     E (Thermal)             CV                S
                      KCal/Mol        Cal/Mol-Kelvin    Cal/Mol-Kelvin
 Total                   72.978             32.726             94.997
 Electronic               0.000              0.000              1.377
 Translational            0.889              2.981             40.136
 Rotational               0.889              2.981             28.901
 Vibrational             71.201             26.764             24.583
 Vibration     1          0.599              1.966              4.051
 Vibration     2          0.610              1.928              3.020
 Vibration     3          0.613              1.919              2.887
 Vibration     4          0.626              1.877              2.411
 Vibration     5          0.631              1.862              2.288
 Vibration     6          0.657              1.779              1.802
 Vibration     7          0.677              1.718              1.560
 Vibration     8          0.698              1.657              1.369
 Vibration     9          0.751              1.511              1.036
 Vibration    10          0.770              1.460              0.945
 Vibration    11          0.853              1.255              0.664
 Vibration    12          0.902              1.147              0.551
                       Q            Log10(Q)             Ln(Q)
 Total Bot       0.681751D-33        -33.166374        -76.368398
 Total V=0       0.107325D+17         16.030700         36.912052
 Vib (Bot)       0.152119D-46        -46.817817       -107.802007
 Vib (Bot)    1  0.279553D+01          0.446464          1.028021
 Vib (Bot)    2  0.163120D+01          0.212507          0.489316
 Vib (Bot)    3  0.151949D+01          0.181697          0.418373
 Vib (Bot)    4  0.116939D+01          0.067960          0.156484
 Vib (Bot)    5  0.109026D+01          0.037528          0.086412
 Vib (Bot)    6  0.816543D+00         -0.088021         -0.202676
 Vib (Bot)    7  0.699013D+00         -0.155514         -0.358085
 Vib (Bot)    8  0.612854D+00         -0.212643         -0.489629
 Vib (Bot)    9  0.474572D+00         -0.323698         -0.745341
 Vib (Bot)   10  0.438638D+00         -0.357894         -0.824082
 Vib (Bot)   11  0.330982D+00         -0.480196         -1.105692
 Vib (Bot)   12  0.287880D+00         -0.540789         -1.245212
 Vib (V=0)       0.239474D+03          2.379258          5.478444
 Vib (V=0)    1  0.333989D+01          0.523732          1.205938
 Vib (V=0)    2  0.220611D+01          0.343627          0.791231
 Vib (V=0)    3  0.209964D+01          0.322144          0.741765
 Vib (V=0)    4  0.177180D+01          0.248415          0.571996
 Vib (V=0)    5  0.169944D+01          0.230306          0.530299
 Vib (V=0)    6  0.145747D+01          0.163599          0.376700
 Vib (V=0)    7  0.135943D+01          0.133357          0.307065
 Vib (V=0)    8  0.129094D+01          0.110907          0.255372
 Vib (V=0)    9  0.118936D+01          0.075314          0.173416
 Vib (V=0)   10  0.116513D+01          0.066376          0.152836
 Vib (V=0)   11  0.109962D+01          0.041244          0.094968
 Vib (V=0)   12  0.107695D+01          0.032197          0.074136
 Electronic      0.200000D+01          0.301030          0.693147
 Translational   0.484982D+08          7.685726         17.697038
 Rotational      0.462048D+06          5.664687         13.043423
 ***** Axes restored to original set *****
 -------------------------------------------------------------------
 Center     Atomic                   Forces (Hartrees/Bohr)
 Number     Number              X              Y              Z
 -------------------------------------------------------------------
      1        6          -0.000130480   -0.000025652    0.000003674
      2        1           0.000003335    0.000017328   -0.000007571
      3        6          -0.000326752   -0.000297649   -0.000043772
      4        6           0.002278425    0.002434030    0.000877398
      5        8           0.000735371   -0.000874616    0.000607431
      6        8          -0.006675928    0.002063367   -0.000880010
      7        6           0.007240331   -0.012374659    0.003759951
      8        6          -0.000748273    0.004530504   -0.001756213
      9        1          -0.000561999    0.003614157   -0.001022915
     10        1          -0.004344352    0.024409999   -0.010306853
     11        1           0.000021134   -0.000146859   -0.000091943
     12        1           0.000297909    0.000323521    0.000123196
     13        1          -0.000039942    0.000075520    0.000040095
     14        8           0.003135803   -0.024139055    0.009352733
     15        1          -0.000884580    0.000390064   -0.000655200
 -------------------------------------------------------------------
 Cartesian Forces:  Max     0.024409999 RMS     0.006190004

 GradGradGradGradGradGradGradGradGradGradGradGradGradGradGradGradGradGrad
 Berny optimization.
 Search for a local minimum.
 Step number   1 out of a maximum of    2
 All quantities printed in internal units (Hartrees-Bohrs-Radians)
 Second derivative matrix not updated -- analytic derivatives used.
 ITU=  0
     Eigenvalues ---   -0.17837   0.00096   0.00207   0.00274   0.00379
     Eigenvalues ---    0.00692   0.00884   0.01147   0.01663   0.01920
     Eigenvalues ---    0.02498   0.03032   0.04341   0.05471   0.06392
     Eigenvalues ---    0.06760   0.07854   0.08902   0.09112   0.10372
     Eigenvalues ---    0.10558   0.12048   0.13772   0.17447   0.18931
     Eigenvalues ---    0.24286   0.29384   0.34592   0.47026   0.50871
     Eigenvalues ---    0.65793   0.72544   0.76120   0.80163   0.86655
     Eigenvalues ---    0.91220   0.97247   1.71448   2.73220
 Eigenvalue     1 is  -1.78D-01 should be greater than     0.000000 Eigenvector:
                          Y10       Z10       Y14       Y7        X10
   1                    0.80641  -0.32524  -0.31669  -0.22482  -0.14003
                          Z7        Z14       X7        Y9        X14
   1                    0.11450   0.11176   0.09736   0.08795   0.08077
 Quadratic step=3.514D-01 exceeds max=3.000D-01 adjusted using Lamda=-3.618D-03.
 Angle between NR and scaled steps=  11.64 degrees.
 Angle between quadratic step and forces=  37.66 degrees.
 Linear search not attempted -- first point.
 TrRot=  0.003925 -0.009560  0.004387 -0.036098  0.000599  0.038248
 Variable       Old X    -DE/DX   Delta X   Delta X   Delta X     New X
                                 (Linear)    (Quad)   (Total)
    X1        6.19476  -0.00013   0.00000  -0.00693  -0.00138   6.19338
    Y1       -0.98973  -0.00003   0.00000  -0.00453  -0.00076  -0.99049
    Z1       -0.83343   0.00000   0.00000  -0.00115  -0.00049  -0.83392
    X2        8.07221   0.00000   0.00000  -0.00803  -0.00170   8.07051
    Y2       -1.49397   0.00002   0.00000  -0.01135  -0.00353  -1.49751
    Z2       -1.35519  -0.00001   0.00000  -0.00292  -0.00339  -1.35858
    X3        4.08284  -0.00033   0.00000  -0.00400   0.00066   4.08350
    Y3       -0.42540  -0.00030   0.00000   0.00960   0.00882  -0.41658
    Z3       -0.24656  -0.00004   0.00000  -0.00361  -0.00168  -0.24824
    X4        1.55901   0.00228   0.00000   0.00884   0.01222   1.57123
    Y4        0.35350   0.00243   0.00000   0.03393   0.02773   0.38123
    Z4        0.49242   0.00088   0.00000   0.00335   0.00681   0.49923
    X5        1.06953   0.00074   0.00000   0.02269   0.02243   1.09195
    Y5        2.34565  -0.00087   0.00000   0.01694   0.00969   2.35534
    Z5        1.45747   0.00061   0.00000   0.03405   0.03784   1.49530
    X6       -0.14985  -0.00668   0.00000  -0.01558  -0.00871  -0.15856
    Y6       -1.43610   0.00206   0.00000   0.04643   0.03652  -1.39959
    Z6       -0.03738  -0.00088   0.00000  -0.03273  -0.02827  -0.06565
    X7       -2.67527   0.00724   0.00000   0.03796   0.04439  -2.63087
    Y7       -0.91866  -0.01237   0.00000  -0.04738  -0.06263  -0.98129
    Z7        0.67283   0.00376   0.00000   0.03311   0.03906   0.71189
    X8       -4.33697  -0.00075   0.00000  -0.01981  -0.00954  -4.34652
    Y8       -3.05650   0.00453   0.00000   0.06083   0.04191  -3.01459
    Z8       -0.17250  -0.00176   0.00000  -0.01926  -0.01234  -0.18484
    X9       -2.78480  -0.00056   0.00000   0.00859   0.01494  -2.76986
    Y9       -0.42661   0.00361   0.00000   0.04750   0.03191  -0.39469
    Z9        2.67295  -0.00102   0.00000  -0.00151   0.00453   2.67748
   X10       -3.35404  -0.00434   0.00000  -0.02132  -0.02046  -3.37450
   Y10        1.19292   0.02441   0.00000   0.09182   0.07500   1.26793
   Z10       -0.46736  -0.01031   0.00000  -0.05404  -0.04760  -0.51497
   X11       -4.18457   0.00002   0.00000  -0.01363  -0.00399  -4.18856
   Y11       -3.33274  -0.00015   0.00000   0.05882   0.04029  -3.29245
   Z11       -2.20859  -0.00009   0.00000  -0.01679  -0.00996  -2.21855
   X12       -3.77113   0.00030   0.00000  -0.03448  -0.01987  -3.79100
   Y12       -4.80428   0.00032   0.00000   0.04970   0.03195  -4.77232
   Z12        0.77677   0.00012   0.00000  -0.01947  -0.01291   0.76386
   X13       -6.29908  -0.00004   0.00000  -0.01272  -0.00307  -6.30215
   Y13       -2.64852   0.00008   0.00000   0.07535   0.05221  -2.59631
   Z13        0.30364   0.00004   0.00000  -0.01203  -0.00392   0.29972
   X14       -3.61924   0.00314   0.00000   0.02155   0.01797  -3.60127
   Y14        3.33385  -0.02414   0.00000  -0.19812  -0.21540   3.11845
   Z14       -1.31435   0.00935   0.00000   0.02882   0.03543  -1.27892
   X15       -2.27765  -0.00088   0.00000  -0.03882  -0.04389  -2.32154
   Y15        4.14074   0.00039   0.00000  -0.05918  -0.07372   4.06702
   Z15       -0.36180  -0.00066   0.00000  -0.00897  -0.00310  -0.36490
         Item               Value     Threshold  Converged?
 Maximum Force            0.024410     0.000450     NO 
 RMS     Force            0.006190     0.000300     NO 
 Maximum Displacement     0.215397     0.001800     NO 
 RMS     Displacement     0.043645     0.001200     NO 
 Predicted change in Energy=-1.269094D-02
 GradGradGradGradGradGradGradGradGradGradGradGradGradGradGradGradGradGrad

 1|1|UNPC-DIT|Freq|UM062X|6-311++G(d,p)|C5H7O3(2)|NDITM|27-Mar-2025|0||
 # freq 6-311++g(d,p) m062x||Title Card Required||0,2|C,3.278124,-0.523
 74,-0.441032|H,4.271627,-0.790575,-0.717136|C,2.160547,-0.225111,-0.13
 0476|C,0.824994,0.187062,0.260576|O,0.565969,1.241262,0.771258|O,-0.07
 9295,-0.759954,-0.01978|C,-1.415691,-0.486136,0.356046|C,-2.295028,-1.
 617432,-0.091284|H,-1.473651,-0.225751,1.414464|H,-1.774882,0.631268,-
 0.247317|H,-2.214381,-1.763608,-1.168736|H,-1.995597,-2.542313,0.41105
 1|H,-3.333327,-1.401539,0.160682|O,-1.915219,1.764195,-0.695524|H,-1.2
 0528,2.191185,-0.191454||Version=IA32W-G09RevD.01|State=2-A|HF=-420.20
 80474|S2=0.760291|S2-1=0.|S2A=0.750043|RMSD=5.937e-009|RMSF=6.190e-003
 |ZeroPoint=0.1069578|Thermal=0.1162978|Dipole=0.6460471,-1.343448,0.33
 77336|DipoleDeriv=-0.2184092,0.0128049,0.0066341,0.0134034,-0.1411785,
 -0.0064999,0.0147904,-0.0080073,-0.1283058,0.282943,-0.0125083,-0.0138
 629,-0.0133583,0.2242183,0.0108394,-0.0188263,0.0106437,0.2118483,-0.6
 834359,0.1436112,0.1278215,0.1118206,-0.1577448,-0.0466112,0.1606637,-
 0.0482664,-0.1414055,2.391885,-0.1003578,-0.1435244,0.5842122,1.343396
 9,0.561937,-0.0045663,0.4202805,0.6919641,-0.816394,0.1757152,0.135438
 7,-0.0767363,-0.8996203,-0.3468221,-0.0141784,-0.2992339,-0.524234,-2.
 000116,-0.0862446,-0.1606078,-0.5087224,-0.7735467,-0.1543377,-0.04133
 38,-0.1225792,-0.3320446,1.1758294,-0.2240361,0.1320702,-0.1989499,1.1
 132712,-0.2760439,-0.0488712,-0.2073996,0.3599536,-0.0459413,0.0578185
 ,-0.0339678,-0.1121759,-0.2193097,0.0066825,-0.0009561,0.1013408,-0.01
 78519,-0.0405673,-0.0236662,-0.0595389,0.0365647,-0.103725,0.0429704,0
 .0148052,-0.0102686,-0.0453487,0.090158,0.0950382,-0.0509817,0.2425282
 ,-0.6345265,0.2939253,-0.0809421,0.3099213,0.0076571,0.0821718,-0.0118
 318,0.0343616,-0.0188049,0.0830459,-0.0013091,-0.0008454,-0.0314998,-0
 .0457372,0.0509701,-0.015816,-0.0249659,-0.0019015,-0.0556212,0.052957
 9,-0.0461044,0.0166471,0.0557922,-0.0520829,-0.0007903,0.0298007,0.031
 1714,0.0633629,-0.0214216,0.031762,-0.0239859,0.0796139,-0.4758963,-0.
 0437173,0.1207659,0.0052559,-0.2356994,-0.0910138,0.0945999,-0.1479965
 ,-0.3882503,0.2588856,0.0339806,-0.0994432,-0.0943073,0.3936769,-0.025
 2532,-0.0599974,0.0404038,0.2163488|Polar=96.902606,-8.0319713,80.1172
 068,-4.3978353,-1.7186606,53.5751366|PG=C01 [X(C5H7O3)]|NImag=1||1.367
 58183,-0.35376891,0.15285779,-0.36634821,0.09793599,0.16250668,-0.3682
 2345,0.09246315,0.09516265,0.35832660,0.09247276,-0.05257203,-0.024673
 23,-0.09251591,0.04188075,0.09508766,-0.02460782,-0.05621754,-0.095545
 09,0.02522797,0.04459818,-0.99871006,0.25900825,0.26962745,0.00958494,
 -0.00168630,-0.00092831,1.30790275,0.26068191,-0.10422587,-0.07365324,
 -0.00138471,0.00559431,-0.00074083,-0.32286922,0.19141902,0.27037534,-
 0.07352815,-0.10882325,-0.00089751,-0.00059208,0.00745973,-0.34243936,
 0.11006879,0.16279549,0.00610280,0.00064222,-0.00043744,-0.00083083,0.
 00205701,0.00196366,-0.24642218,0.05247502,0.05161471,0.64299673,0.001
 37909,0.00223277,0.00005461,0.00116801,0.00523314,-0.00056189,0.042487
 82,-0.07344473,-0.00734888,-0.09407223,0.83157607,0.00002430,0.0001758
 3,0.00158900,0.00159101,-0.00071565,0.00554670,0.04610773,-0.00912532,
 -0.08244388,-0.11236903,0.29079517,0.35404995,-0.00320585,0.00029597,0
 .00067868,0.00010397,-0.00140686,-0.00076784,-0.01370847,0.04226316,0.
 02401383,-0.14870441,0.13994968,0.07297775,0.14726042,-0.00153308,0.00
 157991,0.00077205,0.00007149,0.00030834,0.00060109,0.03574091,-0.02618
 772,-0.02682655,0.13618082,-0.59354142,-0.24899265,-0.14028505,0.70560
 226,-0.00024298,0.00042806,0.00076384,-0.00013853,0.00081509,-0.000679
 22,0.02161198,-0.02725674,0.00555892,0.07075495,-0.25192447,-0.2022959
 4,-0.07504667,0.32005646,0.19111680,-0.00397095,0.00146250,0.00125976,
 0.00134383,0.00088701,0.00010439,-0.06108762,-0.02816392,-0.00127700,-
 0.18655222,-0.07862595,-0.01356602,0.02088662,-0.04577616,-0.01669791,
 0.48774049,0.00148375,-0.00038933,-0.00073998,0.00008195,-0.00055816,-
 0.00005137,-0.00853599,0.00894497,0.00013853,-0.07096873,-0.18266197,-
 0.04039294,-0.03734449,-0.08392029,-0.04438004,0.10020005,0.34501348,0
 .00145354,-0.00062130,-0.00001553,-0.00020997,-0.00023252,-0.00049704,
 0.00737592,0.00333810,0.01185100,-0.00961146,-0.03611791,-0.08419922,-
 0.01473851,-0.04512535,0.01266229,-0.04029647,0.11615628,0.14119713,0.
 00099454,-0.00023936,-0.00021806,-0.00046539,0.00010224,0.00007069,0.0
 0498666,-0.00162212,-0.00055156,-0.06846241,-0.03497773,-0.00578271,0.
 00069852,0.02251797,0.00741827,-0.17473659,0.03101418,0.03569880,0.426
 62205,-0.00065866,0.00043689,0.00025493,0.00020335,0.00018968,0.000134
 46,-0.00574814,-0.00266266,-0.00194399,-0.01808430,0.02585609,0.013001
 54,-0.00101280,-0.01142772,0.00062153,0.01901217,-0.09071045,-0.032047
 18,0.08603250,0.33389662,-0.00038191,0.00023997,0.00020707,0.00000666,
 0.00018164,-0.00022033,-0.00146738,-0.00293114,0.00398569,-0.00577982,
 0.00673409,0.00599843,-0.00199862,-0.00101787,-0.00618949,0.05900183,-
 0.03416335,-0.08652707,-0.01881870,0.13766171,0.52510998,-0.00038835,0
 .00017008,0.00011387,0.00007473,0.00006959,0.00002185,-0.00155165,-0.0
 0117837,-0.00023472,-0.00254564,0.00667636,0.00370401,0.00195020,-0.00
 267060,-0.00125608,-0.04362310,-0.03400032,-0.00834934,-0.11328000,-0.
 05666050,-0.02147512,0.56512401,0.00019456,-0.00013654,-0.00009179,-0.
 00001429,-0.00004296,0.00000167,0.00043074,0.00074932,0.00009990,0.003
 08982,-0.00289849,-0.00130556,-0.00166119,0.00153128,0.00016898,0.0036
 2541,0.00887299,0.00392107,-0.07708690,-0.15716729,-0.05103295,-0.0352
 9044,0.50624427,0.00015162,-0.00009181,-0.00003330,-0.00002442,-0.0000
 0867,-0.00000934,0.00050002,0.00045124,-0.00003135,0.00227846,-0.00261
 372,-0.00086434,-0.00097830,0.00025969,0.00152909,0.01027955,0.0098794
 2,0.00538324,-0.02548905,-0.04427978,-0.09558187,-0.02078144,-0.004934
 28,0.57142646,-0.00012747,0.00000337,0.00001171,0.00006682,-0.00001384
 ,0.00005536,-0.00068687,0.00024756,-0.00093434,0.00324670,0.00748556,0
 .00433617,0.00062987,-0.00318156,-0.00152278,-0.02015064,0.00644867,0.
 03827918,-0.04808327,-0.00486281,-0.00165299,0.00410931,-0.00209711,-0
 .01795844,0.06152355,-0.00000116,0.00001005,0.00005866,-0.00002275,-0.
 00000488,0.00000174,0.00068481,-0.00006365,-0.00026278,-0.00337140,-0.
 00161436,0.00102562,0.00043566,0.00069593,-0.00045390,0.00959029,0.001
 03348,-0.00990848,-0.00586897,-0.04645792,-0.05845558,-0.00002879,-0.0
 0278167,-0.02452244,-0.00118001,0.05708534,-0.00006448,0.00002975,0.00
 003725,-0.00000398,-0.00002256,0.00001457,0.00017292,0.00030948,-0.000
 25857,-0.00120247,-0.00389580,-0.00100726,-0.00177192,0.00112221,0.001
 23411,0.00812755,-0.00053992,-0.00307358,0.01235932,-0.07342158,-0.313
 26880,0.00028287,0.00125811,-0.00254418,-0.01588730,0.07578762,0.32689
 081,0.00010906,-0.00012134,0.00019068,-0.00000736,0.00005857,-0.000068
 32,-0.00024674,-0.00020750,-0.00000341,0.00031329,0.00617135,0.0016643
 2,0.00065169,-0.00221151,-0.00065702,-0.02042341,0.01533282,-0.0066810
 8,-0.01584393,-0.01530583,0.00533913,0.00213078,-0.00642085,0.00303813
 ,0.00080355,0.00209986,-0.00084059,0.05953261,0.00002945,0.00003200,0.
 00006682,-0.00012491,-0.00002773,0.00004282,0.00163699,0.00026582,-0.0
 0076283,-0.01084176,-0.01019527,-0.00338435,-0.00112155,0.00461413,0.0
 0055622,0.02832276,-0.00826437,0.00340575,-0.03818637,0.07843641,-0.03
 740186,0.00349111,-0.02336412,0.01046767,0.00173225,-0.01295406,0.0018
 0943,0.03312088,-0.07445576,0.00008547,-0.00007244,-0.00006159,0.00004
 949,0.00003304,0.00002019,-0.00050164,-0.00017278,-0.00008809,0.003513
 97,0.00506287,0.00281186,0.00136191,-0.00213189,-0.00071190,-0.0055084
 4,-0.00327856,0.00086544,0.01167820,-0.03170475,-0.01145894,-0.0000495
 6,0.00057869,-0.00072252,-0.00512790,0.01789298,-0.01040782,-0.0033583
 2,0.05770708,0.02734783,0.00001464,0.00001468,0.00001820,-0.00002016,-
 0.00000808,-0.00000672,0.00008371,0.00003812,0.00002410,-0.00020481,-0
 .00125743,-0.00033889,-0.00043612,0.00056911,0.00038046,0.00208542,0.0
 0125902,0.00018954,0.00104650,-0.00236473,-0.02144971,-0.04941478,0.00
 250728,0.02217985,-0.00181808,-0.00311450,-0.00054637,0.00009854,0.000
 47861,-0.00003791,0.04848095,-0.00000828,-0.00000505,0.00003358,0.0000
 0114,0.00000484,-0.00000224,0.00001607,0.00004836,-0.00011378,0.000021
 37,-0.00060315,-0.00018123,-0.00032444,0.00002656,0.00037156,0.0020119
 7,0.00126171,0.00149555,0.00286166,-0.00668607,-0.02929930,0.00187997,
 -0.04987273,-0.03267526,-0.00394673,-0.00293860,-0.00065940,-0.0000254
 2,0.00150962,-0.00138668,-0.00003366,0.05516024,-0.00001708,0.00001643
 ,0.00001500,-0.00000273,-0.00000511,-0.00000181,-0.00000638,0.00000536
 ,-0.00003867,-0.00020997,-0.00036525,-0.00000968,-0.00002458,0.0003251
 3,0.00016839,0.00025536,0.00058570,0.00096037,0.00049612,-0.00304239,-
 0.00920860,0.02083425,-0.03465814,-0.31434333,-0.00085273,-0.00073720,
 0.00103878,-0.00023185,0.00072791,-0.00017388,-0.02176792,0.04018693,0
 .33890388,0.00001186,0.00002525,0.00000348,-0.00001226,-0.00001786,0.0
 0000032,0.00004356,0.00006528,-0.00000141,0.00001506,-0.00085956,-0.00
 036680,-0.00045139,0.00056702,0.00010195,0.00133581,0.00122958,-0.0001
 8937,0.00326844,-0.01809366,0.00902196,-0.06488691,0.06133877,-0.03406
 512,0.00032612,0.00098415,-0.00014295,-0.00067439,-0.00292279,0.000199
 37,-0.00007355,-0.00271921,0.00165889,0.06761349,-0.00003890,0.0000333
 3,-0.00000740,0.00000231,-0.00001013,0.00000183,0.00000882,-0.00001539
 ,0.00008403,-0.00026721,-0.00052455,-0.00047663,-0.00033855,0.00048551
 ,0.00009489,0.00100442,0.00228651,-0.00042687,0.00427357,-0.02725928,0
 .00982252,0.06377578,-0.22947412,0.10538767,-0.00023281,0.00125565,-0.
 00050121,-0.00206853,-0.00008182,-0.00158010,-0.00155522,0.00455850,-0
 .00247859,-0.06576339,0.25312103,-0.00001305,-0.00000023,-0.00002280,0
 .00001097,-0.00000005,0.00000475,0.00000621,0.00001396,0.00006530,0.00
 032576,0.00009060,-0.00000126,-0.00018206,-0.00011475,-0.00019633,0.00
 004140,0.00046988,0.00003655,0.00337290,-0.00917069,0.00452172,-0.0350
 5892,0.10235232,-0.10244267,0.00042762,0.00057951,0.00018119,-0.000515
 40,-0.00196506,0.00071249,-0.00951325,0.02720581,-0.01296576,0.0391943
 3,-0.11216911,0.10732216,-0.00008880,0.00002985,0.00001742,0.00002592,
 0.00000539,-0.00000226,-0.00030250,-0.00018336,0.00001718,0.00031015,0
 .00164553,0.00062204,0.00018045,-0.00067240,-0.00034272,-0.00276252,-0
 .00427896,-0.00185315,-0.01588782,0.00657568,0.00600829,-0.29757279,0.
 05111930,0.06053416,0.00043684,-0.00011052,-0.00052525,-0.00030118,0.0
 0023653,0.00003367,0.00016653,0.00005720,-0.00022582,-0.00667038,0.000
 76069,0.00186925,0.32228086,-0.00014141,0.00008212,0.00006736,0.000015
 69,0.00001318,-0.00000186,-0.00043263,-0.00039841,-0.00007971,-0.00096
 902,0.00179288,0.00064720,0.00040220,-0.00056726,-0.00021139,-0.006249
 42,-0.00500881,-0.00218570,-0.02198810,0.00689004,0.00911294,0.0543928
 0,-0.05874595,-0.01481825,0.00079401,0.00049122,-0.00042929,-0.0004625
 9,0.00077480,0.00009288,0.00358279,-0.00218748,0.00004919,0.02552498,-
 0.00388750,-0.00777177,-0.05490538,0.06094536,-0.00006280,0.00004508,-
 0.00000543,0.00000614,-0.00000038,0.00000799,-0.00017052,-0.00014316,-
 0.00001293,-0.00032167,0.00037154,0.00073250,0.00011917,-0.00006844,-0
 .00022388,-0.00273114,-0.00242436,0.00043811,-0.00815756,0.00476958,0.
 00109852,0.06166623,-0.01467341,-0.06279116,0.00038261,0.00050302,-0.0
 0013295,0.00021741,0.00002219,0.00017706,0.03073609,-0.00565187,-0.004
 57115,-0.01528658,0.00182502,0.00290339,-0.06624401,0.01544275,0.06245
 911,-0.00018855,0.00014011,-0.00010696,0.00008774,-0.00007975,-0.00000
 499,-0.00020733,0.00026646,0.00084513,-0.00054914,-0.00783075,-0.00243
 056,-0.00437358,0.00609979,-0.00242662,0.00727292,0.00033971,0.0000689
 8,-0.00730184,0.01842666,-0.00928713,0.00087268,-0.00100261,0.00124392
 ,0.00000844,-0.00105195,0.00002114,-0.02624084,-0.02628548,0.00211466,
 -0.00006183,0.00035926,0.00008934,-0.00023306,0.00017779,-0.00014340,0
 .00025422,0.00056098,-0.00013904,0.31075723,0.00027581,-0.00005082,-0.
 00003199,-0.00004055,0.00000745,-0.00000610,-0.00026187,-0.00003186,0.
 00005443,0.00095571,0.00137152,-0.00036930,0.00243566,-0.00016452,0.00
 215758,-0.00710276,0.00383463,-0.00089072,0.03335558,-0.09968725,0.050
 18074,-0.00065776,0.00671294,-0.00259561,-0.00093174,0.00580177,-0.001
 10061,-0.01263997,0.05384846,-0.02896917,-0.00016621,-0.00042025,-0.00
 067493,0.00055057,-0.00071897,0.00042670,-0.00034151,-0.00026630,-0.00
 000226,0.15643876,0.15019662,-0.00016740,-0.00000730,0.00017930,-0.000
 01872,-0.00001054,-0.00007341,-0.00010442,0.00047791,0.00025203,-0.001
 96770,-0.00417278,-0.00249392,-0.00304084,0.00339686,0.00031283,0.0040
 6432,-0.00005917,0.00162134,-0.01578402,0.04419606,-0.02134415,0.00111
 673,-0.00269310,0.00207479,0.00061175,-0.00293818,0.00192489,-0.001629
 45,-0.04352359,-0.01016557,0.00016981,0.00085921,0.00027693,-0.0003792
 3,0.00029423,-0.00033943,0.00011376,0.00017417,-0.00011881,0.21185182,
 0.10030815,0.17793040,0.00008876,-0.00012581,0.00002677,-0.00005510,0.
 00007603,0.00001961,0.00032180,-0.00042831,-0.00055101,0.00128692,0.01
 066023,0.00382669,-0.00148193,-0.00541672,-0.00193630,-0.00735805,-0.0
 0226125,-0.00113659,0.00644454,-0.00745894,0.00293349,-0.00099849,0.00
 126748,-0.00090896,-0.00028486,0.00095528,0.00002150,0.00009832,0.0104
 3427,-0.00445298,0.00005303,-0.00015091,0.00000509,0.00038761,0.000261
 23,0.00017765,-0.00006896,-0.00012492,-0.00001433,-0.28009707,-0.17186
 971,-0.19483640,0.28166348,-0.00036694,0.00011479,-0.00004638,0.000096
 02,-0.00001578,-0.00003947,-0.00048026,0.00000850,0.00101306,0.0031526
 7,-0.00257852,-0.00070174,-0.00228740,0.00096500,-0.00104383,-0.000198
 37,0.00026561,-0.00076070,-0.00018814,-0.00364708,0.00036844,0.0000311
 0,0.00037310,0.00009410,-0.00026482,0.00044170,0.00025376,-0.01731996,
 -0.01013813,-0.01207117,0.00005024,0.00014350,0.00006495,0.00009086,0.
 00023124,0.00005288,0.00006196,0.00007211,-0.00001531,-0.14655898,-0.1
 2043342,-0.09630193,0.16418204,0.13419738,0.00011997,0.00005795,-0.000
 11870,0.00001402,0.00000305,0.00004656,0.00021578,-0.00064164,-0.00027
 143,0.00144805,0.00389182,0.00258707,-0.00060200,-0.00225600,-0.003049
 51,-0.00305717,-0.00120012,-0.00070302,0.00370736,-0.00502945,0.002877
 84,-0.00053463,0.00100848,-0.00104953,-0.00016792,0.00142939,-0.000628
 45,0.00353577,0.01223180,0.00185544,-0.00003728,-0.00018286,-0.0000504
 7,0.00025117,0.00012971,0.00022069,-0.00002258,-0.00008855,0.00003962,
 -0.20169629,-0.11848692,-0.15003722,0.19682577,0.10913333,0.14828112||
 0.00013048,0.00002565,-0.00000367,-0.00000333,-0.00001733,0.00000757,0
 .00032675,0.00029765,0.00004377,-0.00227843,-0.00243403,-0.00087740,-0
 .00073537,0.00087462,-0.00060743,0.00667593,-0.00206337,0.00088001,-0.
 00724033,0.01237466,-0.00375995,0.00074827,-0.00453050,0.00175621,0.00
 056200,-0.00361416,0.00102291,0.00434435,-0.02441000,0.01030685,-0.000
 02113,0.00014686,0.00009194,-0.00029791,-0.00032352,-0.00012320,0.0000
 3994,-0.00007552,-0.00004010,-0.00313580,0.02413906,-0.00935273,0.0008
 8458,-0.00039006,0.00065520|||@


 IN THE FIGHT BETWEEN YOU AND THE WORLD, BACK THE WORLD

                                        -- FRANZ KAFKA
 Job cpu time:       0 days  0 hours 20 minutes 18.0 seconds.
 File lengths (MBytes):  RWF=    152 Int=      0 D2E=      0 Chk=      9 Scr=      1
 Normal termination of Gaussian 09 at Thu Mar 27 04:39:09 2025.
