 Entering Link 1 = C:\G09W\l1.exe PID=      9180.
  
 Copyright (c) 1988,1990,1992,1993,1995,1998,2003,2009,2013,
            Gaussian, Inc.  All Rights Reserved.
  
 This is part of the Gaussian(R) 09 program.  It is based on
 the Gaussian(R) 03 system (copyright 2003, Gaussian, Inc.),
 the Gaussian(R) 98 system (copyright 1998, Gaussian, Inc.),
 the Gaussian(R) 94 system (copyright 1995, Gaussian, Inc.),
 the Gaussian 92(TM) system (copyright 1992, Gaussian, Inc.),
 the Gaussian 90(TM) system (copyright 1990, Gaussian, Inc.),
 the Gaussian 88(TM) system (copyright 1988, Gaussian, Inc.),
 the Gaussian 86(TM) system (copyright 1986, Carnegie Mellon
 University), and the Gaussian 82(TM) system (copyright 1983,
 Carnegie Mellon University). Gaussian is a federally registered
 trademark of Gaussian, Inc.
  
 This software contains proprietary and confidential information,
 including trade secrets, belonging to Gaussian, Inc.
  
 This software is provided under written license and may be
 used, copied, transmitted, or stored only in accord with that
 written license.
  
 The following legend is applicable only to US Government
 contracts under FAR:
  
                    RESTRICTED RIGHTS LEGEND
  
 Use, reproduction and disclosure by the US Government is
 subject to restrictions as set forth in subparagraphs (a)
 and (c) of the Commercial Computer Software - Restricted
 Rights clause in FAR 52.227-19.
  
 Gaussian, Inc.
 340 Quinnipiac St., Bldg. 40, Wallingford CT 06492
  
  
 ---------------------------------------------------------------
 Warning -- This program may not be used in any manner that
 competes with the business of Gaussian, Inc. or will provide
 assistance to any competitor of Gaussian, Inc.  The licensee
 of this program is prohibited from giving any competitor of
 Gaussian, Inc. access to this program.  By using this program,
 the user acknowledges that Gaussian, Inc. is engaged in the
 business of creating and licensing software in the field of
 computational chemistry and represents and warrants to the
 licensee that it is not a competitor of Gaussian, Inc. and that
 it will not use this program in any manner prohibited above.
 ---------------------------------------------------------------
  

 Cite this work as:
 Gaussian 09, Revision D.01,
 M. J. Frisch, G. W. Trucks, H. B. Schlegel, G. E. Scuseria, 
 M. A. Robb, J. R. Cheeseman, G. Scalmani, V. Barone, B. Mennucci, 
 G. A. Petersson, H. Nakatsuji, M. Caricato, X. Li, H. P. Hratchian, 
 A. F. Izmaylov, J. Bloino, G. Zheng, J. L. Sonnenberg, M. Hada, 
 M. Ehara, K. Toyota, R. Fukuda, J. Hasegawa, M. Ishida, T. Nakajima, 
 Y. Honda, O. Kitao, H. Nakai, T. Vreven, J. A. Montgomery, Jr., 
 J. E. Peralta, F. Ogliaro, M. Bearpark, J. J. Heyd, E. Brothers, 
 K. N. Kudin, V. N. Staroverov, T. Keith, R. Kobayashi, J. Normand, 
 K. Raghavachari, A. Rendell, J. C. Burant, S. S. Iyengar, J. Tomasi, 
 M. Cossi, N. Rega, J. M. Millam, M. Klene, J. E. Knox, J. B. Cross, 
 V. Bakken, C. Adamo, J. Jaramillo, R. Gomperts, R. E. Stratmann, 
 O. Yazyev, A. J. Austin, R. Cammi, C. Pomelli, J. W. Ochterski, 
 R. L. Martin, K. Morokuma, V. G. Zakrzewski, G. A. Voth, 
 P. Salvador, J. J. Dannenberg, S. Dapprich, A. D. Daniels, 
 O. Farkas, J. B. Foresman, J. V. Ortiz, J. Cioslowski, 
 and D. J. Fox, Gaussian, Inc., Wallingford CT, 2013.
 
 ******************************************
 Gaussian 09:  IA32W-G09RevD.01 24-Apr-2013
                27-Mar-2025 
 ******************************************
 %chk=ethyl_propiolate.chk
 %nprocshared=4
 Will use up to    4 processors via shared memory.
 %mem=1700MB
 --------------------------
 # freq 6-311++g(d,p) m062x
 --------------------------
 1/10=4,30=1,38=1/1,3;
 2/12=2,17=6,18=5,40=1/2;
 3/5=4,6=6,7=1111,11=2,16=1,25=1,30=1,71=2,74=-55,140=1/1,2,3;
 4//1;
 5/5=2,38=5,98=1/2;
 8/6=4,10=90,11=11/1;
 11/6=1,8=1,9=11,15=111,16=1/1,2,10;
 10/6=1/2;
 6/7=2,8=2,9=2,10=2,18=1,28=1/1;
 7/8=1,10=1,25=1/1,2,3,16;
 1/10=4,30=1/3;
 99//99;
 -------------------
 Title Card Required
 -------------------
 Symbolic Z-matrix:
 Charge =  0 Multiplicity = 2
 C                     3.2781   -0.52374  -0.44103 
 H                     4.27163  -0.79054  -0.71715 
 C                     2.16049  -0.22516  -0.13048 
 C                     0.82539   0.18748   0.26073 
 O                     0.56606   1.24115   0.77134 
 O                    -0.08018  -0.75968  -0.0199 
 C                    -1.41433  -0.48869   0.35689 
 C                    -2.29515  -1.61666  -0.09158 
 H                    -1.47486  -0.21789   1.41226 
 H                    -1.78504   0.6858   -0.27072 
 H                    -2.21434  -1.76393  -1.16894 
 H                    -1.99507  -2.54177   0.41124 
 H                    -3.33341  -1.40139   0.16077 
 O                    -1.91479   1.76106  -0.69429 
 H                    -1.20727   2.19234  -0.19306 
 

 GradGradGradGradGradGradGradGradGradGradGradGradGradGradGradGradGradGrad
 Berny optimization.
 Initialization pass.
 Trust Radius=3.00D-01 FncErr=1.00D-07 GrdErr=1.00D-07
 Number of steps in this run=      2 maximum allowed number of steps=      2.
 GradGradGradGradGradGradGradGradGradGradGradGradGradGradGradGradGradGrad

                          Input orientation:                          
 ---------------------------------------------------------------------
 Center     Atomic      Atomic             Coordinates (Angstroms)
 Number     Number       Type             X           Y           Z
 ---------------------------------------------------------------------
      1          6           0        3.278102   -0.523744   -0.441031
      2          1           0        4.271633   -0.790539   -0.717151
      3          6           0        2.160490   -0.225163   -0.130480
      4          6           0        0.825391    0.187483    0.260725
      5          8           0        0.566062    1.241154    0.771337
      6          8           0       -0.080175   -0.759677   -0.019903
      7          6           0       -1.414327   -0.488692    0.356888
      8          6           0       -2.295151   -1.616657   -0.091583
      9          1           0       -1.474862   -0.217892    1.412264
     10          1           0       -1.785039    0.685795   -0.270716
     11          1           0       -2.214337   -1.763933   -1.168940
     12          1           0       -1.995065   -2.541766    0.411242
     13          1           0       -3.333407   -1.401391    0.160773
     14          8           0       -1.914791    1.761061   -0.694288
     15          1           0       -1.207265    2.192336   -0.193060
 ---------------------------------------------------------------------
                    Distance matrix (angstroms):
                    1          2          3          4          5
     1  C    0.000000
     2  H    1.065141   0.000000
     3  C    1.197768   2.262909   0.000000
     4  C    2.648414   3.713402   1.451140   0.000000
     5  O    3.455411   4.480472   2.346393   1.199249   0.000000
     6  O    3.392792   4.407419   2.306190   1.340117   2.246555
     7  C    4.759915   5.794378   3.617498   2.341537   2.661968
     8  C    5.690143   6.648042   4.668030   3.621716   4.135004
     9  H    5.110667   6.155042   3.949164   2.604138   2.589396
    10  H    5.208396   6.249971   4.051754   2.710182   2.630964
    11  H    5.677570   6.574148   4.752402   3.884831   4.530545
    12  H    5.710085   6.603906   4.788397   3.927649   4.582524
    13  H    6.696602   7.679878   5.625944   4.453101   4.749915
    14  O    5.678962   6.692012   4.568466   3.301029   2.927967
    15  H    5.249485   6.260235   4.146081   2.890856   2.231479
                    6          7          8          9         10
     6  O    0.000000
     7  C    1.412574   0.000000
     8  C    2.376062   1.499761   0.000000
     9  H    2.071180   1.091245   2.211555   0.000000
    10  H    2.249190   1.382293   2.365077   1.935273   0.000000
    11  H    2.623636   2.143457   1.090376   3.098335   2.644290
    12  H    2.651138   2.134320   1.094857   2.583224   3.305500
    13  H    3.320837   2.134092   1.089953   2.533987   2.634383
    14  O    3.189785   2.533145   3.452087   2.923586   1.162947
    15  H    3.164600   2.744673   3.962603   2.908242   1.615401
                   11         12         13         14         15
    11  H    0.000000
    12  H    1.774846   0.000000
    13  H    1.775357   1.776049   0.000000
    14  O    3.569398   4.443305   3.569972   0.000000
    15  H    4.197452   4.837099   4.190531   0.968411   0.000000
 Stoichiometry    C5H7O3(2)
 Framework group  C1[X(C5H7O3)]
 Deg. of freedom    39
 Full point group                 C1      NOp   1
 Largest Abelian subgroup         C1      NOp   1
 Largest concise Abelian subgroup C1      NOp   1
                         Standard orientation:                         
 ---------------------------------------------------------------------
 Center     Atomic      Atomic             Coordinates (Angstroms)
 Number     Number       Type             X           Y           Z
 ---------------------------------------------------------------------
      1          6           0        3.341424   -0.489978   -0.438522
      2          1           0        4.335117   -0.756287   -0.714528
      3          6           0        2.223632   -0.191944   -0.128095
      4          6           0        0.888266    0.220092    0.262844
      5          8           0        0.628038    1.274548    0.771373
      6          8           0       -0.016411   -0.728618   -0.015403
      7          6           0       -1.350685   -0.458273    0.361417
      8          6           0       -2.230502   -1.588111   -0.084307
      9          1           0       -1.411040   -0.185337    1.416253
     10          1           0       -1.722931    0.714506   -0.268470
     11          1           0       -2.150009   -1.737548   -1.161391
     12          1           0       -1.929204   -2.511848    0.420312
     13          1           0       -3.268875   -1.373428    0.168063
     14          8           0       -1.854020    1.788746   -0.694226
     15          1           0       -1.146733    2.221822   -0.194214
 ---------------------------------------------------------------------
 Rotational constants (GHZ):      3.0469006      1.2141203      0.9547678
 Standard basis: 6-311++G(d,p) (5D, 7F)
 There are   233 symmetry adapted cartesian basis functions of A   symmetry.
 There are   225 symmetry adapted basis functions of A   symmetry.
   225 basis functions,   351 primitive gaussians,   233 cartesian basis functions
    31 alpha electrons       30 beta electrons
       nuclear repulsion energy       352.0835993151 Hartrees.
 NAtoms=   15 NActive=   15 NUniq=   15 SFac= 1.00D+00 NAtFMM=   60 NAOKFM=F Big=F
 Integral buffers will be    262144 words long.
 Raffenetti 2 integral format.
 Two-electron integral symmetry is turned on.
 One-electron integrals computed using PRISM.
 NBasis=   225 RedAO= T EigKep=  5.79D-06  NBF=   225
 NBsUse=   224 1.00D-06 EigRej=  7.25D-07 NBFU=   224
 ExpMin= 3.60D-02 ExpMax= 8.59D+03 ExpMxC= 1.30D+03 IAcc=3 IRadAn=         5 AccDes= 0.00D+00
 Harris functional with IExCor= 1009 and IRadAn=       5 diagonalized for initial guess.
 HarFok:  IExCor= 1009 AccDes= 0.00D+00 IRadAn=         5 IDoV= 1 UseB2=F ITyADJ=14
 ICtDFT=  3500011 ScaDFX=  1.000000  1.000000  1.000000  1.000000
 FoFCou: FMM=F IPFlag=           0 FMFlag=      100000 FMFlg1=           0
         NFxFlg=           0 DoJE=T BraDBF=F KetDBF=T FulRan=T
         wScrn=  0.000000 ICntrl=     500 IOpCl=  0 I1Cent=   200000004 NGrid=           0
         NMat0=    1 NMatS0=      1 NMatT0=    0 NMatD0=    1 NMtDS0=    0 NMtDT0=    0
 Petite list used in FoFCou.
 Initial guess <Sx>= 0.0000 <Sy>= 0.0000 <Sz>= 0.5000 <S**2>= 0.7500 S= 0.5000
 Requested convergence on RMS density matrix=1.00D-08 within 128 cycles.
 Requested convergence on MAX density matrix=1.00D-06.
 Requested convergence on             energy=1.00D-06.
 No special actions if energy rises.
 SCF Done:  E(UM062X) =  -420.212238591     A.U. after   18 cycles
            NFock= 18  Conv=0.70D-08     -V/T= 2.0034
 <Sx>= 0.0000 <Sy>= 0.0000 <Sz>= 0.5000 <S**2>= 0.7591 S= 0.5045
 <L.S>= 0.000000000000E+00
 Annihilation of the first spin contaminant:
 S**2 before annihilation     0.7591,   after     0.7500
 DoSCS=F DFT=T ScalE2(SS,OS)=  1.000000  1.000000
 Range of M.O.s used for correlation:     1   224
 NBasis=   225 NAE=    31 NBE=    30 NFC=     0 NFV=     0
 NROrb=    224 NOA=    31 NOB=    30 NVA=   193 NVB=   194

 **** Warning!!: The largest alpha MO coefficient is  0.12021955D+03


 **** Warning!!: The largest beta MO coefficient is  0.12071968D+03

 Symmetrizing basis deriv contribution to polar:
 IMax=3 JMax=2 DiffMx= 0.00D+00
 G2DrvN: will do    16 centers at a time, making    1 passes.
 Calling FoFCou, ICntrl=  3107 FMM=F I1Cent=   0 AccDes= 0.00D+00.
 End of G2Drv F.D. properties file   721 does not exist.
 End of G2Drv F.D. properties file   722 does not exist.
 End of G2Drv F.D. properties file   788 does not exist.
          IDoAtm=111111111111111
          Differentiating once with respect to electric field.
                with respect to dipole field.
          Differentiating once with respect to nuclear coordinates.
          There are    48 degrees of freedom in the 1st order CPHF.  IDoFFX=6 NUNeed=     3.
     47 vectors produced by pass  0 Test12= 2.46D-14 2.08D-09 XBig12= 1.01D+02 3.47D+00.
 AX will form    47 AO Fock derivatives at one time.
     45 vectors produced by pass  1 Test12= 2.46D-14 2.08D-09 XBig12= 1.97D+01 7.58D-01.
     45 vectors produced by pass  2 Test12= 2.46D-14 2.08D-09 XBig12= 8.68D-01 1.58D-01.
     45 vectors produced by pass  3 Test12= 2.46D-14 2.08D-09 XBig12= 1.42D-02 1.62D-02.
     45 vectors produced by pass  4 Test12= 2.46D-14 2.08D-09 XBig12= 1.36D-04 2.10D-03.
     45 vectors produced by pass  5 Test12= 2.46D-14 2.08D-09 XBig12= 1.25D-06 1.10D-04.
     44 vectors produced by pass  6 Test12= 2.46D-14 2.08D-09 XBig12= 8.67D-09 8.83D-06.
     21 vectors produced by pass  7 Test12= 2.46D-14 2.08D-09 XBig12= 5.51D-11 7.90D-07.
      5 vectors produced by pass  8 Test12= 2.46D-14 2.08D-09 XBig12= 4.74D-13 1.05D-07.
      4 vectors produced by pass  9 Test12= 2.46D-14 2.08D-09 XBig12= 3.08D-14 2.20D-08.
      4 vectors produced by pass 10 Test12= 2.46D-14 2.08D-09 XBig12= 4.70D-15 1.13D-08.
      3 vectors produced by pass 11 Test12= 2.46D-14 2.08D-09 XBig12= 3.08D-15 7.43D-09.
      3 vectors produced by pass 12 Test12= 2.46D-14 2.08D-09 XBig12= 8.89D-16 4.59D-09.
      3 vectors produced by pass 13 Test12= 2.46D-14 2.08D-09 XBig12= 9.26D-16 3.68D-09.
      3 vectors produced by pass 14 Test12= 2.46D-14 2.08D-09 XBig12= 1.02D-15 2.68D-09.
      2 vectors produced by pass 15 Test12= 2.46D-14 2.08D-09 XBig12= 3.82D-16 2.55D-09.
      2 vectors produced by pass 16 Test12= 2.46D-14 2.08D-09 XBig12= 5.43D-16 2.92D-09.
      1 vectors produced by pass 17 Test12= 2.46D-14 2.08D-09 XBig12= 6.38D-16 2.38D-09.
 InvSVY:  IOpt=1 It=  1 EMax= 4.44D-15
 Solved reduced A of dimension   367 with    48 vectors.
 Isotropic polarizability for W=    0.000000       76.17 Bohr**3.
 End of Minotr F.D. properties file   721 does not exist.
 End of Minotr F.D. properties file   722 does not exist.
 End of Minotr F.D. properties file   788 does not exist.

 **********************************************************************

            Population analysis using the SCF density.

 **********************************************************************

 Orbital symmetries:
 Alpha Orbitals:
       Occupied  (A) (A) (A) (A) (A) (A) (A) (A) (A) (A) (A) (A)
                 (A) (A) (A) (A) (A) (A) (A) (A) (A) (A) (A) (A)
                 (A) (A) (A) (A) (A) (A) (A)
       Virtual   (A) (A) (A) (A) (A) (A) (A) (A) (A) (A) (A) (A)
                 (A) (A) (A) (A) (A) (A) (A) (A) (A) (A) (A) (A)
                 (A) (A) (A) (A) (A) (A) (A) (A) (A) (A) (A) (A)
                 (A) (A) (A) (A) (A) (A) (A) (A) (A) (A) (A) (A)
                 (A) (A) (A) (A) (A) (A) (A) (A) (A) (A) (A) (A)
                 (A) (A) (A) (A) (A) (A) (A) (A) (A) (A) (A) (A)
                 (A) (A) (A) (A) (A) (A) (A) (A) (A) (A) (A) (A)
                 (A) (A) (A) (A) (A) (A) (A) (A) (A) (A) (A) (A)
                 (A) (A) (A) (A) (A) (A) (A) (A) (A) (A) (A) (A)
                 (A) (A) (A) (A) (A) (A) (A) (A) (A) (A) (A) (A)
                 (A) (A) (A) (A) (A) (A) (A) (A) (A) (A) (A) (A)
                 (A) (A) (A) (A) (A) (A) (A) (A) (A) (A) (A) (A)
                 (A) (A) (A) (A) (A) (A) (A) (A) (A) (A) (A) (A)
                 (A) (A) (A) (A) (A) (A) (A) (A) (A) (A) (A) (A)
                 (A) (A) (A) (A) (A) (A) (A) (A) (A) (A) (A) (A)
                 (A) (A) (A) (A) (A) (A) (A) (A) (A) (A) (A) (A)
                 (A)
 Beta  Orbitals:
       Occupied  (A) (A) (A) (A) (A) (A) (A) (A) (A) (A) (A) (A)
                 (A) (A) (A) (A) (A) (A) (A) (A) (A) (A) (A) (A)
                 (A) (A) (A) (A) (A) (A)
       Virtual   (A) (A) (A) (A) (A) (A) (A) (A) (A) (A) (A) (A)
                 (A) (A) (A) (A) (A) (A) (A) (A) (A) (A) (A) (A)
                 (A) (A) (A) (A) (A) (A) (A) (A) (A) (A) (A) (A)
                 (A) (A) (A) (A) (A) (A) (A) (A) (A) (A) (A) (A)
                 (A) (A) (A) (A) (A) (A) (A) (A) (A) (A) (A) (A)
                 (A) (A) (A) (A) (A) (A) (A) (A) (A) (A) (A) (A)
                 (A) (A) (A) (A) (A) (A) (A) (A) (A) (A) (A) (A)
                 (A) (A) (A) (A) (A) (A) (A) (A) (A) (A) (A) (A)
                 (A) (A) (A) (A) (A) (A) (A) (A) (A) (A) (A) (A)
                 (A) (A) (A) (A) (A) (A) (A) (A) (A) (A) (A) (A)
                 (A) (A) (A) (A) (A) (A) (A) (A) (A) (A) (A) (A)
                 (A) (A) (A) (A) (A) (A) (A) (A) (A) (A) (A) (A)
                 (A) (A) (A) (A) (A) (A) (A) (A) (A) (A) (A) (A)
                 (A) (A) (A) (A) (A) (A) (A) (A) (A) (A) (A) (A)
                 (A) (A) (A) (A) (A) (A) (A) (A) (A) (A) (A) (A)
                 (A) (A) (A) (A) (A) (A) (A) (A) (A) (A) (A) (A)
                 (A) (A)
 The electronic state is 2-A.
 Alpha  occ. eigenvalues --  -19.71480 -19.65392 -19.61768 -10.72734 -10.64065
 Alpha  occ. eigenvalues --  -10.58424 -10.57917 -10.55934  -1.28568  -1.19006
 Alpha  occ. eigenvalues --   -1.10175  -0.92546  -0.88779  -0.79696  -0.71460
 Alpha  occ. eigenvalues --   -0.68033  -0.62301  -0.61946  -0.59991  -0.56234
 Alpha  occ. eigenvalues --   -0.52454  -0.51317  -0.49230  -0.47729  -0.46412
 Alpha  occ. eigenvalues --   -0.43763  -0.41275  -0.38716  -0.38159  -0.37807
 Alpha  occ. eigenvalues --   -0.30991
 Alpha virt. eigenvalues --   -0.03235  -0.00622   0.00275   0.01579   0.02418
 Alpha virt. eigenvalues --    0.02948   0.03145   0.04789   0.05699   0.05945
 Alpha virt. eigenvalues --    0.06275   0.07548   0.08287   0.08771   0.10259
 Alpha virt. eigenvalues --    0.10722   0.11902   0.12238   0.12688   0.12913
 Alpha virt. eigenvalues --    0.13564   0.14080   0.15070   0.16363   0.16931
 Alpha virt. eigenvalues --    0.17617   0.18041   0.18430   0.19275   0.20670
 Alpha virt. eigenvalues --    0.21415   0.22144   0.23085   0.23754   0.25648
 Alpha virt. eigenvalues --    0.26303   0.27913   0.28562   0.29771   0.30181
 Alpha virt. eigenvalues --    0.31088   0.31263   0.32408   0.32784   0.33278
 Alpha virt. eigenvalues --    0.35063   0.36205   0.36791   0.39486   0.40102
 Alpha virt. eigenvalues --    0.42319   0.43936   0.46110   0.47444   0.48501
 Alpha virt. eigenvalues --    0.52454   0.55014   0.56116   0.57047   0.58609
 Alpha virt. eigenvalues --    0.61074   0.63804   0.64754   0.66525   0.67364
 Alpha virt. eigenvalues --    0.67860   0.68836   0.69607   0.71678   0.72865
 Alpha virt. eigenvalues --    0.73888   0.77314   0.79836   0.81190   0.84605
 Alpha virt. eigenvalues --    0.88419   0.90103   0.93067   1.02001   1.05345
 Alpha virt. eigenvalues --    1.05992   1.09499   1.10146   1.10656   1.13862
 Alpha virt. eigenvalues --    1.14654   1.15990   1.17985   1.20191   1.21182
 Alpha virt. eigenvalues --    1.22753   1.23092   1.27592   1.29455   1.30939
 Alpha virt. eigenvalues --    1.33220   1.35647   1.36855   1.43703   1.45899
 Alpha virt. eigenvalues --    1.46370   1.48584   1.49871   1.54293   1.55739
 Alpha virt. eigenvalues --    1.58834   1.59852   1.60117   1.62059   1.63608
 Alpha virt. eigenvalues --    1.65913   1.66883   1.68343   1.71053   1.74724
 Alpha virt. eigenvalues --    1.77306   1.83255   1.83666   1.85768   1.89303
 Alpha virt. eigenvalues --    1.94232   1.95373   1.99484   2.05609   2.08576
 Alpha virt. eigenvalues --    2.11144   2.13396   2.17615   2.22491   2.28365
 Alpha virt. eigenvalues --    2.40244   2.42612   2.48967   2.51203   2.55373
 Alpha virt. eigenvalues --    2.57816   2.58404   2.60095   2.60868   2.64272
 Alpha virt. eigenvalues --    2.65302   2.65631   2.69870   2.72197   2.79808
 Alpha virt. eigenvalues --    2.81326   2.85012   2.87873   2.95023   2.99304
 Alpha virt. eigenvalues --    3.02650   3.02817   3.05794   3.06017   3.09625
 Alpha virt. eigenvalues --    3.11818   3.20186   3.21435   3.22953   3.25856
 Alpha virt. eigenvalues --    3.31384   3.34815   3.35569   3.41967   3.47306
 Alpha virt. eigenvalues --    3.55331   3.66331   3.73235   3.80658   3.82982
 Alpha virt. eigenvalues --    3.84771   4.01164   4.06679   4.13532   4.15876
 Alpha virt. eigenvalues --    4.26354   5.08624   5.13931   5.15767   5.31405
 Alpha virt. eigenvalues --    5.42758   5.50571   5.66400   5.74793   5.93574
 Alpha virt. eigenvalues --   23.61644  23.83892  23.93164  24.02556  25.16903
 Alpha virt. eigenvalues --   49.97277  50.01257  50.09309
  Beta  occ. eigenvalues --  -19.71376 -19.65360 -19.61012 -10.72731 -10.63413
  Beta  occ. eigenvalues --  -10.58422 -10.57921 -10.55945  -1.28194  -1.18744
  Beta  occ. eigenvalues --   -1.07293  -0.91795  -0.88249  -0.79427  -0.70412
  Beta  occ. eigenvalues --   -0.67129  -0.62264  -0.60121  -0.59297  -0.54300
  Beta  occ. eigenvalues --   -0.51721  -0.49889  -0.48995  -0.45846  -0.44357
  Beta  occ. eigenvalues --   -0.41907  -0.40914  -0.38477  -0.37747  -0.36698
  Beta virt. eigenvalues --   -0.09669  -0.02654  -0.00528   0.00318   0.01746
  Beta virt. eigenvalues --    0.02640   0.03020   0.03226   0.05164   0.05784
  Beta virt. eigenvalues --    0.06032   0.06451   0.07629   0.08398   0.08891
  Beta virt. eigenvalues --    0.10323   0.10966   0.11989   0.12296   0.12775
  Beta virt. eigenvalues --    0.13054   0.13691   0.14330   0.15253   0.16519
  Beta virt. eigenvalues --    0.17071   0.17807   0.18297   0.18581   0.19497
  Beta virt. eigenvalues --    0.21034   0.21594   0.22306   0.23307   0.24307
  Beta virt. eigenvalues --    0.26172   0.26380   0.28299   0.28476   0.30004
  Beta virt. eigenvalues --    0.30318   0.31164   0.31448   0.32540   0.32760
  Beta virt. eigenvalues --    0.33518   0.35200   0.36786   0.37369   0.39792
  Beta virt. eigenvalues --    0.41275   0.42696   0.44072   0.46300   0.47770
  Beta virt. eigenvalues --    0.48626   0.52496   0.55361   0.56207   0.57367
  Beta virt. eigenvalues --    0.59189   0.61423   0.63982   0.64938   0.67018
  Beta virt. eigenvalues --    0.67869   0.68452   0.68965   0.69750   0.71914
  Beta virt. eigenvalues --    0.73503   0.74009   0.77673   0.79904   0.81622
  Beta virt. eigenvalues --    0.84666   0.88475   0.90365   0.93006   1.03099
  Beta virt. eigenvalues --    1.06004   1.06365   1.09955   1.10586   1.11302
  Beta virt. eigenvalues --    1.14095   1.15251   1.16145   1.18332   1.20823
  Beta virt. eigenvalues --    1.21965   1.23189   1.23228   1.27800   1.29605
  Beta virt. eigenvalues --    1.31188   1.33671   1.35729   1.37046   1.43771
  Beta virt. eigenvalues --    1.45988   1.46993   1.48648   1.50724   1.55233
  Beta virt. eigenvalues --    1.56972   1.59026   1.59918   1.60845   1.62274
  Beta virt. eigenvalues --    1.63904   1.66289   1.67288   1.68867   1.71924
  Beta virt. eigenvalues --    1.75287   1.77673   1.83563   1.83938   1.86050
  Beta virt. eigenvalues --    1.89758   1.94452   1.95801   1.99692   2.06087
  Beta virt. eigenvalues --    2.09124   2.11764   2.14420   2.18259   2.24379
  Beta virt. eigenvalues --    2.29219   2.40640   2.43887   2.49181   2.51509
  Beta virt. eigenvalues --    2.54504   2.58116   2.58731   2.60211   2.61184
  Beta virt. eigenvalues --    2.64464   2.65438   2.66122   2.69707   2.72259
  Beta virt. eigenvalues --    2.79554   2.81418   2.83811   2.88027   2.95410
  Beta virt. eigenvalues --    3.00035   3.02697   3.02893   3.05825   3.07476
  Beta virt. eigenvalues --    3.10679   3.12419   3.20273   3.22146   3.23848
  Beta virt. eigenvalues --    3.26927   3.31746   3.35541   3.35931   3.42314
  Beta virt. eigenvalues --    3.49676   3.55359   3.66396   3.73458   3.81964
  Beta virt. eigenvalues --    3.83362   3.84934   4.02525   4.06973   4.14364
  Beta virt. eigenvalues --    4.16654   4.27385   5.09225   5.14781   5.16371
  Beta virt. eigenvalues --    5.31459   5.43104   5.52968   5.67508   5.75739
  Beta virt. eigenvalues --    5.93697  23.61646  23.84856  23.93196  24.02568
  Beta virt. eigenvalues --   25.16909  49.97182  50.00476  50.09255
          Condensed to atoms (all electrons):
               1          2          3          4          5          6
     1  C    6.608587   0.469890  -1.704867   1.485769  -0.124582  -0.111400
     2  H    0.469890   0.428965  -0.095218   0.022297  -0.003150  -0.005245
     3  C   -1.704867  -0.095218  10.274263  -3.123970   0.169755  -0.168611
     4  C    1.485769   0.022297  -3.123970   8.004013   0.274319   0.024274
     5  O   -0.124582  -0.003150   0.169755   0.274319   8.057542  -0.131340
     6  O   -0.111400  -0.005245  -0.168611   0.024274  -0.131340   8.329716
     7  C    0.055692  -0.002501  -0.473496  -0.061325  -0.010840   0.224106
     8  C    0.043193  -0.000053  -0.236162   0.007945   0.015180  -0.158712
     9  H   -0.001650   0.000346   0.035947   0.036505  -0.015600  -0.034337
    10  H   -0.002687   0.000103   0.011736  -0.019063   0.006277  -0.013610
    11  H   -0.001269  -0.000170   0.003567  -0.005327  -0.000939  -0.005292
    12  H    0.001930   0.000042  -0.006962   0.004678  -0.001586  -0.015974
    13  H   -0.000936  -0.000035   0.002350  -0.007669   0.001887   0.025579
    14  O    0.002312   0.000121  -0.008812   0.003534  -0.007170   0.017664
    15  H    0.001674  -0.000137  -0.021145  -0.029290   0.015216  -0.000879
               7          8          9         10         11         12
     1  C    0.055692   0.043193  -0.001650  -0.002687  -0.001269   0.001930
     2  H   -0.002501  -0.000053   0.000346   0.000103  -0.000170   0.000042
     3  C   -0.473496  -0.236162   0.035947   0.011736   0.003567  -0.006962
     4  C   -0.061325   0.007945   0.036505  -0.019063  -0.005327   0.004678
     5  O   -0.010840   0.015180  -0.015600   0.006277  -0.000939  -0.001586
     6  O    0.224106  -0.158712  -0.034337  -0.013610  -0.005292  -0.015974
     7  C    6.391232  -0.161659   0.381132   0.152354  -0.031875  -0.037461
     8  C   -0.161659   6.025894  -0.143866  -0.070514   0.398973   0.400147
     9  H    0.381132  -0.143866   0.549470  -0.027793   0.003771  -0.011995
    10  H    0.152354  -0.070514  -0.027793   0.469351  -0.014083   0.010102
    11  H   -0.031875   0.398973   0.003771  -0.014083   0.506380  -0.037433
    12  H   -0.037461   0.400147  -0.011995   0.010102  -0.037433   0.541648
    13  H   -0.073320   0.436404  -0.005801  -0.009795  -0.024847  -0.032044
    14  O   -0.044204   0.013330  -0.010281   0.210296   0.000680  -0.004287
    15  H    0.048429   0.020802  -0.007529  -0.054785   0.001415   0.000334
              13         14         15
     1  C   -0.000936   0.002312   0.001674
     2  H   -0.000035   0.000121  -0.000137
     3  C    0.002350  -0.008812  -0.021145
     4  C   -0.007669   0.003534  -0.029290
     5  O    0.001887  -0.007170   0.015216
     6  O    0.025579   0.017664  -0.000879
     7  C   -0.073320  -0.044204   0.048429
     8  C    0.436404   0.013330   0.020802
     9  H   -0.005801  -0.010281  -0.007529
    10  H   -0.009795   0.210296  -0.054785
    11  H   -0.024847   0.000680   0.001415
    12  H   -0.032044  -0.004287   0.000334
    13  H    0.499303   0.002438   0.000443
    14  O    0.002438   7.980563   0.306882
    15  H    0.000443   0.306882   0.460597
          Atomic-Atomic Spin Densities.
               1          2          3          4          5          6
     1  C    0.002981  -0.000678  -0.003850   0.009611   0.000279  -0.004680
     2  H   -0.000678  -0.000646   0.000415   0.000533   0.000072  -0.000032
     3  C   -0.003850   0.000415  -0.019742  -0.004140   0.003563   0.009991
     4  C    0.009611   0.000533  -0.004140   0.001437  -0.005726  -0.002109
     5  O    0.000279   0.000072   0.003563  -0.005726   0.021212  -0.001663
     6  O   -0.004680  -0.000032   0.009991  -0.002109  -0.001663   0.093428
     7  C   -0.003053   0.000065   0.029516   0.009187   0.000659  -0.097825
     8  C    0.002501   0.000024  -0.008085   0.000824   0.000068   0.004360
     9  H    0.000856  -0.000041  -0.008537  -0.008184   0.002358   0.000251
    10  H    0.000718   0.000104   0.005735   0.029911  -0.005091  -0.006992
    11  H    0.000324  -0.000011  -0.001822  -0.001996  -0.000048   0.001599
    12  H   -0.000554   0.000025   0.003163   0.003755  -0.000143   0.005286
    13  H    0.000085  -0.000002  -0.000496  -0.000698   0.000014  -0.000145
    14  O    0.000299  -0.000059  -0.008614  -0.020428   0.001802   0.016264
    15  H   -0.000452   0.000015   0.004142   0.003135   0.000117  -0.002369
               7          8          9         10         11         12
     1  C   -0.003053   0.002501   0.000856   0.000718   0.000324  -0.000554
     2  H    0.000065   0.000024  -0.000041   0.000104  -0.000011   0.000025
     3  C    0.029516  -0.008085  -0.008537   0.005735  -0.001822   0.003163
     4  C    0.009187   0.000824  -0.008184   0.029911  -0.001996   0.003755
     5  O    0.000659   0.000068   0.002358  -0.005091  -0.000048  -0.000143
     6  O   -0.097825   0.004360   0.000251  -0.006992   0.001599   0.005286
     7  C    0.912861  -0.098653  -0.030080   0.051861  -0.023471   0.005663
     8  C   -0.098653   0.016971   0.025420  -0.012917   0.020026  -0.015897
     9  H   -0.030080   0.025420  -0.006922   0.014599   0.001904  -0.005097
    10  H    0.051861  -0.012917   0.014599  -0.137076  -0.001384  -0.001032
    11  H   -0.023471   0.020026   0.001904  -0.001384   0.018521  -0.011682
    12  H    0.005663  -0.015897  -0.005097  -0.001032  -0.011682   0.064662
    13  H   -0.008919   0.009307   0.002044  -0.002177   0.001722  -0.005169
    14  O   -0.124144   0.026482   0.005282   0.002120   0.004046  -0.002526
    15  H    0.008562  -0.003529  -0.001576   0.006799  -0.000555   0.000526
              13         14         15
     1  C    0.000085   0.000299  -0.000452
     2  H   -0.000002  -0.000059   0.000015
     3  C   -0.000496  -0.008614   0.004142
     4  C   -0.000698  -0.020428   0.003135
     5  O    0.000014   0.001802   0.000117
     6  O   -0.000145   0.016264  -0.002369
     7  C   -0.008919  -0.124144   0.008562
     8  C    0.009307   0.026482  -0.003529
     9  H    0.002044   0.005282  -0.001576
    10  H   -0.002177   0.002120   0.006799
    11  H    0.001722   0.004046  -0.000555
    12  H   -0.005169  -0.002526   0.000526
    13  H    0.003710   0.002291  -0.000272
    14  O    0.002291   0.462525  -0.004509
    15  H   -0.000272  -0.004509  -0.010264
 Mulliken charges and spin densities:
               1          2
     1  C   -0.721656   0.004388
     2  H    0.184744  -0.000216
     3  C    1.341626   0.001239
     4  C   -0.616690   0.015111
     5  O   -0.244967   0.017472
     6  O    0.024061   0.015364
     7  C   -0.356264   0.632231
     8  C   -0.590899  -0.033097
     9  H    0.251680  -0.007722
    10  H    0.352109  -0.054820
    11  H    0.206447   0.007173
    12  H    0.188859   0.040981
    13  H    0.186043   0.001295
    14  O   -0.463066   0.360830
    15  H    0.257973  -0.000229
 Sum of Mulliken charges =   0.00000   1.00000
 Mulliken charges and spin densities with hydrogens summed into heavy atoms:
               1          2
     1  C   -0.536912   0.004172
     3  C    1.341626   0.001239
     4  C   -0.616690   0.015111
     5  O   -0.244967   0.017472
     6  O    0.024061   0.015364
     7  C   -0.104584   0.624509
     8  C   -0.009551   0.016352
    14  O    0.147016   0.305781
 APT charges:
               1
     1  C   -0.161498
     2  H    0.240040
     3  C   -0.328084
     4  C    1.486599
     5  O   -0.751220
     6  O   -1.025983
     7  C    0.818758
     8  C   -0.086642
     9  H   -0.051542
    10  H   -0.075366
    11  H    0.041230
    12  H    0.016423
    13  H    0.031726
    14  O   -0.437563
    15  H    0.283123
 Sum of APT charges =   0.00000
 APT charges with hydrogens summed into heavy atoms:
               1
     1  C    0.078542
     3  C   -0.328084
     4  C    1.486599
     5  O   -0.751220
     6  O   -1.025983
     7  C    0.767216
     8  C    0.002737
    14  O   -0.229806
 Electronic spatial extent (au):  <R**2>=           1212.8231
 Charge=              0.0000 electrons
 Dipole moment (field-independent basis, Debye):
    X=              1.7222    Y=             -3.5953    Z=              0.9393  Tot=              4.0957
 Quadrupole moment (field-independent basis, Debye-Ang):
   XX=            -38.3620   YY=            -51.3305   ZZ=            -49.3045
   XY=              4.0782   XZ=             -6.3806   YZ=              0.9952
 Traceless Quadrupole moment (field-independent basis, Debye-Ang):
   XX=              7.9704   YY=             -4.9982   ZZ=             -2.9722
   XY=              4.0782   XZ=             -6.3806   YZ=              0.9952
 Octapole moment (field-independent basis, Debye-Ang**2):
  XXX=             52.6205  YYY=              3.1789  ZZZ=              4.0020  XYY=             -0.5939
  XXY=            -29.9438  XXZ=             -5.6744  XZZ=             -2.1934  YZZ=             -3.5229
  YYZ=              2.6935  XYZ=             -4.8933
 Hexadecapole moment (field-independent basis, Debye-Ang**3):
 XXXX=           -824.4082 YYYY=           -383.6612 ZZZZ=           -115.7447 XXXY=            -22.8203
 XXXZ=            -69.8485 YYYX=             11.1757 YYYZ=              1.6635 ZZZX=              1.2890
 ZZZY=              3.8656 XXYY=           -271.3069 XXZZ=           -205.3387 YYZZ=            -92.8797
 XXYZ=             21.5401 YYXZ=            -11.3564 ZZXY=              3.6229
 N-N= 3.520835993151D+02 E-N=-1.688227917486D+03  KE= 4.187676977410D+02
  Exact polarizability:  97.321  -7.071  77.952  -4.748  -0.853  53.241
 Approx polarizability: 101.771 -11.556  90.021  -8.019   2.859  64.749
                          Isotropic Fermi Contact Couplings
        Atom                 a.u.       MegaHertz       Gauss      10(-4) cm-1
     1  C(13)              0.00042       0.47493       0.16947       0.15842
     2  H(1)              -0.00009      -0.38708      -0.13812      -0.12912
     3  C(13)             -0.00276      -3.10307      -1.10725      -1.03507
     4  C(13)              0.00333       3.73870       1.33406       1.24709
     5  O(17)              0.00129      -0.78192      -0.27901      -0.26082
     6  O(17)              0.00092      -0.55599      -0.19839      -0.18546
     7  C(13)              0.24288     273.04716      97.43001      91.07873
     8  C(13)             -0.00600      -6.74788      -2.40781      -2.25085
     9  H(1)              -0.00037      -1.64343      -0.58642      -0.54819
    10  H(1)              -0.03041    -135.94753     -48.50946     -45.34722
    11  H(1)               0.00450      20.13665       7.18526       6.71686
    12  H(1)               0.01839      82.21003      29.33458      27.42231
    13  H(1)               0.00100       4.45543       1.58981       1.48617
    14  O(17)              0.07646     -46.34870     -16.53837     -15.46026
    15  H(1)              -0.00565     -25.23371      -9.00402      -8.41706
 --------------------------------------------------------
       Center         ----  Spin Dipole Couplings  ----
                      3XX-RR        3YY-RR        3ZZ-RR
 --------------------------------------------------------
     1   Atom       -0.000682     -0.001318      0.002000
     2   Atom        0.001543     -0.000811     -0.000732
     3   Atom        0.005536     -0.002037     -0.003499
     4   Atom        0.010942     -0.009592     -0.001350
     5   Atom       -0.037716     -0.030834      0.068550
     6   Atom       -0.075750      0.097797     -0.022046
     7   Atom       -0.337629      0.388708     -0.051079
     8   Atom       -0.014903      0.032869     -0.017966
     9   Atom       -0.043547     -0.010052      0.053599
    10   Atom       -0.108511      0.174344     -0.065833
    11   Atom       -0.006210      0.003875      0.002335
    12   Atom       -0.004152      0.010017     -0.005864
    13   Atom        0.008922     -0.000630     -0.008292
    14   Atom       -0.712019      1.063870     -0.351851
    15   Atom        0.011617      0.007590     -0.019207
 --------------------------------------------------------
                        XY            XZ            YZ
 --------------------------------------------------------
     1   Atom       -0.000433      0.000291     -0.004574
     2   Atom       -0.000473     -0.000443     -0.000097
     3   Atom        0.000163     -0.000541      0.000660
     4   Atom        0.003751      0.009382      0.004832
     5   Atom        0.004765      0.010261     -0.029347
     6   Atom       -0.134494      0.136569     -0.174249
     7   Atom       -0.205660      0.139239     -0.509061
     8   Atom        0.016906     -0.000162     -0.005319
     9   Atom       -0.007497     -0.002131      0.013956
    10   Atom       -0.058562      0.027865     -0.129247
    11   Atom        0.004593      0.005198      0.010044
    12   Atom        0.002842      0.002261     -0.002326
    13   Atom        0.009508      0.000664     -0.000850
    14   Atom       -0.443257      0.205716     -0.928685
    15   Atom        0.039426      0.050277      0.016324
 --------------------------------------------------------


 ---------------------------------------------------------------------------------
              Anisotropic Spin Dipole Couplings in Principal Axis System
 ---------------------------------------------------------------------------------

       Atom             a.u.   MegaHertz   Gauss  10(-4) cm-1        Axes

              Baa    -0.0045    -0.608    -0.217    -0.203  0.0490  0.8193  0.5713
     1 C(13)  Bbb    -0.0007    -0.096    -0.034    -0.032  0.9954  0.0068 -0.0952
              Bcc     0.0052     0.704     0.251     0.235  0.0819 -0.5734  0.8152
 
              Baa    -0.0010    -0.553    -0.197    -0.184  0.2427  0.7650  0.5965
     2 H(1)   Bbb    -0.0007    -0.357    -0.128    -0.119  0.0248 -0.6196  0.7845
              Bcc     0.0017     0.910     0.325     0.304  0.9698 -0.1756 -0.1694
 
              Baa    -0.0038    -0.508    -0.181    -0.170  0.0603 -0.3572  0.9321
     3 C(13)  Bbb    -0.0018    -0.239    -0.085    -0.080  0.0056  0.9339  0.3575
              Bcc     0.0056     0.748     0.267     0.249  0.9982  0.0163 -0.0583
 
              Baa    -0.0118    -1.589    -0.567    -0.530  0.0355  0.8953 -0.4441
     4 C(13)  Bbb    -0.0054    -0.718    -0.256    -0.240 -0.5250  0.3948  0.7540
              Bcc     0.0172     2.307     0.823     0.770  0.8503  0.2064  0.4840
 
              Baa    -0.0459     3.321     1.185     1.108  0.6934 -0.6806 -0.2367
     5 O(17)  Bbb    -0.0313     2.267     0.809     0.756  0.7166  0.6856  0.1278
              Bcc     0.0772    -5.588    -1.994    -1.864  0.0753 -0.2583  0.9631
 
              Baa    -0.1885    13.639     4.867     4.550  0.7398 -0.0604 -0.6701
     6 O(17)  Bbb    -0.1256     9.091     3.244     3.032  0.5110  0.6984  0.5011
              Bcc     0.3141   -22.730    -8.111    -7.582 -0.4378  0.7132 -0.5475
 
              Baa    -0.3942   -52.894   -18.874   -17.643  0.9093 -0.0309 -0.4149
     7 C(13)  Bbb    -0.3844   -51.586   -18.407   -17.207  0.3549  0.5782  0.7347
              Bcc     0.7786   104.479    37.281    34.851 -0.2172  0.8153 -0.5367
 
              Baa    -0.0211    -2.828    -1.009    -0.943  0.8231 -0.3052 -0.4790
     8 C(13)  Bbb    -0.0176    -2.366    -0.844    -0.789  0.4824 -0.0695  0.8732
              Bcc     0.0387     5.194     1.854     1.733  0.2998  0.9498 -0.0900
 
              Baa    -0.0452   -24.093    -8.597    -8.037  0.9772  0.2122 -0.0089
     9 H(1)   Bbb    -0.0115    -6.136    -2.190    -2.047 -0.2093  0.9547 -0.2115
              Bcc     0.0567    30.229    10.786    10.083 -0.0364  0.2086  0.9773
 
              Baa    -0.1236   -65.945   -23.531   -21.997 -0.5508  0.2387  0.7998
    10 H(1)   Bbb    -0.1191   -63.520   -22.665   -21.188  0.8147  0.3621  0.4529
              Bcc     0.2426   129.465    46.196    43.185 -0.1815  0.9010 -0.3939
 
              Baa    -0.0087    -4.627    -1.651    -1.543  0.8891  0.0395 -0.4560
    11 H(1)   Bbb    -0.0067    -3.583    -1.279    -1.195 -0.3415  0.7205 -0.6035
              Bcc     0.0154     8.210     2.929     2.738  0.3047  0.6923  0.6541
 
              Baa    -0.0081    -4.332    -1.546    -1.445 -0.5864  0.1928  0.7867
    12 H(1)   Bbb    -0.0027    -1.418    -0.506    -0.473  0.7921 -0.0663  0.6067
              Bcc     0.0108     5.751     2.052     1.918  0.1691  0.9790 -0.1139
 
              Baa    -0.0088    -4.691    -1.674    -1.565 -0.2258  0.3574  0.9062
    13 H(1)   Bbb    -0.0060    -3.198    -1.141    -1.067 -0.4737  0.7726 -0.4227
              Bcc     0.0148     7.889     2.815     2.632  0.8513  0.5247  0.0052
 
              Baa    -0.8250    59.699    21.302    19.913  0.7258  0.4331  0.5344
    14 O(17)  Bbb    -0.8008    57.943    20.675    19.328 -0.6568  0.2053  0.7256
              Bcc     1.6258  -117.641   -41.977   -39.241 -0.2045  0.8777 -0.4334
 
              Baa    -0.0585   -31.215   -11.138   -10.412 -0.6429  0.2010  0.7391
    15 H(1)   Bbb    -0.0162    -8.623    -3.077    -2.876 -0.2968  0.8242 -0.4823
              Bcc     0.0747    39.838    14.215    13.288  0.7061  0.5295  0.4702
 

 ---------------------------------------------------------------------------------

 Calling FoFJK, ICntrl=    100127 FMM=F ISym2X=0 I1Cent= 0 IOpClX= 1 NMat=1 NMatS=1 NMatT=0.
 Full mass-weighted force constant matrix:
 Low frequencies ----1493.1759   -0.0011   -0.0009   -0.0008    9.9745   22.3105
 Low frequencies ---   25.5920   70.1426  126.0183
 ******    1 imaginary frequencies (negative Signs) ****** 
 Diagonal vibrational polarizability:
       39.9616750      27.3560659      17.8950414
 Harmonic frequencies (cm**-1), IR intensities (KM/Mole), Raman scattering
 activities (A**4/AMU), depolarization ratios for plane and unpolarized
 incident light, reduced masses (AMU), force constants (mDyne/A),
 and normal coordinates:
                      1                      2                      3
                      A                      A                      A
 Frequencies --  -1493.1757                68.8072               125.9696
 Red. masses --      1.0947                 6.3224                 4.6970
 Frc consts  --      1.4380                 0.0176                 0.0439
 IR Inten    --    327.3591                 2.9774                 0.8010
  Atom  AN      X      Y      Z        X      Y      Z        X      Y      Z
     1   6     0.00   0.00   0.00     0.09  -0.18   0.28     0.05  -0.01   0.12
     2   1     0.00   0.00   0.00     0.12  -0.28   0.48     0.09  -0.02   0.25
     3   6     0.00   0.00   0.00     0.05  -0.06   0.04     0.02   0.01  -0.03
     4   6     0.00   0.01   0.00     0.03   0.05  -0.15     0.00  -0.01  -0.06
     5   8     0.00   0.00   0.00     0.02   0.12  -0.30     0.02  -0.12   0.19
     6   8    -0.01   0.00   0.00     0.02   0.03  -0.10    -0.04   0.11  -0.32
     7   6     0.03  -0.07   0.03     0.04  -0.02   0.00     0.02   0.05  -0.09
     8   6     0.00   0.01   0.00     0.04  -0.01  -0.04    -0.01  -0.06   0.24
     9   1    -0.02   0.13  -0.03     0.11  -0.14   0.04     0.21   0.14  -0.10
    10   1    -0.20   0.88  -0.40    -0.13   0.04   0.20    -0.09   0.01  -0.09
    11   1     0.00   0.00   0.00    -0.10   0.16  -0.08    -0.30  -0.16   0.23
    12   1    -0.01  -0.01  -0.01     0.16  -0.07  -0.23     0.22   0.02   0.24
    13   1     0.00   0.00   0.00     0.06  -0.10   0.13     0.05  -0.12   0.51
    14   8     0.00  -0.02   0.01    -0.23   0.04   0.26    -0.06   0.03  -0.07
    15   1    -0.03   0.05  -0.04    -0.12   0.02   0.12    -0.10   0.02   0.00
                      4                      5                      6
                      A                      A                      A
 Frequencies --    133.2943               164.6539               180.4445
 Red. masses --      4.1101                 1.1356                 5.5297
 Frc consts  --      0.0430                 0.0181                 0.1061
 IR Inten    --      2.7556                 0.2848                 5.4369
  Atom  AN      X      Y      Z        X      Y      Z        X      Y      Z
     1   6     0.15   0.30   0.11    -0.02   0.00   0.00     0.10   0.04  -0.06
     2   1     0.26   0.57   0.22    -0.02  -0.02  -0.01     0.10   0.13  -0.15
     3   6     0.02  -0.04  -0.03    -0.01   0.01   0.00     0.10  -0.09   0.05
     4   6    -0.02  -0.13  -0.08    -0.01   0.01   0.00     0.11  -0.07   0.08
     5   8    -0.02  -0.10  -0.14    -0.01   0.01   0.01     0.15  -0.07   0.09
     6   8    -0.03  -0.14  -0.01     0.00   0.01   0.01     0.05  -0.01   0.04
     7   6    -0.01  -0.02   0.03     0.00  -0.01   0.04     0.06   0.07   0.04
     8   6    -0.18   0.10   0.07    -0.01   0.03  -0.02    -0.08   0.23  -0.08
     9   1     0.06  -0.01   0.03     0.02  -0.07   0.06     0.06   0.05   0.04
    10   1     0.08   0.02   0.05     0.01  -0.02   0.04    -0.10  -0.05  -0.02
    11   1    -0.27   0.09   0.06    -0.42   0.42  -0.11    -0.10   0.35  -0.10
    12   1    -0.28   0.05   0.05     0.32  -0.11  -0.48    -0.22   0.12  -0.19
    13   1    -0.13   0.25   0.13     0.06  -0.20   0.46    -0.05   0.36  -0.06
    14   8     0.10   0.03   0.05     0.04  -0.04  -0.03    -0.37  -0.12  -0.12
    15   1     0.15  -0.01   0.00     0.04  -0.02  -0.04    -0.36   0.06  -0.28
                      7                      8                      9
                      A                      A                      A
 Frequencies --    236.0085               274.9517               307.9214
 Red. masses --      3.2828                 5.1226                 5.7668
 Frc consts  --      0.1077                 0.2282                 0.3222
 IR Inten    --      1.5408                 4.2455                 1.1999
  Atom  AN      X      Y      Z        X      Y      Z        X      Y      Z
     1   6    -0.02  -0.09   0.08     0.06   0.07   0.14    -0.04   0.10  -0.09
     2   1    -0.02  -0.27   0.25     0.18   0.19   0.47    -0.06   0.30  -0.38
     3   6    -0.02   0.16  -0.15    -0.11  -0.09  -0.31     0.00  -0.20   0.31
     4   6    -0.01   0.09  -0.07    -0.02   0.01  -0.06     0.00   0.04   0.04
     5   8    -0.05   0.01   0.07     0.27   0.01   0.07     0.15   0.13  -0.06
     6   8     0.04   0.03  -0.07    -0.15   0.10   0.11    -0.11   0.20  -0.20
     7   6     0.08  -0.07   0.12    -0.16   0.02   0.10    -0.07  -0.06   0.07
     8   6    -0.09   0.13  -0.02     0.05  -0.10  -0.08    -0.07  -0.03  -0.02
     9   1     0.18  -0.20   0.16    -0.24  -0.04   0.12     0.06  -0.23   0.13
    10   1     0.05  -0.11   0.15    -0.12   0.00   0.04    -0.13  -0.10   0.15
    11   1     0.11   0.10  -0.01     0.28  -0.01  -0.07     0.08  -0.04  -0.01
    12   1    -0.49   0.05   0.06     0.16  -0.07  -0.10    -0.24  -0.05   0.04
    13   1    -0.08   0.44  -0.26    -0.03  -0.32  -0.24    -0.10   0.06  -0.18
    14   8     0.08  -0.20   0.01     0.00  -0.03  -0.03     0.10  -0.20   0.05
    15   1    -0.02  -0.10   0.06     0.02  -0.04  -0.05     0.25  -0.30  -0.07
                     10                     11                     12
                      A                      A                      A
 Frequencies --    382.9260               406.0686               508.6392
 Red. masses --      1.4125                 1.8729                 2.7198
 Frc consts  --      0.1220                 0.1820                 0.4146
 IR Inten    --     72.0932                40.2050                 8.8284
  Atom  AN      X      Y      Z        X      Y      Z        X      Y      Z
     1   6    -0.02   0.01   0.00     0.02  -0.02   0.00    -0.06   0.02   0.03
     2   1    -0.01   0.02   0.01     0.00  -0.11   0.01    -0.02   0.11   0.09
     3   6    -0.02  -0.02   0.00     0.04   0.09  -0.02    -0.10  -0.07  -0.04
     4   6    -0.02  -0.03  -0.01     0.03   0.04   0.03    -0.02  -0.01   0.01
     5   8    -0.07  -0.05   0.00     0.07   0.05   0.03    -0.02   0.00   0.00
     6   8    -0.02   0.00  -0.03     0.04   0.00   0.04     0.01  -0.01   0.03
     7   6     0.03   0.03   0.09    -0.04  -0.07  -0.12     0.04   0.15  -0.18
     8   6     0.10   0.04   0.00    -0.14  -0.07   0.00     0.09   0.11   0.01
     9   1     0.10  -0.05   0.12    -0.13   0.00  -0.14    -0.09   0.52  -0.29
    10   1    -0.02   0.07   0.16    -0.04  -0.03  -0.04    -0.05  -0.10  -0.34
    11   1     0.24   0.10   0.00    -0.33  -0.17   0.00    -0.01  -0.01   0.02
    12   1     0.10   0.03  -0.02    -0.18  -0.06   0.04     0.22   0.19   0.07
    13   1     0.05  -0.05  -0.12    -0.08   0.06   0.14     0.10   0.06   0.10
    14   8    -0.03   0.03   0.01    -0.03   0.01   0.05     0.02  -0.17   0.12
    15   1     0.54  -0.07  -0.71     0.55  -0.21  -0.57     0.23  -0.43   0.05
                     13                     14                     15
                      A                      A                      A
 Frequencies --    550.3081               626.2944               742.8707
 Red. masses --      4.7200                 7.3903                 1.3246
 Frc consts  --      0.8422                 1.7079                 0.4307
 IR Inten    --      2.3672                 8.4347                35.4581
  Atom  AN      X      Y      Z        X      Y      Z        X      Y      Z
     1   6     0.22  -0.08  -0.07    -0.25   0.05   0.06    -0.05  -0.13  -0.06
     2   1     0.14  -0.31  -0.17    -0.42  -0.38  -0.10     0.33   0.85   0.38
     3   6     0.29   0.17   0.04    -0.06   0.43   0.20     0.02   0.07   0.03
     4   6     0.04  -0.05  -0.04    -0.07  -0.17  -0.07     0.00   0.00   0.00
     5   8    -0.11  -0.10  -0.03     0.34  -0.09  -0.08     0.01   0.00   0.00
     6   8    -0.15   0.08   0.03    -0.08  -0.19  -0.07     0.00   0.00   0.00
     7   6    -0.22   0.15   0.05    -0.02   0.05   0.02     0.00   0.00   0.00
     8   6    -0.03   0.00  -0.01     0.05   0.05   0.01     0.00   0.00   0.00
     9   1    -0.27   0.29   0.00     0.08   0.13   0.00     0.00   0.01   0.00
    10   1    -0.22   0.00  -0.16     0.00   0.01  -0.06    -0.01   0.00  -0.01
    11   1     0.16   0.05   0.00     0.21   0.10   0.01     0.01   0.01   0.00
    12   1     0.18   0.06  -0.02     0.19   0.08  -0.02     0.00   0.00  -0.01
    13   1    -0.11  -0.29  -0.13     0.00  -0.13  -0.09    -0.01  -0.01  -0.01
    14   8     0.03  -0.09   0.04    -0.01  -0.02   0.00     0.00   0.00   0.00
    15   1     0.08  -0.32   0.16    -0.02  -0.03   0.04     0.01  -0.02   0.01
                     16                     17                     18
                      A                      A                      A
 Frequencies --    771.0590               782.2441               785.3774
 Red. masses --      2.8927                 1.3386                 1.6699
 Frc consts  --      1.0133                 0.4826                 0.6069
 IR Inten    --      1.5744                33.7403               101.2561
  Atom  AN      X      Y      Z        X      Y      Z        X      Y      Z
     1   6     0.02  -0.07   0.14     0.00   0.03  -0.08    -0.02   0.04  -0.07
     2   1    -0.11   0.40  -0.77     0.09  -0.25   0.52     0.07  -0.28   0.57
     3   6    -0.02   0.08  -0.15     0.01   0.01   0.00    -0.01   0.01  -0.03
     4   6     0.04  -0.13   0.28     0.01  -0.04   0.09     0.03  -0.08   0.17
     5   8    -0.01   0.03  -0.08     0.00   0.01  -0.02    -0.01   0.02  -0.05
     6   8    -0.02   0.04  -0.06    -0.02   0.01  -0.01     0.01   0.02  -0.05
     7   6     0.00   0.01  -0.02    -0.02   0.03  -0.05     0.02  -0.02   0.05
     8   6     0.00   0.01   0.00     0.00   0.02  -0.02     0.01  -0.02   0.02
     9   1     0.04  -0.14   0.03    -0.04  -0.16   0.00     0.08   0.06   0.02
    10   1     0.02   0.07   0.11     0.22   0.18   0.28    -0.24  -0.15  -0.24
    11   1    -0.02  -0.06   0.01    -0.06  -0.18   0.01     0.05   0.15   0.00
    12   1     0.05   0.06   0.06     0.15   0.15   0.14    -0.13  -0.13  -0.11
    13   1     0.01  -0.01   0.03     0.00  -0.06   0.07     0.00   0.06  -0.06
    14   8     0.01  -0.02   0.01     0.02  -0.06   0.03    -0.02   0.06  -0.03
    15   1    -0.06   0.13  -0.03    -0.16   0.51  -0.23     0.13  -0.48   0.24
                     19                     20                     21
                      A                      A                      A
 Frequencies --    893.6784               918.1653               968.1495
 Red. masses --      1.4249                 1.8528                 4.2792
 Frc consts  --      0.6705                 0.9203                 2.3632
 IR Inten    --     28.4591                18.5732                 3.3948
  Atom  AN      X      Y      Z        X      Y      Z        X      Y      Z
     1   6     0.02  -0.01   0.00     0.04  -0.01  -0.01    -0.14   0.04   0.04
     2   1     0.03   0.00   0.00     0.05   0.00  -0.01    -0.15   0.05   0.05
     3   6     0.00  -0.02  -0.02     0.01  -0.03  -0.02    -0.09   0.00   0.01
     4   6    -0.01   0.03   0.04    -0.04   0.06   0.02     0.20  -0.04  -0.05
     5   8     0.00   0.07   0.02     0.01   0.10   0.05    -0.03  -0.15  -0.06
     6   8     0.03  -0.08  -0.06     0.04  -0.15  -0.06     0.24   0.14   0.03
     7   6    -0.02   0.03   0.02    -0.06   0.03   0.01    -0.02   0.15   0.08
     8   6    -0.07  -0.05   0.05    -0.05   0.09  -0.02    -0.21  -0.07  -0.05
     9   1     0.12   0.56  -0.12     0.12  -0.43   0.15     0.15  -0.04   0.14
    10   1     0.28  -0.06  -0.07    -0.26   0.10   0.00    -0.10   0.15   0.01
    11   1     0.28   0.29   0.02     0.12  -0.19   0.04     0.05  -0.22  -0.01
    12   1    -0.03  -0.19  -0.25     0.41   0.34   0.20     0.21   0.10   0.03
    13   1    -0.19  -0.27  -0.27    -0.13  -0.36   0.00    -0.35  -0.61  -0.18
    14   8     0.00  -0.02   0.02     0.00   0.01  -0.02     0.00  -0.02   0.00
    15   1    -0.06   0.27  -0.14     0.07  -0.30   0.14    -0.01  -0.06   0.05
                     22                     23                     24
                      A                      A                      A
 Frequencies --   1098.6269              1125.9370              1155.5138
 Red. masses --      1.2291                 3.1533                 2.4822
 Frc consts  --      0.8740                 2.3553                 1.9527
 IR Inten    --     17.9686                85.2780                27.0569
  Atom  AN      X      Y      Z        X      Y      Z        X      Y      Z
     1   6     0.00   0.00   0.00     0.04  -0.01  -0.01     0.01   0.00   0.00
     2   1     0.00   0.00   0.00     0.04  -0.02  -0.02     0.01   0.00   0.00
     3   6     0.00   0.00   0.00     0.03   0.02   0.00     0.00  -0.01   0.00
     4   6    -0.01   0.00   0.00    -0.08  -0.01   0.00    -0.03   0.00   0.01
     5   8     0.00   0.00   0.01     0.01   0.01   0.00     0.00   0.05   0.02
     6   8     0.00  -0.02   0.03    -0.18   0.04   0.07     0.02  -0.09  -0.05
     7   6     0.02   0.06  -0.09     0.33   0.02   0.01    -0.01   0.23   0.14
     8   6     0.00  -0.04   0.05    -0.13  -0.04  -0.09     0.05  -0.14  -0.13
     9   1     0.22  -0.02  -0.05     0.59   0.19  -0.02     0.11   0.18   0.18
    10   1    -0.59   0.25   0.61     0.06  -0.12  -0.01    -0.04   0.11  -0.08
    11   1     0.06   0.19   0.01    -0.04  -0.37  -0.04    -0.57  -0.32  -0.14
    12   1    -0.14  -0.19  -0.15     0.20   0.13   0.04    -0.40  -0.14   0.13
    13   1    -0.02   0.05  -0.13    -0.19  -0.40  -0.05     0.19   0.26   0.18
    14   8     0.02  -0.02  -0.01    -0.01   0.02  -0.01     0.00  -0.02   0.01
    15   1    -0.03  -0.03   0.06     0.04  -0.13   0.04    -0.01   0.02  -0.01
                     25                     26                     27
                      A                      A                      A
 Frequencies --   1214.3008              1280.2549              1367.5578
 Red. masses --      1.3150                 6.8717                 1.3005
 Frc consts  --      1.1425                 6.6360                 1.4331
 IR Inten    --     31.4499               780.9747                13.1142
  Atom  AN      X      Y      Z        X      Y      Z        X      Y      Z
     1   6    -0.01   0.00   0.00    -0.11   0.03   0.03     0.02   0.00   0.00
     2   1    -0.01   0.01   0.01    -0.11   0.07   0.05     0.02  -0.01  -0.01
     3   6    -0.01   0.00   0.00    -0.03  -0.01   0.00     0.00   0.00   0.00
     4   6     0.05   0.02   0.01     0.55   0.20   0.00    -0.08  -0.02   0.01
     5   8     0.00   0.00   0.00    -0.06   0.00   0.01     0.01   0.00   0.00
     6   8     0.00  -0.01  -0.03    -0.28  -0.17  -0.04     0.03   0.00  -0.03
     7   6     0.00  -0.10   0.07     0.10   0.08  -0.03     0.11   0.05   0.02
     8   6     0.00   0.04  -0.07     0.01  -0.03   0.04     0.00   0.04   0.05
     9   1    -0.27   0.65  -0.15    -0.50  -0.40   0.09    -0.80  -0.13   0.01
    10   1    -0.26  -0.07   0.48     0.08  -0.03  -0.10    -0.04   0.03   0.06
    11   1    -0.06  -0.21  -0.03    -0.01   0.04   0.02    -0.08  -0.22   0.07
    12   1     0.10   0.18   0.15    -0.08  -0.14  -0.12    -0.16  -0.19  -0.26
    13   1     0.04  -0.04   0.16    -0.01   0.02  -0.09    -0.12  -0.28  -0.16
    14   8     0.01   0.02  -0.02     0.00  -0.01   0.01     0.00   0.00   0.00
    15   1    -0.01  -0.02   0.04     0.02  -0.04  -0.01     0.01  -0.02   0.01
                     28                     29                     30
                      A                      A                      A
 Frequencies --   1417.8142              1477.7912              1485.4139
 Red. masses --      1.3743                 1.0439                 1.0477
 Frc consts  --      1.6276                 1.3431                 1.3620
 IR Inten    --     10.8318                 9.2228                 3.5666
  Atom  AN      X      Y      Z        X      Y      Z        X      Y      Z
     1   6     0.01   0.00   0.00     0.00   0.00   0.00     0.00   0.00   0.00
     2   1     0.01   0.00   0.00     0.00   0.00   0.00     0.00   0.00   0.00
     3   6     0.00   0.00   0.00     0.00   0.00   0.00     0.00   0.00   0.00
     4   6    -0.03  -0.01   0.00    -0.01   0.00   0.00     0.00   0.00   0.00
     5   8     0.00   0.00   0.00     0.00   0.00   0.00     0.00   0.00   0.00
     6   8     0.01   0.00  -0.02     0.00   0.00   0.00     0.00   0.00   0.00
     7   6     0.07   0.04   0.02     0.03   0.01  -0.02    -0.01   0.02   0.00
     8   6    -0.10  -0.12  -0.02     0.01  -0.01  -0.04    -0.04   0.02  -0.02
     9   1    -0.40  -0.05   0.02    -0.11  -0.05  -0.01     0.05  -0.03   0.02
    10   1    -0.01   0.04   0.04    -0.01   0.01  -0.01    -0.04  -0.01  -0.04
    11   1     0.29   0.38  -0.06     0.21   0.43  -0.07     0.58  -0.38   0.08
    12   1     0.46   0.19   0.18    -0.47   0.09   0.42    -0.10  -0.20  -0.35
    13   1     0.07   0.52   0.08     0.02  -0.43   0.39     0.13   0.12   0.55
    14   8     0.00   0.00   0.00     0.00   0.00   0.00     0.00   0.00   0.00
    15   1     0.01  -0.03   0.01     0.00   0.00   0.00    -0.01   0.04  -0.02
                     31                     32                     33
                      A                      A                      A
 Frequencies --   1577.3810              1834.1556              2266.8011
 Red. masses --      1.0483                12.2128                 5.6996
 Frc consts  --      1.5367                24.2068                17.2551
 IR Inten    --     83.7436               283.1443                88.9865
  Atom  AN      X      Y      Z        X      Y      Z        X      Y      Z
     1   6     0.00   0.00   0.00     0.07  -0.02  -0.02    -0.35   0.09   0.10
     2   1     0.00   0.00   0.00     0.12  -0.01  -0.02    -0.71   0.19   0.20
     3   6     0.00   0.00   0.00    -0.04   0.00   0.01     0.49  -0.13  -0.14
     4   6     0.00  -0.01  -0.01    -0.21   0.69   0.34    -0.08   0.04   0.03
     5   8     0.00   0.01   0.01     0.13  -0.46  -0.22     0.00  -0.01   0.00
     6   8     0.00   0.00   0.00     0.01  -0.05  -0.02    -0.01   0.00   0.00
     7   6    -0.02   0.01  -0.01    -0.03   0.02   0.01     0.00   0.00   0.00
     8   6     0.00  -0.01   0.00     0.01  -0.01  -0.01     0.00   0.00   0.00
     9   1     0.01   0.04  -0.02     0.11   0.04   0.04     0.00   0.00   0.00
    10   1     0.66   0.39   0.39     0.14   0.06   0.07     0.00   0.01   0.00
    11   1     0.03  -0.02   0.01    -0.02  -0.03  -0.01     0.00   0.00   0.00
    12   1    -0.04  -0.04  -0.03    -0.02  -0.01  -0.01     0.00   0.00   0.00
    13   1     0.01   0.00   0.03     0.02   0.04   0.02     0.00   0.00   0.00
    14   8    -0.03   0.00  -0.03    -0.01   0.00   0.00     0.00   0.00   0.00
    15   1     0.09  -0.45   0.21     0.04  -0.14   0.03     0.00  -0.01   0.00
                     34                     35                     36
                      A                      A                      A
 Frequencies --   3044.0058              3125.3628              3140.7604
 Red. masses --      1.0421                 1.0934                 1.0873
 Frc consts  --      5.6891                 6.2928                 6.3195
 IR Inten    --      2.0552                 2.8062                 4.3410
  Atom  AN      X      Y      Z        X      Y      Z        X      Y      Z
     1   6     0.00   0.00   0.00     0.00   0.00   0.00     0.00   0.00   0.00
     2   1     0.00   0.00   0.00     0.00   0.00   0.00     0.00   0.00   0.00
     3   6     0.00   0.00   0.00     0.00   0.00   0.00     0.00   0.00   0.00
     4   6     0.00   0.00   0.00     0.00   0.00   0.00     0.00   0.00   0.00
     5   8     0.00   0.00   0.00     0.00   0.00   0.00     0.00   0.00   0.00
     6   8     0.00   0.00   0.00     0.00   0.00   0.00     0.00   0.00   0.00
     7   6     0.00   0.00   0.00     0.00   0.01   0.02     0.00  -0.02  -0.07
     8   6    -0.01  -0.06   0.00    -0.04   0.03  -0.07    -0.03   0.02   0.00
     9   1     0.00   0.00   0.01     0.02  -0.07  -0.26    -0.05   0.24   0.89
    10   1     0.00   0.01   0.00     0.00   0.00   0.00     0.00   0.00  -0.01
    11   1    -0.03   0.05   0.42    -0.06   0.11   0.71    -0.01   0.01   0.05
    12   1    -0.23   0.69  -0.39     0.14  -0.43   0.23     0.04  -0.14   0.08
    13   1     0.35  -0.08  -0.08     0.36  -0.07  -0.10     0.31  -0.07  -0.08
    14   8     0.00   0.00   0.00     0.00   0.00   0.00     0.00   0.00   0.00
    15   1     0.00   0.00   0.00     0.00   0.00   0.00     0.00   0.00   0.00
                     37                     38                     39
                      A                      A                      A
 Frequencies --   3164.8412              3472.8251              3832.8900
 Red. masses --      1.1018                 1.1733                 1.0658
 Frc consts  --      6.5019                 8.3374                 9.2255
 IR Inten    --      5.1944                65.6642                62.6727
  Atom  AN      X      Y      Z        X      Y      Z        X      Y      Z
     1   6     0.00   0.00   0.00    -0.11   0.03   0.03     0.00   0.00   0.00
     2   1     0.00   0.00   0.00     0.92  -0.25  -0.26     0.00   0.00   0.00
     3   6     0.00   0.00   0.00     0.03  -0.01  -0.01     0.00   0.00   0.00
     4   6     0.00   0.00   0.00     0.00   0.00   0.00     0.00   0.00   0.00
     5   8     0.00   0.00   0.00     0.00   0.00   0.00     0.00   0.00   0.00
     6   8     0.00   0.00   0.00     0.00   0.00   0.00     0.00   0.00   0.00
     7   6     0.00  -0.01  -0.02     0.00   0.00   0.00     0.00   0.00   0.00
     8   6     0.07  -0.02  -0.06     0.00   0.00   0.00     0.00   0.00   0.00
     9   1    -0.01   0.07   0.25     0.00   0.00   0.00     0.00   0.00   0.00
    10   1     0.00   0.00   0.00     0.00   0.00   0.00     0.01  -0.01   0.01
    11   1    -0.03   0.07   0.55     0.00   0.00   0.00     0.00   0.00   0.00
    12   1     0.00   0.05  -0.04     0.00   0.00   0.00     0.00   0.00   0.00
    13   1    -0.75   0.15   0.18     0.00   0.00   0.00     0.00   0.00   0.00
    14   8     0.00   0.00   0.00     0.00   0.00   0.00     0.04   0.03   0.03
    15   1     0.00   0.00   0.00     0.00   0.00   0.00    -0.72  -0.46  -0.51

 -------------------
 - Thermochemistry -
 -------------------
 Temperature   298.150 Kelvin.  Pressure   1.00000 Atm.
 Atom     1 has atomic number  6 and mass  12.00000
 Atom     2 has atomic number  1 and mass   1.00783
 Atom     3 has atomic number  6 and mass  12.00000
 Atom     4 has atomic number  6 and mass  12.00000
 Atom     5 has atomic number  8 and mass  15.99491
 Atom     6 has atomic number  8 and mass  15.99491
 Atom     7 has atomic number  6 and mass  12.00000
 Atom     8 has atomic number  6 and mass  12.00000
 Atom     9 has atomic number  1 and mass   1.00783
 Atom    10 has atomic number  1 and mass   1.00783
 Atom    11 has atomic number  1 and mass   1.00783
 Atom    12 has atomic number  1 and mass   1.00783
 Atom    13 has atomic number  1 and mass   1.00783
 Atom    14 has atomic number  8 and mass  15.99491
 Atom    15 has atomic number  1 and mass   1.00783
 Molecular mass:   115.03952 amu.
 Principal axes and moments of inertia in atomic units:
                           1         2         3
     Eigenvalues --   592.320341486.459911890.24097
           X            0.99963   0.02576  -0.00881
           Y           -0.02574   0.99966   0.00296
           Z            0.00888  -0.00273   0.99996
 This molecule is an asymmetric top.
 Rotational symmetry number  1.
 Warning -- assumption of classical behavior for rotation
           may cause significant error
 Rotational temperatures (Kelvin)      0.14623     0.05827     0.04582
 Rotational constants (GHZ):           3.04690     1.21412     0.95477
    1 imaginary frequencies ignored.
 Zero-point vibrational energy     280584.5 (Joules/Mol)
                                   67.06130 (Kcal/Mol)
 Warning -- explicit consideration of  12 degrees of freedom as
           vibrations may cause significant error
 Vibrational temperatures:     99.00   181.24   191.78   236.90   259.62
          (Kelvin)            339.56   395.59   443.03   550.94   584.24
                              731.82   791.77   901.10  1068.82  1109.38
                             1125.47  1129.98  1285.80  1321.03  1392.95
                             1580.68  1619.97  1662.52  1747.11  1842.00
                             1967.61  2039.92  2126.21  2137.18  2269.50
                             2638.94  3261.42  4379.64  4496.69  4518.85
                             4553.49  4996.61  5514.67
 
 Zero-point correction=                           0.106869 (Hartree/Particle)
 Thermal correction to Energy=                    0.116243
 Thermal correction to Enthalpy=                  0.117187
 Thermal correction to Gibbs Free Energy=         0.071919
 Sum of electronic and zero-point Energies=           -419.3601322
 Sum of electronic and thermal Energies=              -420.095995
 Sum of electronic and thermal Enthalpies=            -420.095051
 Sum of electronic and thermal Free Energies=         -420.140319
 
                     E (Thermal)             CV                S
                      KCal/Mol        Cal/Mol-Kelvin    Cal/Mol-Kelvin
 Total                   72.944             32.797             95.275
 Electronic               0.000              0.000              1.377
 Translational            0.889              2.981             40.136
 Rotational               0.889              2.981             28.900
 Vibrational             71.166             26.836             24.862
 Vibration     1          0.598              1.969              4.187
 Vibration     2          0.611              1.927              3.007
 Vibration     3          0.613              1.920              2.898
 Vibration     4          0.623              1.886              2.496
 Vibration     5          0.629              1.866              2.324
 Vibration     6          0.655              1.786              1.833
 Vibration     7          0.677              1.720              1.565
 Vibration     8          0.698              1.659              1.373
 Vibration     9          0.752              1.507              1.028
 Vibration    10          0.771              1.457              0.941
 Vibration    11          0.864              1.231              0.637
 Vibration    12          0.906              1.139              0.544
                       Q            Log10(Q)             Ln(Q)
 Total Bot       0.830680D-33        -33.080566        -76.170819
 Total V=0       0.119029D+17         16.075652         37.015558
 Vib (Bot)       0.185446D-46        -46.731782       -107.603905
 Vib (Bot)    1  0.299788D+01          0.476815          1.097907
 Vib (Bot)    2  0.161998D+01          0.209510          0.482414
 Vib (Bot)    3  0.152816D+01          0.184169          0.424065
 Vib (Bot)    4  0.122604D+01          0.088505          0.203790
 Vib (Bot)    5  0.111292D+01          0.046463          0.106985
 Vib (Bot)    6  0.832322D+00         -0.079709         -0.183536
 Vib (Bot)    7  0.701106D+00         -0.154217         -0.355097
 Vib (Bot)    8  0.614834D+00         -0.211242         -0.486404
 Vib (Bot)    9  0.471200D+00         -0.326794         -0.752472
 Vib (Bot)   10  0.436973D+00         -0.359545         -0.827883
 Vib (Bot)   11  0.320637D+00         -0.493986         -1.137444
 Vib (Bot)   12  0.285088D+00         -0.545021         -1.254958
 Vib (V=0)       0.265728D+03          2.424437          5.582472
 Vib (V=0)    1  0.353929D+01          0.548917          1.263928
 Vib (V=0)    2  0.219539D+01          0.341511          0.786358
 Vib (V=0)    3  0.210788D+01          0.323846          0.745682
 Vib (V=0)    4  0.182408D+01          0.261043          0.601073
 Vib (V=0)    5  0.172008D+01          0.235548          0.542369
 Vib (V=0)    6  0.147096D+01          0.167600          0.385914
 Vib (V=0)    7  0.136113D+01          0.133900          0.308317
 Vib (V=0)    8  0.129248D+01          0.111423          0.256561
 Vib (V=0)    9  0.118704D+01          0.074467          0.171466
 Vib (V=0)   10  0.116404D+01          0.065967          0.151894
 Vib (V=0)   11  0.109398D+01          0.039008          0.089819
 Vib (V=0)   12  0.107557D+01          0.031637          0.072846
 Electronic      0.200000D+01          0.301030          0.693147
 Translational   0.484982D+08          7.685726         17.697038
 Rotational      0.461806D+06          5.664460         13.042901
 ***** Axes restored to original set *****
 -------------------------------------------------------------------
 Center     Atomic                   Forces (Hartrees/Bohr)
 Number     Number              X              Y              Z
 -------------------------------------------------------------------
      1        6          -0.000162925   -0.000025838    0.000001989
      2        1           0.000004995    0.000021819   -0.000008481
      3        6          -0.000421848   -0.000383235   -0.000009951
      4        6           0.002907364    0.003041836    0.001064326
      5        8           0.000879352   -0.000980585    0.000790161
      6        8          -0.008680073    0.002789745   -0.001272208
      7        6           0.010712784   -0.021582485    0.007492037
      8        6          -0.000837018    0.005613976   -0.002149288
      9        1          -0.000782075    0.005064020   -0.001438761
     10        1          -0.006812590    0.035045375   -0.015279280
     11        1           0.000028388   -0.000207424   -0.000131161
     12        1           0.000267980    0.000272526    0.000072773
     13        1          -0.000049752    0.000089454    0.000060838
     14        8           0.004237532   -0.029717204    0.011936529
     15        1          -0.001292115    0.000958019   -0.001129523
 -------------------------------------------------------------------
 Cartesian Forces:  Max     0.035045375 RMS     0.008645926

 GradGradGradGradGradGradGradGradGradGradGradGradGradGradGradGradGradGrad
 Berny optimization.
 Search for a local minimum.
 Step number   1 out of a maximum of    2
 All quantities printed in internal units (Hartrees-Bohrs-Radians)
 Second derivative matrix not updated -- analytic derivatives used.
 ITU=  0
     Eigenvalues ---   -0.12463   0.00086   0.00185   0.00269   0.00382
     Eigenvalues ---    0.00668   0.00866   0.01138   0.01671   0.01809
     Eigenvalues ---    0.02547   0.03041   0.04319   0.05442   0.06053
     Eigenvalues ---    0.06878   0.07659   0.08834   0.09091   0.10388
     Eigenvalues ---    0.10689   0.13179   0.13633   0.17308   0.18923
     Eigenvalues ---    0.24664   0.29272   0.34449   0.46754   0.50473
     Eigenvalues ---    0.65564   0.72501   0.75562   0.80177   0.86323
     Eigenvalues ---    0.91202   0.98154   1.71804   2.73164
 Eigenvalue     1 is  -1.25D-01 should be greater than     0.000000 Eigenvector:
                          Y10       Z10       Y7        Y14       X10
   1                    0.81748  -0.34281  -0.28287  -0.19915  -0.15782
                          Z7        X7        Y9        Z14       X12
   1                    0.14685   0.10938   0.08099   0.07017  -0.06547
 Quadratic step=6.331D-01 exceeds max=3.000D-01 adjusted using Lamda=-6.760D-02.
 Angle between NR and scaled steps=  32.45 degrees.
 Angle between quadratic step and forces=  17.75 degrees.
 Linear search not attempted -- first point.
 TrRot=  0.002814 -0.011550  0.004821 -0.746186  0.001340  0.747825
 Variable       Old X    -DE/DX   Delta X   Delta X   Delta X     New X
                                 (Linear)    (Quad)   (Total)
    X1        6.19472  -0.00016   0.00000  -0.00816  -0.00455   6.19017
    Y1       -0.98973  -0.00003   0.00000  -0.00464  -0.00529  -0.99502
    Z1       -0.83343   0.00000   0.00000   0.00519   0.00303  -0.83040
    X2        8.07222   0.00000   0.00000  -0.00613  -0.00220   8.07001
    Y2       -1.49390   0.00002   0.00000  -0.00351  -0.00060  -1.49451
    Z2       -1.35522  -0.00001   0.00000   0.00491   0.00044  -1.35478
    X3        4.08273  -0.00042   0.00000  -0.00889  -0.00563   4.07711
    Y3       -0.42550  -0.00038   0.00000   0.00014  -0.00451  -0.43000
    Z3       -0.24657  -0.00001   0.00000  -0.00034   0.00009  -0.24648
    X4        1.55976   0.00291   0.00000   0.00204   0.00470   1.56447
    Y4        0.35429   0.00304   0.00000   0.02887   0.01944   0.37373
    Z4        0.49270   0.00106   0.00000  -0.00425  -0.00062   0.49208
    X5        1.06970   0.00088   0.00000   0.01346   0.01384   1.08354
    Y5        2.34544  -0.00098   0.00000   0.02057   0.00946   2.35490
    Z5        1.45762   0.00079   0.00000   0.00608   0.01199   1.46961
    X6       -0.15151  -0.00868   0.00000  -0.02410  -0.01906  -0.17057
    Y6       -1.43558   0.00279   0.00000   0.03674   0.02496  -1.41062
    Z6       -0.03761  -0.00127   0.00000  -0.02850  -0.02478  -0.06239
    X7       -2.67269   0.01071   0.00000   0.03820   0.04338  -2.62931
    Y7       -0.92349  -0.02158   0.00000  -0.08324  -0.09976  -1.02325
    Z7        0.67442   0.00749   0.00000   0.04123   0.04772   0.72214
    X8       -4.33721  -0.00084   0.00000  -0.01463  -0.00705  -4.34426
    Y8       -3.05504   0.00561   0.00000   0.03720   0.01869  -3.03635
    Z8       -0.17307  -0.00215   0.00000  -0.01732  -0.01097  -0.18404
    X9       -2.78709  -0.00078   0.00000  -0.00925  -0.00322  -2.79030
    Y9       -0.41176   0.00506   0.00000   0.04838   0.02982  -0.38194
    Z9        2.66879  -0.00144   0.00000  -0.00871  -0.00148   2.66732
   X10       -3.37323  -0.00681   0.00000  -0.03165  -0.03185  -3.40509
   Y10        1.29596   0.03505   0.00000   0.18834   0.17174   1.46771
   Z10       -0.51158  -0.01528   0.00000  -0.08127  -0.07175  -0.58333
   X11       -4.18449   0.00003   0.00000  -0.00606   0.00001  -4.18448
   Y11       -3.33335  -0.00021   0.00000   0.01955   0.00316  -3.33019
   Z11       -2.20898  -0.00013   0.00000  -0.01233  -0.00641  -2.21538
   X12       -3.77013   0.00027   0.00000  -0.00854   0.00285  -3.76728
   Y12       -4.80324   0.00027   0.00000   0.03600   0.01756  -4.78568
   Z12        0.77713   0.00007   0.00000  -0.00840  -0.00421   0.77292
   X13       -6.29923  -0.00005   0.00000  -0.01109  -0.00368  -6.30291
   Y13       -2.64825   0.00009   0.00000   0.02858   0.00642  -2.64182
   Z13        0.30382   0.00006   0.00000  -0.00768   0.00096   0.30477
   X14       -3.61843   0.00424   0.00000   0.03360   0.02995  -3.58848
   Y14        3.32792  -0.02972   0.00000  -0.14576  -0.16204   3.16588
   Z14       -1.31201   0.01194   0.00000   0.04538   0.05662  -1.25539
   X15       -2.28140  -0.00129   0.00000  -0.01318  -0.01750  -2.29890
   Y15        4.14291   0.00096   0.00000  -0.01408  -0.02906   4.11386
   Z15       -0.36483  -0.00113   0.00000  -0.01146  -0.00062  -0.36545
         Item               Value     Threshold  Converged?
 Maximum Force            0.035045     0.000450     NO 
 RMS     Force            0.008646     0.000300     NO 
 Maximum Displacement     0.171742     0.001800     NO 
 RMS     Displacement     0.043635     0.001200     NO 
 Predicted change in Energy=-2.018110D-02
 GradGradGradGradGradGradGradGradGradGradGradGradGradGradGradGradGradGrad

 1|1|UNPC-DIT|Freq|UM062X|6-311++G(d,p)|C5H7O3(2)|NDITM|27-Mar-2025|0||
 # freq 6-311++g(d,p) m062x||Title Card Required||0,2|C,3.278102,-0.523
 744,-0.441031|H,4.271633,-0.790539,-0.717151|C,2.16049,-0.225163,-0.13
 048|C,0.825391,0.187483,0.260725|O,0.566062,1.241154,0.771337|O,-0.080
 175,-0.759677,-0.019903|C,-1.414327,-0.488692,0.356888|C,-2.295151,-1.
 616657,-0.091583|H,-1.474862,-0.217892,1.412264|H,-1.785039,0.685795,-
 0.270716|H,-2.214337,-1.763933,-1.16894|H,-1.995065,-2.541766,0.411242
 |H,-3.333407,-1.401391,0.160773|O,-1.914791,1.761061,-0.694288|H,-1.20
 7265,2.192336,-0.19306||Version=IA32W-G09RevD.01|State=2-A|HF=-420.212
 2386|S2=0.759105|S2-1=0.|S2A=0.750039|RMSD=6.971e-009|RMSF=8.646e-003|
 ZeroPoint=0.106869|Thermal=0.1162432|Dipole=0.6758797,-1.4160024,0.366
 8993|DipoleDeriv=-0.2172644,0.0113384,0.0065105,0.0136225,-0.1401916,-
 0.0064559,0.014623,-0.0074406,-0.1270365,0.2839075,-0.0121513,-0.01431
 05,-0.0137946,0.2243509,0.010836,-0.0192291,0.0105925,0.2118606,-0.683
 1297,0.1404642,0.1303789,0.1120923,-0.1590919,-0.0460196,0.1626336,-0.
 0489703,-0.1420313,2.3877994,-0.0727498,-0.1545183,0.5869001,1.3852475
 ,0.5450604,0.0026874,0.4372234,0.68675,-0.8114775,0.1804606,0.1339888,
 -0.081117,-0.9210814,-0.3368594,-0.021917,-0.3051504,-0.521102,-1.9911
 635,-0.1589869,-0.1332931,-0.5048009,-0.7603258,-0.1605414,-0.0473408,
 -0.1319619,-0.3264611,1.1405013,-0.1471366,0.1005876,-0.1453017,0.9853
 096,-0.2218375,-0.068534,-0.1461207,0.3304634,-0.0366752,0.0496311,-0.
 027577,-0.1372611,-0.2108123,-0.006124,0.0135578,0.0870408,-0.0124371,
 -0.0368242,-0.029837,-0.0589107,0.0231311,-0.0802074,0.0377758,0.01723
 32,-0.0201792,-0.0375953,0.1353436,0.0640037,-0.042798,0.1751856,-0.41
 9942,0.2192722,-0.0569138,0.2237456,0.0585015,0.0815739,-0.0122739,0.0
 340683,-0.0164462,0.0853285,-0.0007581,-0.0005767,-0.0305284,-0.043212
 5,0.0445937,-0.0128061,-0.0277817,-0.0060289,-0.0507795,0.0508496,-0.0
 496965,0.0189847,0.0554534,-0.0499637,-0.0003442,0.0293712,0.0315369,0
 .0651936,-0.0213209,0.0311393,-0.0241716,0.079949,-0.5066709,-0.018560
 6,0.118773,0.0396068,-0.3780522,-0.0540599,0.0854363,-0.0969932,-0.427
 9665,0.2594497,0.0189484,-0.094489,-0.0773248,0.375054,-0.0098172,-0.0
 631026,0.0339294,0.2148642|Polar=97.3104284,-7.0814879,77.9703076,-4.7
 439439,-0.7992246,53.2337501|PG=C01 [X(C5H7O3)]|NImag=1||1.36742017,-0
 .35362769,0.15286017,-0.36632159,0.09791592,0.16252735,-0.36818924,0.0
 9242591,0.09515143,0.35828020,0.09243425,-0.05258649,-0.02467446,-0.09
 247842,0.04188067,0.09508191,-0.02460991,-0.05623348,-0.09553664,0.025
 22491,0.04460714,-0.99844774,0.25886084,0.26956301,0.00960435,-0.00168
 708,-0.00093256,1.30760554,0.26056300,-0.10420044,-0.07362677,-0.00138
 312,0.00561191,-0.00073748,-0.32291055,0.19147130,0.27034909,-0.073503
 61,-0.10879597,-0.00089717,-0.00058739,0.00746632,-0.34245862,0.110148
 12,0.16275448,0.00589499,0.00070121,-0.00037641,-0.00083825,0.00206304
 ,0.00196373,-0.24642940,0.05254057,0.05173308,0.64201738,0.00151217,0.
 00219602,0.00004386,0.00116351,0.00523180,-0.00056077,0.04239623,-0.07
 350293,-0.00743716,-0.09511747,0.83173113,0.00010134,0.00016025,0.0015
 2367,0.00158991,-0.00071253,0.00554817,0.04609234,-0.00922590,-0.08234
 512,-0.11299133,0.29166642,0.35377886,-0.00313876,0.00028272,0.0006620
 9,0.00010515,-0.00140478,-0.00076868,-0.01379246,0.04229324,0.02406183
 ,-0.14870031,0.14044918,0.07335498,0.14732973,-0.00164273,0.00160279,0
 .00079632,0.00007305,0.00030392,0.00060077,0.03590874,-0.02618169,-0.0
 2684292,0.13657934,-0.59520352,-0.24995300,-0.14091522,0.70718804,-0.0
 0031875,0.00044267,0.00079097,-0.00013623,0.00081420,-0.00068203,0.021
 75337,-0.02729262,0.00554643,0.07101267,-0.25282172,-0.20244864,-0.075
 35755,0.32083877,0.19131812,-0.00384789,0.00143974,0.00121148,0.001336
 42,0.00088353,0.00010563,-0.06119286,-0.02812898,-0.00124111,-0.184423
 42,-0.07795278,-0.01351510,0.02058800,-0.04522826,-0.01641290,0.484345
 28,0.00145617,-0.00038485,-0.00074626,0.00008471,-0.00055794,-0.000047
 30,-0.00837896,0.00897204,0.00003129,-0.07094530,-0.18149409,-0.040254
 95,-0.03742740,-0.08390801,-0.04426871,0.10258668,0.34134921,0.0014161
 5,-0.00060758,-0.00000745,-0.00020674,-0.00023355,-0.00050026,0.007426
 50,0.00328503,0.01188858,-0.00964478,-0.03599267,-0.08392032,-0.014861
 36,-0.04507919,0.01237196,-0.04141520,0.11752777,0.14133695,0.00083613
 ,-0.00021481,-0.00015942,-0.00044282,0.00010442,0.00006384,0.00508383,
 -0.00167380,-0.00060560,-0.06845951,-0.03321970,-0.00500539,0.00124241
 ,0.02121650,0.00687907,-0.17772367,0.03133109,0.03551322,0.42253996,-0
 .00057910,0.00044048,0.00021286,0.00017292,0.00018710,0.00013399,-0.00
 555154,-0.00269022,-0.00173955,-0.01943516,0.02374866,0.01188347,-0.00
 123731,-0.00986188,0.00099949,0.02024543,-0.08904990,-0.03323657,0.085
 83720,0.32155955,-0.00035693,0.00021470,0.00022417,0.00001674,0.000186
 08,-0.00021675,-0.00165961,-0.00289181,0.00378267,-0.00498593,0.008277
 01,0.00667923,-0.00149651,-0.00170808,-0.00614302,0.05891607,-0.037081
 08,-0.08629561,-0.02073031,0.14744144,0.51295336,-0.00037002,0.0001671
 5,0.00010467,0.00007005,0.00006912,0.00002416,-0.00153384,-0.00116773,
 -0.00024494,-0.00266343,0.00618753,0.00355954,0.00179999,-0.00244840,-
 0.00118672,-0.04306669,-0.03406929,-0.00821761,-0.11412238,-0.05567579
 ,-0.02145884,0.56556486,0.00016872,-0.00013579,-0.00008252,-0.00000304
 ,-0.00004432,-0.00000100,0.00034595,0.00075028,0.00010034,0.00369866,-
 0.00199436,-0.00093273,-0.00154071,0.00108478,0.00003910,0.00210347,0.
 00862902,0.00388891,-0.07724761,-0.15655570,-0.05298021,-0.03488063,0.
 49978740,0.00017060,-0.00009236,-0.00004005,-0.00003149,-0.00000977,-0
 .00000648,0.00055349,0.00047437,-0.00004716,0.00197851,-0.00339374,-0.
 00106780,-0.00115452,0.00061365,0.00164655,0.01131953,0.00996370,0.005
 67268,-0.02531849,-0.04333845,-0.09511500,-0.02139155,-0.00288345,0.56
 962135,-0.00012329,0.00000383,0.00000858,0.00006466,-0.00001271,0.0000
 5473,-0.00067097,0.00022605,-0.00090700,0.00315952,0.00731735,0.004180
 01,0.00054414,-0.00311668,-0.00149912,-0.01976931,0.00691981,0.0380696
 6,-0.04823445,-0.00543040,-0.00130452,0.00454944,-0.00237805,-0.017477
 79,0.06120875,-0.00004567,0.00001608,0.00007177,-0.00001461,-0.0000041
 4,-0.00000088,0.00070240,-0.00007732,-0.00026559,-0.00315846,-0.001307
 17,0.00134439,0.00034863,0.00032379,-0.00061296,0.00920910,0.00145611,
 -0.01019989,-0.00553064,-0.04711203,-0.06030566,-0.00036948,-0.0024530
 4,-0.02471906,-0.00080767,0.05701122,-0.00005912,0.00003288,0.00003078
 ,-0.00000526,-0.00002363,0.00001520,0.00015902,0.00030428,-0.00023141,
 -0.00118911,-0.00406559,-0.00111695,-0.00187286,0.00124721,0.00127370,
 0.00785585,-0.00037232,-0.00296451,0.01356874,-0.07891301,-0.31314572,
 0.00060360,0.00145284,-0.00220837,-0.01713888,0.08084791,0.32492205,0.
 00015705,-0.00012836,0.00019751,-0.00002752,0.00005705,-0.00006096,-0.
 00010630,-0.00014325,-0.00016862,-0.00086363,0.00484572,0.00123376,0.0
 0077180,-0.00157860,-0.00035402,-0.01620183,0.01215631,-0.00505769,-0.
 00942136,-0.01456244,0.00536479,0.00171159,-0.00493417,0.00222526,0.00
 064668,0.00184191,-0.00072020,0.05785767,-0.00002339,0.00000802,0.0000
 9801,-0.00008461,-0.00001197,0.00004179,0.00121424,0.00017588,-0.00090
 341,-0.00812994,-0.00621716,-0.00179321,-0.00033338,0.00231347,0.00020
 662,0.02178604,-0.00784452,0.00312128,-0.03411593,0.08538101,-0.038934
 94,0.00165776,-0.01923879,0.00752167,0.00174735,-0.01201343,0.00201635
 ,0.03199021,-0.04166174,0.00010688,-0.00006297,-0.00008296,0.00003523,
 0.00002776,0.00002441,-0.00033258,-0.00015526,-0.00001453,0.00257819,0
 .00357848,0.00227633,0.00116118,-0.00130816,-0.00062350,-0.00376413,-0
 .00218519,0.00006664,0.01043950,-0.03302944,-0.00188313,0.00020550,0.0
 0076933,-0.00065467,-0.00418914,0.01449252,-0.00894634,-0.00033759,0.0
 4732014,0.02880513,0.00001317,0.00001507,0.00001832,-0.00001977,-0.000
 00835,-0.00000686,0.00008143,0.00003978,0.00002379,-0.00017296,-0.0012
 4378,-0.00030600,-0.00043465,0.00055944,0.00036962,0.00196324,0.001259
 69,0.00020843,0.00133109,-0.00226281,-0.02121487,-0.04960599,0.0023657
 1,0.02207098,-0.00179745,-0.00307166,-0.00054550,0.00006335,0.00042017
 ,-0.00013974,0.04839290,-0.00000577,-0.00000577,0.00003331,0.00000038,
 0.00000511,-0.00000180,0.00002548,0.00005029,-0.00011837,-0.00002922,-
 0.00068253,-0.00019812,-0.00032647,0.00006063,0.00038332,0.00212065,0.
 00127103,0.00152286,0.00284928,-0.00676456,-0.02920476,0.00184139,-0.0
 4943872,-0.03319707,-0.00394291,-0.00290645,-0.00068282,-0.00010322,0.
 00122759,-0.00140840,-0.00004932,0.05506719,-0.00001537,0.00001705,0.0
 0001364,-0.00000301,-0.00000506,-0.00000174,-0.00000321,0.00000313,-0.
 00004022,-0.00022007,-0.00036051,0.00000141,-0.00000915,0.00032070,0.0
 0016496,0.00025735,0.00058594,0.00096402,0.00041168,-0.00328728,-0.009
 10448,0.02097496,-0.03492976,-0.31393507,-0.00090912,-0.00064096,0.000
 97001,-0.00022039,0.00074381,-0.00029966,-0.02179976,0.04060037,0.3386
 3547,0.00000343,0.00002586,0.00000614,-0.00000903,-0.00001785,-0.00000
 098,0.00001988,0.00005947,0.00000969,0.00019958,-0.00054810,-0.0002541
 3,-0.00039168,0.00042737,0.00005541,0.00076704,0.00122670,-0.00031059,
 0.00340666,-0.01860998,0.00886626,-0.06440704,0.06084239,-0.03381539,0
 .00024679,0.00108918,-0.00020969,-0.00059401,-0.00198645,0.00008365,-0
 .00002891,-0.00263472,0.00167015,0.06732784,-0.00004176,0.00003358,-0.
 00000704,0.00000434,-0.00000988,0.00000063,-0.00000178,-0.00002244,0.0
 0008972,-0.00019302,-0.00032553,-0.00041855,-0.00028821,0.00039334,0.0
 0005963,0.00074646,0.00233520,-0.00049366,0.00348139,-0.02809575,0.009
 13575,0.06420070,-0.22780847,0.10549194,-0.00035073,0.00139577,-0.0005
 6469,-0.00170604,0.00039501,-0.00142306,-0.00148334,0.00451385,-0.0024
 7216,-0.06563639,0.25175175,-0.00001853,-0.00000025,-0.00002125,0.0000
 1273,-0.00000007,0.00000440,-0.00000279,0.00001403,0.00006680,0.000422
 31,0.00026460,0.00006720,-0.00014230,-0.00019773,-0.00022135,-0.000252
 36,0.00044136,0.00002521,0.00344497,-0.00942815,0.00458521,-0.03497716
 ,0.10164053,-0.10152700,0.00031556,0.00071502,0.00009470,-0.00039626,-
 0.00134275,0.00045383,-0.00950358,0.02719790,-0.01308711,0.03913230,-0
 .11177474,0.10667807,-0.00008952,0.00003062,0.00001833,0.00002582,0.00
 000547,-0.00000240,-0.00030183,-0.00018463,0.00002109,0.00031585,0.001
 65589,0.00061147,0.00017990,-0.00067249,-0.00034235,-0.00278955,-0.004
 20844,-0.00190085,-0.01577500,0.00636880,0.00610979,-0.29771208,0.0510
 4422,0.06064100,0.00045501,-0.00012099,-0.00052802,-0.00041894,0.00030
 468,-0.00000849,0.00023351,0.00004655,-0.00022348,-0.00673547,0.000793
 25,0.00190365,0.32240708,-0.00014015,0.00008191,0.00006674,0.00001568,
 0.00001321,-0.00000195,-0.00043260,-0.00039993,-0.00007614,-0.00096349
 ,0.00177733,0.00063063,0.00039035,-0.00056379,-0.00021071,-0.00624439,
 -0.00494867,-0.00222125,-0.02199549,0.00682409,0.00929288,0.05425744,-
 0.05851962,-0.01495660,0.00083484,0.00044731,-0.00043012,-0.00057690,0
 .00069420,0.00004211,0.00361521,-0.00220950,0.00005745,0.02551150,-0.0
 0390053,-0.00773103,-0.05473804,0.06089478,-0.00006211,0.00004465,-0.0
 0000659,0.00000621,-0.00000050,0.00000798,-0.00017124,-0.00014166,-0.0
 0001198,-0.00029936,0.00037266,0.00074399,0.00011786,-0.00007204,-0.00
 022433,-0.00278899,-0.00241615,0.00045634,-0.00802121,0.00483372,0.001
 19229,0.06175161,-0.01484905,-0.06299926,0.00038731,0.00051931,-0.0001
 3336,0.00021522,0.00003844,0.00015382,0.03067615,-0.00561729,-0.004516
 59,-0.01524665,0.00187140,0.00290087,-0.06640212,0.01545961,0.06251794
 ,-0.00019426,0.00013705,-0.00011206,0.00009637,-0.00008160,-0.00000256
 ,-0.00028569,0.00029317,0.00084987,-0.00011246,-0.00774071,-0.00235879
 ,-0.00459737,0.00601502,-0.00253626,0.00683402,0.00027003,0.00010168,-
 0.00603886,0.01741355,-0.00849161,0.00065830,-0.00063016,0.00095283,-0
 .00001731,-0.00090766,0.00001918,-0.03383688,-0.02421290,-0.00151474,-
 0.00006981,0.00034817,0.00008678,-0.00013103,0.00025476,-0.00007510,0.
 00027360,0.00058814,-0.00014725,0.31813234,0.00032431,-0.00003843,-0.0
 0005218,-0.00006665,-0.00000181,-0.00000369,-0.00004345,0.00001097,0.0
 0010693,-0.00052029,-0.00094787,-0.00128310,0.00216904,0.00117840,0.00
 244810,-0.00386810,0.00392538,-0.00066517,0.02955032,-0.09526998,0.048
 23770,0.00012179,0.00562563,-0.00165236,-0.00080986,0.00499318,-0.0011
 8103,-0.00604440,0.01149481,-0.01254040,-0.00019830,-0.00033225,-0.000
 68062,0.00020552,-0.00086527,0.00018003,-0.00037508,-0.00026056,-0.000
 02802,0.15468671,0.19503772,-0.00018494,-0.00001300,0.00019318,-0.0000
 0961,-0.00000803,-0.00007763,-0.00021882,0.00048556,0.00023189,-0.0013
 1793,-0.00338495,-0.00227089,-0.00311853,0.00293071,0.00022578,0.00257
 305,-0.00000675,0.00167153,-0.01365547,0.04220549,-0.02016656,0.000721
 90,-0.00208709,0.00160129,0.00057814,-0.00261228,0.00204858,-0.0065162
 0,-0.03129695,-0.02195676,0.00018289,0.00086221,0.00028115,-0.00020737
 ,0.00039443,-0.00021922,0.00012502,0.00016659,-0.00012081,0.21550182,0
 .08778549,0.18917334,0.00007577,-0.00011915,0.00002791,-0.00005636,0.0
 0007391,0.00001763,0.00036606,-0.00042322,-0.00052536,0.00107605,0.010
 29495,0.00370737,-0.00150590,-0.00517709,-0.00192622,-0.00681878,-0.00
 226179,-0.00112084,0.00577798,-0.00669337,0.00242548,-0.00087275,0.001
 04523,-0.00072298,-0.00026221,0.00083563,0.00006225,0.00026233,0.00976
 614,-0.00432372,0.00005086,-0.00014027,0.00000262,0.00032594,0.0002203
 7,0.00013657,-0.00006838,-0.00012209,-0.00001544,-0.28071096,-0.175131
 56,-0.19445393,0.28236035,-0.00035239,0.00011270,-0.00004955,0.0000899
 5,-0.00001718,-0.00003731,-0.00044792,0.00003231,0.00099775,0.00290952
 ,-0.00300979,-0.00091305,-0.00245969,0.00126974,-0.00102518,0.00030143
 ,0.00024999,-0.00061631,-0.00037222,-0.00274086,0.00032098,0.00010843,
 0.00031168,0.00017753,-0.00020021,0.00023012,0.00033175,-0.02111382,-0
 .01470238,-0.01411745,0.00004249,0.00014407,0.00004790,0.00004550,0.00
 020936,0.00002125,0.00005019,0.00006977,-0.00001507,-0.14643357,-0.124
 54991,-0.09542144,0.16783230,0.14239038,0.00011138,0.00006158,-0.00011
 603,0.00001391,0.00000206,0.00004475,0.00023171,-0.00064302,-0.0002507
 9,0.00133643,0.00381407,0.00255086,-0.00057650,-0.00218700,-0.00299562
 ,-0.00284917,-0.00117133,-0.00076578,0.00317486,-0.00473801,0.00265335
 ,-0.00046910,0.00085477,-0.00094102,-0.00016843,0.00136636,-0.00060837
 ,0.00459538,0.01316315,0.00268138,-0.00003387,-0.00017134,-0.00004578,
 0.00022118,0.00011041,0.00019965,-0.00002265,-0.00008821,0.00003970,-0
 .20227379,-0.12067169,-0.15061489,0.19670865,0.11029821,0.14816858||0.
 00016292,0.00002584,-0.00000199,-0.00000500,-0.00002182,0.00000848,0.0
 0042185,0.00038324,0.00000995,-0.00290736,-0.00304184,-0.00106433,-0.0
 0087935,0.00098058,-0.00079016,0.00868007,-0.00278975,0.00127221,-0.01
 071278,0.02158248,-0.00749204,0.00083702,-0.00561398,0.00214929,0.0007
 8207,-0.00506402,0.00143876,0.00681259,-0.03504537,0.01527928,-0.00002
 839,0.00020742,0.00013116,-0.00026798,-0.00027253,-0.00007277,0.000049
 75,-0.00008945,-0.00006084,-0.00423753,0.02971720,-0.01193653,0.001292
 11,-0.00095802,0.00112952|||@


 IT IS A PROFOUNDLY ERRONEOUS TRUISM ... THAT WE SHOULD CULTIVATE
 THE HABIT OF THINKING OF WHAT WE ARE DOING.
 THE PRECISE OPPOSITE IS THE CASE.
 CIVILIZATION ADVANCES BY EXTENDING THE NUMBER OF IMPORTANT OPERATIONS
 WHICH WE CAN PERFORM WITHOUT THINKING ABOUT THEM.

                                    -- ALFRED NORTH WHITEHEAD
 Job cpu time:       0 days  0 hours 20 minutes 24.0 seconds.
 File lengths (MBytes):  RWF=    152 Int=      0 D2E=      0 Chk=      9 Scr=      1
 Normal termination of Gaussian 09 at Thu Mar 27 03:58:13 2025.
