 Entering Gaussian System, Link 0=g16
 Initial command:
 /opt/g16/l1.exe "/home/aayush/scratches/g16/Gau-16628.inp" -scrdir="/home/aayush/scratches/g16/"
 Entering Link 1 = /opt/g16/l1.exe PID=     16631.
  
 Copyright (c) 1988,1990,1992,1993,1995,1998,2003,2009,2016,
            Gaussian, Inc.  All Rights Reserved.
  
 This is part of the Gaussian(R) 16 program.  It is based on
 the Gaussian(R) 09 system (copyright 2009, Gaussian, Inc.),
 the Gaussian(R) 03 system (copyright 2003, Gaussian, Inc.),
 the Gaussian(R) 98 system (copyright 1998, Gaussian, Inc.),
 the Gaussian(R) 94 system (copyright 1995, Gaussian, Inc.),
 the Gaussian 92(TM) system (copyright 1992, Gaussian, Inc.),
 the Gaussian 90(TM) system (copyright 1990, Gaussian, Inc.),
 the Gaussian 88(TM) system (copyright 1988, Gaussian, Inc.),
 the Gaussian 86(TM) system (copyright 1986, Carnegie Mellon
 University), and the Gaussian 82(TM) system (copyright 1983,
 Carnegie Mellon University). Gaussian is a federally registered
 trademark of Gaussian, Inc.
  
 This software contains proprietary and confidential information,
 including trade secrets, belonging to Gaussian, Inc.
  
 This software is provided under written license and may be
 used, copied, transmitted, or stored only in accord with that
 written license.
  
 The following legend is applicable only to US Government
 contracts under FAR:
  
                    RESTRICTED RIGHTS LEGEND
  
 Use, reproduction and disclosure by the US Government is
 subject to restrictions as set forth in subparagraphs (a)
 and (c) of the Commercial Computer Software - Restricted
 Rights clause in FAR 52.227-19.
  
 Gaussian, Inc.
 340 Quinnipiac St., Bldg. 40, Wallingford CT 06492
  
  
 ---------------------------------------------------------------
 Warning -- This program may not be used in any manner that
 competes with the business of Gaussian, Inc. or will provide
 assistance to any competitor of Gaussian, Inc.  The licensee
 of this program is prohibited from giving any competitor of
 Gaussian, Inc. access to this program.  By using this program,
 the user acknowledges that Gaussian, Inc. is engaged in the
 business of creating and licensing software in the field of
 computational chemistry and represents and warrants to the
 licensee that it is not a competitor of Gaussian, Inc. and that
 it will not use this program in any manner prohibited above.
 ---------------------------------------------------------------
  

 Cite this work as:
 Gaussian 16, Revision A.03,
 M. J. Frisch, G. W. Trucks, H. B. Schlegel, G. E. Scuseria, 
 M. A. Robb, J. R. Cheeseman, G. Scalmani, V. Barone, 
 G. A. Petersson, H. Nakatsuji, X. Li, M. Caricato, A. V. Marenich, 
 J. Bloino, B. G. Janesko, R. Gomperts, B. Mennucci, H. P. Hratchian, 
 J. V. Ortiz, A. F. Izmaylov, J. L. Sonnenberg, D. Williams-Young, 
 F. Ding, F. Lipparini, F. Egidi, J. Goings, B. Peng, A. Petrone, 
 T. Henderson, D. Ranasinghe, V. G. Zakrzewski, J. Gao, N. Rega, 
 G. Zheng, W. Liang, M. Hada, M. Ehara, K. Toyota, R. Fukuda, 
 J. Hasegawa, M. Ishida, T. Nakajima, Y. Honda, O. Kitao, H. Nakai, 
 T. Vreven, K. Throssell, J. A. Montgomery, Jr., J. E. Peralta, 
 F. Ogliaro, M. J. Bearpark, J. J. Heyd, E. N. Brothers, K. N. Kudin, 
 V. N. Staroverov, T. A. Keith, R. Kobayashi, J. Normand, 
 K. Raghavachari, A. P. Rendell, J. C. Burant, S. S. Iyengar, 
 J. Tomasi, M. Cossi, J. M. Millam, M. Klene, C. Adamo, R. Cammi, 
 J. W. Ochterski, R. L. Martin, K. Morokuma, O. Farkas, 
 J. B. Foresman, and D. J. Fox, Gaussian, Inc., Wallingford CT, 2016.
 
 ******************************************
 Gaussian 16:  ES64L-G16RevA.03 25-Dec-2016
                18-Apr-2025 
 ******************************************
 %chk=ethyl_propiolate.chk
 %nprocshared=24
 Will use up to   24 processors via shared memory.
 %mem=12GB
 --------------------------
 # ccsd(t)/6-311++g(d,p) sp
 --------------------------
 1/38=1,172=1/1;
 2/12=2,17=6,18=5,40=1/2;
 3/5=4,6=6,7=1111,11=9,25=1,30=1/1,2,3;
 4//1;
 5/5=2,38=5/2;
 8/6=4,9=120000,10=2/1,4;
 9/5=7,14=2/13;
 6/7=2,8=2,9=2,10=2/1;
 99/5=1,9=1/99;
 -------------------
 Title Card Required
 -------------------
 Symbolic Z-matrix:
 Charge =  0 Multiplicity = 2
 C                     2.1711   -0.40696  -0.05892 
 H                     3.68572  -1.03571  -0.25232 
 C                     1.06643   0.0731   -0.01571 
 C                    -0.28381   0.61459  -0.0049 
 O                    -0.51803   1.79008   0.01229 
 O                    -1.1939   -0.35425  -0.01028 
 C                    -2.56686   0.08421   0.00859 
 C                    -3.42743  -1.15726  -0.00411 
 H                    -2.72398   0.68902   0.90404 
 H                    -2.73971   0.71856  -0.86322 
 H                    -3.23725  -1.74627  -0.90207 
 H                    -3.2201   -1.77613   0.86961 
 H                    -4.48125  -0.87421   0.01064 
 O                     4.50551  -0.60201   0.09391 
 H                     4.58496   0.22496  -0.39603 
 
                          Input orientation:                          
 ---------------------------------------------------------------------
 Center     Atomic      Atomic             Coordinates (Angstroms)
 Number     Number       Type             X           Y           Z
 ---------------------------------------------------------------------
      1          6           0        2.171096   -0.406962   -0.058919
      2          1           0        3.685717   -1.035710   -0.252317
      3          6           0        1.066432    0.073100   -0.015708
      4          6           0       -0.283807    0.614588   -0.004903
      5          8           0       -0.518027    1.790079    0.012291
      6          8           0       -1.193904   -0.354252   -0.010279
      7          6           0       -2.566859    0.084209    0.008588
      8          6           0       -3.427433   -1.157264   -0.004109
      9          1           0       -2.723979    0.689019    0.904041
     10          1           0       -2.739712    0.718562   -0.863219
     11          1           0       -3.237249   -1.746269   -0.902065
     12          1           0       -3.220102   -1.776129    0.869613
     13          1           0       -4.481253   -0.874212    0.010639
     14          8           0        4.505511   -0.602014    0.093912
     15          1           0        4.584956    0.224960   -0.396025
 ---------------------------------------------------------------------
                    Distance matrix (angstroms):
                    1          2          3          4          5
     1  C    0.000000
     2  H    1.651304   0.000000
     3  C    1.205242   2.854137   0.000000
     4  C    2.659517   4.306021   1.454810   0.000000
     5  O    3.473247   5.072136   2.336517   1.198722   0.000000
     6  O    3.365764   4.932917   2.300386   1.329269   2.248438
     7  C    4.763824   6.357436   3.633389   2.343888   2.666031
     8  C    5.648848   7.118517   4.659265   3.608579   4.141466
     9  H    5.107859   6.737660   3.948735   2.605026   2.621789
    10  H    5.101935   6.688558   3.952421   2.603649   2.617356
    11  H    5.635143   6.989601   4.755776   3.886047   4.553677
    12  H    5.639309   7.035431   4.751612   3.886146   4.555661
    13  H    6.669101   8.172798   5.628046   4.453686   4.775522
    14  O    2.347530   0.989964   3.506431   4.942414   5.564594
    15  H    2.517873   1.555176   3.542275   4.899963   5.353200
                    6          7          8          9         10
     6  O    0.000000
     7  C    1.441391   0.000000
     8  C    2.373503   1.510630   0.000000
     9  H    2.065315   1.091933   2.174476   0.000000
    10  H    2.065904   1.091938   2.174800   1.767577   0.000000
    11  H    2.628355   2.151595   1.090606   3.075076   2.514845
    12  H    2.627056   2.151499   1.090582   2.514812   3.075218
    13  H    3.328282   2.140906   1.091271   2.515923   2.516649
    14  O    5.705749   7.106096   7.952956   7.388410   7.426525
    15  H    5.820611   7.164634   8.140179   7.438149   7.356132
                   11         12         13         14         15
    11  H    0.000000
    12  H    1.772013   0.000000
    13  H    1.772303   1.772510   0.000000
    14  O    7.889970   7.852729   8.991271   0.000000
    15  H    8.082618   8.156294   9.141646   0.964487   0.000000
 Stoichiometry    C5H7O3(2)
 Framework group  C1[X(C5H7O3)]
 Deg. of freedom    39
 Full point group                 C1      NOp   1
 Largest Abelian subgroup         C1      NOp   1
 Largest concise Abelian subgroup C1      NOp   1
                         Standard orientation:                         
 ---------------------------------------------------------------------
 Center     Atomic      Atomic             Coordinates (Angstroms)
 Number     Number       Type             X           Y           Z
 ---------------------------------------------------------------------
      1          6           0       -2.237736   -0.372615    0.051609
      2          1           0       -3.753485   -0.999317    0.242791
      3          6           0       -1.132278    0.105763    0.010055
      4          6           0        0.218832    0.645111    0.001188
      5          8           0        0.454941    1.820257   -0.013556
      6          8           0        1.127376   -0.325192    0.005262
      7          6           0        2.501041    0.111109   -0.011854
      8          6           0        3.359622   -1.131761   -0.001024
      9          1           0        2.659713    0.717415   -0.906021
     10          1           0        2.674338    0.743480    0.861304
     11          1           0        3.167910   -1.722214    0.895655
     12          1           0        3.151874   -1.748586   -0.876089
     13          1           0        4.413902   -0.850366   -0.014533
     14          8           0       -4.572359   -0.563635   -0.103123
     15          1           0       -4.650803    0.262506    0.388378
 ---------------------------------------------------------------------
 Rotational constants (GHZ):           5.3549608           0.6849125           0.6124895
 Standard basis: 6-311++G(d,p) (5D, 7F)
 There are   233 symmetry adapted cartesian basis functions of A   symmetry.
 There are   225 symmetry adapted basis functions of A   symmetry.
   225 basis functions,   351 primitive gaussians,   233 cartesian basis functions
    31 alpha electrons       30 beta electrons
       nuclear repulsion energy       330.8572314655 Hartrees.
 NAtoms=   15 NActive=   15 NUniq=   15 SFac= 1.00D+00 NAtFMM=   60 NAOKFM=F Big=F
 Integral buffers will be    131072 words long.
 Raffenetti 2 integral format.
 Two-electron integral symmetry is turned on.
 One-electron integrals computed using PRISM.
 NBasis=   225 RedAO= T EigKep=  3.96D-06  NBF=   225
 NBsUse=   224 1.00D-06 EigRej=  3.11D-07 NBFU=   224
 ExpMin= 3.60D-02 ExpMax= 8.59D+03 ExpMxC= 1.30D+03 IAcc=3 IRadAn=         5 AccDes= 0.00D+00
 Harris functional with IExCor=  205 and IRadAn=       5 diagonalized for initial guess.
 HarFok:  IExCor=  205 AccDes= 0.00D+00 IRadAn=         5 IDoV= 1 UseB2=F ITyADJ=14
 ICtDFT=  3500011 ScaDFX=  1.000000  1.000000  1.000000  1.000000
 FoFCou: FMM=F IPFlag=           0 FMFlag=      100000 FMFlg1=           0
         NFxFlg=           0 DoJE=T BraDBF=F KetDBF=T FulRan=T
         wScrn=  0.000000 ICntrl=       500 IOpCl=  0 I1Cent=   200000004 NGrid=           0
         NMat0=    1 NMatS0=      1 NMatT0=    0 NMatD0=    1 NMtDS0=    0 NMtDT0=    0
 Petite list used in FoFCou.
 Initial guess <Sx>= 0.0000 <Sy>= 0.0000 <Sz>= 0.5000 <S**2>= 0.7500 S= 0.5000
 Requested convergence on RMS density matrix=1.00D-08 within 128 cycles.
 Requested convergence on MAX density matrix=1.00D-06.
 Requested convergence on             energy=1.00D-06.
 No special actions if energy rises.
 Initial convergence to 1.0D-05 achieved.  Increase integral accuracy.
 SCF Done:  E(UHF) =  -417.945240687     A.U. after   31 cycles
            NFock= 31  Conv=0.78D-08     -V/T= 2.0005
 <Sx>= 0.0000 <Sy>= 0.0000 <Sz>= 0.5000 <S**2>= 1.1749 S= 0.6937
 <L.S>=  0.00000000000    
 Annihilation of the first spin contaminant:
 S**2 before annihilation     1.1749,   after     0.8842
 ExpMin= 3.60D-02 ExpMax= 8.59D+03 ExpMxC= 1.30D+03 IAcc=3 IRadAn=         5 AccDes= 0.00D+00
 HarFok:  IExCor=  205 AccDes= 0.00D+00 IRadAn=         5 IDoV=-2 UseB2=F ITyADJ=14
 ICtDFT= 12500011 ScaDFX=  1.000000  1.000000  1.000000  1.000000
 Range of M.O.s used for correlation:     9   224
 NBasis=   225 NAE=    31 NBE=    30 NFC=     8 NFV=     0
 NROrb=    216 NOA=    23 NOB=    22 NVA=   193 NVB=   194

 **** Warning!!: The largest alpha MO coefficient is  0.19394231D+03


 **** Warning!!: The largest beta MO coefficient is  0.18525872D+03

 Semi-Direct transformation.
 ModeAB=           4 MOrb=            23 LenV=    1609197263
 LASXX=    107793295 LTotXX=   107793295 LenRXX=   218294035
 LTotAB=   110500740 MaxLAS=   119390976 LenRXY=           0
 NonZer=   326087330 LenScr=   491049984 LnRSAI=   119390976
 LnScr1=   179858432 LExtra=           0 Total=   1008593427
 MaxDsk=          -1 SrtSym=           T ITran=            4
 JobTyp=1 Pass  1:  I=   1 to  23.
 (rs|ai) integrals will be sorted in core.
 ModeAB=           4 MOrb=            22 LenV=    1609197263
 LASXX=    103454307 LTotXX=   103454307 LenRXX=   188091948
 LTotAB=    84637641 MaxLAS=   114200064 LenRXY=           0
 NonZer=   291546255 LenScr=   439034880 LnRSAI=   114200064
 LnScr1=   172063232 LExtra=           0 Total=    913390124
 MaxDsk=          -1 SrtSym=           T ITran=            4
 JobTyp=2 Pass  1:  I=   1 to  22.
 (rs|ai) integrals will be sorted in core.
 SymMOI:  orbitals are not symmetric.
 Spin components of T(2) and E(2):
     alpha-alpha T2 =       0.5229647036D-01 E2=     -0.1699454214D+00
     alpha-beta  T2 =       0.2787233379D+00 E2=     -0.9271705065D+00
     beta-beta   T2 =       0.5068608332D-01 E2=     -0.1628958502D+00
 ANorm=    0.1175459864D+01
 E2 =    -0.1260011778D+01 EUMP2 =    -0.41920525246549D+03
 (S**2,0)=  0.11749D+01           (S**2,1)=  0.10818D+01
 E(PUHF)=      -0.41797308816D+03        E(PMP2)=      -0.41923052635D+03
 Keep R2 and R3 ints in memory in canonical form, NReq=652883968.
 CIDS: In Core Option IDoMem=           1.
 Iterations=  50 Convergence= 0.100D-06
 Produce multiple copies of IABC intergrals
 Iteration Nr.   1
 **********************
 DD1Dir will call FoFMem   1 times, MxPair=      1496
 NAB=   506 NAA=   253 NBB=   231.
 E(PMP3)=      -0.41925053791D+03
 MP4(R+Q)=  0.23179813D-01
 E3=       -0.24663622D-01        EUMP3=      -0.41922991609D+03
 E4(DQ)=   -0.70029513D-02        UMP4(DQ)=   -0.41923691904D+03
 E4(SDQ)=  -0.29349277D-01        UMP4(SDQ)=  -0.41925926536D+03
 DE(Corr)=  -1.2612022     E(Corr)=     -419.20644292    
 NORM(A)=   0.11854368D+01
 Iteration Nr.   2
 **********************
 DD1Dir will call FoFMem   1 times, MxPair=      1496
 NAB=   506 NAA=   253 NBB=   231.
 DE(Corr)=  -1.3053275     E(CORR)=     -419.25056816     Delta=-4.41D-02
 NORM(A)=   0.12097770D+01
 Iteration Nr.   3
 **********************
 DD1Dir will call FoFMem   1 times, MxPair=      1496
 NAB=   506 NAA=   253 NBB=   231.
 DE(Corr)=  -1.3099099     E(CORR)=     -419.25515055     Delta=-4.58D-03
 NORM(A)=   0.12290862D+01
 Iteration Nr.   4
 **********************
 DD1Dir will call FoFMem   1 times, MxPair=      1496
 NAB=   506 NAA=   253 NBB=   231.
 DE(Corr)=  -1.3198466     E(CORR)=     -419.26508729     Delta=-9.94D-03
 NORM(A)=   0.12456113D+01
 Iteration Nr.   5
 **********************
 DD1Dir will call FoFMem   1 times, MxPair=      1496
 NAB=   506 NAA=   253 NBB=   231.
 DE(Corr)=  -1.3238425     E(CORR)=     -419.26908316     Delta=-4.00D-03
 NORM(A)=   0.12547282D+01
 Iteration Nr.   6
 **********************
 DD1Dir will call FoFMem   1 times, MxPair=      1496
 NAB=   506 NAA=   253 NBB=   231.
 DE(Corr)=  -1.3252544     E(CORR)=     -419.27049511     Delta=-1.41D-03
 NORM(A)=   0.12567371D+01
 Iteration Nr.   7
 **********************
 DD1Dir will call FoFMem   1 times, MxPair=      1496
 NAB=   506 NAA=   253 NBB=   231.
 DE(Corr)=  -1.3255028     E(CORR)=     -419.27074348     Delta=-2.48D-04
 NORM(A)=   0.12576432D+01
 Iteration Nr.   8
 **********************
 DD1Dir will call FoFMem   1 times, MxPair=      1496
 NAB=   506 NAA=   253 NBB=   231.
 DE(Corr)=  -1.3254559     E(CORR)=     -419.27069664     Delta= 4.68D-05
 NORM(A)=   0.12582628D+01
 Iteration Nr.   9
 **********************
 DD1Dir will call FoFMem   1 times, MxPair=      1496
 NAB=   506 NAA=   253 NBB=   231.
 DE(Corr)=  -1.3254652     E(CORR)=     -419.27070592     Delta=-9.29D-06
 NORM(A)=   0.12587448D+01
 Iteration Nr.  10
 **********************
 DD1Dir will call FoFMem   1 times, MxPair=      1496
 NAB=   506 NAA=   253 NBB=   231.
 DE(Corr)=  -1.3253820     E(CORR)=     -419.27062272     Delta= 8.32D-05
 NORM(A)=   0.12591587D+01
 Iteration Nr.  11
 **********************
 DD1Dir will call FoFMem   1 times, MxPair=      1496
 NAB=   506 NAA=   253 NBB=   231.
 DE(Corr)=  -1.3254282     E(CORR)=     -419.27066892     Delta=-4.62D-05
 NORM(A)=   0.12596034D+01
 Iteration Nr.  12
 **********************
 DD1Dir will call FoFMem   1 times, MxPair=      1496
 NAB=   506 NAA=   253 NBB=   231.
 DE(Corr)=  -1.3254658     E(CORR)=     -419.27070645     Delta=-3.75D-05
 NORM(A)=   0.12600546D+01
 Iteration Nr.  13
 **********************
 DD1Dir will call FoFMem   1 times, MxPair=      1496
 NAB=   506 NAA=   253 NBB=   231.
 DE(Corr)=  -1.3255358     E(CORR)=     -419.27077645     Delta=-7.00D-05
 NORM(A)=   0.12604012D+01
 Iteration Nr.  14
 **********************
 DD1Dir will call FoFMem   1 times, MxPair=      1496
 NAB=   506 NAA=   253 NBB=   231.
 DE(Corr)=  -1.3255969     E(CORR)=     -419.27083755     Delta=-6.11D-05
 NORM(A)=   0.12606468D+01
 Iteration Nr.  15
 **********************
 DD1Dir will call FoFMem   1 times, MxPair=      1496
 NAB=   506 NAA=   253 NBB=   231.
 DE(Corr)=  -1.3256331     E(CORR)=     -419.27087377     Delta=-3.62D-05
 NORM(A)=   0.12607713D+01
 Iteration Nr.  16
 **********************
 DD1Dir will call FoFMem   1 times, MxPair=      1496
 NAB=   506 NAA=   253 NBB=   231.
 DE(Corr)=  -1.3256552     E(CORR)=     -419.27089586     Delta=-2.21D-05
 NORM(A)=   0.12608440D+01
 Iteration Nr.  17
 **********************
 DD1Dir will call FoFMem   1 times, MxPair=      1496
 NAB=   506 NAA=   253 NBB=   231.
 DE(Corr)=  -1.3256631     E(CORR)=     -419.27090380     Delta=-7.94D-06
 NORM(A)=   0.12608701D+01
 Iteration Nr.  18
 **********************
 DD1Dir will call FoFMem   1 times, MxPair=      1496
 NAB=   506 NAA=   253 NBB=   231.
 DE(Corr)=  -1.3256648     E(CORR)=     -419.27090547     Delta=-1.67D-06
 NORM(A)=   0.12608805D+01
 Iteration Nr.  19
 **********************
 DD1Dir will call FoFMem   1 times, MxPair=      1496
 NAB=   506 NAA=   253 NBB=   231.
 DE(Corr)=  -1.3256633     E(CORR)=     -419.27090399     Delta= 1.48D-06
 NORM(A)=   0.12608952D+01
 Iteration Nr.  20
 **********************
 DD1Dir will call FoFMem   1 times, MxPair=      1496
 NAB=   506 NAA=   253 NBB=   231.
 DE(Corr)=  -1.3256618     E(CORR)=     -419.27090248     Delta= 1.51D-06
 NORM(A)=   0.12609087D+01
 Iteration Nr.  21
 **********************
 DD1Dir will call FoFMem   1 times, MxPair=      1496
 NAB=   506 NAA=   253 NBB=   231.
 DE(Corr)=  -1.3256607     E(CORR)=     -419.27090138     Delta= 1.10D-06
 NORM(A)=   0.12609304D+01
 Iteration Nr.  22
 **********************
 DD1Dir will call FoFMem   1 times, MxPair=      1496
 NAB=   506 NAA=   253 NBB=   231.
 DE(Corr)=  -1.3256611     E(CORR)=     -419.27090177     Delta=-3.84D-07
 NORM(A)=   0.12609512D+01
 Iteration Nr.  23
 **********************
 DD1Dir will call FoFMem   1 times, MxPair=      1496
 NAB=   506 NAA=   253 NBB=   231.
 DE(Corr)=  -1.3256627     E(CORR)=     -419.27090341     Delta=-1.64D-06
 NORM(A)=   0.12609715D+01
 Iteration Nr.  24
 **********************
 DD1Dir will call FoFMem   1 times, MxPair=      1496
 NAB=   506 NAA=   253 NBB=   231.
 DE(Corr)=  -1.3256649     E(CORR)=     -419.27090558     Delta=-2.17D-06
 NORM(A)=   0.12609838D+01
 Iteration Nr.  25
 **********************
 DD1Dir will call FoFMem   1 times, MxPair=      1496
 NAB=   506 NAA=   253 NBB=   231.
 DE(Corr)=  -1.3256666     E(CORR)=     -419.27090729     Delta=-1.71D-06
 NORM(A)=   0.12609902D+01
 Iteration Nr.  26
 **********************
 DD1Dir will call FoFMem   1 times, MxPair=      1496
 NAB=   506 NAA=   253 NBB=   231.
 DE(Corr)=  -1.3256676     E(CORR)=     -419.27090825     Delta=-9.55D-07
 NORM(A)=   0.12609948D+01
 Iteration Nr.  27
 **********************
 DD1Dir will call FoFMem   1 times, MxPair=      1496
 NAB=   506 NAA=   253 NBB=   231.
 DE(Corr)=  -1.3256683     E(CORR)=     -419.27090900     Delta=-7.49D-07
 NORM(A)=   0.12609964D+01
 Iteration Nr.  28
 **********************
 DD1Dir will call FoFMem   1 times, MxPair=      1496
 NAB=   506 NAA=   253 NBB=   231.
 DE(Corr)=  -1.3256685     E(CORR)=     -419.27090919     Delta=-1.90D-07
 NORM(A)=   0.12609967D+01
 Iteration Nr.  29
 **********************
 DD1Dir will call FoFMem   1 times, MxPair=      1496
 NAB=   506 NAA=   253 NBB=   231.
 DE(Corr)=  -1.3256685     E(CORR)=     -419.27090919     Delta=-3.49D-10
 NORM(A)=   0.12609967D+01
 Wavefunction amplitudes converged. E(Corr)=     -419.27090919    
 Dominant configurations:
 ***********************
 Spin Case        I    J    A    B          Value
    BB           30        31           -0.114588D+00
 Largest amplitude= 1.15D-01
 Time for triples=    35251.38 seconds.
 T4(CCSD)= -0.59457357D-01
 T5(CCSD)=  0.49523502D-02
 CCSD(T)= -0.41932541420D+03

 S**2, projected HF & approx projected MPn energies after annihilation of
 unwanted spin states (see manual for definitions):

 spins       (S**2,0) (S**2,1)    PUHF        PMP2        PMP3        PMP4
 annihilated
 s+1         0.67101  0.71223 -417.973088 -419.230526 -419.250538
 s+1,s+2     0.75224  0.74992 -417.968974 -419.226600 -419.246869
 s+1 to s+3  0.74998  0.75001 -417.969113 -419.226708 -419.246928
 s+1 to s+4  0.75000  0.75000 -417.969111 -419.226707 -419.246927
 s+1 to s+5  0.75000  0.75000 -417.969111
 s+1 to s+6  0.75000  0.75000 -417.969111

 Discarding MO integrals.

 **********************************************************************

            Population analysis using the SCF density.

 **********************************************************************

 Orbital symmetries:
 Alpha Orbitals:
       Occupied  (A) (A) (A) (A) (A) (A) (A) (A) (A) (A) (A) (A)
                 (A) (A) (A) (A) (A) (A) (A) (A) (A) (A) (A) (A)
                 (A) (A) (A) (A) (A) (A) (A)
       Virtual   (A) (A) (A) (A) (A) (A) (A) (A) (A) (A) (A) (A)
                 (A) (A) (A) (A) (A) (A) (A) (A) (A) (A) (A) (A)
                 (A) (A) (A) (A) (A) (A) (A) (A) (A) (A) (A) (A)
                 (A) (A) (A) (A) (A) (A) (A) (A) (A) (A) (A) (A)
                 (A) (A) (A) (A) (A) (A) (A) (A) (A) (A) (A) (A)
                 (A) (A) (A) (A) (A) (A) (A) (A) (A) (A) (A) (A)
                 (A) (A) (A) (A) (A) (A) (A) (A) (A) (A) (A) (A)
                 (A) (A) (A) (A) (A) (A) (A) (A) (A) (A) (A) (A)
                 (A) (A) (A) (A) (A) (A) (A) (A) (A) (A) (A) (A)
                 (A) (A) (A) (A) (A) (A) (A) (A) (A) (A) (A) (A)
                 (A) (A) (A) (A) (A) (A) (A) (A) (A) (A) (A) (A)
                 (A) (A) (A) (A) (A) (A) (A) (A) (A) (A) (A) (A)
                 (A) (A) (A) (A) (A) (A) (A) (A) (A) (A) (A) (A)
                 (A) (A) (A) (A) (A) (A) (A) (A) (A) (A) (A) (A)
                 (A) (A) (A) (A) (A) (A) (A) (A) (A) (A) (A) (A)
                 (A) (A) (A) (A) (A) (A) (A) (A) (A) (A) (A) (A)
                 (A)
 Beta  Orbitals:
       Occupied  (A) (A) (A) (A) (A) (A) (A) (A) (A) (A) (A) (A)
                 (A) (A) (A) (A) (A) (A) (A) (A) (A) (A) (A) (A)
                 (A) (A) (A) (A) (A) (A)
       Virtual   (A) (A) (A) (A) (A) (A) (A) (A) (A) (A) (A) (A)
                 (A) (A) (A) (A) (A) (A) (A) (A) (A) (A) (A) (A)
                 (A) (A) (A) (A) (A) (A) (A) (A) (A) (A) (A) (A)
                 (A) (A) (A) (A) (A) (A) (A) (A) (A) (A) (A) (A)
                 (A) (A) (A) (A) (A) (A) (A) (A) (A) (A) (A) (A)
                 (A) (A) (A) (A) (A) (A) (A) (A) (A) (A) (A) (A)
                 (A) (A) (A) (A) (A) (A) (A) (A) (A) (A) (A) (A)
                 (A) (A) (A) (A) (A) (A) (A) (A) (A) (A) (A) (A)
                 (A) (A) (A) (A) (A) (A) (A) (A) (A) (A) (A) (A)
                 (A) (A) (A) (A) (A) (A) (A) (A) (A) (A) (A) (A)
                 (A) (A) (A) (A) (A) (A) (A) (A) (A) (A) (A) (A)
                 (A) (A) (A) (A) (A) (A) (A) (A) (A) (A) (A) (A)
                 (A) (A) (A) (A) (A) (A) (A) (A) (A) (A) (A) (A)
                 (A) (A) (A) (A) (A) (A) (A) (A) (A) (A) (A) (A)
                 (A) (A) (A) (A) (A) (A) (A) (A) (A) (A) (A) (A)
                 (A) (A) (A) (A) (A) (A) (A) (A) (A) (A) (A) (A)
                 (A) (A)
 The electronic state is 2-A.
 Alpha  occ. eigenvalues --  -20.62181 -20.60057 -20.56788 -11.42459 -11.31998
 Alpha  occ. eigenvalues --  -11.30404 -11.26209 -11.23470  -1.49088  -1.39375
 Alpha  occ. eigenvalues --   -1.38563  -1.09583  -1.05785  -0.93132  -0.84007
 Alpha  occ. eigenvalues --   -0.78812  -0.76832  -0.70276  -0.69763  -0.66665
 Alpha  occ. eigenvalues --   -0.60473  -0.59778  -0.57661  -0.56420  -0.53948
 Alpha  occ. eigenvalues --   -0.52783  -0.52534  -0.48959  -0.47470  -0.46324
 Alpha  occ. eigenvalues --   -0.45914
 Alpha virt. eigenvalues --    0.03832   0.04786   0.05990   0.06198   0.07079
 Alpha virt. eigenvalues --    0.07777   0.08410   0.09485   0.11219   0.11707
 Alpha virt. eigenvalues --    0.12305   0.13668   0.15228   0.15323   0.15933
 Alpha virt. eigenvalues --    0.16040   0.17881   0.18255   0.18817   0.19386
 Alpha virt. eigenvalues --    0.19859   0.20417   0.22030   0.22137   0.23156
 Alpha virt. eigenvalues --    0.24817   0.26987   0.27463   0.28403   0.28938
 Alpha virt. eigenvalues --    0.29360   0.30634   0.30924   0.31890   0.32511
 Alpha virt. eigenvalues --    0.34031   0.35488   0.36288   0.37245   0.38501
 Alpha virt. eigenvalues --    0.38841   0.40422   0.41240   0.41372   0.43204
 Alpha virt. eigenvalues --    0.44969   0.45867   0.46825   0.47407   0.49184
 Alpha virt. eigenvalues --    0.54282   0.56567   0.57029   0.59838   0.63271
 Alpha virt. eigenvalues --    0.64605   0.67397   0.69236   0.70675   0.73193
 Alpha virt. eigenvalues --    0.75326   0.77543   0.80653   0.82905   0.84060
 Alpha virt. eigenvalues --    0.85420   0.85613   0.86081   0.86659   0.87406
 Alpha virt. eigenvalues --    0.88377   0.89553   0.93412   0.96987   0.98242
 Alpha virt. eigenvalues --    1.07208   1.07870   1.10488   1.14227   1.19082
 Alpha virt. eigenvalues --    1.21510   1.24052   1.25404   1.30420   1.34644
 Alpha virt. eigenvalues --    1.35383   1.35880   1.37347   1.37746   1.40121
 Alpha virt. eigenvalues --    1.41735   1.42288   1.48621   1.48702   1.49476
 Alpha virt. eigenvalues --    1.50776   1.54658   1.58498   1.59291   1.65674
 Alpha virt. eigenvalues --    1.70992   1.71084   1.72731   1.77555   1.79636
 Alpha virt. eigenvalues --    1.80490   1.81809   1.83314   1.84621   1.85125
 Alpha virt. eigenvalues --    1.86621   1.88910   1.91708   1.93240   1.94775
 Alpha virt. eigenvalues --    2.00115   2.00899   2.08582   2.09469   2.15233
 Alpha virt. eigenvalues --    2.17749   2.22049   2.28198   2.29592   2.36158
 Alpha virt. eigenvalues --    2.40684   2.41923   2.47444   2.51307   2.55750
 Alpha virt. eigenvalues --    2.62086   2.64437   2.69632   2.77166   2.80572
 Alpha virt. eigenvalues --    2.81534   2.84894   2.87841   2.92045   2.94158
 Alpha virt. eigenvalues --    2.95921   2.97740   2.99970   3.01870   3.10973
 Alpha virt. eigenvalues --    3.12698   3.12863   3.18517   3.20956   3.28122
 Alpha virt. eigenvalues --    3.29766   3.32645   3.35803   3.37104   3.42116
 Alpha virt. eigenvalues --    3.44371   3.47468   3.51844   3.60336   3.62867
 Alpha virt. eigenvalues --    3.64838   3.69501   3.71268   3.77972   3.89313
 Alpha virt. eigenvalues --    4.00509   4.07149   4.10319   4.19272   4.21257
 Alpha virt. eigenvalues --    4.21349   4.29141   4.35430   4.47491   4.51665
 Alpha virt. eigenvalues --    4.68487   5.55597   5.57068   5.61691   5.76267
 Alpha virt. eigenvalues --    5.86855   5.90572   6.14712   6.21024   6.42188
 Alpha virt. eigenvalues --   24.48125  24.98819  25.00965  25.13411  26.02633
 Alpha virt. eigenvalues --   51.55439  51.59493  51.70377
  Beta  occ. eigenvalues --  -20.62199 -20.58866 -20.57448 -11.41955 -11.30413
  Beta  occ. eigenvalues --  -11.28017 -11.26393 -11.23470  -1.49405  -1.39633
  Beta  occ. eigenvalues --   -1.35500  -1.08990  -1.04333  -0.91158  -0.83325
  Beta  occ. eigenvalues --   -0.77331  -0.73167  -0.70464  -0.70442  -0.61493
  Beta  occ. eigenvalues --   -0.60115  -0.59014  -0.56587  -0.53637  -0.52878
  Beta  occ. eigenvalues --   -0.51988  -0.49841  -0.48471  -0.44319  -0.43911
  Beta virt. eigenvalues --   -0.00035   0.03896   0.05997   0.06102   0.06266
  Beta virt. eigenvalues --    0.07107   0.07943   0.09365   0.10116   0.11346
  Beta virt. eigenvalues --    0.12414   0.12809   0.13702   0.15349   0.15943
  Beta virt. eigenvalues --    0.16464   0.17174   0.18165   0.18742   0.18934
  Beta virt. eigenvalues --    0.19385   0.19866   0.21165   0.22148   0.22947
  Beta virt. eigenvalues --    0.24045   0.24722   0.27284   0.28103   0.28540
  Beta virt. eigenvalues --    0.29308   0.29505   0.30417   0.31300   0.32597
  Beta virt. eigenvalues --    0.32754   0.34130   0.35466   0.36646   0.37253
  Beta virt. eigenvalues --    0.38360   0.39695   0.40546   0.40944   0.41445
  Beta virt. eigenvalues --    0.43391   0.44866   0.45876   0.46895   0.47565
  Beta virt. eigenvalues --    0.49367   0.54091   0.56579   0.56940   0.61319
  Beta virt. eigenvalues --    0.64110   0.64561   0.67770   0.70699   0.71915
  Beta virt. eigenvalues --    0.73896   0.77569   0.79863   0.81110   0.83530
  Beta virt. eigenvalues --    0.84558   0.85433   0.85679   0.85754   0.86626
  Beta virt. eigenvalues --    0.87540   0.89596   0.93398   0.96225   0.97073
  Beta virt. eigenvalues --    0.98099   1.06832   1.07318   1.10476   1.16070
  Beta virt. eigenvalues --    1.19682   1.21662   1.24567   1.26952   1.32067
  Beta virt. eigenvalues --    1.34705   1.35401   1.37411   1.37465   1.38135
  Beta virt. eigenvalues --    1.41207   1.42109   1.42248   1.48694   1.49154
  Beta virt. eigenvalues --    1.50710   1.51455   1.55098   1.59384   1.61498
  Beta virt. eigenvalues --    1.67416   1.71085   1.72059   1.73850   1.78838
  Beta virt. eigenvalues --    1.79669   1.80367   1.82969   1.84267   1.85486
  Beta virt. eigenvalues --    1.86089   1.87488   1.88997   1.91736   1.94249
  Beta virt. eigenvalues --    1.94800   2.00166   2.00797   2.09296   2.10171
  Beta virt. eigenvalues --    2.15258   2.18148   2.23752   2.28205   2.30550
  Beta virt. eigenvalues --    2.36475   2.40762   2.42855   2.47493   2.53292
  Beta virt. eigenvalues --    2.55855   2.63449   2.65006   2.70906   2.77180
  Beta virt. eigenvalues --    2.80514   2.81537   2.84894   2.87839   2.92062
  Beta virt. eigenvalues --    2.94327   2.95919   2.97945   3.00039   3.02911
  Beta virt. eigenvalues --    3.11483   3.12630   3.14296   3.19123   3.20789
  Beta virt. eigenvalues --    3.26899   3.29830   3.33934   3.36677   3.38220
  Beta virt. eigenvalues --    3.42784   3.44050   3.48550   3.52791   3.60376
  Beta virt. eigenvalues --    3.63613   3.65872   3.70155   3.72013   3.76915
  Beta virt. eigenvalues --    3.92262   4.00172   4.07228   4.11358   4.19265
  Beta virt. eigenvalues --    4.21255   4.21343   4.30871   4.35675   4.47543
  Beta virt. eigenvalues --    4.51559   4.68478   5.55443   5.58365   5.59993
  Beta virt. eigenvalues --    5.75854   5.88881   5.90532   6.15999   6.20826
  Beta virt. eigenvalues --    6.42060  24.50162  24.99092  25.01145  25.13410
  Beta virt. eigenvalues --   26.03740  51.56122  51.59453  51.70020
          Condensed to atoms (all electrons):
               1          2          3          4          5          6
     1  C    6.341300   0.021446  -1.833647   2.141123  -0.080493  -0.105348
     2  H    0.021446   0.371202  -0.106054   0.072587  -0.000373  -0.000930
     3  C   -1.833647  -0.106054  17.325925 -10.184162   0.316019  -0.014752
     4  C    2.141123   0.072587 -10.184162  14.415213   0.137399  -0.127535
     5  O   -0.080493  -0.000373   0.316019   0.137399   8.072785  -0.100324
     6  O   -0.105348  -0.000930  -0.014752  -0.127535  -0.100324   8.469997
     7  C    0.052695   0.001304  -0.616008   0.118403  -0.043073   0.249161
     8  C    0.060532   0.000628  -0.424501   0.353075   0.014546  -0.198169
     9  H   -0.001676  -0.000016   0.006049  -0.011785  -0.013573  -0.035348
    10  H   -0.000817   0.000057   0.000155  -0.004599  -0.013753  -0.035444
    11  H   -0.001596  -0.000039   0.017588  -0.006935  -0.000970  -0.009285
    12  H   -0.001151  -0.000039   0.014863  -0.003670  -0.001083  -0.009789
    13  H   -0.000670  -0.000000   0.002261  -0.003320   0.001592   0.024540
    14  O   -0.009495   0.331990  -0.006859   0.002197   0.000200  -0.000052
    15  H    0.022843  -0.032973  -0.010393   0.008189  -0.000079  -0.000082
               7          8          9         10         11         12
     1  C    0.052695   0.060532  -0.001676  -0.000817  -0.001596  -0.001151
     2  H    0.001304   0.000628  -0.000016   0.000057  -0.000039  -0.000039
     3  C   -0.616008  -0.424501   0.006049   0.000155   0.017588   0.014863
     4  C    0.118403   0.353075  -0.011785  -0.004599  -0.006935  -0.003670
     5  O   -0.043073   0.014546  -0.013573  -0.013753  -0.000970  -0.001083
     6  O    0.249161  -0.198169  -0.035348  -0.035444  -0.009285  -0.009789
     7  C    5.471016   0.021126   0.449664   0.444887  -0.032091  -0.036294
     8  C    0.021126   5.714107  -0.062545  -0.059290   0.391272   0.395584
     9  H    0.449664  -0.062545   0.543881  -0.048961   0.004381  -0.005995
    10  H    0.444887  -0.059290  -0.048961   0.546315  -0.006255   0.004398
    11  H   -0.032091   0.391272   0.004381  -0.006255   0.564762  -0.040329
    12  H   -0.036294   0.395584  -0.005995   0.004398  -0.040329   0.562694
    13  H   -0.048624   0.412045  -0.003767  -0.003922  -0.033985  -0.033982
    14  O   -0.000053   0.000046   0.000012  -0.000001  -0.000004   0.000001
    15  H   -0.000016   0.000002   0.000005  -0.000008   0.000001   0.000002
              13         14         15
     1  C   -0.000670  -0.009495   0.022843
     2  H   -0.000000   0.331990  -0.032973
     3  C    0.002261  -0.006859  -0.010393
     4  C   -0.003320   0.002197   0.008189
     5  O    0.001592   0.000200  -0.000079
     6  O    0.024540  -0.000052  -0.000082
     7  C   -0.048624  -0.000053  -0.000016
     8  C    0.412045   0.000046   0.000002
     9  H   -0.003767   0.000012   0.000005
    10  H   -0.003922  -0.000001  -0.000008
    11  H   -0.033985  -0.000004   0.000001
    12  H   -0.033982   0.000001   0.000002
    13  H    0.545759  -0.000001  -0.000001
    14  O   -0.000001   7.748404   0.310911
    15  H   -0.000001   0.310911   0.429043
          Atomic-Atomic Spin Densities.
               1          2          3          4          5          6
     1  C    2.205085  -0.054885  -0.299788   0.174211   0.002533  -0.003700
     2  H   -0.054885  -0.039766  -0.027241   0.019140   0.000156  -0.000219
     3  C   -0.299788  -0.027241   0.251575  -0.998304  -0.000676   0.089001
     4  C    0.174211   0.019140  -0.998304   0.951437   0.039985  -0.098152
     5  O    0.002533   0.000156  -0.000676   0.039985  -0.181057  -0.000373
     6  O   -0.003700  -0.000219   0.089001  -0.098152  -0.000373   0.018159
     7  C   -0.004267  -0.000262   0.044656  -0.024535   0.002639  -0.005611
     8  C    0.014736   0.000228  -0.078708   0.049974  -0.000572   0.004822
     9  H   -0.001239  -0.000017   0.010148  -0.006448   0.000253  -0.000141
    10  H   -0.000919  -0.000013   0.007505  -0.004616   0.000212  -0.000056
    11  H   -0.000298  -0.000008   0.002326  -0.001305   0.000015  -0.000105
    12  H   -0.000223  -0.000003   0.002024  -0.001140   0.000030  -0.000201
    13  H   -0.000235  -0.000004   0.002031  -0.000959   0.000014   0.000046
    14  O   -0.081124   0.025583  -0.040607   0.024383  -0.000010   0.000087
    15  H   -0.000316  -0.000562  -0.000300  -0.000326  -0.000052   0.000037
               7          8          9         10         11         12
     1  C   -0.004267   0.014736  -0.001239  -0.000919  -0.000298  -0.000223
     2  H   -0.000262   0.000228  -0.000017  -0.000013  -0.000008  -0.000003
     3  C    0.044656  -0.078708   0.010148   0.007505   0.002326   0.002024
     4  C   -0.024535   0.049974  -0.006448  -0.004616  -0.001305  -0.001140
     5  O    0.002639  -0.000572   0.000253   0.000212   0.000015   0.000030
     6  O   -0.005611   0.004822  -0.000141  -0.000056  -0.000105  -0.000201
     7  C    0.006115  -0.020896  -0.000007  -0.000195   0.000867   0.000960
     8  C   -0.020896   0.038324  -0.002567  -0.001768  -0.001388  -0.001438
     9  H   -0.000007  -0.002567   0.000170  -0.000312  -0.000010   0.000032
    10  H   -0.000195  -0.001768  -0.000312   0.000136   0.000020   0.000001
    11  H    0.000867  -0.001388  -0.000010   0.000020  -0.000127   0.000025
    12  H    0.000960  -0.001438   0.000032   0.000001   0.000025  -0.000056
    13  H    0.000575  -0.001423  -0.000010  -0.000007  -0.000006  -0.000010
    14  O    0.000110   0.000048   0.000001   0.000000  -0.000000  -0.000000
    15  H    0.000033  -0.000002   0.000001   0.000000   0.000000   0.000000
              13         14         15
     1  C   -0.000235  -0.081124  -0.000316
     2  H   -0.000004   0.025583  -0.000562
     3  C    0.002031  -0.040607  -0.000300
     4  C   -0.000959   0.024383  -0.000326
     5  O    0.000014  -0.000010  -0.000052
     6  O    0.000046   0.000087   0.000037
     7  C    0.000575   0.000110   0.000033
     8  C   -0.001423   0.000048  -0.000002
     9  H   -0.000010   0.000001   0.000001
    10  H   -0.000007   0.000000   0.000000
    11  H   -0.000006  -0.000000   0.000000
    12  H   -0.000010  -0.000000   0.000000
    13  H   -0.000077  -0.000000   0.000000
    14  O   -0.000000   0.255374   0.002761
    15  H    0.000000   0.002761  -0.012585
 Mulliken charges and spin densities:
               1          2
     1  C   -0.605044   1.949570
     2  H    0.341210  -0.077875
     3  C    1.513514  -1.036358
     4  C   -0.906179   0.123344
     5  O   -0.288821  -0.136904
     6  O   -0.106640   0.003594
     7  C   -0.032097   0.000182
     8  C   -0.618460  -0.000628
     9  H    0.179676  -0.000147
    10  H    0.177237  -0.000013
    11  H    0.153483   0.000006
    12  H    0.154790   0.000002
    13  H    0.142075  -0.000068
    14  O   -0.377297   0.186605
    15  H    0.272555  -0.011311
 Sum of Mulliken charges =  -0.00000   1.00000
 Mulliken charges and spin densities with hydrogens summed into heavy atoms:
               1          2
     1  C   -0.605044   1.949570
     3  C    1.513514  -1.036358
     4  C   -0.906179   0.123344
     5  O   -0.288821  -0.136904
     6  O   -0.106640   0.003594
     7  C    0.324815   0.000022
     8  C   -0.168112  -0.000687
    14  O    0.236468   0.097419
 Electronic spatial extent (au):  <R**2>=           1768.6965
 Charge=             -0.0000 electrons
 Dipole moment (field-independent basis, Debye):
    X=              2.0936    Y=             -1.0062    Z=              1.3680  Tot=              2.6958
 Quadrupole moment (field-independent basis, Debye-Ang):
   XX=            -44.0403   YY=            -53.8796   ZZ=            -46.9248
   XY=             -5.1552   XZ=             -6.3256   YZ=             -0.1242
 Traceless Quadrupole moment (field-independent basis, Debye-Ang):
   XX=              4.2412   YY=             -5.5980   ZZ=              1.3568
   XY=             -5.1552   XZ=             -6.3256   YZ=             -0.1242
 Octapole moment (field-independent basis, Debye-Ang**2):
  XXX=             53.6857  YYY=            -12.2951  ZZZ=              0.3398  XYY=             -6.0621
  XXY=             28.7143  XXZ=             27.6775  XZZ=              1.1676  YZZ=              1.8012
  YYZ=              0.5406  XYZ=              0.5998
 Hexadecapole moment (field-independent basis, Debye-Ang**3):
 XXXX=          -2054.1491 YYYY=           -296.3499 ZZZZ=            -60.2206 XXXY=           -150.9014
 XXXZ=           -124.6272 YYYX=              4.8677 YYYZ=              0.2245 ZZZX=             -2.7048
 ZZZY=              0.0401 XXYY=           -359.5486 XXZZ=           -329.0446 YYZZ=            -52.7874
 XXYZ=             -0.8432 YYXZ=             -1.9979 ZZXY=              1.5011
 N-N= 3.308572314655D+02 E-N=-1.644215546858D+03  KE= 4.177353276112D+02
 1\1\GINC-AJ\SP\UCCSD(T)-FC\6-311++G(d,p)\C5H7O3(2)\AAYUSH\18-Apr-2025\
 0\\# ccsd(t)/6-311++g(d,p) sp\\Title Card Required\\0,2\C,0,2.171096,-
 0.406962,-0.058919\H,0,3.685717,-1.03571,-0.252317\C,0,1.066432,0.0731
 ,-0.015708\C,0,-0.283807,0.614588,-0.004903\O,0,-0.518027,1.790079,0.0
 12291\O,0,-1.193904,-0.354252,-0.010279\C,0,-2.566859,0.084209,0.00858
 8\C,0,-3.427433,-1.157264,-0.004109\H,0,-2.723979,0.689019,0.904041\H,
 0,-2.739712,0.718562,-0.863219\H,0,-3.237249,-1.746269,-0.902065\H,0,-
 3.220102,-1.776129,0.869613\H,0,-4.481253,-0.874212,0.010639\O,0,4.505
 511,-0.602014,0.093912\H,0,4.584956,0.22496,-0.396025\\Version=ES64L-G
 16RevA.03\State=2-A\HF=-417.9452407\MP2=-419.2052525\MP3=-419.2299161\
 MP4D=-419.2600989\MP4DQ=-419.236919\PUHF=-417.9730882\PMP2-0=-419.2305
 264\PMP3-0=-419.2505379\MP4SDQ=-419.2592654\CCSD=-419.2709092\CCSD(T)=
 -419.3254142\S2=1.174888\S2-1=1.081754\S2A=0.884153\RMSD=7.806e-09\PG=
 C01 [X(C5H7O3)]\\@


 BULLDOZER: SOMEONE WHO SLEEPS THROUGH SPEECHES.
 Job cpu time:       0 days 20 hours 24 minutes 34.9 seconds.
 Elapsed time:       0 days  0 hours 51 minutes 14.2 seconds.
 File lengths (MBytes):  RWF=  44258 Int=      0 D2E=      0 Chk=      5 Scr=      1
 Normal termination of Gaussian 16 at Fri Apr 18 02:15:46 2025.
