 Entering Link 1 = C:\G09W\l1.exe PID=      6764.
  
 Copyright (c) 1988,1990,1992,1993,1995,1998,2003,2009,2013,
            Gaussian, Inc.  All Rights Reserved.
  
 This is part of the Gaussian(R) 09 program.  It is based on
 the Gaussian(R) 03 system (copyright 2003, Gaussian, Inc.),
 the Gaussian(R) 98 system (copyright 1998, Gaussian, Inc.),
 the Gaussian(R) 94 system (copyright 1995, Gaussian, Inc.),
 the Gaussian 92(TM) system (copyright 1992, Gaussian, Inc.),
 the Gaussian 90(TM) system (copyright 1990, Gaussian, Inc.),
 the Gaussian 88(TM) system (copyright 1988, Gaussian, Inc.),
 the Gaussian 86(TM) system (copyright 1986, Carnegie Mellon
 University), and the Gaussian 82(TM) system (copyright 1983,
 Carnegie Mellon University). Gaussian is a federally registered
 trademark of Gaussian, Inc.
  
 This software contains proprietary and confidential information,
 including trade secrets, belonging to Gaussian, Inc.
  
 This software is provided under written license and may be
 used, copied, transmitted, or stored only in accord with that
 written license.
  
 The following legend is applicable only to US Government
 contracts under FAR:
  
                    RESTRICTED RIGHTS LEGEND
  
 Use, reproduction and disclosure by the US Government is
 subject to restrictions as set forth in subparagraphs (a)
 and (c) of the Commercial Computer Software - Restricted
 Rights clause in FAR 52.227-19.
  
 Gaussian, Inc.
 340 Quinnipiac St., Bldg. 40, Wallingford CT 06492
  
  
 ---------------------------------------------------------------
 Warning -- This program may not be used in any manner that
 competes with the business of Gaussian, Inc. or will provide
 assistance to any competitor of Gaussian, Inc.  The licensee
 of this program is prohibited from giving any competitor of
 Gaussian, Inc. access to this program.  By using this program,
 the user acknowledges that Gaussian, Inc. is engaged in the
 business of creating and licensing software in the field of
 computational chemistry and represents and warrants to the
 licensee that it is not a competitor of Gaussian, Inc. and that
 it will not use this program in any manner prohibited above.
 ---------------------------------------------------------------
  

 Cite this work as:
 Gaussian 09, Revision D.01,
 M. J. Frisch, G. W. Trucks, H. B. Schlegel, G. E. Scuseria, 
 M. A. Robb, J. R. Cheeseman, G. Scalmani, V. Barone, B. Mennucci, 
 G. A. Petersson, H. Nakatsuji, M. Caricato, X. Li, H. P. Hratchian, 
 A. F. Izmaylov, J. Bloino, G. Zheng, J. L. Sonnenberg, M. Hada, 
 M. Ehara, K. Toyota, R. Fukuda, J. Hasegawa, M. Ishida, T. Nakajima, 
 Y. Honda, O. Kitao, H. Nakai, T. Vreven, J. A. Montgomery, Jr., 
 J. E. Peralta, F. Ogliaro, M. Bearpark, J. J. Heyd, E. Brothers, 
 K. N. Kudin, V. N. Staroverov, T. Keith, R. Kobayashi, J. Normand, 
 K. Raghavachari, A. Rendell, J. C. Burant, S. S. Iyengar, J. Tomasi, 
 M. Cossi, N. Rega, J. M. Millam, M. Klene, J. E. Knox, J. B. Cross, 
 V. Bakken, C. Adamo, J. Jaramillo, R. Gomperts, R. E. Stratmann, 
 O. Yazyev, A. J. Austin, R. Cammi, C. Pomelli, J. W. Ochterski, 
 R. L. Martin, K. Morokuma, V. G. Zakrzewski, G. A. Voth, 
 P. Salvador, J. J. Dannenberg, S. Dapprich, A. D. Daniels, 
 O. Farkas, J. B. Foresman, J. V. Ortiz, J. Cioslowski, 
 and D. J. Fox, Gaussian, Inc., Wallingford CT, 2013.
 
 ******************************************
 Gaussian 09:  IA32W-G09RevD.01 24-Apr-2013
                27-Mar-2025 
 ******************************************
 %chk=ethyl_propiolate.chk
 %nprocshared=4
 Will use up to    4 processors via shared memory.
 %mem=1700MB
 --------------------------
 # freq 6-311++g(d,p) m062x
 --------------------------
 1/10=4,30=1,38=1/1,3;
 2/12=2,17=6,18=5,40=1/2;
 3/5=4,6=6,7=1111,11=2,16=1,25=1,30=1,71=2,74=-55,140=1/1,2,3;
 4//1;
 5/5=2,38=5,98=1/2;
 8/6=4,10=90,11=11/1;
 11/6=1,8=1,9=11,15=111,16=1/1,2,10;
 10/6=1/2;
 6/7=2,8=2,9=2,10=2,18=1,28=1/1;
 7/8=1,10=1,25=1/1,2,3,16;
 1/10=4,30=1/3;
 99//99;
 -------------------
 Title Card Required
 -------------------
 Symbolic Z-matrix:
 Charge =  0 Multiplicity = 2
 C                     3.27833  -0.52367  -0.44108 
 H                     4.27156  -0.79096  -0.71722 
 C                     2.161    -0.2245   -0.13029 
 C                     0.82227   0.18416   0.25944 
 O                     0.56476   1.24205   0.77006 
 O                    -0.07293  -0.76275  -0.01892 
 C                    -1.42077  -0.48833   0.36013 
 C                    -2.29377  -1.62688  -0.08825 
 H                    -1.46587  -0.2744    1.42996 
 H                    -1.75845   0.44988  -0.17719 
 H                    -2.21457  -1.76338  -1.16721 
 H                    -2.00338  -2.55566   0.40703 
 H                    -3.33226  -1.40534   0.16108 
 O                    -1.91768   1.79193  -0.70515 
 H                    -1.19505   2.19319  -0.18904 
 

 GradGradGradGradGradGradGradGradGradGradGradGradGradGradGradGradGradGrad
 Berny optimization.
 Initialization pass.
 Trust Radius=3.00D-01 FncErr=1.00D-07 GrdErr=1.00D-07
 Number of steps in this run=      2 maximum allowed number of steps=      2.
 GradGradGradGradGradGradGradGradGradGradGradGradGradGradGradGradGradGrad

                          Input orientation:                          
 ---------------------------------------------------------------------
 Center     Atomic      Atomic             Coordinates (Angstroms)
 Number     Number       Type             X           Y           Z
 ---------------------------------------------------------------------
      1          6           0        3.278328   -0.523670   -0.441082
      2          1           0        4.271565   -0.790955   -0.717220
      3          6           0        2.160996   -0.224499   -0.130292
      4          6           0        0.822274    0.184160    0.259442
      5          8           0        0.564761    1.242051    0.770062
      6          8           0       -0.072929   -0.762746   -0.018920
      7          6           0       -1.420772   -0.488328    0.360128
      8          6           0       -2.293771   -1.626880   -0.088246
      9          1           0       -1.465870   -0.274402    1.429961
     10          1           0       -1.758447    0.449875   -0.177189
     11          1           0       -2.214566   -1.763384   -1.167213
     12          1           0       -2.003382   -2.555659    0.407028
     13          1           0       -3.332256   -1.405339    0.161078
     14          8           0       -1.917680    1.791929   -0.705148
     15          1           0       -1.195052    2.193188   -0.189043
 ---------------------------------------------------------------------
                    Distance matrix (angstroms):
                    1          2          3          4          5
     1  C    0.000000
     2  H    1.064994   0.000000
     3  C    1.197716   2.262710   0.000000
     4  C    2.650275   3.715148   1.452953   0.000000
     5  O    3.456600   4.481687   2.347205   1.202572   0.000000
     6  O    3.386193   4.400346   2.300551   1.332481   2.246854
     7  C    4.767046   5.801290   3.624801   2.343850   2.665445
     8  C    5.691208   6.648159   4.670481   3.620841   4.139887
     9  H    5.105913   6.147794   3.948549   2.610746   2.618885
    10  H    5.136782   6.179995   3.977312   2.630850   2.630993
    11  H    5.677679   6.574040   4.752780   3.879519   4.528833
    12  H    5.722301   6.614611   4.802610   3.938619   4.598886
    13  H    6.696250   7.678995   5.626286   4.449304   4.750398
    14  O    5.694754   6.706578   4.586070   3.320046   2.939579
    15  H    5.239844   6.250439   4.136632   2.882176   2.218442
                    6          7          8          9         10
     6  O    0.000000
     7  C    1.426767   0.000000
     8  C    2.384045   1.503152   0.000000
     9  H    2.068338   1.091944   2.195352   0.000000
    10  H    2.082419   1.132678   2.146484   1.786927   0.000000
    11  H    2.628015   2.142113   1.090448   3.085924   2.467125
    12  H    2.668823   2.148369   1.091903   2.557234   3.071569
    13  H    3.326941   2.129390   1.090731   2.524377   2.456241
    14  O    3.224962   2.565405   3.494319   3.005420   1.450932
    15  H    3.166330   2.746464   3.976212   2.963700   1.832128
                   11         12         13         14         15
    11  H    0.000000
    12  H    1.774974   0.000000
    13  H    1.772508   1.774721   0.000000
    14  O    3.597485   4.488407   3.601929   0.000000
    15  H    4.201272   4.853890   4.199955   0.974456   0.000000
 Stoichiometry    C5H7O3(2)
 Framework group  C1[X(C5H7O3)]
 Deg. of freedom    39
 Full point group                 C1      NOp   1
 Largest Abelian subgroup         C1      NOp   1
 Largest concise Abelian subgroup C1      NOp   1
                         Standard orientation:                         
 ---------------------------------------------------------------------
 Center     Atomic      Atomic             Coordinates (Angstroms)
 Number     Number       Type             X           Y           Z
 ---------------------------------------------------------------------
      1          6           0        3.341032   -0.488697   -0.440210
      2          1           0        4.334296   -0.755086   -0.717114
      3          6           0        2.223669   -0.190534   -0.128565
      4          6           0        0.884909    0.216858    0.262367
      5          8           0        0.627375    1.273008    0.776568
      6          8           0       -0.010301   -0.729042   -0.019370
      7          6           0       -1.358186   -0.455854    0.360414
      8          6           0       -2.231177   -1.592818   -0.091986
      9          1           0       -1.403433   -0.245590    1.430967
     10          1           0       -1.695733    0.484201   -0.173737
     11          1           0       -2.151818   -1.725631   -1.171402
     12          1           0       -1.940910   -2.523303    0.400148
     13          1           0       -3.269688   -1.372078    0.157940
     14          8           0       -1.854817    1.828064   -0.697121
     15          1           0       -1.132246    2.227515   -0.179537
 ---------------------------------------------------------------------
 Rotational constants (GHZ):      3.0054098      1.2130416      0.9507742
 Standard basis: 6-311++G(d,p) (5D, 7F)
 There are   233 symmetry adapted cartesian basis functions of A   symmetry.
 There are   225 symmetry adapted basis functions of A   symmetry.
   225 basis functions,   351 primitive gaussians,   233 cartesian basis functions
    31 alpha electrons       30 beta electrons
       nuclear repulsion energy       351.4436032195 Hartrees.
 NAtoms=   15 NActive=   15 NUniq=   15 SFac= 1.00D+00 NAtFMM=   60 NAOKFM=F Big=F
 Integral buffers will be    262144 words long.
 Raffenetti 2 integral format.
 Two-electron integral symmetry is turned on.
 One-electron integrals computed using PRISM.
 NBasis=   225 RedAO= T EigKep=  5.77D-06  NBF=   225
 NBsUse=   224 1.00D-06 EigRej=  7.13D-07 NBFU=   224
 ExpMin= 3.60D-02 ExpMax= 8.59D+03 ExpMxC= 1.30D+03 IAcc=3 IRadAn=         5 AccDes= 0.00D+00
 Harris functional with IExCor= 1009 and IRadAn=       5 diagonalized for initial guess.
 HarFok:  IExCor= 1009 AccDes= 0.00D+00 IRadAn=         5 IDoV= 1 UseB2=F ITyADJ=14
 ICtDFT=  3500011 ScaDFX=  1.000000  1.000000  1.000000  1.000000
 FoFCou: FMM=F IPFlag=           0 FMFlag=      100000 FMFlg1=           0
         NFxFlg=           0 DoJE=T BraDBF=F KetDBF=T FulRan=T
         wScrn=  0.000000 ICntrl=     500 IOpCl=  0 I1Cent=   200000004 NGrid=           0
         NMat0=    1 NMatS0=      1 NMatT0=    0 NMatD0=    1 NMtDS0=    0 NMtDT0=    0
 Petite list used in FoFCou.
 Initial guess <Sx>= 0.0000 <Sy>= 0.0000 <Sz>= 0.5000 <S**2>= 0.7500 S= 0.5000
 Requested convergence on RMS density matrix=1.00D-08 within 128 cycles.
 Requested convergence on MAX density matrix=1.00D-06.
 Requested convergence on             energy=1.00D-06.
 No special actions if energy rises.
 Restarting incremental Fock formation.
 SCF Done:  E(UM062X) =  -420.204811811     A.U. after   22 cycles
            NFock= 22  Conv=0.49D-08     -V/T= 2.0032
 <Sx>= 0.0000 <Sy>= 0.0000 <Sz>= 0.5000 <S**2>= 0.7570 S= 0.5035
 <L.S>= 0.000000000000E+00
 Annihilation of the first spin contaminant:
 S**2 before annihilation     0.7570,   after     0.7500
 DoSCS=F DFT=T ScalE2(SS,OS)=  1.000000  1.000000
 Range of M.O.s used for correlation:     1   224
 NBasis=   225 NAE=    31 NBE=    30 NFC=     0 NFV=     0
 NROrb=    224 NOA=    31 NOB=    30 NVA=   193 NVB=   194

 **** Warning!!: The largest alpha MO coefficient is  0.12307525D+03


 **** Warning!!: The largest beta MO coefficient is  0.13605632D+03

 Symmetrizing basis deriv contribution to polar:
 IMax=3 JMax=2 DiffMx= 0.00D+00
 G2DrvN: will do    16 centers at a time, making    1 passes.
 Calling FoFCou, ICntrl=  3107 FMM=F I1Cent=   0 AccDes= 0.00D+00.
 End of G2Drv F.D. properties file   721 does not exist.
 End of G2Drv F.D. properties file   722 does not exist.
 End of G2Drv F.D. properties file   788 does not exist.
          IDoAtm=111111111111111
          Differentiating once with respect to electric field.
                with respect to dipole field.
          Differentiating once with respect to nuclear coordinates.
          There are    48 degrees of freedom in the 1st order CPHF.  IDoFFX=6 NUNeed=     3.
     47 vectors produced by pass  0 Test12= 2.46D-14 2.08D-09 XBig12= 9.57D+01 3.78D+00.
 AX will form    47 AO Fock derivatives at one time.
     45 vectors produced by pass  1 Test12= 2.46D-14 2.08D-09 XBig12= 1.90D+01 7.07D-01.
     45 vectors produced by pass  2 Test12= 2.46D-14 2.08D-09 XBig12= 7.48D-01 1.35D-01.
     45 vectors produced by pass  3 Test12= 2.46D-14 2.08D-09 XBig12= 1.14D-02 1.53D-02.
     45 vectors produced by pass  4 Test12= 2.46D-14 2.08D-09 XBig12= 1.16D-04 1.33D-03.
     45 vectors produced by pass  5 Test12= 2.46D-14 2.08D-09 XBig12= 1.06D-06 8.61D-05.
     43 vectors produced by pass  6 Test12= 2.46D-14 2.08D-09 XBig12= 7.09D-09 7.45D-06.
     20 vectors produced by pass  7 Test12= 2.46D-14 2.08D-09 XBig12= 3.86D-11 5.21D-07.
      3 vectors produced by pass  8 Test12= 2.46D-14 2.08D-09 XBig12= 2.70D-13 4.22D-08.
      3 vectors produced by pass  9 Test12= 2.46D-14 2.08D-09 XBig12= 3.40D-14 2.35D-08.
      3 vectors produced by pass 10 Test12= 2.46D-14 2.08D-09 XBig12= 3.08D-15 9.95D-09.
      3 vectors produced by pass 11 Test12= 2.46D-14 2.08D-09 XBig12= 1.85D-15 6.84D-09.
      3 vectors produced by pass 12 Test12= 2.46D-14 2.08D-09 XBig12= 1.21D-15 5.45D-09.
      3 vectors produced by pass 13 Test12= 2.46D-14 2.08D-09 XBig12= 6.93D-16 2.90D-09.
      3 vectors produced by pass 14 Test12= 2.46D-14 2.08D-09 XBig12= 7.08D-16 4.06D-09.
      1 vectors produced by pass 15 Test12= 2.46D-14 2.08D-09 XBig12= 5.44D-16 3.17D-09.
 InvSVY:  IOpt=1 It=  1 EMax= 1.78D-15
 Solved reduced A of dimension   357 with    48 vectors.
 Isotropic polarizability for W=    0.000000       75.79 Bohr**3.
 End of Minotr F.D. properties file   721 does not exist.
 End of Minotr F.D. properties file   722 does not exist.
 End of Minotr F.D. properties file   788 does not exist.

 **********************************************************************

            Population analysis using the SCF density.

 **********************************************************************

 Orbital symmetries:
 Alpha Orbitals:
       Occupied  (A) (A) (A) (A) (A) (A) (A) (A) (A) (A) (A) (A)
                 (A) (A) (A) (A) (A) (A) (A) (A) (A) (A) (A) (A)
                 (A) (A) (A) (A) (A) (A) (A)
       Virtual   (A) (A) (A) (A) (A) (A) (A) (A) (A) (A) (A) (A)
                 (A) (A) (A) (A) (A) (A) (A) (A) (A) (A) (A) (A)
                 (A) (A) (A) (A) (A) (A) (A) (A) (A) (A) (A) (A)
                 (A) (A) (A) (A) (A) (A) (A) (A) (A) (A) (A) (A)
                 (A) (A) (A) (A) (A) (A) (A) (A) (A) (A) (A) (A)
                 (A) (A) (A) (A) (A) (A) (A) (A) (A) (A) (A) (A)
                 (A) (A) (A) (A) (A) (A) (A) (A) (A) (A) (A) (A)
                 (A) (A) (A) (A) (A) (A) (A) (A) (A) (A) (A) (A)
                 (A) (A) (A) (A) (A) (A) (A) (A) (A) (A) (A) (A)
                 (A) (A) (A) (A) (A) (A) (A) (A) (A) (A) (A) (A)
                 (A) (A) (A) (A) (A) (A) (A) (A) (A) (A) (A) (A)
                 (A) (A) (A) (A) (A) (A) (A) (A) (A) (A) (A) (A)
                 (A) (A) (A) (A) (A) (A) (A) (A) (A) (A) (A) (A)
                 (A) (A) (A) (A) (A) (A) (A) (A) (A) (A) (A) (A)
                 (A) (A) (A) (A) (A) (A) (A) (A) (A) (A) (A) (A)
                 (A) (A) (A) (A) (A) (A) (A) (A) (A) (A) (A) (A)
                 (A)
 Beta  Orbitals:
       Occupied  (A) (A) (A) (A) (A) (A) (A) (A) (A) (A) (A) (A)
                 (A) (A) (A) (A) (A) (A) (A) (A) (A) (A) (A) (A)
                 (A) (A) (A) (A) (A) (A)
       Virtual   (A) (A) (A) (A) (A) (A) (A) (A) (A) (A) (A) (A)
                 (A) (A) (A) (A) (A) (A) (A) (A) (A) (A) (A) (A)
                 (A) (A) (A) (A) (A) (A) (A) (A) (A) (A) (A) (A)
                 (A) (A) (A) (A) (A) (A) (A) (A) (A) (A) (A) (A)
                 (A) (A) (A) (A) (A) (A) (A) (A) (A) (A) (A) (A)
                 (A) (A) (A) (A) (A) (A) (A) (A) (A) (A) (A) (A)
                 (A) (A) (A) (A) (A) (A) (A) (A) (A) (A) (A) (A)
                 (A) (A) (A) (A) (A) (A) (A) (A) (A) (A) (A) (A)
                 (A) (A) (A) (A) (A) (A) (A) (A) (A) (A) (A) (A)
                 (A) (A) (A) (A) (A) (A) (A) (A) (A) (A) (A) (A)
                 (A) (A) (A) (A) (A) (A) (A) (A) (A) (A) (A) (A)
                 (A) (A) (A) (A) (A) (A) (A) (A) (A) (A) (A) (A)
                 (A) (A) (A) (A) (A) (A) (A) (A) (A) (A) (A) (A)
                 (A) (A) (A) (A) (A) (A) (A) (A) (A) (A) (A) (A)
                 (A) (A) (A) (A) (A) (A) (A) (A) (A) (A) (A) (A)
                 (A) (A) (A) (A) (A) (A) (A) (A) (A) (A) (A) (A)
                 (A) (A)
 The electronic state is 2-A.
 Alpha  occ. eigenvalues --  -19.69948 -19.66389 -19.64700 -10.72062 -10.61890
 Alpha  occ. eigenvalues --  -10.57887 -10.57423 -10.54716  -1.27388  -1.17938
 Alpha  occ. eigenvalues --   -1.12795  -0.91765  -0.88133  -0.78670  -0.71215
 Alpha  occ. eigenvalues --   -0.67176  -0.61802  -0.61430  -0.59366  -0.56106
 Alpha  occ. eigenvalues --   -0.52608  -0.50682  -0.49440  -0.48029  -0.45150
 Alpha  occ. eigenvalues --   -0.42955  -0.41801  -0.40668  -0.38194  -0.37308
 Alpha  occ. eigenvalues --   -0.35998
 Alpha virt. eigenvalues --   -0.02678  -0.00338   0.00488   0.01796   0.02300
 Alpha virt. eigenvalues --    0.03128   0.03503   0.04661   0.05941   0.06130
 Alpha virt. eigenvalues --    0.06339   0.07798   0.08507   0.08834   0.10524
 Alpha virt. eigenvalues --    0.10717   0.12199   0.12467   0.12943   0.13195
 Alpha virt. eigenvalues --    0.13678   0.14459   0.15254   0.16662   0.17159
 Alpha virt. eigenvalues --    0.17657   0.18114   0.18611   0.19552   0.20627
 Alpha virt. eigenvalues --    0.21703   0.22279   0.22576   0.23913   0.26060
 Alpha virt. eigenvalues --    0.26388   0.28292   0.28512   0.29427   0.30444
 Alpha virt. eigenvalues --    0.31037   0.31227   0.32269   0.32765   0.33498
 Alpha virt. eigenvalues --    0.35057   0.36720   0.37230   0.39850   0.40411
 Alpha virt. eigenvalues --    0.43033   0.43861   0.46715   0.48033   0.49029
 Alpha virt. eigenvalues --    0.52689   0.54859   0.56028   0.57028   0.59524
 Alpha virt. eigenvalues --    0.61179   0.64147   0.65091   0.67328   0.68361
 Alpha virt. eigenvalues --    0.68768   0.69677   0.70033   0.72338   0.73591
 Alpha virt. eigenvalues --    0.74370   0.78521   0.80392   0.82444   0.85007
 Alpha virt. eigenvalues --    0.88944   0.90841   0.93843   1.02257   1.05700
 Alpha virt. eigenvalues --    1.06384   1.08646   1.10274   1.11226   1.12343
 Alpha virt. eigenvalues --    1.14750   1.16479   1.18322   1.20665   1.21333
 Alpha virt. eigenvalues --    1.23094   1.23566   1.27976   1.30042   1.32274
 Alpha virt. eigenvalues --    1.33650   1.36172   1.38292   1.44133   1.44835
 Alpha virt. eigenvalues --    1.48520   1.49648   1.50411   1.52946   1.57620
 Alpha virt. eigenvalues --    1.59174   1.60510   1.61891   1.63170   1.66151
 Alpha virt. eigenvalues --    1.66945   1.68722   1.71279   1.73979   1.75413
 Alpha virt. eigenvalues --    1.79874   1.84185   1.85365   1.86638   1.90972
 Alpha virt. eigenvalues --    1.94909   1.99166   2.01962   2.06649   2.10323
 Alpha virt. eigenvalues --    2.13085   2.14781   2.19310   2.27495   2.31999
 Alpha virt. eigenvalues --    2.40857   2.44892   2.49852   2.51571   2.53551
 Alpha virt. eigenvalues --    2.58302   2.59693   2.61131   2.62046   2.65452
 Alpha virt. eigenvalues --    2.66195   2.67030   2.67503   2.72852   2.80564
 Alpha virt. eigenvalues --    2.82228   2.86230   2.88705   2.90170   2.96379
 Alpha virt. eigenvalues --    3.00864   3.03379   3.03819   3.06461   3.11250
 Alpha virt. eigenvalues --    3.13105   3.16799   3.17938   3.21349   3.25566
 Alpha virt. eigenvalues --    3.30471   3.34099   3.35765   3.40570   3.44353
 Alpha virt. eigenvalues --    3.55700   3.66421   3.73919   3.80937   3.84674
 Alpha virt. eigenvalues --    3.85713   3.96047   4.07765   4.14968   4.16751
 Alpha virt. eigenvalues --    4.29311   5.07950   5.11743   5.16373   5.25205
 Alpha virt. eigenvalues --    5.31959   5.44904   5.57144   5.73504   5.94539
 Alpha virt. eigenvalues --   23.62155  23.91896  23.94431  24.04457  25.17340
 Alpha virt. eigenvalues --   49.96286  49.98919  50.09706
  Beta  occ. eigenvalues --  -19.69913 -19.64962 -19.64686 -10.72063 -10.61617
  Beta  occ. eigenvalues --  -10.57887 -10.57424 -10.54716  -1.27257  -1.17834
  Beta  occ. eigenvalues --   -1.06574  -0.91396  -0.87877  -0.78573  -0.70431
  Beta  occ. eigenvalues --   -0.66662  -0.61769  -0.60184  -0.59113  -0.54107
  Beta  occ. eigenvalues --   -0.51147  -0.49961  -0.47945  -0.44921  -0.43983
  Beta  occ. eigenvalues --   -0.40695  -0.39942  -0.38590  -0.37925  -0.37258
  Beta virt. eigenvalues --   -0.10318  -0.02517  -0.00273   0.00515   0.01916
  Beta virt. eigenvalues --    0.02549   0.03212   0.03539   0.05053   0.06003
  Beta virt. eigenvalues --    0.06214   0.06446   0.07891   0.08637   0.09005
  Beta virt. eigenvalues --    0.10608   0.11013   0.12271   0.12548   0.12989
  Beta virt. eigenvalues --    0.13345   0.13833   0.14652   0.15497   0.16790
  Beta virt. eigenvalues --    0.17293   0.17805   0.18373   0.18791   0.19719
  Beta virt. eigenvalues --    0.21014   0.21926   0.22048   0.22650   0.24140
  Beta virt. eigenvalues --    0.25907   0.26482   0.28050   0.28503   0.29524
  Beta virt. eigenvalues --    0.30484   0.31286   0.31374   0.32249   0.32849
  Beta virt. eigenvalues --    0.33754   0.35019   0.37105   0.37629   0.40022
  Beta virt. eigenvalues --    0.41444   0.43267   0.44004   0.46816   0.48285
  Beta virt. eigenvalues --    0.49065   0.52761   0.55150   0.56052   0.57061
  Beta virt. eigenvalues --    0.59802   0.61520   0.64379   0.65189   0.67445
  Beta virt. eigenvalues --    0.68650   0.69084   0.69729   0.70115   0.72433
  Beta virt. eigenvalues --    0.73778   0.74422   0.78702   0.80418   0.82793
  Beta virt. eigenvalues --    0.85048   0.88958   0.90975   0.93882   1.02560
  Beta virt. eigenvalues --    1.06022   1.06494   1.09575   1.10447   1.12049
  Beta virt. eigenvalues --    1.13692   1.14926   1.16549   1.18686   1.21218
  Beta virt. eigenvalues --    1.22831   1.23572   1.23741   1.28098   1.30209
  Beta virt. eigenvalues --    1.32370   1.33926   1.36228   1.38399   1.44192
  Beta virt. eigenvalues --    1.45228   1.49229   1.49943   1.50892   1.54232
  Beta virt. eigenvalues --    1.57809   1.59327   1.60532   1.62107   1.63159
  Beta virt. eigenvalues --    1.66195   1.67075   1.68954   1.71343   1.74466
  Beta virt. eigenvalues --    1.75580   1.80195   1.84200   1.85969   1.86639
  Beta virt. eigenvalues --    1.91308   1.94978   1.99125   2.02067   2.06692
  Beta virt. eigenvalues --    2.10722   2.13248   2.15193   2.19213   2.27984
  Beta virt. eigenvalues --    2.32499   2.40927   2.45259   2.49907   2.51606
  Beta virt. eigenvalues --    2.53123   2.58313   2.59810   2.61182   2.62198
  Beta virt. eigenvalues --    2.65453   2.66203   2.66623   2.67674   2.72832
  Beta virt. eigenvalues --    2.80536   2.82242   2.85818   2.88841   2.94880
  Beta virt. eigenvalues --    2.96739   3.01378   3.03401   3.03741   3.06446
  Beta virt. eigenvalues --    3.11544   3.13126   3.19343   3.20754   3.21904
  Beta virt. eigenvalues --    3.26043   3.30711   3.34258   3.36268   3.41471
  Beta virt. eigenvalues --    3.45626   3.55711   3.66445   3.73962   3.82455
  Beta virt. eigenvalues --    3.84791   3.85792   3.98350   4.07899   4.15297
  Beta virt. eigenvalues --    4.17004   4.29637   5.09204   5.12856   5.16589
  Beta virt. eigenvalues --    5.31501   5.32571   5.45048   5.59641   5.73627
  Beta virt. eigenvalues --    5.94571  23.62154  23.91966  23.94480  24.04465
  Beta virt. eigenvalues --   25.17340  49.95780  49.98867  50.09683
          Condensed to atoms (all electrons):
               1          2          3          4          5          6
     1  C    6.578352   0.475311  -1.599010   1.424318  -0.120698  -0.111441
     2  H    0.475311   0.428667  -0.110516   0.033463  -0.002993  -0.005143
     3  C   -1.599010  -0.110516   9.667687  -2.740259   0.163846  -0.169713
     4  C    1.424318   0.033463  -2.740259   7.647357   0.279344   0.048397
     5  O   -0.120698  -0.002993   0.163846   0.279344   8.081900  -0.129544
     6  O   -0.111441  -0.005143  -0.169713   0.048397  -0.129544   8.332074
     7  C    0.051269  -0.001547  -0.412100  -0.094252  -0.018136   0.252412
     8  C    0.028657   0.000225  -0.145581   0.019897   0.013776  -0.158257
     9  H    0.000235   0.000127   0.010566   0.021916  -0.014598  -0.038439
    10  H   -0.001987   0.000153   0.009651  -0.011337   0.003278  -0.037375
    11  H   -0.002090  -0.000121   0.009370  -0.003077  -0.001091  -0.007030
    12  H    0.002519   0.000056  -0.008383   0.005109  -0.001595  -0.014808
    13  H   -0.001097  -0.000031   0.003579  -0.005382   0.001759   0.025820
    14  O    0.003138   0.000129  -0.012263   0.008851  -0.009274   0.010455
    15  H   -0.000210  -0.000116  -0.005829  -0.018433   0.012861  -0.001385
               7          8          9         10         11         12
     1  C    0.051269   0.028657   0.000235  -0.001987  -0.002090   0.002519
     2  H   -0.001547   0.000225   0.000127   0.000153  -0.000121   0.000056
     3  C   -0.412100  -0.145581   0.010566   0.009651   0.009370  -0.008383
     4  C   -0.094252   0.019897   0.021916  -0.011337  -0.003077   0.005109
     5  O   -0.018136   0.013776  -0.014598   0.003278  -0.001091  -0.001595
     6  O    0.252412  -0.158257  -0.038439  -0.037375  -0.007030  -0.014808
     7  C    5.936805  -0.016172   0.405260   0.361668  -0.015926  -0.055295
     8  C   -0.016172   5.806838  -0.097551  -0.112791   0.385683   0.417721
     9  H    0.405260  -0.097551   0.551353  -0.053092   0.006566  -0.011533
    10  H    0.361668  -0.112791  -0.053092   0.607598  -0.020829   0.018315
    11  H   -0.015926   0.385683   0.006566  -0.020829   0.516391  -0.033918
    12  H   -0.055295   0.417721  -0.011533   0.018315  -0.033918   0.531946
    13  H   -0.056216   0.422316  -0.005023  -0.016425  -0.029390  -0.029053
    14  O   -0.007488   0.007404  -0.006442   0.011895  -0.000242  -0.002653
    15  H    0.031885   0.015384  -0.003721  -0.038399   0.001028   0.000061
              13         14         15
     1  C   -0.001097   0.003138  -0.000210
     2  H   -0.000031   0.000129  -0.000116
     3  C    0.003579  -0.012263  -0.005829
     4  C   -0.005382   0.008851  -0.018433
     5  O    0.001759  -0.009274   0.012861
     6  O    0.025820   0.010455  -0.001385
     7  C   -0.056216  -0.007488   0.031885
     8  C    0.422316   0.007404   0.015384
     9  H   -0.005023  -0.006442  -0.003721
    10  H   -0.016425   0.011895  -0.038399
    11  H   -0.029390  -0.000242   0.001028
    12  H   -0.029053  -0.002653   0.000061
    13  H    0.509772   0.001671   0.000521
    14  O    0.001671   8.016938   0.280214
    15  H    0.000521   0.280214   0.464768
          Atomic-Atomic Spin Densities.
               1          2          3          4          5          6
     1  C   -0.009160  -0.001305   0.001373   0.007043   0.000850  -0.001708
     2  H   -0.001305  -0.000294   0.002140  -0.000635   0.000061   0.000000
     3  C    0.001373   0.002140   0.037419  -0.030890  -0.000733   0.003369
     4  C    0.007043  -0.000635  -0.030890   0.022306   0.000182  -0.003633
     5  O    0.000850   0.000061  -0.000733   0.000182   0.007521  -0.000635
     6  O   -0.001708   0.000000   0.003369  -0.003633  -0.000635   0.032456
     7  C    0.002041  -0.000091  -0.012679  -0.000947   0.001747  -0.025861
     8  C    0.001224   0.000043  -0.004414  -0.001651   0.000335  -0.000073
     9  H    0.000169  -0.000023  -0.003753  -0.008378   0.000756   0.002237
    10  H   -0.000083   0.000155   0.014549   0.042730  -0.005784  -0.015193
    11  H    0.000054  -0.000011  -0.000937  -0.002299  -0.000018   0.000531
    12  H   -0.000238   0.000010   0.001855   0.003472  -0.000072   0.001858
    13  H    0.000012  -0.000003  -0.000316  -0.000831   0.000019  -0.000002
    14  O    0.000124  -0.000073  -0.011003  -0.029893   0.001899   0.014886
    15  H   -0.000075   0.000028   0.003422   0.004573   0.000925  -0.001817
               7          8          9         10         11         12
     1  C    0.002041   0.001224   0.000169  -0.000083   0.000054  -0.000238
     2  H   -0.000091   0.000043  -0.000023   0.000155  -0.000011   0.000010
     3  C   -0.012679  -0.004414  -0.003753   0.014549  -0.000937   0.001855
     4  C   -0.000947  -0.001651  -0.008378   0.042730  -0.002299   0.003472
     5  O    0.001747   0.000335   0.000756  -0.005784  -0.000018  -0.000072
     6  O   -0.025861  -0.000073   0.002237  -0.015193   0.000531   0.001858
     7  C    0.293314  -0.010263  -0.013037   0.051477  -0.005467   0.001131
     8  C   -0.010263   0.001121   0.011768  -0.027615   0.007683  -0.007613
     9  H   -0.013037   0.011768  -0.008557   0.012656   0.000552  -0.001292
    10  H    0.051477  -0.027615   0.012656  -0.059781  -0.003280   0.000085
    11  H   -0.005467   0.007683   0.000552  -0.003280   0.005310  -0.003676
    12  H    0.001131  -0.007613  -0.001292   0.000085  -0.003676   0.022052
    13  H   -0.000257   0.002457   0.000773  -0.003678   0.000625  -0.001901
    14  O   -0.047695   0.022977   0.002269  -0.054925   0.002549  -0.001302
    15  H   -0.001031  -0.002073  -0.000909   0.007229  -0.000224   0.000238
              13         14         15
     1  C    0.000012   0.000124  -0.000075
     2  H   -0.000003  -0.000073   0.000028
     3  C   -0.000316  -0.011003   0.003422
     4  C   -0.000831  -0.029893   0.004573
     5  O    0.000019   0.001899   0.000925
     6  O   -0.000002   0.014886  -0.001817
     7  C   -0.000257  -0.047695  -0.001031
     8  C    0.002457   0.022977  -0.002073
     9  H    0.000773   0.002269  -0.000909
    10  H   -0.003678  -0.054925   0.007229
    11  H    0.000625   0.002549  -0.000224
    12  H   -0.001901  -0.001302   0.000238
    13  H    0.001286   0.001988  -0.000175
    14  O    0.001988   0.896482   0.004906
    15  H   -0.000175   0.004906  -0.028601
 Mulliken charges and spin densities:
               1          2
     1  C   -0.727264   0.000320
     2  H    0.182335   0.000001
     3  C    1.338954  -0.000601
     4  C   -0.615910   0.001151
     5  O   -0.258835   0.007053
     6  O    0.003979   0.006416
     7  C   -0.362167   0.232382
     8  C   -0.587550  -0.006094
     9  H    0.234376  -0.004770
    10  H    0.279678  -0.041458
    11  H    0.194677   0.001390
    12  H    0.181511   0.014606
    13  H    0.177177  -0.000002
    14  O   -0.302333   0.803189
    15  H    0.261372  -0.013584
 Sum of Mulliken charges =   0.00000   1.00000
 Mulliken charges and spin densities with hydrogens summed into heavy atoms:
               1          2
     1  C   -0.544929   0.000322
     3  C    1.338954  -0.000601
     4  C   -0.615910   0.001151
     5  O   -0.258835   0.007053
     6  O    0.003979   0.006416
     7  C    0.151887   0.186154
     8  C   -0.034185   0.009900
    14  O   -0.040961   0.789605
 APT charges:
               1
     1  C   -0.172913
     2  H    0.237950
     3  C   -0.318601
     4  C    1.466962
     5  O   -0.769146
     6  O   -1.020406
     7  C    0.893004
     8  C   -0.084573
     9  H   -0.078544
    10  H   -0.406363
    11  H    0.028371
    12  H    0.011190
    13  H    0.021026
    14  O   -0.147431
    15  H    0.339475
 Sum of APT charges =   0.00000
 APT charges with hydrogens summed into heavy atoms:
               1
     1  C    0.065037
     3  C   -0.318601
     4  C    1.466962
     5  O   -0.769146
     6  O   -1.020406
     7  C    0.408096
     8  C   -0.023986
    14  O    0.192044
 Electronic spatial extent (au):  <R**2>=           1215.1466
 Charge=              0.0000 electrons
 Dipole moment (field-independent basis, Debye):
    X=              1.1854    Y=             -2.3175    Z=              0.4041  Tot=              2.6343
 Quadrupole moment (field-independent basis, Debye-Ang):
   XX=            -38.2687   YY=            -49.5872   ZZ=            -49.1026
   XY=              1.4189   XZ=             -5.3809   YZ=             -0.1534
 Traceless Quadrupole moment (field-independent basis, Debye-Ang):
   XX=              7.3841   YY=             -3.9344   ZZ=             -3.4498
   XY=              1.4189   XZ=             -5.3809   YZ=             -0.1534
 Octapole moment (field-independent basis, Debye-Ang**2):
  XXX=             49.0196  YYY=             10.8829  ZZZ=              2.8622  XYY=             -4.7222
  XXY=            -23.8580  XXZ=             -7.4440  XZZ=             -3.1389  YZZ=             -2.0659
  YYZ=              0.2292  XYZ=             -2.8427
 Hexadecapole moment (field-independent basis, Debye-Ang**3):
 XXXX=           -831.5186 YYYY=           -375.7835 ZZZZ=           -115.7141 XXXY=            -37.0345
 XXXZ=            -64.5043 YYYX=             -4.7793 YYYZ=             -4.5479 ZZZX=              3.3670
 ZZZY=              1.1888 XXYY=           -265.0215 XXZZ=           -204.3540 YYZZ=            -91.2179
 XXYZ=             16.6317 YYXZ=             -6.6346 ZZXY=              0.2348
 N-N= 3.514436032195D+02 E-N=-1.687201368043D+03  KE= 4.188725769154D+02
  Exact polarizability:  94.460  -7.812  79.379  -4.541  -1.628  53.537
 Approx polarizability:  99.044 -10.942  86.555  -7.855   3.872  64.151
                          Isotropic Fermi Contact Couplings
        Atom                 a.u.       MegaHertz       Gauss      10(-4) cm-1
     1  C(13)             -0.00001      -0.01562      -0.00558      -0.00521
     2  H(1)              -0.00001      -0.04092      -0.01460      -0.01365
     3  C(13)             -0.00084      -0.94198      -0.33612      -0.31421
     4  C(13)              0.00044       0.49430       0.17638       0.16488
     5  O(17)             -0.00072       0.43523       0.15530       0.14518
     6  O(17)             -0.00013       0.07613       0.02716       0.02539
     7  C(13)              0.11045     124.17232      44.30777      41.41943
     8  C(13)             -0.00018      -0.20599      -0.07350      -0.06871
     9  H(1)              -0.00051      -2.26635      -0.80869      -0.75597
    10  H(1)              -0.00964     -43.07075     -15.36871     -14.36686
    11  H(1)               0.00120       5.37272       1.91712       1.79215
    12  H(1)               0.00644      28.77225      10.26665       9.59739
    13  H(1)               0.00027       1.22173       0.43594       0.40753
    14  O(17)              0.12555     -76.10932     -27.15770     -25.38734
    15  H(1)              -0.01369     -61.17254     -21.82788     -20.40496
 --------------------------------------------------------
       Center         ----  Spin Dipole Couplings  ----
                      3XX-RR        3YY-RR        3ZZ-RR
 --------------------------------------------------------
     1   Atom        0.001168      0.000048     -0.001216
     2   Atom        0.000937     -0.000367     -0.000570
     3   Atom        0.002759     -0.001178     -0.001581
     4   Atom        0.008085     -0.002106     -0.005978
     5   Atom       -0.006472     -0.018911      0.025383
     6   Atom       -0.022869      0.043139     -0.020270
     7   Atom       -0.140439      0.181971     -0.041532
     8   Atom       -0.008205      0.019416     -0.011211
     9   Atom       -0.019376     -0.003785      0.023162
    10   Atom       -0.082834      0.133041     -0.050207
    11   Atom       -0.004452      0.005122     -0.000670
    12   Atom       -0.002653      0.005646     -0.002992
    13   Atom        0.002651      0.002353     -0.005004
    14   Atom       -1.426913      2.132380     -0.705467
    15   Atom        0.033497     -0.005592     -0.027904
 --------------------------------------------------------
                        XY            XZ            YZ
 --------------------------------------------------------
     1   Atom       -0.000473     -0.000546     -0.001161
     2   Atom       -0.000444     -0.000127     -0.000030
     3   Atom       -0.000996      0.000327     -0.000022
     4   Atom       -0.001329      0.003159      0.001603
     5   Atom       -0.003430      0.028310     -0.010997
     6   Atom       -0.054081      0.043920     -0.055274
     7   Atom       -0.089301      0.054087     -0.201983
     8   Atom        0.010259      0.000271     -0.001111
     9   Atom       -0.003360      0.000763     -0.001467
    10   Atom       -0.044646      0.022163     -0.099207
    11   Atom        0.002258      0.002123      0.004608
    12   Atom        0.000923      0.001016     -0.001787
    13   Atom        0.005652     -0.000276     -0.001492
    14   Atom       -0.831006      0.398980     -1.834213
    15   Atom        0.071767      0.106673      0.031706
 --------------------------------------------------------


 ---------------------------------------------------------------------------------
              Anisotropic Spin Dipole Couplings in Principal Axis System
 ---------------------------------------------------------------------------------

       Atom             a.u.   MegaHertz   Gauss  10(-4) cm-1        Axes

              Baa    -0.0021    -0.277    -0.099    -0.092  0.2153  0.5073  0.8344
     1 C(13)  Bbb     0.0007     0.096     0.034     0.032  0.1926  0.8156 -0.5456
              Bcc     0.0013     0.181     0.065     0.060  0.9574 -0.2782 -0.0778
 
              Baa    -0.0006    -0.329    -0.117    -0.110  0.2031  0.4636  0.8624
     2 H(1)   Bbb    -0.0005    -0.248    -0.089    -0.083  0.2195  0.8368 -0.5015
              Bcc     0.0011     0.577     0.206     0.193  0.9542 -0.2912 -0.0682
 
              Baa    -0.0016    -0.217    -0.077    -0.072 -0.1253 -0.2347  0.9640
     3 C(13)  Bbb    -0.0014    -0.188    -0.067    -0.063  0.2059  0.9443  0.2567
              Bcc     0.0030     0.405     0.145     0.135  0.9705 -0.2307  0.0700
 
              Baa    -0.0073    -0.982    -0.350    -0.328 -0.2170 -0.3372  0.9161
     4 C(13)  Bbb    -0.0015    -0.205    -0.073    -0.069  0.0151  0.9372  0.3486
              Bcc     0.0088     1.187     0.424     0.396  0.9761 -0.0894  0.1983
 
              Baa    -0.0247     1.790     0.639     0.597  0.6713 -0.5477 -0.4994
     5 O(17)  Bbb    -0.0192     1.390     0.496     0.464  0.5552  0.8179 -0.1508
              Bcc     0.0439    -3.180    -1.135    -1.061  0.4910 -0.1761  0.8532
 
              Baa    -0.0655     4.740     1.691     1.581  0.7220  0.0074 -0.6919
     6 O(17)  Bbb    -0.0453     3.276     1.169     1.093  0.5173  0.6583  0.5468
              Bcc     0.1108    -8.016    -2.860    -2.674 -0.4595  0.7527 -0.4715
 
              Baa    -0.1643   -22.044    -7.866    -7.353  0.9267  0.0200 -0.3754
     7 C(13)  Bbb    -0.1602   -21.500    -7.672    -7.172  0.3055  0.5419  0.7830
              Bcc     0.3245    43.544    15.538    14.525 -0.2191  0.8402 -0.4960
 
              Baa    -0.0121    -1.617    -0.577    -0.539  0.7557 -0.2675 -0.5978
     8 C(13)  Bbb    -0.0108    -1.448    -0.517    -0.483  0.5751 -0.1659  0.8011
              Bcc     0.0228     3.065     1.094     1.022  0.3135  0.9492 -0.0285
 
              Baa    -0.0201   -10.711    -3.822    -3.573  0.9795  0.2011 -0.0105
     9 H(1)   Bbb    -0.0032    -1.701    -0.607    -0.567 -0.2002  0.9779  0.0602
              Bcc     0.0233    12.412     4.429     4.140  0.0223 -0.0569  0.9981
 
              Baa    -0.0953   -50.866   -18.150   -16.967 -0.5760  0.2283  0.7849
    10 H(1)   Bbb    -0.0904   -48.211   -17.203   -16.081  0.7968  0.3710  0.4769
              Bcc     0.1857    99.077    35.353    33.048 -0.1823  0.9001 -0.3957
 
              Baa    -0.0054    -2.886    -1.030    -0.963  0.9226 -0.0295 -0.3845
    11 H(1)   Bbb    -0.0030    -1.582    -0.565    -0.528  0.3105 -0.5346  0.7860
              Bcc     0.0084     4.468     1.594     1.490  0.2288  0.8446  0.4840
 
              Baa    -0.0042    -2.265    -0.808    -0.755 -0.6059  0.1958  0.7710
    12 H(1)   Bbb    -0.0018    -0.968    -0.345    -0.323  0.7912  0.0481  0.6096
              Bcc     0.0061     3.233     1.154     1.078  0.0823  0.9795 -0.1841
 
              Baa    -0.0055    -2.908    -1.038    -0.970 -0.1868  0.3133  0.9311
    13 H(1)   Bbb    -0.0028    -1.505    -0.537    -0.502  0.6808 -0.6420  0.3526
              Bcc     0.0083     4.414     1.575     1.472  0.7082  0.6998 -0.0934
 
              Baa    -1.6158   116.918    41.719    38.999  0.7829  0.4048  0.4725
    14 O(17)  Bbb    -1.5997   115.752    41.303    38.611 -0.5909  0.2460  0.7683
              Bcc     3.2155  -232.669   -83.022   -77.610 -0.1948  0.8807 -0.4318
 
              Baa    -0.1121   -59.836   -21.351   -19.959 -0.6438  0.2151  0.7343
    15 H(1)   Bbb    -0.0392   -20.891    -7.454    -6.968 -0.2125  0.8716 -0.4417
              Bcc     0.1513    80.727    28.805    26.928  0.7351  0.4404  0.5155
 

 ---------------------------------------------------------------------------------

 Calling FoFJK, ICntrl=    100127 FMM=F ISym2X=0 I1Cent= 0 IOpClX= 1 NMat=1 NMatS=1 NMatT=0.
 Full mass-weighted force constant matrix:
 Low frequencies --- -433.8079  -60.4066  -38.0837  -22.7680   -0.0005    0.0006
 Low frequencies ---    0.0007   10.6006   62.0925
 ******    2 imaginary frequencies (negative Signs) ****** 
 Diagonal vibrational polarizability:
       51.0887660     102.2713650      27.7599452
 Harmonic frequencies (cm**-1), IR intensities (KM/Mole), Raman scattering
 activities (A**4/AMU), depolarization ratios for plane and unpolarized
 incident light, reduced masses (AMU), force constants (mDyne/A),
 and normal coordinates:
                      1                      2                      3
                      A                      A                      A
 Frequencies --   -433.8062               -52.8586                61.1016
 Red. masses --      3.9632                 3.5909                 2.8554
 Frc consts  --      0.4394                 0.0059                 0.0063
 IR Inten    --    239.4333                 3.5111                 1.6988
  Atom  AN      X      Y      Z        X      Y      Z        X      Y      Z
     1   6     0.00  -0.01   0.00     0.06  -0.09   0.12    -0.03   0.08  -0.07
     2   1     0.00   0.00   0.00     0.07  -0.12   0.19    -0.03   0.13  -0.12
     3   6     0.00  -0.01   0.00     0.05  -0.05   0.05    -0.03   0.02  -0.01
     4   6     0.02   0.02   0.01     0.03  -0.01  -0.05    -0.02  -0.02   0.04
     5   8     0.03   0.00   0.03     0.01   0.03  -0.14    -0.02  -0.08   0.16
     6   8    -0.04   0.05  -0.01     0.04  -0.02  -0.04    -0.03   0.02  -0.07
     7   6     0.02   0.14  -0.10     0.01   0.05  -0.19    -0.05   0.05  -0.15
     8   6    -0.02   0.16  -0.04     0.04  -0.06   0.06     0.00  -0.10   0.15
     9   1    -0.07   0.43  -0.16    -0.06   0.32  -0.24    -0.07   0.33  -0.20
    10   1     0.06   0.60  -0.33     0.04  -0.07  -0.44    -0.06  -0.07  -0.40
    11   1    -0.01   0.05  -0.02     0.14  -0.39   0.11     0.06  -0.45   0.20
    12   1     0.03   0.21   0.05    -0.02   0.08   0.36     0.00   0.06   0.47
    13   1    -0.02   0.14  -0.03     0.02   0.03  -0.10    -0.01  -0.05   0.03
    14   8     0.01  -0.37   0.11    -0.20   0.12   0.18     0.15   0.04  -0.06
    15   1    -0.11  -0.12   0.06    -0.13  -0.01   0.19     0.08  -0.09   0.14
                      4                      5                      6
                      A                      A                      A
 Frequencies --    111.5390               128.9288               137.1744
 Red. masses --      3.0197                 4.7380                 5.1627
 Frc consts  --      0.0221                 0.0464                 0.0572
 IR Inten    --      2.6686                 2.6013                12.6246
  Atom  AN      X      Y      Z        X      Y      Z        X      Y      Z
     1   6     0.00  -0.11   0.16     0.13   0.26   0.16     0.15   0.14   0.03
     2   1     0.02  -0.21   0.31     0.23   0.49   0.32     0.20   0.30   0.06
     3   6    -0.01   0.02  -0.03    -0.01  -0.02  -0.04     0.08  -0.06   0.00
     4   6    -0.02   0.07  -0.09    -0.05  -0.09  -0.12     0.07  -0.12   0.01
     5   8     0.01   0.01   0.04    -0.06  -0.05  -0.20     0.08  -0.18   0.15
     6   8    -0.04   0.14  -0.25    -0.05  -0.11  -0.04     0.02  -0.05  -0.11
     7   6     0.01  -0.01   0.04    -0.03  -0.04   0.03     0.07   0.05   0.02
     8   6     0.03  -0.06   0.09    -0.17   0.06   0.07    -0.11   0.16   0.10
     9   1     0.21  -0.14   0.07     0.05  -0.05   0.03     0.19   0.03   0.03
    10   1    -0.18   0.01   0.21     0.01   0.02   0.07     0.10   0.05   0.07
    11   1    -0.29   0.16   0.04    -0.28   0.07   0.06    -0.27   0.18   0.08
    12   1     0.34  -0.10  -0.17    -0.22   0.01   0.02    -0.17   0.11   0.04
    13   1     0.08  -0.27   0.46    -0.12   0.16   0.17    -0.05   0.29   0.23
    14   8     0.01  -0.03   0.02     0.20   0.00   0.12    -0.28   0.03  -0.17
    15   1     0.02  -0.04   0.02     0.26  -0.10   0.11    -0.29   0.20  -0.28
                      7                      8                      9
                      A                      A                      A
 Frequencies --    233.9369               262.5591               297.0668
 Red. masses --      1.3484                 4.3830                 3.8174
 Frc consts  --      0.0435                 0.1780                 0.1985
 IR Inten    --      1.2239                 1.8404                 3.3302
  Atom  AN      X      Y      Z        X      Y      Z        X      Y      Z
     1   6     0.00  -0.04   0.05     0.06   0.13   0.04    -0.03   0.05  -0.13
     2   1     0.01  -0.11   0.15     0.15   0.37   0.13    -0.10   0.17  -0.50
     3   6    -0.01   0.06  -0.09    -0.06  -0.21  -0.07     0.06  -0.13   0.37
     4   6    -0.01   0.03  -0.04     0.00  -0.03  -0.01     0.01  -0.01   0.05
     5   8    -0.01  -0.01   0.03     0.28   0.03   0.00    -0.03   0.05  -0.08
     6   8     0.01   0.02  -0.05    -0.17   0.13   0.04    -0.01   0.08  -0.19
     7   6     0.03  -0.04   0.07    -0.18   0.04   0.07     0.02  -0.04   0.04
     8   6    -0.01   0.02   0.00     0.06  -0.11  -0.07    -0.02   0.00   0.02
     9   1     0.09  -0.13   0.09    -0.22  -0.04   0.08     0.19  -0.21   0.09
    10   1     0.00  -0.01   0.17    -0.27   0.03   0.10    -0.11   0.01   0.25
    11   1     0.41  -0.24   0.06     0.38  -0.15  -0.04     0.17  -0.12   0.05
    12   1    -0.43   0.07   0.34     0.12  -0.04   0.05    -0.26   0.02   0.18
    13   1    -0.07   0.30  -0.49    -0.04  -0.29  -0.35    -0.04   0.18  -0.21
    14   8     0.00  -0.02   0.00    -0.04   0.00  -0.01     0.00  -0.03   0.03
    15   1    -0.02   0.02  -0.01     0.08  -0.08  -0.12     0.20  -0.09  -0.20
                     10                     11                     12
                      A                      A                      A
 Frequencies --    377.6496               398.9284               539.9108
 Red. masses --      3.0495                 1.1179                 5.5999
 Frc consts  --      0.2562                 0.1048                 0.9618
 IR Inten    --     28.0775               113.3934                 2.9035
  Atom  AN      X      Y      Z        X      Y      Z        X      Y      Z
     1   6     0.03  -0.02  -0.01     0.00  -0.01   0.00     0.26  -0.10  -0.09
     2   1     0.01  -0.09  -0.04     0.00  -0.05   0.03     0.16  -0.38  -0.20
     3   6     0.06   0.07   0.01     0.01   0.04  -0.02     0.35   0.22   0.05
     4   6     0.05   0.09   0.03     0.01   0.01   0.01     0.06  -0.06  -0.04
     5   8     0.16   0.11   0.03     0.01   0.00   0.03    -0.11  -0.11  -0.03
     6   8     0.05   0.04   0.02     0.01   0.00   0.01    -0.14   0.06   0.04
     7   6    -0.05  -0.15  -0.09    -0.01  -0.01  -0.03    -0.24   0.10   0.10
     8   6    -0.25  -0.08  -0.02    -0.03  -0.01   0.00    -0.06  -0.04  -0.01
     9   1    -0.11  -0.16  -0.09    -0.04   0.02  -0.04    -0.25   0.08   0.10
    10   1    -0.07  -0.23  -0.10    -0.02  -0.01  -0.04    -0.29   0.08   0.07
    11   1    -0.49  -0.11  -0.03    -0.08  -0.03  -0.01     0.14   0.02  -0.01
    12   1    -0.44  -0.15  -0.03    -0.03  -0.01   0.00     0.11   0.00  -0.03
    13   1    -0.16   0.19   0.15    -0.02   0.01   0.04    -0.15  -0.31  -0.16
    14   8     0.00  -0.05  -0.01    -0.03   0.00   0.04     0.00   0.00  -0.01
    15   1    -0.21  -0.10   0.33     0.64  -0.22  -0.72    -0.04  -0.12   0.13
                     13                     14                     15
                      A                      A                      A
 Frequencies --    622.5255               685.5846               739.6450
 Red. masses --      7.4075                 1.0858                 1.3255
 Frc consts  --      1.6914                 0.3007                 0.4273
 IR Inten    --      7.3054                40.2630                39.0784
  Atom  AN      X      Y      Z        X      Y      Z        X      Y      Z
     1   6    -0.24   0.05   0.06     0.02   0.00   0.00    -0.05  -0.13  -0.06
     2   1    -0.42  -0.39  -0.11     0.01  -0.01  -0.01     0.33   0.85   0.37
     3   6    -0.05   0.44   0.20     0.01   0.00   0.00     0.02   0.07   0.03
     4   6    -0.06  -0.17  -0.07     0.00   0.01   0.01     0.00   0.00   0.00
     5   8     0.34  -0.08  -0.08     0.00   0.01   0.00     0.01   0.00   0.00
     6   8    -0.08  -0.19  -0.08    -0.01  -0.01   0.01     0.00   0.00   0.00
     7   6    -0.02   0.03   0.02    -0.01  -0.01  -0.04    -0.01   0.00   0.00
     8   6     0.04   0.03   0.01    -0.03  -0.04  -0.01     0.00   0.00   0.00
     9   1     0.07   0.05   0.02    -0.03  -0.17   0.00     0.00   0.00   0.00
    10   1     0.07   0.08   0.01     0.13   0.27   0.18     0.00   0.01   0.00
    11   1     0.18   0.05   0.02    -0.09  -0.23   0.01     0.01   0.00   0.00
    12   1     0.18   0.07   0.00     0.09   0.07   0.13     0.01   0.00   0.00
    13   1    -0.02  -0.16  -0.08    -0.02  -0.11   0.06    -0.01  -0.01   0.00
    14   8     0.00   0.00   0.00     0.03  -0.01   0.03     0.00   0.00   0.00
    15   1    -0.05   0.12  -0.02    -0.16   0.77  -0.33     0.00   0.01   0.00
                     16                     17                     18
                      A                      A                      A
 Frequencies --    773.5848               786.3529               849.3289
 Red. masses --      1.8431                 2.7944                 1.1896
 Frc consts  --      0.6498                 1.0181                 0.5056
 IR Inten    --      3.1742                74.7918                33.5449
  Atom  AN      X      Y      Z        X      Y      Z        X      Y      Z
     1   6    -0.02   0.07  -0.14    -0.02   0.05  -0.09     0.01   0.00   0.00
     2   1     0.13  -0.42   0.85     0.11  -0.38   0.77     0.01  -0.01   0.02
     3   6     0.02  -0.05   0.11    -0.01   0.03  -0.08     0.00   0.00  -0.02
     4   6    -0.03   0.07  -0.16     0.05  -0.15   0.31     0.00  -0.01   0.05
     5   8     0.01  -0.02   0.05    -0.02   0.03  -0.09     0.00   0.03   0.00
     6   8     0.01  -0.02   0.03    -0.01   0.03  -0.07     0.00  -0.01  -0.05
     7   6     0.00   0.00   0.01     0.00   0.01  -0.02     0.00  -0.01   0.06
     8   6     0.00  -0.01   0.00     0.01   0.01   0.00    -0.03  -0.05   0.04
     9   1    -0.03   0.07  -0.01     0.05  -0.16   0.01     0.08   0.51  -0.04
    10   1     0.04  -0.02  -0.05    -0.07   0.06   0.12     0.06  -0.20  -0.32
    11   1     0.01   0.03   0.00    -0.04  -0.07   0.01     0.20   0.35   0.00
    12   1    -0.01  -0.02  -0.03     0.04   0.05   0.07    -0.17  -0.26  -0.29
    13   1    -0.01  -0.01  -0.02     0.02   0.02   0.04    -0.09  -0.06  -0.20
    14   8     0.00   0.00   0.00     0.00   0.00  -0.01     0.01  -0.01   0.02
    15   1     0.00   0.06  -0.04    -0.01  -0.11   0.09    -0.06   0.37  -0.17
                     19                     20                     21
                      A                      A                      A
 Frequencies --    914.5698               966.4998              1095.9178
 Red. masses --      2.4372                 4.5714                 3.1027
 Frc consts  --      1.2011                 2.5159                 2.1955
 IR Inten    --      6.6893                15.9780               248.7928
  Atom  AN      X      Y      Z        X      Y      Z        X      Y      Z
     1   6     0.04  -0.01  -0.01    -0.15   0.04   0.04    -0.04   0.01   0.01
     2   1     0.05   0.01  -0.01    -0.17   0.05   0.05    -0.05   0.02   0.02
     3   6     0.01  -0.05  -0.02    -0.10   0.00   0.02    -0.03  -0.02   0.00
     4   6    -0.03   0.08   0.04     0.22  -0.04  -0.05     0.07   0.00  -0.01
     5   8     0.01   0.13   0.06    -0.04  -0.16  -0.07    -0.01  -0.02   0.00
     6   8     0.07  -0.19  -0.09     0.23   0.16   0.04     0.19  -0.03  -0.06
     7   6    -0.06   0.05   0.02     0.00   0.14   0.07    -0.31  -0.01  -0.01
     8   6    -0.11   0.04   0.01    -0.21  -0.11  -0.04     0.10   0.11   0.05
     9   1     0.16  -0.07   0.05     0.14   0.12   0.08    -0.45  -0.26   0.02
    10   1     0.10   0.17   0.11     0.04   0.23   0.14    -0.37  -0.37  -0.11
    11   1     0.28  -0.04   0.05     0.05  -0.18  -0.02     0.05   0.25   0.04
    12   1     0.40   0.21   0.05     0.11  -0.02  -0.05     0.01   0.10   0.08
    13   1    -0.28  -0.58  -0.20    -0.35  -0.58  -0.21     0.14   0.27   0.07
    14   8    -0.01   0.01  -0.01     0.00   0.00  -0.01     0.01  -0.05   0.02
    15   1     0.05  -0.24   0.10     0.00  -0.10   0.07    -0.07   0.27  -0.10
                     22                     23                     24
                      A                      A                      A
 Frequencies --   1153.3762              1158.7534              1270.3314
 Red. masses --      1.6191                 2.0637                 2.4319
 Frc consts  --      1.2690                 1.6326                 2.3122
 IR Inten    --      4.1977                 9.8779               623.9521
  Atom  AN      X      Y      Z        X      Y      Z        X      Y      Z
     1   6     0.00   0.00   0.00     0.00   0.00   0.00    -0.05   0.02   0.02
     2   1     0.00   0.00   0.00     0.00   0.00   0.00    -0.06   0.04   0.02
     3   6     0.00   0.00   0.00     0.00  -0.01   0.00    -0.02  -0.01   0.00
     4   6     0.00   0.01   0.00     0.00   0.01   0.01     0.27   0.10   0.00
     5   8     0.00   0.02   0.01     0.00   0.03   0.01    -0.03   0.00   0.00
     6   8     0.02  -0.07   0.02     0.03  -0.07  -0.07    -0.11  -0.07  -0.04
     7   6    -0.02   0.15  -0.08    -0.03   0.11   0.19    -0.01  -0.09  -0.01
     8   6     0.04  -0.11   0.04     0.05  -0.09  -0.14     0.03  -0.03   0.06
     9   1     0.32  -0.10  -0.01    -0.19   0.34   0.15    -0.60   0.06  -0.05
    10   1    -0.44   0.33   0.37     0.20   0.06  -0.14     0.32   0.50   0.16
    11   1    -0.11   0.20  -0.02    -0.49  -0.41  -0.13     0.11   0.19   0.04
    12   1    -0.35  -0.34  -0.19    -0.25   0.00   0.20    -0.05  -0.14  -0.10
    13   1     0.06   0.22  -0.12     0.19   0.19   0.27     0.04   0.13  -0.02
    14   8     0.00   0.00   0.00     0.00   0.01   0.00    -0.01   0.04  -0.02
    15   1    -0.01  -0.02   0.03     0.01  -0.04   0.02     0.03  -0.14   0.05
                     25                     26                     27
                      A                      A                      A
 Frequencies --   1301.8622              1352.1109              1405.8118
 Red. masses --      1.4243                 1.4547                 1.2509
 Frc consts  --      1.4223                 1.5669                 1.4565
 IR Inten    --    164.7202               225.8689                41.9212
  Atom  AN      X      Y      Z        X      Y      Z        X      Y      Z
     1   6     0.02  -0.01  -0.01    -0.01   0.00   0.00     0.01   0.00   0.00
     2   1     0.03  -0.02  -0.01    -0.01   0.01   0.00     0.02  -0.01  -0.01
     3   6     0.01   0.00   0.00     0.00   0.00   0.00     0.00   0.00   0.00
     4   6    -0.13  -0.05   0.00     0.06   0.02   0.00    -0.07  -0.01   0.01
     5   8     0.01   0.00   0.00    -0.01   0.01   0.01     0.01   0.00   0.00
     6   8     0.06   0.05  -0.01    -0.06  -0.03  -0.01     0.05   0.00  -0.01
     7   6    -0.04   0.04  -0.01     0.10   0.13   0.01     0.06  -0.03   0.00
     8   6     0.01  -0.05   0.06    -0.01   0.02   0.03     0.03   0.08   0.03
     9   1    -0.30  -0.33   0.05    -0.30  -0.60   0.13    -0.55   0.29  -0.08
    10   1     0.74   0.28  -0.09    -0.11  -0.43  -0.38    -0.30   0.11   0.32
    11   1     0.02   0.18   0.03    -0.11  -0.12   0.03    -0.14  -0.30   0.06
    12   1    -0.12  -0.18  -0.12    -0.11  -0.11  -0.14    -0.22  -0.15  -0.23
    13   1    -0.02   0.04  -0.12    -0.10  -0.20  -0.15    -0.09  -0.34  -0.12
    14   8    -0.01   0.00  -0.01     0.01  -0.02   0.01     0.00   0.01   0.00
    15   1     0.03  -0.13   0.05    -0.01   0.09  -0.05    -0.01   0.00   0.01
                     28                     29                     30
                      A                      A                      A
 Frequencies --   1433.0387              1487.6674              1499.2286
 Red. masses --      1.4059                 1.0382                 1.0525
 Frc consts  --      1.7011                 1.3537                 1.3938
 IR Inten    --     11.2912                 9.6143                 8.3937
  Atom  AN      X      Y      Z        X      Y      Z        X      Y      Z
     1   6     0.01   0.00   0.00     0.00   0.00   0.00     0.00   0.00   0.00
     2   1     0.01  -0.01   0.00     0.00   0.00   0.00     0.00   0.00   0.00
     3   6     0.00   0.00   0.00     0.00   0.00   0.00     0.00   0.00   0.00
     4   6    -0.06  -0.01   0.01     0.00   0.00   0.00    -0.01   0.00   0.00
     5   8     0.01   0.00   0.00     0.00   0.00   0.00     0.00   0.00   0.00
     6   8     0.03  -0.01  -0.02     0.00   0.00   0.00     0.00   0.00   0.00
     7   6     0.10   0.05   0.01     0.00   0.01  -0.02     0.04  -0.01  -0.01
     8   6    -0.10  -0.09  -0.02    -0.01   0.01  -0.04     0.03  -0.04  -0.01
     9   1    -0.53   0.03   0.00    -0.02  -0.07  -0.01    -0.14   0.03  -0.02
    10   1    -0.29  -0.03   0.12    -0.01   0.03  -0.02    -0.07  -0.03   0.06
    11   1     0.37   0.20  -0.02     0.48   0.11  -0.01    -0.32   0.58  -0.11
    12   1     0.40   0.11   0.06    -0.48  -0.05   0.14    -0.13   0.23   0.56
    13   1     0.07   0.44   0.18     0.08  -0.34   0.61    -0.09  -0.28  -0.21
    14   8     0.00   0.00   0.00     0.00   0.00   0.00     0.00   0.00   0.00
    15   1    -0.01   0.02  -0.01     0.00   0.00   0.00     0.00   0.01   0.00
                     31                     32                     33
                      A                      A                      A
 Frequencies --   1794.5697              1892.5339              2267.4968
 Red. masses --      3.4951                 1.5044                 5.7003
 Frc consts  --      6.6318                 3.1747                17.2679
 IR Inten    --    176.6773              1364.9395                81.9307
  Atom  AN      X      Y      Z        X      Y      Z        X      Y      Z
     1   6     0.04  -0.01  -0.01    -0.01   0.00   0.00    -0.35   0.09   0.10
     2   1     0.06   0.00  -0.01    -0.02   0.00   0.00    -0.71   0.19   0.20
     3   6    -0.02   0.00   0.00     0.01   0.00   0.00     0.49  -0.13  -0.14
     4   6    -0.12   0.31   0.16     0.01  -0.13  -0.06    -0.08   0.03   0.03
     5   8     0.06  -0.21  -0.11    -0.02   0.08   0.04     0.00  -0.01   0.00
     6   8     0.02  -0.02  -0.01     0.02   0.01   0.01     0.00   0.00   0.00
     7   6     0.00  -0.06   0.06     0.02  -0.08   0.06     0.00   0.00   0.00
     8   6     0.01   0.00   0.00     0.00   0.00   0.01     0.00   0.00   0.00
     9   1     0.10  -0.21   0.10     0.01  -0.19   0.07     0.00   0.00   0.00
    10   1    -0.35   0.52  -0.58    -0.42   0.62  -0.59     0.00   0.01   0.00
    11   1    -0.03   0.00   0.00    -0.01   0.01   0.01     0.00   0.00   0.00
    12   1    -0.01  -0.02   0.01     0.01  -0.01   0.01     0.00   0.00   0.00
    13   1     0.01   0.01  -0.02    -0.01  -0.02  -0.02     0.00   0.00   0.00
    14   8     0.00   0.04  -0.01     0.00   0.03  -0.01     0.00   0.00   0.00
    15   1     0.00  -0.03  -0.02    -0.01   0.01  -0.01     0.00  -0.01   0.00
                     34                     35                     36
                      A                      A                      A
 Frequencies --   3061.2026              3108.8604              3139.9533
 Red. masses --      1.0366                 1.0855                 1.1013
 Frc consts  --      5.7234                 6.1814                 6.3973
 IR Inten    --      7.2034                 6.5803                 8.1898
  Atom  AN      X      Y      Z        X      Y      Z        X      Y      Z
     1   6     0.00   0.00   0.00     0.00   0.00   0.00     0.00   0.00   0.00
     2   1     0.00   0.00   0.00     0.00   0.00   0.00     0.00   0.00   0.00
     3   6     0.00   0.00   0.00     0.00   0.00   0.00     0.00   0.00   0.00
     4   6     0.00   0.00   0.00     0.00   0.00   0.00     0.00   0.00   0.00
     5   8     0.00   0.00   0.00     0.00   0.00   0.00     0.00   0.00   0.00
     6   8     0.00   0.00   0.00     0.00   0.00   0.00     0.00   0.00   0.00
     7   6     0.00   0.00   0.00     0.00  -0.02  -0.08     0.00   0.00   0.02
     8   6    -0.02  -0.05  -0.01     0.00   0.00   0.02     0.04  -0.05   0.06
     9   1     0.00   0.00   0.01    -0.03   0.18   0.95     0.00  -0.03  -0.18
    10   1     0.00   0.01   0.00     0.00  -0.01  -0.01     0.00   0.01   0.00
    11   1    -0.04   0.06   0.53     0.02  -0.02  -0.19     0.05  -0.08  -0.56
    12   1    -0.19   0.59  -0.32    -0.03   0.10  -0.05    -0.18   0.59  -0.31
    13   1     0.45  -0.10  -0.11     0.03  -0.01  -0.01    -0.38   0.07   0.10
    14   8     0.00   0.00   0.00     0.00   0.00   0.00     0.00   0.00   0.00
    15   1     0.00   0.00   0.00     0.00   0.00   0.00     0.00   0.00   0.00
                     37                     38                     39
                      A                      A                      A
 Frequencies --   3157.7000              3474.4501              3741.7299
 Red. masses --      1.1024                 1.1731                 1.0668
 Frc consts  --      6.4761                 8.3439                 8.7997
 IR Inten    --      7.7819                63.6785                61.4743
  Atom  AN      X      Y      Z        X      Y      Z        X      Y      Z
     1   6     0.00   0.00   0.00    -0.11   0.03   0.03     0.00   0.00   0.00
     2   1     0.00   0.00   0.00     0.92  -0.25  -0.26     0.00   0.00   0.00
     3   6     0.00   0.00   0.00     0.03  -0.01  -0.01     0.00   0.00   0.00
     4   6     0.00   0.00   0.00     0.00   0.00   0.00     0.00   0.00   0.00
     5   8     0.00   0.00   0.00     0.00   0.00   0.00     0.00   0.00   0.00
     6   8     0.00   0.00   0.00     0.00   0.00   0.00     0.00   0.00   0.00
     7   6     0.00   0.00  -0.01     0.00   0.00   0.00     0.00   0.00   0.00
     8   6     0.07  -0.02  -0.06     0.00   0.00   0.00     0.00   0.00   0.00
     9   1     0.00   0.03   0.14     0.00   0.00   0.00     0.00   0.00   0.00
    10   1     0.00   0.00   0.00     0.00   0.00   0.00     0.01  -0.02   0.01
    11   1    -0.03   0.07   0.59     0.00   0.00   0.00     0.00   0.00   0.00
    12   1    -0.01   0.06  -0.05     0.00   0.00   0.00     0.00   0.00   0.00
    13   1    -0.75   0.16   0.17     0.00   0.00   0.00     0.00   0.00   0.00
    14   8     0.00   0.00   0.00     0.00   0.00   0.00     0.05   0.03   0.03
    15   1     0.00   0.00   0.00     0.00   0.00   0.00    -0.74  -0.41  -0.53

 -------------------
 - Thermochemistry -
 -------------------
 Temperature   298.150 Kelvin.  Pressure   1.00000 Atm.
 Atom     1 has atomic number  6 and mass  12.00000
 Atom     2 has atomic number  1 and mass   1.00783
 Atom     3 has atomic number  6 and mass  12.00000
 Atom     4 has atomic number  6 and mass  12.00000
 Atom     5 has atomic number  8 and mass  15.99491
 Atom     6 has atomic number  8 and mass  15.99491
 Atom     7 has atomic number  6 and mass  12.00000
 Atom     8 has atomic number  6 and mass  12.00000
 Atom     9 has atomic number  1 and mass   1.00783
 Atom    10 has atomic number  1 and mass   1.00783
 Atom    11 has atomic number  1 and mass   1.00783
 Atom    12 has atomic number  1 and mass   1.00783
 Atom    13 has atomic number  1 and mass   1.00783
 Atom    14 has atomic number  8 and mass  15.99491
 Atom    15 has atomic number  1 and mass   1.00783
 Molecular mass:   115.03952 amu.
 Principal axes and moments of inertia in atomic units:
                           1         2         3
     Eigenvalues --   600.497541487.781801898.18071
           X            0.99956   0.02824  -0.00912
           Y           -0.02821   0.99959   0.00382
           Z            0.00923  -0.00357   0.99995
 This molecule is an asymmetric top.
 Rotational symmetry number  1.
 Warning -- assumption of classical behavior for rotation
           may cause significant error
 Rotational temperatures (Kelvin)      0.14424     0.05822     0.04563
 Rotational constants (GHZ):           3.00541     1.21304     0.95077
    2 imaginary frequencies ignored.
 Zero-point vibrational energy     285210.6 (Joules/Mol)
                                   68.16696 (Kcal/Mol)
 Warning -- explicit consideration of  10 degrees of freedom as
           vibrations may cause significant error
 Vibrational temperatures:     87.91   160.48   185.50   197.36   336.58
          (Kelvin)            377.76   427.41   543.35   573.97   776.81
                              895.67   986.40  1064.18  1113.01  1131.39
                             1221.99  1315.86  1390.58  1576.78  1659.45
                             1667.19  1827.72  1873.09  1945.38  2022.65
                             2061.82  2140.42  2157.05  2581.98  2722.93
                             3262.42  4404.38  4472.95  4517.69  4543.22
                             4998.95  5383.51
 
 Zero-point correction=                           0.108631 (Hartree/Particle)
 Thermal correction to Energy=                    0.117391
 Thermal correction to Enthalpy=                  0.118336
 Thermal correction to Gibbs Free Energy=         0.073878
 Sum of electronic and zero-point Energies=           -419.3552546
 Sum of electronic and thermal Energies=              -420.087420
 Sum of electronic and thermal Enthalpies=            -420.086476
 Sum of electronic and thermal Free Energies=         -420.130934
 
                     E (Thermal)             CV                S
                      KCal/Mol        Cal/Mol-Kelvin    Cal/Mol-Kelvin
 Total                   73.664             30.100             93.569
 Electronic               0.000              0.000              1.377
 Translational            0.889              2.981             40.136
 Rotational               0.889              2.981             28.918
 Vibrational             71.887             24.138             23.138
 Vibration     1          0.597              1.973              4.421
 Vibration     2          0.607              1.940              3.242
 Vibration     3          0.611              1.924              2.962
 Vibration     4          0.614              1.916              2.843
 Vibration     5          0.654              1.789              1.849
 Vibration     6          0.670              1.741              1.645
 Vibration     7          0.691              1.679              1.433
 Vibration     8          0.748              1.518              1.049
 Vibration     9          0.765              1.472              0.967
 Vibration    10          0.895              1.162              0.565
                       Q            Log10(Q)             Ln(Q)
 Total Bot       0.104399D-33        -33.981302        -78.244840
 Total V=0       0.966866D+16         15.985366         36.807666
 Vib (Bot)       0.230888D-47        -47.636598       -109.687321
 Vib (Bot)    1  0.337922D+01          0.528817          1.217646
 Vib (Bot)    2  0.183563D+01          0.263785          0.607388
 Vib (Bot)    3  0.158165D+01          0.199110          0.458467
 Vib (Bot)    4  0.148343D+01          0.171268          0.394360
 Vib (Bot)    5  0.840469D+00         -0.075478         -0.173795
 Vib (Bot)    6  0.738829D+00         -0.131456         -0.302688
 Vib (Bot)    7  0.641235D+00         -0.192983         -0.444360
 Vib (Bot)    8  0.479551D+00         -0.319165         -0.734906
 Vib (Bot)    9  0.447138D+00         -0.349558         -0.804888
 Vib (Bot)   10  0.293471D+00         -0.532434         -1.225975
 Vib (V=0)       0.213831D+03          2.330070          5.365184
 Vib (V=0)    1  0.391601D+01          0.592844          1.365074
 Vib (V=0)    2  0.240251D+01          0.380665          0.876513
 Vib (V=0)    3  0.215880D+01          0.334212          0.769551
 Vib (V=0)    4  0.206543D+01          0.315011          0.725339
 Vib (V=0)    5  0.147795D+01          0.169660          0.390657
 Vib (V=0)    6  0.139211D+01          0.143675          0.330824
 Vib (V=0)    7  0.131313D+01          0.118308          0.272414
 Vib (V=0)    8  0.119280D+01          0.076567          0.176302
 Vib (V=0)    9  0.117077D+01          0.068472          0.157662
 Vib (V=0)   10  0.107976D+01          0.033329          0.076742
 Electronic      0.200000D+01          0.301030          0.693147
 Translational   0.484982D+08          7.685726         17.697038
 Rotational      0.466166D+06          5.668540         13.052297
 ***** Axes restored to original set *****
 -------------------------------------------------------------------
 Center     Atomic                   Forces (Hartrees/Bohr)
 Number     Number              X              Y              Z
 -------------------------------------------------------------------
      1        6           0.000032031    0.000027528   -0.000017268
      2        1          -0.000000417   -0.000005455   -0.000002452
      3        6           0.000074083    0.000150874    0.000040593
      4        6          -0.000356739   -0.000376476   -0.000162766
      5        8          -0.000439333    0.000083102   -0.000455173
      6        8           0.001237021   -0.000936516    0.000252046
      7        6          -0.000328197   -0.002485478    0.001688916
      8        6           0.000247871   -0.002380755    0.000623951
      9        1           0.000096105   -0.000573047    0.000169251
     10        1          -0.000128903   -0.000797262    0.000389715
     11        1           0.000002039   -0.000041610    0.000024250
     12        1          -0.000108359   -0.000267376   -0.000072769
     13        1           0.000023058   -0.000110047    0.000024567
     14        8          -0.000433638    0.007656014   -0.002434306
     15        1           0.000083378    0.000056503   -0.000068556
 -------------------------------------------------------------------
 Cartesian Forces:  Max     0.007656014 RMS     0.001370156

 GradGradGradGradGradGradGradGradGradGradGradGradGradGradGradGradGradGrad
 Berny optimization.
 Search for a local minimum.
 Step number   1 out of a maximum of    2
 All quantities printed in internal units (Hartrees-Bohrs-Radians)
 Second derivative matrix not updated -- analytic derivatives used.
 ITU=  0
     Eigenvalues ---   -0.04901  -0.00070   0.00059   0.00145   0.00254
     Eigenvalues ---    0.00449   0.00575   0.00866   0.01240   0.02087
     Eigenvalues ---    0.02319   0.02870   0.03957   0.05296   0.06279
     Eigenvalues ---    0.07390   0.08233   0.08981   0.09150   0.10870
     Eigenvalues ---    0.11188   0.12742   0.14684   0.17788   0.19600
     Eigenvalues ---    0.28093   0.29873   0.41383   0.48110   0.57292
     Eigenvalues ---    0.67176   0.72501   0.79110   0.80056   0.89015
     Eigenvalues ---    0.90392   0.93346   1.69090   2.73326
 Eigenvalue     1 is  -4.90D-02 should be greater than     0.000000 Eigenvector:
                          Y14       Y10       Z14       Y9        Y8
   1                    0.68291  -0.54146  -0.19079  -0.17859  -0.15463
                          Z10       Y12       Y15       Y13       Y6
   1                    0.15278  -0.14455   0.14202  -0.11029  -0.10367
 Eigenvalue     2 is  -7.01D-04 should be greater than     0.000000 Eigenvector:
                          Z14       X14       Z10       Y11       Z15
   1                    0.35841  -0.35746  -0.35011  -0.25493   0.24271
                          Z5        Y9        Z2        Z12       Z9
   1                   -0.23720   0.23692   0.22317   0.21546  -0.21352
 Angle between quadratic step and forces=  56.15 degrees.
 Linear search not attempted -- first point.
 TrRot= -0.002349  0.003353 -0.002872  1.229625  0.001771 -1.229560
 Variable       Old X    -DE/DX   Delta X   Delta X   Delta X     New X
                                 (Linear)    (Quad)   (Total)
    X1        6.19514   0.00003   0.00000   0.02262   0.01985   6.21499
    Y1       -0.98959   0.00003   0.00000  -0.02279  -0.02039  -1.00999
    Z1       -0.83352  -0.00002   0.00000   0.01796   0.01309  -0.82043
    X2        8.07209   0.00000   0.00000   0.02224   0.01920   8.09129
    Y2       -1.49469  -0.00001   0.00000  -0.03320  -0.03153  -1.52622
    Z2       -1.35535   0.00000   0.00000   0.02713   0.02202  -1.33333
    X3        4.08369   0.00007   0.00000   0.02266   0.02020   4.10389
    Y3       -0.42424   0.00015   0.00000  -0.01414  -0.01091  -0.43515
    Z3       -0.24622   0.00004   0.00000   0.01022   0.00565  -0.24057
    X4        1.55387  -0.00036   0.00000   0.01378   0.01169   1.56556
    Y4        0.34801  -0.00038   0.00000  -0.01726  -0.01301   0.33501
    Z4        0.49027  -0.00016   0.00000  -0.01014  -0.01449   0.47578
    X5        1.06724  -0.00044   0.00000  -0.00222  -0.00390   1.06334
    Y5        2.34714   0.00008   0.00000   0.00641   0.01215   2.35929
    Z5        1.45521  -0.00046   0.00000  -0.06101  -0.06844   1.38677
    X6       -0.13782   0.00124   0.00000   0.03274   0.03048  -0.10733
    Y6       -1.44138  -0.00094   0.00000  -0.03962  -0.03627  -1.47766
    Z6       -0.03575   0.00025   0.00000   0.03444   0.03410  -0.00165
    X7       -2.68487  -0.00033   0.00000   0.01493   0.01306  -2.67181
    Y7       -0.92281  -0.00249   0.00000  -0.01425  -0.00991  -0.93271
    Z7        0.68054   0.00169   0.00000   0.01609   0.01636   0.69690
    X8       -4.33460   0.00025   0.00000   0.01207   0.00982  -4.32478
    Y8       -3.07436  -0.00238   0.00000  -0.00715  -0.00436  -3.07872
    Z8       -0.16676   0.00062   0.00000  -0.00487  -0.00004  -0.16680
    X9       -2.77009   0.00010   0.00000   0.01733   0.01663  -2.75346
    Y9       -0.51854  -0.00057   0.00000  -0.03559  -0.02787  -0.54642
    Z9        2.70223   0.00017   0.00000   0.02052   0.02020   2.72243
   X10       -3.32298  -0.00013   0.00000   0.04500   0.04243  -3.28055
   Y10        0.85014  -0.00080   0.00000  -0.05973  -0.05707   0.79307
   Z10       -0.33484   0.00039   0.00000   0.04697   0.04473  -0.29011
   X11       -4.18492   0.00000   0.00000   0.00603   0.00258  -4.18234
   Y11       -3.33231  -0.00004   0.00000   0.03794   0.03732  -3.29499
   Z11       -2.20571   0.00002   0.00000  -0.01222  -0.00711  -2.21282
   X12       -3.78584  -0.00011   0.00000  -0.00205  -0.00365  -3.78949
   Y12       -4.82950  -0.00027   0.00000  -0.02042  -0.01609  -4.84558
   Z12        0.76917  -0.00007   0.00000  -0.03436  -0.02689   0.74228
   X13       -6.29705   0.00002   0.00000   0.01497   0.01297  -6.28408
   Y13       -2.65571  -0.00011   0.00000   0.01396   0.01741  -2.63830
   Z13        0.30439   0.00002   0.00000  -0.00474   0.00052   0.30491
   X14       -3.62389  -0.00043   0.00000  -0.11783  -0.12121  -3.74510
   Y14        3.38626   0.00766   0.00000   0.11980   0.12067   3.50692
   Z14       -1.33254  -0.00243   0.00000  -0.00828  -0.01478  -1.34732
   X15       -2.25832   0.00008   0.00000  -0.06733  -0.07017  -2.32849
   Y15        4.14452   0.00006   0.00000   0.03728   0.03986   4.18438
   Z15       -0.35724  -0.00007   0.00000  -0.01644  -0.02491  -0.38215
         Item               Value     Threshold  Converged?
 Maximum Force            0.007656     0.000450     NO 
 RMS     Force            0.001370     0.000300     NO 
 Maximum Displacement     0.121207     0.001800     NO 
 RMS     Displacement     0.036773     0.001200     NO 
 Predicted change in Energy=-1.724532D-03
 GradGradGradGradGradGradGradGradGradGradGradGradGradGradGradGradGradGrad

 1|1|UNPC-DIT|Freq|UM062X|6-311++G(d,p)|C5H7O3(2)|NDITM|27-Mar-2025|0||
 # freq 6-311++g(d,p) m062x||Title Card Required||0,2|C,3.278328,-0.523
 67,-0.441082|H,4.271565,-0.790955,-0.71722|C,2.160996,-0.224499,-0.130
 292|C,0.822274,0.18416,0.259442|O,0.564761,1.242051,0.770062|O,-0.0729
 29,-0.762746,-0.01892|C,-1.420772,-0.488328,0.360128|C,-2.293771,-1.62
 688,-0.088246|H,-1.46587,-0.274402,1.429961|H,-1.758447,0.449875,-0.17
 7189|H,-2.214566,-1.763384,-1.167213|H,-2.003382,-2.555659,0.407028|H,
 -3.332256,-1.405339,0.161078|O,-1.91768,1.791929,-0.705148|H,-1.195052
 ,2.193188,-0.189043||Version=IA32W-G09RevD.01|State=2-A|HF=-420.204811
 8|S2=0.756999|S2-1=0.|S2A=0.750029|RMSD=4.904e-009|RMSF=1.370e-003|Zer
 oPoint=0.108631|Thermal=0.1173913|Dipole=0.4664312,-0.9112163,0.162038
 |DipoleDeriv=-0.2338206,0.0147176,0.0097561,0.0138449,-0.1482395,-0.00
 60503,0.0188099,-0.0095618,-0.1366802,0.2774895,-0.0113317,-0.0126157,
 -0.0116934,0.2244333,0.0104652,-0.0169325,0.0101894,0.2119278,-0.66045
 24,0.1393418,0.1224633,0.1156042,-0.155404,-0.0480095,0.1495083,-0.040
 6025,-0.1399467,2.3388536,-0.0920258,-0.1464926,0.5192977,1.3745368,0.
 5660708,-0.0452822,0.4291202,0.6874969,-0.8409685,0.1822575,0.1357386,
 -0.033367,-0.932882,-0.3516735,0.0086025,-0.3045049,-0.5335887,-1.9070
 636,-0.0692874,-0.1570847,-0.5351767,-0.8095412,-0.1471029,-0.0190875,
 -0.1308495,-0.3446131,1.1751878,-0.324162,0.1639989,-0.1893092,1.09351
 55,-0.2872494,-0.0304064,-0.3020268,0.4103075,-0.066774,0.0519425,-0.0
 432203,-0.0417947,-0.1734539,0.0261945,-0.0351651,0.0979132,-0.0134911
 ,-0.0540787,-0.0153986,-0.0560828,0.0430112,-0.1029907,0.0280269,0.014
 12,0.0154888,-0.0785628,-0.0406436,0.177728,-0.0765154,0.3249538,-1.05
 86451,0.4324348,-0.1153653,0.5105099,-0.1198014,0.0834714,-0.0080064,0
 .0347144,-0.0269641,0.0656799,-0.0009808,-0.0033631,-0.0370658,-0.0640
 372,0.0667346,-0.0030538,-0.021202,0.0013967,-0.0825734,0.0585049,-0.0
 342017,0.0267803,0.0494081,-0.0687365,-0.0001702,0.031864,0.0307654,0.
 0552261,-0.0223036,0.0362428,-0.0214346,0.0765884,-0.37752,-0.0342201,
 0.0916591,-0.080683,0.2016397,-0.1944675,0.0958897,-0.2377222,-0.26641
 36,0.3083208,-0.0083314,-0.0769809,-0.1298858,0.4486985,-0.0638595,-0.
 0233695,-0.0062339,0.2614062|Polar=94.459747,-7.8267757,79.3664249,-4.
 5207232,-1.7158283,53.5493759|PG=C01 [X(C5H7O3)]|NImag=2||1.36771213,-
 0.35445349,0.15281751,-0.36666364,0.09813394,0.16257095,-0.36835790,0.
 09271184,0.09527281,0.35854046,0.09270778,-0.05244781,-0.02471883,-0.0
 9275993,0.04186445,0.09518358,-0.02465522,-0.05616453,-0.09565304,0.02
 528952,0.04458581,-0.99924199,0.25966903,0.27002845,0.00945631,-0.0016
 5952,-0.00090201,1.30822904,0.26118806,-0.10441510,-0.07379935,-0.0014
 0834,0.00547043,-0.00075270,-0.32218473,0.19124441,0.27061216,-0.07368
 472,-0.10914872,-0.00088346,-0.00061524,0.00743087,-0.34203598,0.10948
 496,0.16305912,0.00692676,0.00034954,-0.00071280,-0.00074529,0.0020107
 3,0.00195094,-0.24571678,0.05200332,0.05069694,0.64820234,0.00073506,0
 .00239916,0.00007838,0.00121804,0.00524650,-0.00055689,0.04231164,-0.0
 7301787,-0.00676944,-0.08312956,0.83275863,-0.00034448,0.00022221,0.00
 195662,0.00159991,-0.00070333,0.00553166,0.04571619,-0.00865168,-0.082
 92780,-0.10726323,0.28667384,0.35456972,-0.00350314,0.00035308,0.00075
 752,0.00009244,-0.00141352,-0.00077230,-0.01354552,0.04206671,0.023928
 56,-0.14818159,0.13605829,0.07026684,0.14450944,-0.00096614,0.00148957
 ,0.00065408,0.00005424,0.00031601,0.00060034,0.03511444,-0.02616571,-0
 .02668301,0.13187439,-0.58408116,-0.24296978,-0.13608027,0.69565279,0.
 00005899,0.00038097,0.00063492,-0.00014213,0.00080095,-0.00067502,0.02
 101090,-0.02687273,0.00580218,0.06828771,-0.24684281,-0.20035697,-0.07
 351961,0.31474368,0.18853086,-0.00425960,0.00154809,0.00142012,0.00130
 053,0.00092563,0.00011477,-0.06089547,-0.02875774,-0.00137397,-0.20008
 332,-0.08851459,-0.01715662,0.02235504,-0.04445458,-0.01585797,0.50564
 219,0.00152855,-0.00036547,-0.00068287,0.00008048,-0.00055089,-0.00007
 068,-0.00937378,0.00866569,0.00050011,-0.07461220,-0.19080140,-0.04207
 028,-0.03706066,-0.08442124,-0.04489853,0.09759583,0.35793206,0.001593
 76,-0.00066231,-0.00002994,-0.00022645,-0.00023990,-0.00048886,0.00720
 774,0.00364655,0.01181623,-0.01004255,-0.03757118,-0.08569938,-0.01422
 084,-0.04540406,0.01362810,-0.03564305,0.11304593,0.13999089,0.0014309
 0,-0.00033137,-0.00039705,-0.00048154,0.00007622,0.00007110,0.00448342
 ,-0.00121549,-0.00021744,-0.06472046,-0.03741759,-0.00591091,-0.000959
 90,0.02472576,0.00801231,-0.16736405,0.02984070,0.03488787,0.44343620,
 -0.00081495,0.00044968,0.00036685,0.00020390,0.00017514,0.00016403,-0.
 00538962,-0.00237941,-0.00279365,-0.01989372,0.02409896,0.01351155,-0.
 00123262,-0.01213331,0.00063086,0.02869639,-0.09585247,-0.02639964,0.0
 4334437,0.48372659,-0.00046804,0.00031460,0.00013016,-0.00000151,0.000
 18466,-0.00024135,-0.00121928,-0.00323231,0.00485659,-0.00636543,0.003
 72573,0.00439273,-0.00343914,0.00030140,-0.00662007,0.05396058,-0.0230
 6439,-0.08625217,0.01060530,0.04380941,0.58336841,-0.00041732,0.000177
 98,0.00012559,0.00008201,0.00006998,0.00001739,-0.00157529,-0.00122648
 ,-0.00020606,-0.00257765,0.00764458,0.00386374,0.00231845,-0.00306286,
 -0.00134785,-0.04415521,-0.03370648,-0.00859427,-0.11049901,-0.0597177
 5,-0.02175916,0.56046738,0.00026720,-0.00014197,-0.00011920,-0.0000452
 4,-0.00003176,0.00000680,0.00067534,0.00070561,0.00013620,0.00129280,-
 0.00506303,-0.00229374,-0.00183929,0.00261153,0.00053995,0.00815879,0.
 01016548,0.00357338,-0.07649211,-0.16794414,-0.04337488,-0.03419367,0.
 53549271,0.00012630,-0.00009637,-0.00002036,-0.00000822,-0.00000940,-0
 .00001512,0.00037833,0.00041419,0.00000738,0.00286508,-0.00092466,-0.0
 0067588,-0.00061411,-0.00041921,0.00130521,0.00786169,0.00973446,0.004
 48749,-0.02702436,-0.04534040,-0.09738977,-0.01906581,-0.01183695,0.57
 527088,-0.00014999,0.00000353,0.00003222,0.00007258,-0.00001869,0.0000
 5825,-0.00074247,0.00034326,-0.00107090,0.00345453,0.00781102,0.004848
 45,0.00076485,-0.00341368,-0.00153902,-0.02117604,0.00455850,0.0389714
 6,-0.04779314,-0.00220328,-0.00382970,0.00257776,-0.00132710,-0.019366
 47,0.06249445,0.00009122,-0.00000993,0.00003253,-0.00002913,-0.0000053
 3,0.00000469,0.00050022,-0.00000754,-0.00023056,-0.00325436,-0.0010951
 1,0.00056843,0.00064196,0.00099078,-0.00014471,0.00850384,-0.00064288,
 -0.00903841,-0.00473252,-0.04956409,-0.04641465,0.00087773,-0.00341338
 ,-0.02464172,-0.00161036,0.05593567,-0.00009067,0.00002079,0.00006480,
 -0.00000346,-0.00001892,0.00001080,0.00027193,0.00031113,-0.00034131,-
 0.00142743,-0.00368739,-0.00081927,-0.00139823,0.00096602,0.00120451,0
 .00932543,-0.00089373,-0.00383234,0.00725689,-0.05064335,-0.31063765,-
 0.00079579,0.00066945,-0.00403765,-0.01082661,0.05567104,0.33090549,-0
 .00010986,-0.00007404,0.00017231,0.00005429,0.00006350,-0.00008654,-0.
 00056726,-0.00048332,0.00048322,0.00389554,0.01033335,0.00305428,0.001
 52391,-0.00423359,-0.00160976,-0.03332260,0.02486140,-0.01129622,-0.04
 378498,0.02404321,-0.01663491,0.00388523,-0.01371595,0.00635359,0.0017
 3928,0.00142703,-0.00120015,0.06922094,0.00033247,0.00005716,-0.000105
 45,-0.00019182,-0.00006656,0.00001840,0.00196232,0.00047589,0.00022426
 ,-0.01402098,-0.01770861,-0.00670077,-0.00248591,0.01029224,0.00135917
 ,0.03588860,-0.00437174,0.00144542,0.00024174,-0.08098761,0.04027080,0
 .00769917,-0.03341003,0.01736902,0.00029349,-0.00725231,0.00021853,-0.
 01777854,0.07250362,-0.00003185,-0.00008143,0.00004051,0.00007482,0.00
 004427,0.00001755,-0.00064449,-0.00020463,-0.00059924,0.00447744,0.008
 42841,0.00398906,0.00239353,-0.00439914,-0.00071260,-0.00569660,-0.009
 62131,0.00472826,-0.01015738,0.04527767,-0.07424745,-0.00039669,-0.003
 08700,0.00095310,-0.00817534,0.02649876,-0.01492292,0.01708913,-0.0262
 9434,0.06821280,0.00002197,0.00001165,0.00001748,-0.00002137,-0.000006
 84,-0.00000677,0.00009731,0.00003316,0.00002613,-0.00032881,-0.0013121
 7,-0.00046240,-0.00044277,0.00061047,0.00041693,0.00254929,0.00136479,
 0.00008855,-0.00006561,-0.00287689,-0.02219520,-0.04847951,0.00310139,
 0.02209181,-0.00187010,-0.00326432,-0.00063036,0.00033691,0.00052798,0
 .00047978,0.04860714,-0.00001817,-0.00000208,0.00003423,0.00000399,0.0
 0000277,-0.00000360,-0.00000919,0.00004561,-0.00009353,0.00018948,-0.0
 0041962,-0.00016496,-0.00035287,-0.00004125,0.00033612,0.00166960,0.00
 131089,0.00140454,0.00286494,-0.00546196,-0.02964040,0.00189187,-0.051
 25527,-0.02945116,-0.00387216,-0.00314797,-0.00061995,0.00048755,0.001
 55278,-0.00082916,0.00007635,0.05513800,-0.00002390,0.00001840,0.00001
 960,-0.00000272,-0.00000556,-0.00000333,-0.00002591,0.00000703,-0.0000
 3486,-0.00015807,-0.00037324,-0.00004992,-0.00008824,0.00034140,0.0001
 8405,0.00024982,0.00059777,0.00096664,0.00074072,-0.00200818,-0.009904
 31,0.02020524,-0.03196748,-0.31501573,-0.00071508,-0.00116691,0.001243
 31,-0.00017160,0.00006848,0.00049442,-0.02145855,0.03706047,0.33938297
 ,0.00003306,0.00002268,-0.00000244,-0.00002041,-0.00001574,0.00000383,
 0.00010887,0.00007498,-0.00003297,-0.00053224,-0.00158435,-0.00064030,
 -0.00055326,0.00088458,0.00023818,0.00313677,0.00133876,0.00012330,0.0
 0320979,-0.01788041,0.00969612,-0.06585772,0.06200999,-0.03352942,0.00
 050897,0.00084965,0.00010062,-0.00113210,-0.00531000,0.00017701,-0.000
 21842,-0.00310517,0.00158038,0.06757381,-0.00004607,0.00004152,-0.0000
 0742,0.00000143,-0.00001275,0.00000354,-0.00000622,-0.00000762,0.00007
 902,-0.00023559,-0.00088629,-0.00050536,-0.00049575,0.00063893,0.00012
 478,0.00126906,0.00216291,-0.00024944,0.00657021,-0.02449402,0.0114028
 9,0.06147145,-0.23687980,0.10456523,0.00013372,0.00089854,-0.00026231,
 -0.00303927,-0.00283006,-0.00166582,-0.00166769,0.00456051,-0.00239347
 ,-0.06489827,0.26011622,0.00000027,-0.00000112,-0.00002622,0.00000498,
 0.00000173,0.00000492,0.00004185,0.00000438,0.00007309,0.00001635,-0.0
 0031896,-0.00018768,-0.00025483,0.00008099,-0.00012198,0.00091164,0.00
 073436,-0.00009843,0.00332161,-0.00945069,0.00503581,-0.03411730,0.104
 23738,-0.10490283,0.00078587,0.00015625,0.00050014,-0.00111704,-0.0034
 5873,0.00123542,-0.00933194,0.02748752,-0.01250546,0.03808203,-0.11279
 695,0.10851058,-0.00009535,0.00003053,0.00001974,0.00002873,0.00000506
 ,-0.00000225,-0.00030841,-0.00017516,0.00000492,0.00030535,0.00166565,
 0.00068035,0.00018642,-0.00071572,-0.00035849,-0.00274968,-0.00461030,
 -0.00173086,-0.01638704,0.00734860,0.00572620,-0.29571018,0.05202898,0
 .05960680,0.00038360,-0.00002550,-0.00051600,0.00019619,-0.00019894,0.
 00030804,-0.00018296,0.00006091,-0.00019808,-0.00634335,0.00067099,0.0
 0166292,0.32060979,-0.00014900,0.00008415,0.00006979,0.00001669,0.0000
 1260,-0.00000114,-0.00043679,-0.00039336,-0.00009469,-0.00094583,0.001
 87375,0.00074517,0.00043996,-0.00061189,-0.00022931,-0.00637734,-0.005
 26275,-0.00199816,-0.02167431,0.00725125,0.00838304,0.05524481,-0.0598
 4459,-0.01434273,0.00064832,0.00072008,-0.00041800,0.00003032,0.000862
 14,0.00042830,0.00327961,-0.00211697,-0.00000424,0.02582215,-0.0040193
 8,-0.00796064,-0.05614435,0.06153966,-0.00006192,0.00004507,-0.0000021
 5,0.00000496,0.00000090,0.00000763,-0.00016309,-0.00015348,-0.00001609
 ,-0.00044030,0.00036166,0.00067032,0.00013155,-0.00004719,-0.00021190,
 -0.00246319,-0.00237623,0.00032533,-0.00878693,0.00426275,0.00087683,0
 .06069804,-0.01387921,-0.06165957,0.00037676,0.00047575,-0.00014009,0.
 00027351,0.00005675,0.00026227,0.03096953,-0.00592866,-0.00485462,-0.0
 1525394,0.00175768,0.00286710,-0.06517549,0.01538621,0.06193698,-0.000
 14986,0.00012198,-0.00008251,0.00006857,-0.00006415,-0.00000897,-0.000
 14742,0.00018899,0.00074904,-0.00087184,-0.00657198,-0.00218288,-0.003
 50954,0.00570814,-0.00206599,0.00572610,0.00090688,-0.00014997,-0.0067
 8539,0.01145390,-0.00662915,0.00095880,-0.00119007,0.00123280,0.000017
 79,-0.00057787,-0.00007083,-0.00166049,-0.01356627,0.00349912,-0.00006
 591,0.00023526,0.00003337,-0.00029804,-0.00003189,-0.00018900,0.000153
 45,0.00039258,-0.00009638,0.28367308,-0.00000068,-0.00007067,0.0000854
 3,0.00003978,0.00003730,-0.00001055,-0.00063627,-0.00017712,-0.0003500
 3,0.00452926,0.00802984,0.00237583,0.00303946,-0.00445600,0.00108341,-
 0.01469043,0.00187434,-0.00059210,0.03383542,-0.07314873,0.03703985,-0
 .00288427,0.00847878,-0.00478065,-0.00101374,0.00585389,-0.00125934,-0
 .01473110,0.06330499,-0.02921258,0.00006819,-0.00028161,-0.00029063,0.
 00157065,0.00035684,0.00114445,-0.00002712,-0.00013627,0.00005043,0.14
 644961,0.08906826,-0.00006610,-0.00000185,0.00010734,-0.00003899,-0.00
 001574,-0.00005409,0.00005100,0.00044122,0.00036071,-0.00296222,-0.005
 58775,-0.00282815,-0.00266913,0.00449558,0.00056106,0.00644026,0.00041
 356,0.00106038,-0.01546869,0.03144211,-0.01599992,0.00177238,-0.003467
 50,0.00257168,0.00054153,-0.00263629,0.00136873,0.00400586,-0.03062613
 ,0.00972221,0.00004654,0.00057793,0.00014212,-0.00072522,-0.00015625,-
 0.00054402,-0.00000988,0.00011134,-0.00009502,0.20333105,0.10261124,0.
 15038749,0.00016018,-0.00014102,0.00001218,-0.00006941,0.00007949,0.00
 003202,0.00036567,-0.00044724,-0.00068019,0.00097345,0.01075262,0.0039
 3104,-0.00105483,-0.00604518,-0.00158419,-0.00670395,-0.00271249,-0.00
 096845,0.00628080,-0.00508113,0.00255330,-0.00101775,0.00126895,-0.000
 90802,-0.00028210,0.00060239,0.00000466,-0.00027500,0.00660669,-0.0033
 9653,0.00006285,-0.00012238,0.00003261,0.00038427,0.00030389,0.0001826
 1,-0.00008657,-0.00014682,-0.00001309,-0.27710929,-0.15554876,-0.19424
 840,0.27837168,-0.00040183,0.00011427,-0.00002213,0.00010407,-0.000010
 10,-0.00003654,-0.00053686,-0.00004393,0.00089030,0.00384271,-0.001333
 74,-0.00003712,-0.00163857,-0.00008130,-0.00101182,-0.00146116,0.00015
 747,-0.00096063,0.00036402,-0.00373588,0.00029424,-0.00028606,0.000529
 85,-0.00023965,-0.00033285,0.00073958,-0.00005396,-0.00719054,-0.00242
 191,-0.00528200,0.00005432,0.00011617,0.00011615,0.00022051,0.00035444
 ,0.00014002,0.00008636,0.00004160,-0.00001242,-0.14345510,-0.09873382,
 -0.09760148,0.15063099,0.10430730,0.00017554,0.00004704,-0.00013299,0.
 00000251,0.00000488,0.00005308,0.00028436,-0.00064257,-0.00033818,0.00
 107756,0.00336430,0.00243493,-0.00050156,-0.00226110,-0.00315234,-0.00
 209292,-0.00134818,-0.00060221,0.00306695,-0.00282933,0.00263216,-0.00
 039945,0.00086279,-0.00087884,-0.00009143,0.00086580,-0.00056654,0.000
 68433,0.00615458,0.00082662,-0.00005154,-0.00016940,-0.00006488,0.0001
 8282,0.00010386,0.00015956,-0.00001791,-0.00007495,0.00003299,-0.19736
 969,-0.10789476,-0.14676052,0.19505044,0.10381703,0.14635715||-0.00003
 203,-0.00002753,0.00001727,0.00000042,0.00000546,0.00000245,-0.0000740
 8,-0.00015087,-0.00004059,0.00035674,0.00037648,0.00016277,0.00043933,
 -0.00008310,0.00045517,-0.00123702,0.00093652,-0.00025205,0.00032820,0
 .00248548,-0.00168892,-0.00024787,0.00238075,-0.00062395,-0.00009610,0
 .00057305,-0.00016925,0.00012890,0.00079726,-0.00038971,-0.00000204,0.
 00004161,-0.00002425,0.00010836,0.00026738,0.00007277,-0.00002306,0.00
 011005,-0.00002457,0.00043364,-0.00765601,0.00243431,-0.00008338,-0.00
 005650,0.00006856|||@


 I DO NOT DEFINE TIME, SPACE, PLACE, AND MOTION, AS BEING WELL KNOWN TO ALL.
                                            -- NEWTON (1642-1726), PRINCIPIA
 Job cpu time:       0 days  0 hours 20 minutes 22.0 seconds.
 File lengths (MBytes):  RWF=    152 Int=      0 D2E=      0 Chk=      9 Scr=      1
 Normal termination of Gaussian 09 at Thu Mar 27 07:23:55 2025.
