 Entering Gaussian System, Link 0=g16
 Initial command:
 /opt/g16/l1.exe "/home/aayush/scratches/g16/Gau-5033.inp" -scrdir="/home/aayush/scratches/g16/"
 Entering Link 1 = /opt/g16/l1.exe PID=      5036.
  
 Copyright (c) 1988,1990,1992,1993,1995,1998,2003,2009,2016,
            Gaussian, Inc.  All Rights Reserved.
  
 This is part of the Gaussian(R) 16 program.  It is based on
 the Gaussian(R) 09 system (copyright 2009, Gaussian, Inc.),
 the Gaussian(R) 03 system (copyright 2003, Gaussian, Inc.),
 the Gaussian(R) 98 system (copyright 1998, Gaussian, Inc.),
 the Gaussian(R) 94 system (copyright 1995, Gaussian, Inc.),
 the Gaussian 92(TM) system (copyright 1992, Gaussian, Inc.),
 the Gaussian 90(TM) system (copyright 1990, Gaussian, Inc.),
 the Gaussian 88(TM) system (copyright 1988, Gaussian, Inc.),
 the Gaussian 86(TM) system (copyright 1986, Carnegie Mellon
 University), and the Gaussian 82(TM) system (copyright 1983,
 Carnegie Mellon University). Gaussian is a federally registered
 trademark of Gaussian, Inc.
  
 This software contains proprietary and confidential information,
 including trade secrets, belonging to Gaussian, Inc.
  
 This software is provided under written license and may be
 used, copied, transmitted, or stored only in accord with that
 written license.
  
 The following legend is applicable only to US Government
 contracts under FAR:
  
                    RESTRICTED RIGHTS LEGEND
  
 Use, reproduction and disclosure by the US Government is
 subject to restrictions as set forth in subparagraphs (a)
 and (c) of the Commercial Computer Software - Restricted
 Rights clause in FAR 52.227-19.
  
 Gaussian, Inc.
 340 Quinnipiac St., Bldg. 40, Wallingford CT 06492
  
  
 ---------------------------------------------------------------
 Warning -- This program may not be used in any manner that
 competes with the business of Gaussian, Inc. or will provide
 assistance to any competitor of Gaussian, Inc.  The licensee
 of this program is prohibited from giving any competitor of
 Gaussian, Inc. access to this program.  By using this program,
 the user acknowledges that Gaussian, Inc. is engaged in the
 business of creating and licensing software in the field of
 computational chemistry and represents and warrants to the
 licensee that it is not a competitor of Gaussian, Inc. and that
 it will not use this program in any manner prohibited above.
 ---------------------------------------------------------------
  

 Cite this work as:
 Gaussian 16, Revision A.03,
 M. J. Frisch, G. W. Trucks, H. B. Schlegel, G. E. Scuseria, 
 M. A. Robb, J. R. Cheeseman, G. Scalmani, V. Barone, 
 G. A. Petersson, H. Nakatsuji, X. Li, M. Caricato, A. V. Marenich, 
 J. Bloino, B. G. Janesko, R. Gomperts, B. Mennucci, H. P. Hratchian, 
 J. V. Ortiz, A. F. Izmaylov, J. L. Sonnenberg, D. Williams-Young, 
 F. Ding, F. Lipparini, F. Egidi, J. Goings, B. Peng, A. Petrone, 
 T. Henderson, D. Ranasinghe, V. G. Zakrzewski, J. Gao, N. Rega, 
 G. Zheng, W. Liang, M. Hada, M. Ehara, K. Toyota, R. Fukuda, 
 J. Hasegawa, M. Ishida, T. Nakajima, Y. Honda, O. Kitao, H. Nakai, 
 T. Vreven, K. Throssell, J. A. Montgomery, Jr., J. E. Peralta, 
 F. Ogliaro, M. J. Bearpark, J. J. Heyd, E. N. Brothers, K. N. Kudin, 
 V. N. Staroverov, T. A. Keith, R. Kobayashi, J. Normand, 
 K. Raghavachari, A. P. Rendell, J. C. Burant, S. S. Iyengar, 
 J. Tomasi, M. Cossi, J. M. Millam, M. Klene, C. Adamo, R. Cammi, 
 J. W. Ochterski, R. L. Martin, K. Morokuma, O. Farkas, 
 J. B. Foresman, and D. J. Fox, Gaussian, Inc., Wallingford CT, 2016.
 
 ******************************************
 Gaussian 16:  ES64L-G16RevA.03 25-Dec-2016
                17-Apr-2025 
 ******************************************
 %chk=ethyl_propiolate.chk
 %nprocshared=24
 Will use up to   24 processors via shared memory.
 %mem=12GB
 --------------------------
 # ccsd(t)/6-311++g(d,p) sp
 --------------------------
 1/38=1,172=1/1;
 2/12=2,17=6,18=5,40=1/2;
 3/5=4,6=6,7=1111,11=9,25=1,30=1/1,2,3;
 4//1;
 5/5=2,38=5/2;
 8/6=4,9=120000,10=2/1,4;
 9/5=7,14=2/13;
 6/7=2,8=2,9=2,10=2/1;
 99/5=1,9=1/99;
 -------------------
 Title Card Required
 -------------------
 Symbolic Z-matrix:
 Charge =  0 Multiplicity = 2
 C                     3.27814  -0.52374  -0.44103 
 H                     4.27162  -0.79059  -0.71713 
 C                     2.16058  -0.22508  -0.13047 
 C                     0.82477   0.18682   0.26049 
 O                     0.56591   1.24133   0.77121 
 O                    -0.07881  -0.7601   -0.01972 
 C                    -1.41637  -0.48504   0.35573 
 C                    -2.29495  -1.61788  -0.09111 
 H                    -1.47301  -0.22988   1.41563 
 H                    -1.77018   0.604    -0.2359 
 H                    -2.21441  -1.76345  -1.16863 
 H                    -1.99597  -2.54272   0.41089 
 H                    -3.33328  -1.40163   0.16064 
 O                    -1.91545   1.76598  -0.69621 
 H                    -1.20428   2.19083  -0.19075 
 
                          Input orientation:                          
 ---------------------------------------------------------------------
 Center     Atomic      Atomic             Coordinates (Angstroms)
 Number     Number       Type             X           Y           Z
 ---------------------------------------------------------------------
      1          6           0        3.278137   -0.523737   -0.441032
      2          1           0        4.271623   -0.790594   -0.717126
      3          6           0        2.160579   -0.225082   -0.130471
      4          6           0        0.824771    0.186822    0.260489
      5          8           0        0.565914    1.241328    0.771213
      6          8           0       -0.078806   -0.760104   -0.019718
      7          6           0       -1.416369   -0.485039    0.355734
      8          6           0       -2.294952   -1.617882   -0.091110
      9          1           0       -1.473007   -0.229881    1.415633
     10          1           0       -1.770178    0.603997   -0.235903
     11          1           0       -2.214405   -1.763445   -1.168632
     12          1           0       -1.995969   -2.542720    0.410890
     13          1           0       -3.333282   -1.401632    0.160637
     14          8           0       -1.915445    1.765975   -0.696209
     15          1           0       -1.204277    2.190826   -0.190749
 ---------------------------------------------------------------------
                    Distance matrix (angstroms):
                    1          2          3          4          5
     1  C    0.000000
     2  H    1.065108   0.000000
     3  C    1.197739   2.262847   0.000000
     4  C    2.648779   3.713740   1.451516   0.000000
     5  O    3.455596   4.480640   2.346561   1.199929   0.000000
     6  O    3.391525   4.406080   2.305073   1.338520   2.246545
     7  C    4.761798   5.796348   3.619189   2.341619   2.661280
     8  C    5.690248   6.648023   4.668319   3.621222   4.135606
     9  H    5.109494   6.153360   3.948849   2.605337   2.595560
    10  H    5.176808   6.219310   4.018624   2.674734   2.622556
    11  H    5.677525   6.574105   4.752349   3.883622   4.530103
    12  H    5.711240   6.604928   4.789719   3.928052   4.583895
    13  H    6.696534   7.679741   5.625969   4.452254   4.749923
    14  O    5.681654   6.694497   4.571470   3.304206   2.930141
    15  H    5.246287   6.257109   4.142765   2.887332   2.227217
                    6          7          8          9         10
     6  O    0.000000
     7  C    1.416227   0.000000
     8  C    2.377432   1.501636   0.000000
     9  H    2.070064   1.091650   2.207355   0.000000
    10  H    2.183632   1.288881   2.287597   1.873829   0.000000
    11  H    2.624401   2.143566   1.090289   3.095144   2.583041
    12  H    2.653047   2.138464   1.093947   2.575310   3.220427
    13  H    3.322002   2.133720   1.090078   2.531529   2.573536
    14  O    3.195615   2.534310   3.458419   2.939229   1.258244
    15  H    3.162898   2.739321   3.963049   2.917619   1.685322
                   11         12         13         14         15
    11  H    0.000000
    12  H    1.774788   0.000000
    13  H    1.774754   1.775701   0.000000
    14  O    3.573425   4.449383   3.574658   0.000000
    15  H    4.196769   4.836859   4.190691   0.970437   0.000000
 Stoichiometry    C5H7O3(2)
 Framework group  C1[X(C5H7O3)]
 Deg. of freedom    39
 Full point group                 C1      NOp   1
 Largest Abelian subgroup         C1      NOp   1
 Largest concise Abelian subgroup C1      NOp   1
                         Standard orientation:                         
 ---------------------------------------------------------------------
 Center     Atomic      Atomic             Coordinates (Angstroms)
 Number     Number       Type             X           Y           Z
 ---------------------------------------------------------------------
      1          6           0        3.341131   -0.490870   -0.438304
      2          1           0        4.334692   -0.757696   -0.714157
      3          6           0        2.223489   -0.192249   -0.128011
      4          6           0        0.887557    0.219649    0.262531
      5          8           0        0.628266    1.274929    0.771434
      6          8           0       -0.015587   -0.728250   -0.015770
      7          6           0       -1.353206   -0.453219    0.359508
      8          6           0       -2.231298   -1.587320   -0.085104
      9          1           0       -1.409727   -0.196200    1.418964
     10          1           0       -1.707729    0.634573   -0.233987
     11          1           0       -2.150930   -1.734764   -1.162384
     12          1           0       -1.931709   -2.511103    0.418474
     13          1           0       -3.269682   -1.371168    0.166503
     14          8           0       -1.853716    1.795651   -0.696332
     15          1           0       -1.142652    2.221777   -0.191800
 ---------------------------------------------------------------------
 Rotational constants (GHZ):           3.0430866           1.2139955           0.9543775
 Standard basis: 6-311++G(d,p) (5D, 7F)
 There are   233 symmetry adapted cartesian basis functions of A   symmetry.
 There are   225 symmetry adapted basis functions of A   symmetry.
   225 basis functions,   351 primitive gaussians,   233 cartesian basis functions
    31 alpha electrons       30 beta electrons
       nuclear repulsion energy       351.9847030776 Hartrees.
 NAtoms=   15 NActive=   15 NUniq=   15 SFac= 1.00D+00 NAtFMM=   60 NAOKFM=F Big=F
 Integral buffers will be    131072 words long.
 Raffenetti 2 integral format.
 Two-electron integral symmetry is turned on.
 One-electron integrals computed using PRISM.
 NBasis=   225 RedAO= T EigKep=  5.78D-06  NBF=   225
 NBsUse=   224 1.00D-06 EigRej=  7.19D-07 NBFU=   224
 ExpMin= 3.60D-02 ExpMax= 8.59D+03 ExpMxC= 1.30D+03 IAcc=3 IRadAn=         5 AccDes= 0.00D+00
 Harris functional with IExCor=  205 and IRadAn=       5 diagonalized for initial guess.
 HarFok:  IExCor=  205 AccDes= 0.00D+00 IRadAn=         5 IDoV= 1 UseB2=F ITyADJ=14
 ICtDFT=  3500011 ScaDFX=  1.000000  1.000000  1.000000  1.000000
 FoFCou: FMM=F IPFlag=           0 FMFlag=      100000 FMFlg1=           0
         NFxFlg=           0 DoJE=T BraDBF=F KetDBF=T FulRan=T
         wScrn=  0.000000 ICntrl=       500 IOpCl=  0 I1Cent=   200000004 NGrid=           0
         NMat0=    1 NMatS0=      1 NMatT0=    0 NMatD0=    1 NMtDS0=    0 NMtDT0=    0
 Petite list used in FoFCou.
 Initial guess <Sx>= 0.0000 <Sy>= 0.0000 <Sz>= 0.5000 <S**2>= 0.7500 S= 0.5000
 Requested convergence on RMS density matrix=1.00D-08 within 128 cycles.
 Requested convergence on MAX density matrix=1.00D-06.
 Requested convergence on             energy=1.00D-06.
 No special actions if energy rises.
 Initial convergence to 1.0D-05 achieved.  Increase integral accuracy.
 SCF Done:  E(UHF) =  -417.964105758     A.U. after   30 cycles
            NFock= 30  Conv=0.62D-08     -V/T= 2.0009
 <Sx>= 0.0000 <Sy>= 0.0000 <Sz>= 0.5000 <S**2>= 0.7975 S= 0.5235
 <L.S>=  0.00000000000    
 Annihilation of the first spin contaminant:
 S**2 before annihilation     0.7975,   after     0.7506
 ExpMin= 3.60D-02 ExpMax= 8.59D+03 ExpMxC= 1.30D+03 IAcc=3 IRadAn=         5 AccDes= 0.00D+00
 HarFok:  IExCor=  205 AccDes= 0.00D+00 IRadAn=         5 IDoV=-2 UseB2=F ITyADJ=14
 ICtDFT= 12500011 ScaDFX=  1.000000  1.000000  1.000000  1.000000
 Range of M.O.s used for correlation:     9   224
 NBasis=   225 NAE=    31 NBE=    30 NFC=     8 NFV=     0
 NROrb=    216 NOA=    23 NOB=    22 NVA=   193 NVB=   194

 **** Warning!!: The largest alpha MO coefficient is  0.16349922D+03


 **** Warning!!: The largest beta MO coefficient is  0.16873855D+03

 Semi-Direct transformation.
 ModeAB=           4 MOrb=            23 LenV=    1609186548
 LASXX=    107793295 LTotXX=   107793295 LenRXX=   218294035
 LTotAB=   110500740 MaxLAS=   126877752 LenRXY=           0
 NonZer=   326087330 LenScr=   491049984 LnRSAI=   126877752
 LnScr1=   191087104 LExtra=           0 Total=   1027308875
 MaxDsk=          -1 SrtSym=           T ITran=            4
 JobTyp=1 Pass  1:  I=   1 to  23.
 (rs|ai) integrals will be sorted in core.
 ModeAB=           4 MOrb=            22 LenV=    1609186548
 LASXX=    103454307 LTotXX=   103454307 LenRXX=   188091948
 LTotAB=    84637641 MaxLAS=   121361328 LenRXY=           0
 NonZer=   291546255 LenScr=   439034880 LnRSAI=   121361328
 LnScr1=   182784000 LExtra=           0 Total=    931272156
 MaxDsk=          -1 SrtSym=           T ITran=            4
 JobTyp=2 Pass  1:  I=   1 to  22.
 (rs|ai) integrals will be sorted in core.
 SymMOI:  orbitals are not symmetric.
 Spin components of T(2) and E(2):
     alpha-alpha T2 =       0.5347789171D-01 E2=     -0.1725675772D+00
     alpha-beta  T2 =       0.2951090623D+00 E2=     -0.9519957791D+00
     beta-beta   T2 =       0.5364963983D-01 E2=     -0.1635745694D+00
 ANorm=    0.1184160713D+01
 E2 =    -0.1288137926D+01 EUMP2 =    -0.41925224368338D+03
 (S**2,0)=  0.79753D+00           (S**2,1)=  0.76778D+00
 E(PUHF)=      -0.41797440971D+03        E(PMP2)=      -0.41925934792D+03
 Keep R2 and R3 ints in memory in canonical form, NReq=652883968.
 CIDS: In Core Option IDoMem=           1.
 Iterations=  50 Convergence= 0.100D-06
 Produce multiple copies of IABC intergrals
 Iteration Nr.   1
 **********************
 DD1Dir will call FoFMem   1 times, MxPair=      1496
 NAB=   506 NAA=   253 NBB=   231.
 E(PMP3)=      -0.41927667761D+03
 MP4(R+Q)=  0.26113764D-01
 E3=       -0.20351393D-01        EUMP3=      -0.41927259508D+03
 E4(DQ)=   -0.57775675D-02        UMP4(DQ)=   -0.41927837264D+03
 E4(SDQ)=  -0.26820050D-01        UMP4(SDQ)=  -0.41929941513D+03
 DE(Corr)=  -1.2817749     E(Corr)=     -419.24588061    
 NORM(A)=   0.11890386D+01
 Iteration Nr.   2
 **********************
 DD1Dir will call FoFMem   1 times, MxPair=      1496
 NAB=   506 NAA=   253 NBB=   231.
 DE(Corr)=  -1.3264193     E(CORR)=     -419.29052506     Delta=-4.46D-02
 NORM(A)=   0.12083857D+01
 Iteration Nr.   3
 **********************
 DD1Dir will call FoFMem   1 times, MxPair=      1496
 NAB=   506 NAA=   253 NBB=   231.
 DE(Corr)=  -1.3281795     E(CORR)=     -419.29228530     Delta=-1.76D-03
 NORM(A)=   0.12159025D+01
 Iteration Nr.   4
 **********************
 DD1Dir will call FoFMem   1 times, MxPair=      1496
 NAB=   506 NAA=   253 NBB=   231.
 DE(Corr)=  -1.3337423     E(CORR)=     -419.29784809     Delta=-5.56D-03
 NORM(A)=   0.12190781D+01
 Iteration Nr.   5
 **********************
 DD1Dir will call FoFMem   1 times, MxPair=      1496
 NAB=   506 NAA=   253 NBB=   231.
 DE(Corr)=  -1.3347543     E(CORR)=     -419.29886005     Delta=-1.01D-03
 NORM(A)=   0.12208242D+01
 Iteration Nr.   6
 **********************
 DD1Dir will call FoFMem   1 times, MxPair=      1496
 NAB=   506 NAA=   253 NBB=   231.
 DE(Corr)=  -1.3350331     E(CORR)=     -419.29913883     Delta=-2.79D-04
 NORM(A)=   0.12212472D+01
 Iteration Nr.   7
 **********************
 DD1Dir will call FoFMem   1 times, MxPair=      1496
 NAB=   506 NAA=   253 NBB=   231.
 DE(Corr)=  -1.3350973     E(CORR)=     -419.29920306     Delta=-6.42D-05
 NORM(A)=   0.12214087D+01
 Iteration Nr.   8
 **********************
 DD1Dir will call FoFMem   1 times, MxPair=      1496
 NAB=   506 NAA=   253 NBB=   231.
 DE(Corr)=  -1.3350816     E(CORR)=     -419.29918739     Delta= 1.57D-05
 NORM(A)=   0.12214768D+01
 Iteration Nr.   9
 **********************
 DD1Dir will call FoFMem   1 times, MxPair=      1496
 NAB=   506 NAA=   253 NBB=   231.
 DE(Corr)=  -1.3351008     E(CORR)=     -419.29920654     Delta=-1.91D-05
 NORM(A)=   0.12214917D+01
 Iteration Nr.  10
 **********************
 DD1Dir will call FoFMem   1 times, MxPair=      1496
 NAB=   506 NAA=   253 NBB=   231.
 DE(Corr)=  -1.3351022     E(CORR)=     -419.29920799     Delta=-1.45D-06
 NORM(A)=   0.12215068D+01
 Iteration Nr.  11
 **********************
 DD1Dir will call FoFMem   1 times, MxPair=      1496
 NAB=   506 NAA=   253 NBB=   231.
 DE(Corr)=  -1.3351128     E(CORR)=     -419.29921858     Delta=-1.06D-05
 NORM(A)=   0.12215163D+01
 Iteration Nr.  12
 **********************
 DD1Dir will call FoFMem   1 times, MxPair=      1496
 NAB=   506 NAA=   253 NBB=   231.
 DE(Corr)=  -1.3351148     E(CORR)=     -419.29922059     Delta=-2.01D-06
 NORM(A)=   0.12215239D+01
 Iteration Nr.  13
 **********************
 DD1Dir will call FoFMem   1 times, MxPair=      1496
 NAB=   506 NAA=   253 NBB=   231.
 DE(Corr)=  -1.3351176     E(CORR)=     -419.29922333     Delta=-2.74D-06
 NORM(A)=   0.12215282D+01
 Iteration Nr.  14
 **********************
 DD1Dir will call FoFMem   1 times, MxPair=      1496
 NAB=   506 NAA=   253 NBB=   231.
 DE(Corr)=  -1.3351186     E(CORR)=     -419.29922431     Delta=-9.84D-07
 NORM(A)=   0.12215314D+01
 Iteration Nr.  15
 **********************
 DD1Dir will call FoFMem   1 times, MxPair=      1496
 NAB=   506 NAA=   253 NBB=   231.
 DE(Corr)=  -1.3351188     E(CORR)=     -419.29922455     Delta=-2.35D-07
 NORM(A)=   0.12215341D+01
 Iteration Nr.  16
 **********************
 DD1Dir will call FoFMem   1 times, MxPair=      1496
 NAB=   506 NAA=   253 NBB=   231.
 DE(Corr)=  -1.3351194     E(CORR)=     -419.29922519     Delta=-6.38D-07
 NORM(A)=   0.12215356D+01
 Iteration Nr.  17
 **********************
 DD1Dir will call FoFMem   1 times, MxPair=      1496
 NAB=   506 NAA=   253 NBB=   231.
 DE(Corr)=  -1.3351194     E(CORR)=     -419.29922516     Delta= 2.27D-08
 NORM(A)=   0.12215363D+01
 Wavefunction amplitudes converged. E(Corr)=     -419.29922516    
 Largest amplitude= 6.14D-02
 Time for triples=    38361.43 seconds.
 T4(CCSD)= -0.59411370D-01
 T5(CCSD)=  0.39103822D-02
 CCSD(T)= -0.41935472615D+03

 S**2, projected HF & approx projected MPn energies after annihilation of
 unwanted spin states (see manual for definitions):

 spins       (S**2,0) (S**2,1)    PUHF        PMP2        PMP3        PMP4
 annihilated
 s+1         0.74963  0.75014 -417.974410 -419.259348 -419.276678
 s+1,s+2     0.75000  0.75000 -417.974331 -419.259280 -419.276619
 s+1 to s+3  0.75000  0.75000 -417.974331 -419.259280 -419.276619
 s+1 to s+4  0.75000  0.75000 -417.974331 -419.259279 -419.276618
 s+1 to s+5  0.75000  0.75000 -417.974331
 s+1 to s+6  0.75000  0.75000 -417.974331

 Discarding MO integrals.

 **********************************************************************

            Population analysis using the SCF density.

 **********************************************************************

 Orbital symmetries:
 Alpha Orbitals:
       Occupied  (A) (A) (A) (A) (A) (A) (A) (A) (A) (A) (A) (A)
                 (A) (A) (A) (A) (A) (A) (A) (A) (A) (A) (A) (A)
                 (A) (A) (A) (A) (A) (A) (A)
       Virtual   (A) (A) (A) (A) (A) (A) (A) (A) (A) (A) (A) (A)
                 (A) (A) (A) (A) (A) (A) (A) (A) (A) (A) (A) (A)
                 (A) (A) (A) (A) (A) (A) (A) (A) (A) (A) (A) (A)
                 (A) (A) (A) (A) (A) (A) (A) (A) (A) (A) (A) (A)
                 (A) (A) (A) (A) (A) (A) (A) (A) (A) (A) (A) (A)
                 (A) (A) (A) (A) (A) (A) (A) (A) (A) (A) (A) (A)
                 (A) (A) (A) (A) (A) (A) (A) (A) (A) (A) (A) (A)
                 (A) (A) (A) (A) (A) (A) (A) (A) (A) (A) (A) (A)
                 (A) (A) (A) (A) (A) (A) (A) (A) (A) (A) (A) (A)
                 (A) (A) (A) (A) (A) (A) (A) (A) (A) (A) (A) (A)
                 (A) (A) (A) (A) (A) (A) (A) (A) (A) (A) (A) (A)
                 (A) (A) (A) (A) (A) (A) (A) (A) (A) (A) (A) (A)
                 (A) (A) (A) (A) (A) (A) (A) (A) (A) (A) (A) (A)
                 (A) (A) (A) (A) (A) (A) (A) (A) (A) (A) (A) (A)
                 (A) (A) (A) (A) (A) (A) (A) (A) (A) (A) (A) (A)
                 (A) (A) (A) (A) (A) (A) (A) (A) (A) (A) (A) (A)
                 (A)
 Beta  Orbitals:
       Occupied  (A) (A) (A) (A) (A) (A) (A) (A) (A) (A) (A) (A)
                 (A) (A) (A) (A) (A) (A) (A) (A) (A) (A) (A) (A)
                 (A) (A) (A) (A) (A) (A)
       Virtual   (A) (A) (A) (A) (A) (A) (A) (A) (A) (A) (A) (A)
                 (A) (A) (A) (A) (A) (A) (A) (A) (A) (A) (A) (A)
                 (A) (A) (A) (A) (A) (A) (A) (A) (A) (A) (A) (A)
                 (A) (A) (A) (A) (A) (A) (A) (A) (A) (A) (A) (A)
                 (A) (A) (A) (A) (A) (A) (A) (A) (A) (A) (A) (A)
                 (A) (A) (A) (A) (A) (A) (A) (A) (A) (A) (A) (A)
                 (A) (A) (A) (A) (A) (A) (A) (A) (A) (A) (A) (A)
                 (A) (A) (A) (A) (A) (A) (A) (A) (A) (A) (A) (A)
                 (A) (A) (A) (A) (A) (A) (A) (A) (A) (A) (A) (A)
                 (A) (A) (A) (A) (A) (A) (A) (A) (A) (A) (A) (A)
                 (A) (A) (A) (A) (A) (A) (A) (A) (A) (A) (A) (A)
                 (A) (A) (A) (A) (A) (A) (A) (A) (A) (A) (A) (A)
                 (A) (A) (A) (A) (A) (A) (A) (A) (A) (A) (A) (A)
                 (A) (A) (A) (A) (A) (A) (A) (A) (A) (A) (A) (A)
                 (A) (A) (A) (A) (A) (A) (A) (A) (A) (A) (A) (A)
                 (A) (A) (A) (A) (A) (A) (A) (A) (A) (A) (A) (A)
                 (A) (A)
 The electronic state is 2-A.
 Alpha  occ. eigenvalues --  -20.63442 -20.60001 -20.57988 -11.43421 -11.32518
 Alpha  occ. eigenvalues --  -11.27826 -11.26978 -11.23809  -1.50489  -1.40303
 Alpha  occ. eigenvalues --   -1.36663  -1.09450  -1.05708  -0.93545  -0.85012
 Alpha  occ. eigenvalues --   -0.79402  -0.73935  -0.73175  -0.71391  -0.67535
 Alpha  occ. eigenvalues --   -0.63021  -0.61074  -0.59891  -0.57233  -0.54069
 Alpha  occ. eigenvalues --   -0.53085  -0.51738  -0.50127  -0.43981  -0.43691
 Alpha  occ. eigenvalues --   -0.41783
 Alpha virt. eigenvalues --    0.03522   0.04382   0.06135   0.06962   0.07339
 Alpha virt. eigenvalues --    0.07780   0.09232   0.10037   0.11009   0.11546
 Alpha virt. eigenvalues --    0.11961   0.13756   0.14954   0.15292   0.16209
 Alpha virt. eigenvalues --    0.16645   0.17590   0.18322   0.18832   0.19528
 Alpha virt. eigenvalues --    0.20267   0.21431   0.21968   0.23013   0.24231
 Alpha virt. eigenvalues --    0.25174   0.25631   0.27554   0.28945   0.29480
 Alpha virt. eigenvalues --    0.30307   0.30552   0.31984   0.34293   0.35114
 Alpha virt. eigenvalues --    0.36286   0.36721   0.38051   0.38178   0.39636
 Alpha virt. eigenvalues --    0.40455   0.40750   0.40911   0.42539   0.44271
 Alpha virt. eigenvalues --    0.45174   0.46657   0.48372   0.49284   0.51328
 Alpha virt. eigenvalues --    0.54930   0.56551   0.57708   0.59592   0.62361
 Alpha virt. eigenvalues --    0.65762   0.68548   0.69937   0.70814   0.73985
 Alpha virt. eigenvalues --    0.75246   0.80101   0.80683   0.82182   0.84242
 Alpha virt. eigenvalues --    0.84944   0.85566   0.85726   0.87380   0.88488
 Alpha virt. eigenvalues --    0.90357   0.94047   0.96379   0.97821   1.00778
 Alpha virt. eigenvalues --    1.05950   1.08170   1.10139   1.20968   1.23878
 Alpha virt. eigenvalues --    1.25768   1.27326   1.28960   1.29351   1.31672
 Alpha virt. eigenvalues --    1.33067   1.35744   1.37033   1.38691   1.40181
 Alpha virt. eigenvalues --    1.41877   1.43036   1.47550   1.49848   1.50974
 Alpha virt. eigenvalues --    1.53340   1.55387   1.58423   1.64585   1.65861
 Alpha virt. eigenvalues --    1.68336   1.70912   1.72036   1.76767   1.79767
 Alpha virt. eigenvalues --    1.81458   1.83311   1.84203   1.86217   1.88085
 Alpha virt. eigenvalues --    1.89619   1.90794   1.92875   1.96107   1.99511
 Alpha virt. eigenvalues --    2.01675   2.08751   2.09000   2.11587   2.15728
 Alpha virt. eigenvalues --    2.19989   2.23536   2.27351   2.34009   2.36844
 Alpha virt. eigenvalues --    2.38850   2.41894   2.44581   2.51270   2.58373
 Alpha virt. eigenvalues --    2.69799   2.72839   2.80105   2.82260   2.84974
 Alpha virt. eigenvalues --    2.87891   2.90320   2.91643   2.93110   2.93438
 Alpha virt. eigenvalues --    2.95181   2.97127   3.00479   3.04092   3.12438
 Alpha virt. eigenvalues --    3.14028   3.18775   3.20102   3.25465   3.28481
 Alpha virt. eigenvalues --    3.34206   3.35965   3.37212   3.39551   3.42316
 Alpha virt. eigenvalues --    3.45928   3.50255   3.52813   3.54470   3.58086
 Alpha virt. eigenvalues --    3.65457   3.69020   3.71053   3.76006   3.80946
 Alpha virt. eigenvalues --    3.92156   4.02196   4.10761   4.14978   4.20342
 Alpha virt. eigenvalues --    4.21914   4.36105   4.44490   4.52192   4.54629
 Alpha virt. eigenvalues --    4.67143   5.52545   5.56458   5.61502   5.76367
 Alpha virt. eigenvalues --    5.84610   5.90448   6.07732   6.21847   6.42519
 Alpha virt. eigenvalues --   24.68469  24.93700  25.00177  25.12326  26.28797
 Alpha virt. eigenvalues --   51.55325  51.58359  51.69870
  Beta  occ. eigenvalues --  -20.63365 -20.57949 -20.56793 -11.43428 -11.30916
  Beta  occ. eigenvalues --  -11.27829 -11.26980 -11.23894  -1.50175  -1.40039
  Beta  occ. eigenvalues --   -1.25559  -1.08808  -1.04347  -0.93391  -0.82763
  Beta  occ. eigenvalues --   -0.78438  -0.73876  -0.71004  -0.68900  -0.64371
  Beta  occ. eigenvalues --   -0.60756  -0.58773  -0.57011  -0.53602  -0.51739
  Beta  occ. eigenvalues --   -0.50165  -0.49100  -0.46726  -0.43683  -0.43589
  Beta virt. eigenvalues --    0.03507   0.04332   0.04969   0.06176   0.07127
  Beta virt. eigenvalues --    0.07645   0.08028   0.09852   0.10447   0.11049
  Beta virt. eigenvalues --    0.11631   0.12304   0.13833   0.15035   0.15391
  Beta virt. eigenvalues --    0.16318   0.16716   0.17630   0.18500   0.18878
  Beta virt. eigenvalues --    0.19568   0.20387   0.21468   0.22076   0.23059
  Beta virt. eigenvalues --    0.24270   0.25307   0.25756   0.27615   0.29173
  Beta virt. eigenvalues --    0.29556   0.30535   0.30992   0.32821   0.34563
  Beta virt. eigenvalues --    0.35729   0.36511   0.36917   0.38519   0.38554
  Beta virt. eigenvalues --    0.39829   0.40751   0.40967   0.41338   0.42956
  Beta virt. eigenvalues --    0.44518   0.45608   0.46933   0.49226   0.49757
  Beta virt. eigenvalues --    0.54578   0.55180   0.56915   0.58117   0.60617
  Beta virt. eigenvalues --    0.62522   0.65854   0.69375   0.69882   0.70907
  Beta virt. eigenvalues --    0.74663   0.75717   0.80439   0.81004   0.82443
  Beta virt. eigenvalues --    0.84945   0.85598   0.85722   0.86110   0.87634
  Beta virt. eigenvalues --    0.88979   0.90971   0.94628   0.96657   0.98495
  Beta virt. eigenvalues --    1.00867   1.06101   1.08444   1.10204   1.21955
  Beta virt. eigenvalues --    1.24521   1.26110   1.28359   1.29488   1.30942
  Beta virt. eigenvalues --    1.33085   1.34226   1.35824   1.38078   1.39936
  Beta virt. eigenvalues --    1.41933   1.43091   1.43470   1.47708   1.50112
  Beta virt. eigenvalues --    1.51148   1.54020   1.55457   1.58660   1.64654
  Beta virt. eigenvalues --    1.65814   1.69677   1.71126   1.73077   1.78550
  Beta virt. eigenvalues --    1.80792   1.81804   1.83402   1.84871   1.86172
  Beta virt. eigenvalues --    1.88689   1.90225   1.91488   1.93631   1.96667
  Beta virt. eigenvalues --    1.99940   2.02487   2.08796   2.09533   2.11844
  Beta virt. eigenvalues --    2.16151   2.20109   2.23934   2.27632   2.34252
  Beta virt. eigenvalues --    2.37233   2.40019   2.42476   2.44964   2.53657
  Beta virt. eigenvalues --    2.58983   2.70081   2.74193   2.80232   2.82395
  Beta virt. eigenvalues --    2.84716   2.87977   2.90564   2.91689   2.93184
  Beta virt. eigenvalues --    2.93694   2.95298   2.97602   3.00285   3.04183
  Beta virt. eigenvalues --    3.12475   3.14030   3.18269   3.20295   3.27518
  Beta virt. eigenvalues --    3.32852   3.35812   3.36032   3.37617   3.39589
  Beta virt. eigenvalues --    3.43213   3.46081   3.51812   3.54508   3.58072
  Beta virt. eigenvalues --    3.59579   3.66164   3.69770   3.71427   3.76770
  Beta virt. eigenvalues --    3.84899   3.92181   4.02249   4.10901   4.16732
  Beta virt. eigenvalues --    4.20495   4.21945   4.39607   4.44852   4.52590
  Beta virt. eigenvalues --    4.56268   4.67593   5.53773   5.57531   5.61727
  Beta virt. eigenvalues --    5.76398   5.89234   5.93356   6.10347   6.22350
  Beta virt. eigenvalues --    6.42593  24.68468  24.94813  25.00223  25.12277
  Beta virt. eigenvalues --   26.28795  51.57101  51.58461  51.69896
          Condensed to atoms (all electrons):
               1          2          3          4          5          6
     1  C    6.843548   0.496733  -2.169412   1.775770  -0.116471  -0.139495
     2  H    0.496733   0.401761  -0.146344   0.050293  -0.003292  -0.006050
     3  C   -2.169412  -0.146344  10.883339  -3.551119   0.151783  -0.062639
     4  C    1.775770   0.050293  -3.551119   7.995808   0.335732   0.029159
     5  O   -0.116471  -0.003292   0.151783   0.335732   8.091908  -0.097181
     6  O   -0.139495  -0.006050  -0.062639   0.029159  -0.097181   8.357434
     7  C    0.076602  -0.000963  -0.489919  -0.046811  -0.031279   0.201190
     8  C    0.046872   0.000888  -0.190919   0.060037   0.018769  -0.167331
     9  H    0.000492   0.000048   0.005980   0.022743  -0.017146  -0.035594
    10  H   -0.003496  -0.000003   0.008164  -0.028959   0.002446  -0.021334
    11  H   -0.001658  -0.000079   0.010201  -0.000888  -0.001275  -0.005398
    12  H    0.001662   0.000051  -0.004177   0.006765  -0.001391  -0.016468
    13  H   -0.001163  -0.000040   0.003585  -0.005626   0.001653   0.026152
    14  O    0.001135   0.000068  -0.004154   0.003183  -0.008033   0.007435
    15  H    0.000231  -0.000074  -0.002992  -0.008222   0.004766  -0.001730
               7          8          9         10         11         12
     1  C    0.076602   0.046872   0.000492  -0.003496  -0.001658   0.001662
     2  H   -0.000963   0.000888   0.000048  -0.000003  -0.000079   0.000051
     3  C   -0.489919  -0.190919   0.005980   0.008164   0.010201  -0.004177
     4  C   -0.046811   0.060037   0.022743  -0.028959  -0.000888   0.006765
     5  O   -0.031279   0.018769  -0.017146   0.002446  -0.001275  -0.001391
     6  O    0.201190  -0.167331  -0.035594  -0.021334  -0.005398  -0.016468
     7  C    6.035282  -0.081700   0.406142   0.275558  -0.026669  -0.053988
     8  C   -0.081700   5.847441  -0.091834  -0.095460   0.388688   0.414386
     9  H    0.406142  -0.091834   0.556903  -0.046939   0.004363  -0.009612
    10  H    0.275558  -0.095460  -0.046939   0.670378  -0.012601   0.012372
    11  H   -0.026669   0.388688   0.004363  -0.012601   0.536279  -0.037019
    12  H   -0.053988   0.414386  -0.009612   0.012372  -0.037019   0.563453
    13  H   -0.069547   0.436847  -0.004392  -0.010795  -0.030192  -0.032052
    14  O    0.004433  -0.002311  -0.006536   0.001675  -0.000154  -0.002906
    15  H    0.020882   0.017057  -0.003957  -0.037895   0.000776   0.000113
              13         14         15
     1  C   -0.001163   0.001135   0.000231
     2  H   -0.000040   0.000068  -0.000074
     3  C    0.003585  -0.004154  -0.002992
     4  C   -0.005626   0.003183  -0.008222
     5  O    0.001653  -0.008033   0.004766
     6  O    0.026152   0.007435  -0.001730
     7  C   -0.069547   0.004433   0.020882
     8  C    0.436847  -0.002311   0.017057
     9  H   -0.004392  -0.006536  -0.003957
    10  H   -0.010795   0.001675  -0.037895
    11  H   -0.030192  -0.000154   0.000776
    12  H   -0.032052  -0.002906   0.000113
    13  H    0.528283   0.001496   0.000276
    14  O    0.001496   8.068004   0.304577
    15  H    0.000276   0.304577   0.431084
          Atomic-Atomic Spin Densities.
               1          2          3          4          5          6
     1  C    0.000669   0.000534  -0.014034   0.012878   0.000486  -0.004788
     2  H    0.000534  -0.000225  -0.001990   0.001528   0.000030  -0.000082
     3  C   -0.014034  -0.001990   0.019177  -0.016337   0.000856   0.012358
     4  C    0.012878   0.001528  -0.016337  -0.007251  -0.002566  -0.007339
     5  O    0.000486   0.000030   0.000856  -0.002566   0.010646  -0.000043
     6  O   -0.004788  -0.000082   0.012358  -0.007339  -0.000043   0.055120
     7  C   -0.001377   0.000097   0.009923  -0.001574   0.000093  -0.074791
     8  C    0.001766   0.000110  -0.001347   0.007544  -0.000081   0.001323
     9  H    0.000353  -0.000071  -0.006997  -0.010939   0.001780   0.002300
    10  H    0.000596   0.000196   0.016229   0.058674  -0.006118  -0.011146
    11  H    0.000065   0.000005  -0.000103  -0.000595  -0.000016   0.001049
    12  H   -0.000478  -0.000002   0.002338   0.002789  -0.000056   0.002973
    13  H    0.000072  -0.000001  -0.000445  -0.000799   0.000006   0.000035
    14  O    0.000904  -0.000054  -0.014110  -0.031252   0.003380   0.013511
    15  H   -0.000288  -0.000005   0.002446   0.003860  -0.000425  -0.001655
               7          8          9         10         11         12
     1  C   -0.001377   0.001766   0.000353   0.000596   0.000065  -0.000478
     2  H    0.000097   0.000110  -0.000071   0.000196   0.000005  -0.000002
     3  C    0.009923  -0.001347  -0.006997   0.016229  -0.000103   0.002338
     4  C   -0.001574   0.007544  -0.010939   0.058674  -0.000595   0.002789
     5  O    0.000093  -0.000081   0.001780  -0.006118  -0.000016  -0.000056
     6  O   -0.074791   0.001323   0.002300  -0.011146   0.001049   0.002973
     7  C    0.743695  -0.049784  -0.036158   0.034947  -0.011552   0.003729
     8  C   -0.049784  -0.041933   0.024067  -0.022895   0.009613  -0.012044
     9  H   -0.036158   0.024067  -0.026609   0.031619   0.001133  -0.002569
    10  H    0.034947  -0.022895   0.031619  -0.337817  -0.000870  -0.003022
    11  H   -0.011552   0.009613   0.001133  -0.000870   0.010886  -0.006181
    12  H    0.003729  -0.012044  -0.002569  -0.003022  -0.006181   0.046397
    13  H   -0.003699   0.006532   0.001519  -0.003075   0.000666  -0.003042
    14  O   -0.059539   0.024844   0.000132   0.023518   0.002294  -0.000798
    15  H    0.003179  -0.002107  -0.000925   0.007031  -0.000247   0.000270
              13         14         15
     1  C    0.000072   0.000904  -0.000288
     2  H   -0.000001  -0.000054  -0.000005
     3  C   -0.000445  -0.014110   0.002446
     4  C   -0.000799  -0.031252   0.003860
     5  O    0.000006   0.003380  -0.000425
     6  O    0.000035   0.013511  -0.001655
     7  C   -0.003699  -0.059539   0.003179
     8  C    0.006532   0.024844  -0.002107
     9  H    0.001519   0.000132  -0.000925
    10  H   -0.003075   0.023518   0.007031
    11  H    0.000666   0.002294  -0.000247
    12  H   -0.003042  -0.000798   0.000270
    13  H    0.002526   0.001865  -0.000079
    14  O    0.001865   0.739159  -0.004373
    15  H   -0.000079  -0.004373  -0.024811
 Mulliken charges and spin densities:
               1          2
     1  C   -0.811350  -0.002639
     2  H    0.207003   0.000072
     3  C    1.558621   0.007964
     4  C   -0.637863   0.008620
     5  O   -0.330990   0.007975
     6  O   -0.068149  -0.011176
     7  C   -0.219213   0.557189
     8  C   -0.601430  -0.054392
     9  H    0.219339  -0.021365
    10  H    0.286888  -0.212133
    11  H    0.175626   0.006148
    12  H    0.158810   0.030304
    13  H    0.155515   0.002082
    14  O   -0.367912   0.699480
    15  H    0.275107  -0.018129
 Sum of Mulliken charges =  -0.00000   1.00000
 Mulliken charges and spin densities with hydrogens summed into heavy atoms:
               1          2
     1  C   -0.604348  -0.002567
     3  C    1.558621   0.007964
     4  C   -0.637863   0.008620
     5  O   -0.330990   0.007975
     6  O   -0.068149  -0.011176
     7  C    0.000125   0.535824
     8  C   -0.111479  -0.015858
    14  O    0.194083   0.469219
 Electronic spatial extent (au):  <R**2>=           1211.8519
 Charge=             -0.0000 electrons
 Dipole moment (field-independent basis, Debye):
    X=              1.5608    Y=             -2.6080    Z=              0.4839  Tot=              3.0776
 Quadrupole moment (field-independent basis, Debye-Ang):
   XX=            -37.8449   YY=            -50.4004   ZZ=            -49.3106
   XY=              1.5316   XZ=             -6.0095   YZ=             -0.0156
 Traceless Quadrupole moment (field-independent basis, Debye-Ang):
   XX=              8.0071   YY=             -4.5484   ZZ=             -3.4586
   XY=              1.5316   XZ=             -6.0095   YZ=             -0.0156
 Octapole moment (field-independent basis, Debye-Ang**2):
  XXX=             53.3330  YYY=             10.6775  ZZZ=              3.0020  XYY=             -4.4057
  XXY=            -25.7528  XXZ=             -7.4087  XZZ=             -3.3057  YZZ=             -2.3257
  YYZ=              0.6195  XYZ=             -3.6876
 Hexadecapole moment (field-independent basis, Debye-Ang**3):
 XXXX=           -815.7280 YYYY=           -371.5094 ZZZZ=           -114.5723 XXXY=            -39.9051
 XXXZ=            -70.0717 YYYX=             -3.6437 YYYZ=             -3.0478 ZZZX=              2.7901
 ZZZY=              1.4284 XXYY=           -266.5457 XXZZ=           -204.7495 YYZZ=            -90.6761
 XXYZ=             18.9954 YYXZ=             -8.2729 ZZXY=              0.6538
 N-N= 3.519847030776D+02 E-N=-1.686372835647D+03  KE= 4.175777722569D+02
 1\1\GINC-AJ\SP\UCCSD(T)-FC\6-311++G(d,p)\C5H7O3(2)\AAYUSH\17-Apr-2025\
 0\\# ccsd(t)/6-311++g(d,p) sp\\Title Card Required\\0,2\C,0,3.278137,-
 0.523737,-0.441032\H,0,4.271623,-0.790594,-0.717126\C,0,2.160579,-0.22
 5082,-0.130471\C,0,0.824771,0.186822,0.260489\O,0,0.565914,1.241328,0.
 771213\O,0,-0.078806,-0.760104,-0.019718\C,0,-1.416369,-0.485039,0.355
 734\C,0,-2.294952,-1.617882,-0.09111\H,0,-1.473007,-0.229881,1.415633\
 H,0,-1.770178,0.603997,-0.235903\H,0,-2.214405,-1.763445,-1.168632\H,0
 ,-1.995969,-2.54272,0.41089\H,0,-3.333282,-1.401632,0.160637\O,0,-1.91
 5445,1.765975,-0.696209\H,0,-1.204277,2.190826,-0.190749\\Version=ES64
 L-G16RevA.03\State=2-A\HF=-417.9641058\MP2=-419.2522437\MP3=-419.27259
 51\MP4D=-419.3044864\MP4DQ=-419.2783726\PUHF=-417.9744097\PMP2-0=-419.
 2593479\PMP3-0=-419.2766776\MP4SDQ=-419.2994151\CCSD=-419.2992252\CCSD
 (T)=-419.3547262\S2=0.797531\S2-1=0.76778\S2A=0.750624\RMSD=6.217e-09\
 PG=C01 [X(C5H7O3)]\\@


 IF NO USE IS MADE OF THE LABOR OF PAST AGES,
 THE WORLD MUST REMAIN ALWAYS IN THE INFANCY OF KNOWLEDGE.

                          -- CICERO
 Job cpu time:       0 days 16 hours 56 minutes 54.9 seconds.
 Elapsed time:       0 days  0 hours 42 minutes 53.6 seconds.
 File lengths (MBytes):  RWF=  44258 Int=      0 D2E=      0 Chk=      5 Scr=      1
 Normal termination of Gaussian 16 at Thu Apr 17 18:49:37 2025.
