 Entering Gaussian System, Link 0=g16
 Initial command:
 /opt/g16/l1.exe "/home/aayush/scratches/g16/Gau-85705.inp" -scrdir="/home/aayush/scratches/g16/"
 Entering Link 1 = /opt/g16/l1.exe PID=     85708.
  
 Copyright (c) 1988,1990,1992,1993,1995,1998,2003,2009,2016,
            Gaussian, Inc.  All Rights Reserved.
  
 This is part of the Gaussian(R) 16 program.  It is based on
 the Gaussian(R) 09 system (copyright 2009, Gaussian, Inc.),
 the Gaussian(R) 03 system (copyright 2003, Gaussian, Inc.),
 the Gaussian(R) 98 system (copyright 1998, Gaussian, Inc.),
 the Gaussian(R) 94 system (copyright 1995, Gaussian, Inc.),
 the Gaussian 92(TM) system (copyright 1992, Gaussian, Inc.),
 the Gaussian 90(TM) system (copyright 1990, Gaussian, Inc.),
 the Gaussian 88(TM) system (copyright 1988, Gaussian, Inc.),
 the Gaussian 86(TM) system (copyright 1986, Carnegie Mellon
 University), and the Gaussian 82(TM) system (copyright 1983,
 Carnegie Mellon University). Gaussian is a federally registered
 trademark of Gaussian, Inc.
  
 This software contains proprietary and confidential information,
 including trade secrets, belonging to Gaussian, Inc.
  
 This software is provided under written license and may be
 used, copied, transmitted, or stored only in accord with that
 written license.
  
 The following legend is applicable only to US Government
 contracts under FAR:
  
                    RESTRICTED RIGHTS LEGEND
  
 Use, reproduction and disclosure by the US Government is
 subject to restrictions as set forth in subparagraphs (a)
 and (c) of the Commercial Computer Software - Restricted
 Rights clause in FAR 52.227-19.
  
 Gaussian, Inc.
 340 Quinnipiac St., Bldg. 40, Wallingford CT 06492
  
  
 ---------------------------------------------------------------
 Warning -- This program may not be used in any manner that
 competes with the business of Gaussian, Inc. or will provide
 assistance to any competitor of Gaussian, Inc.  The licensee
 of this program is prohibited from giving any competitor of
 Gaussian, Inc. access to this program.  By using this program,
 the user acknowledges that Gaussian, Inc. is engaged in the
 business of creating and licensing software in the field of
 computational chemistry and represents and warrants to the
 licensee that it is not a competitor of Gaussian, Inc. and that
 it will not use this program in any manner prohibited above.
 ---------------------------------------------------------------
  

 Cite this work as:
 Gaussian 16, Revision A.03,
 M. J. Frisch, G. W. Trucks, H. B. Schlegel, G. E. Scuseria, 
 M. A. Robb, J. R. Cheeseman, G. Scalmani, V. Barone, 
 G. A. Petersson, H. Nakatsuji, X. Li, M. Caricato, A. V. Marenich, 
 J. Bloino, B. G. Janesko, R. Gomperts, B. Mennucci, H. P. Hratchian, 
 J. V. Ortiz, A. F. Izmaylov, J. L. Sonnenberg, D. Williams-Young, 
 F. Ding, F. Lipparini, F. Egidi, J. Goings, B. Peng, A. Petrone, 
 T. Henderson, D. Ranasinghe, V. G. Zakrzewski, J. Gao, N. Rega, 
 G. Zheng, W. Liang, M. Hada, M. Ehara, K. Toyota, R. Fukuda, 
 J. Hasegawa, M. Ishida, T. Nakajima, Y. Honda, O. Kitao, H. Nakai, 
 T. Vreven, K. Throssell, J. A. Montgomery, Jr., J. E. Peralta, 
 F. Ogliaro, M. J. Bearpark, J. J. Heyd, E. N. Brothers, K. N. Kudin, 
 V. N. Staroverov, T. A. Keith, R. Kobayashi, J. Normand, 
 K. Raghavachari, A. P. Rendell, J. C. Burant, S. S. Iyengar, 
 J. Tomasi, M. Cossi, J. M. Millam, M. Klene, C. Adamo, R. Cammi, 
 J. W. Ochterski, R. L. Martin, K. Morokuma, O. Farkas, 
 J. B. Foresman, and D. J. Fox, Gaussian, Inc., Wallingford CT, 2016.
 
 ******************************************
 Gaussian 16:  ES64L-G16RevA.03 25-Dec-2016
                17-Apr-2025 
 ******************************************
 %chk=ethyl_propiolate.chk
 %nprocshared=24
 Will use up to   24 processors via shared memory.
 %mem=12GB
 --------------------------
 # ccsd(t)/6-311++g(d,p) sp
 --------------------------
 1/38=1,172=1/1;
 2/12=2,17=6,18=5,40=1/2;
 3/5=4,6=6,7=1111,11=9,25=1,30=1/1,2,3;
 4//1;
 5/5=2,38=5/2;
 8/6=4,9=120000,10=2/1,4;
 9/5=7,14=2/13;
 6/7=2,8=2,9=2,10=2/1;
 99/5=1,9=1/99;
 -------------------
 Title Card Required
 -------------------
 Symbolic Z-matrix:
 Charge =  0 Multiplicity = 2
 C                     3.27815  -0.52373  -0.44103 
 H                     4.27162  -0.79062  -0.71712 
 C                     2.16061  -0.22505  -0.13046 
 C                     0.82453   0.18656   0.26039 
 O                     0.56585   1.2414    0.77116 
 O                    -0.07828  -0.76027  -0.01965 
 C                    -1.41706  -0.48403   0.35548 
 C                    -2.29487  -1.61838  -0.09092 
 H                    -1.47233  -0.23419   1.41686 
 H                    -1.76561   0.57674  -0.22468 
 H                    -2.21443  -1.76329  -1.16853 
 H                    -1.99641  -2.54323   0.41068 
 H                    -3.33323  -1.40175   0.1606 
 O                    -1.91568   1.76788  -0.69693 
 H                    -1.20326   2.1906   -0.1901 
 
                          Input orientation:                          
 ---------------------------------------------------------------------
 Center     Atomic      Atomic             Coordinates (Angstroms)
 Number     Number       Type             X           Y           Z
 ---------------------------------------------------------------------
      1          6           0        3.278152   -0.523733   -0.441033
      2          1           0        4.271619   -0.790615   -0.717117
      3          6           0        2.160614   -0.225049   -0.130463
      4          6           0        0.824529    0.186557    0.260392
      5          8           0        0.565850    1.241402    0.771164
      6          8           0       -0.078277   -0.760266   -0.019652
      7          6           0       -1.417063   -0.484031    0.355484
      8          6           0       -2.294865   -1.618384   -0.090918
      9          1           0       -1.472330   -0.234190    1.416862
     10          1           0       -1.765606    0.576744   -0.224680
     11          1           0       -2.214432   -1.763285   -1.168529
     12          1           0       -1.996414   -2.543229    0.410682
     13          1           0       -3.333234   -1.401745    0.160595
     14          8           0       -1.915678    1.767883   -0.696929
     15          1           0       -1.203257    2.190597   -0.190099
 ---------------------------------------------------------------------
                    Distance matrix (angstroms):
                    1          2          3          4          5
     1  C    0.000000
     2  H    1.065094   0.000000
     3  C    1.197730   2.262823   0.000000
     4  C    2.648920   3.713868   1.451658   0.000000
     5  O    3.455677   4.480714   2.346632   1.200209   0.000000
     6  O    3.391036   4.405562   2.304641   1.337893   2.246545
     7  C    4.762464   5.797031   3.619805   2.341680   2.661175
     8  C    5.690286   6.648010   4.668430   3.621029   4.135850
     9  H    5.109079   6.152758   3.948744   2.605765   2.597783
    10  H    5.166948   6.209690   4.008360   2.663896   2.620909
    11  H    5.677519   6.574094   4.752345   3.883167   4.529958
    12  H    5.711815   6.605439   4.790373   3.928363   4.584602
    13  H    6.696513   7.679691   5.625984   4.451927   4.749934
    14  O    5.682680   6.695444   4.572616   3.305418   2.930949
    15  H    5.245339   6.256168   4.141803   2.886353   2.225924
                    6          7          8          9         10
     6  O    0.000000
     7  C    1.417526   0.000000
     8  C    2.377963   1.502188   0.000000
     9  H    2.069713   1.091787   2.205892   0.000000
    10  H    2.162571   1.258299   2.261989   1.854261   0.000000
    11  H    2.624714   2.143573   1.090280   3.094042   2.562817
    12  H    2.653939   2.139858   1.093624   2.572688   3.192364
    13  H    3.322458   2.133516   1.090138   2.530683   2.553490
    14  O    3.197856   2.535213   3.460901   2.944990   1.290098
    15  H    3.162629   2.738067   3.963557   2.921355   1.709372
                   11         12         13         14         15
    11  H    0.000000
    12  H    1.774754   0.000000
    13  H    1.774542   1.775561   0.000000
    14  O    3.575026   4.451854   3.576500   0.000000
    15  H    4.196782   4.837266   4.191027   0.971137   0.000000
 Stoichiometry    C5H7O3(2)
 Framework group  C1[X(C5H7O3)]
 Deg. of freedom    39
 Full point group                 C1      NOp   1
 Largest Abelian subgroup         C1      NOp   1
 Largest concise Abelian subgroup C1      NOp   1
                         Standard orientation:                         
 ---------------------------------------------------------------------
 Center     Atomic      Atomic             Coordinates (Angstroms)
 Number     Number       Type             X           Y           Z
 ---------------------------------------------------------------------
      1          6           0        3.341045   -0.491074   -0.438285
      2          1           0        4.334561   -0.758037   -0.714115
      3          6           0        2.223453   -0.192299   -0.127999
      4          6           0        0.887287    0.219448    0.262431
      5          8           0        0.628316    1.275010    0.771571
      6          8           0       -0.015226   -0.728144   -0.015954
      7          6           0       -1.354048   -0.451794    0.358972
      8          6           0       -2.231518   -1.587170   -0.085477
      9          1           0       -1.409223   -0.200287    1.419961
     10          1           0       -1.703071    0.607933   -0.222817
     11          1           0       -2.151217   -1.733754   -1.162871
     12          1           0       -1.932649   -2.511110    0.417540
     13          1           0       -3.269922   -1.370505    0.165869
     14          8           0       -1.853652    1.798266   -0.696932
     15          1           0       -1.141297    2.222041   -0.190896
 ---------------------------------------------------------------------
 Rotational constants (GHZ):           3.0412445           1.2139387           0.9541943
 Standard basis: 6-311++G(d,p) (5D, 7F)
 There are   233 symmetry adapted cartesian basis functions of A   symmetry.
 There are   225 symmetry adapted basis functions of A   symmetry.
   225 basis functions,   351 primitive gaussians,   233 cartesian basis functions
    31 alpha electrons       30 beta electrons
       nuclear repulsion energy       351.9571515666 Hartrees.
 NAtoms=   15 NActive=   15 NUniq=   15 SFac= 1.00D+00 NAtFMM=   60 NAOKFM=F Big=F
 Integral buffers will be    131072 words long.
 Raffenetti 2 integral format.
 Two-electron integral symmetry is turned on.
 One-electron integrals computed using PRISM.
 NBasis=   225 RedAO= T EigKep=  5.78D-06  NBF=   225
 NBsUse=   224 1.00D-06 EigRej=  7.17D-07 NBFU=   224
 ExpMin= 3.60D-02 ExpMax= 8.59D+03 ExpMxC= 1.30D+03 IAcc=3 IRadAn=         5 AccDes= 0.00D+00
 Harris functional with IExCor=  205 and IRadAn=       5 diagonalized for initial guess.
 HarFok:  IExCor=  205 AccDes= 0.00D+00 IRadAn=         5 IDoV= 1 UseB2=F ITyADJ=14
 ICtDFT=  3500011 ScaDFX=  1.000000  1.000000  1.000000  1.000000
 FoFCou: FMM=F IPFlag=           0 FMFlag=      100000 FMFlg1=           0
         NFxFlg=           0 DoJE=T BraDBF=F KetDBF=T FulRan=T
         wScrn=  0.000000 ICntrl=       500 IOpCl=  0 I1Cent=   200000004 NGrid=           0
         NMat0=    1 NMatS0=      1 NMatT0=    0 NMatD0=    1 NMtDS0=    0 NMtDT0=    0
 Petite list used in FoFCou.
 Initial guess <Sx>= 0.0000 <Sy>= 0.0000 <Sz>= 0.5000 <S**2>= 0.7500 S= 0.5000
 Requested convergence on RMS density matrix=1.00D-08 within 128 cycles.
 Requested convergence on MAX density matrix=1.00D-06.
 Requested convergence on             energy=1.00D-06.
 No special actions if energy rises.
 Initial convergence to 1.0D-05 achieved.  Increase integral accuracy.
 Restarting incremental Fock formation.
 SCF Done:  E(UHF) =  -417.966224501     A.U. after   33 cycles
            NFock= 33  Conv=0.62D-08     -V/T= 2.0009
 <Sx>= 0.0000 <Sy>= 0.0000 <Sz>= 0.5000 <S**2>= 0.7912 S= 0.5204
 <L.S>=  0.00000000000    
 Annihilation of the first spin contaminant:
 S**2 before annihilation     0.7912,   after     0.7505
 ExpMin= 3.60D-02 ExpMax= 8.59D+03 ExpMxC= 1.30D+03 IAcc=3 IRadAn=         5 AccDes= 0.00D+00
 HarFok:  IExCor=  205 AccDes= 0.00D+00 IRadAn=         5 IDoV=-2 UseB2=F ITyADJ=14
 ICtDFT= 12500011 ScaDFX=  1.000000  1.000000  1.000000  1.000000
 Range of M.O.s used for correlation:     9   224
 NBasis=   225 NAE=    31 NBE=    30 NFC=     8 NFV=     0
 NROrb=    216 NOA=    23 NOB=    22 NVA=   193 NVB=   194

 **** Warning!!: The largest alpha MO coefficient is  0.16060820D+03


 **** Warning!!: The largest beta MO coefficient is  0.16709455D+03

 Semi-Direct transformation.
 ModeAB=           4 MOrb=            23 LenV=    1609186562
 LASXX=    107793295 LTotXX=   107793295 LenRXX=   218294035
 LTotAB=   110500740 MaxLAS=   126877752 LenRXY=           0
 NonZer=   326087330 LenScr=   491049984 LnRSAI=   126877752
 LnScr1=   191087104 LExtra=           0 Total=   1027308875
 MaxDsk=          -1 SrtSym=           T ITran=            4
 JobTyp=1 Pass  1:  I=   1 to  23.
 (rs|ai) integrals will be sorted in core.
 ModeAB=           4 MOrb=            22 LenV=    1609186562
 LASXX=    103454307 LTotXX=   103454307 LenRXX=   188091948
 LTotAB=    84637641 MaxLAS=   121361328 LenRXY=           0
 NonZer=   291546255 LenScr=   439034880 LnRSAI=   121361328
 LnScr1=   182784000 LExtra=           0 Total=    931272156
 MaxDsk=          -1 SrtSym=           T ITran=            4
 JobTyp=2 Pass  1:  I=   1 to  22.
 (rs|ai) integrals will be sorted in core.
 SymMOI:  orbitals are not symmetric.
 Spin components of T(2) and E(2):
     alpha-alpha T2 =       0.5329447735D-01 E2=     -0.1721837623D+00
     alpha-beta  T2 =       0.2940748824D+00 E2=     -0.9499303431D+00
     beta-beta   T2 =       0.5314252108D-01 E2=     -0.1623860083D+00
 ANorm=    0.1183432246D+01
 E2 =    -0.1284500114D+01 EUMP2 =    -0.41925072461499D+03
 (S**2,0)=  0.79124D+00           (S**2,1)=  0.76517D+00
 E(PUHF)=      -0.41797546803D+03        E(PMP2)=      -0.41925706900D+03
 Keep R2 and R3 ints in memory in canonical form, NReq=652883968.
 CIDS: In Core Option IDoMem=           1.
 Iterations=  50 Convergence= 0.100D-06
 Produce multiple copies of IABC intergrals
 Iteration Nr.   1
 **********************
 DD1Dir will call FoFMem   1 times, MxPair=      1496
 NAB=   506 NAA=   253 NBB=   231.
 E(PMP3)=      -0.41927598852D+03
 MP4(R+Q)=  0.26032120D-01
 E3=       -0.21549463D-01        EUMP3=      -0.41927227408D+03
 E4(DQ)=   -0.56486413D-02        UMP4(DQ)=   -0.41927792272D+03
 E4(SDQ)=  -0.26448198D-01        UMP4(SDQ)=  -0.41929872228D+03
 DE(Corr)=  -1.2794064     E(Corr)=     -419.24563092    
 NORM(A)=   0.11886190D+01
 Iteration Nr.   2
 **********************
 DD1Dir will call FoFMem   1 times, MxPair=      1496
 NAB=   506 NAA=   253 NBB=   231.
 DE(Corr)=  -1.3237214     E(CORR)=     -419.28994586     Delta=-4.43D-02
 NORM(A)=   0.12078342D+01
 Iteration Nr.   3
 **********************
 DD1Dir will call FoFMem   1 times, MxPair=      1496
 NAB=   506 NAA=   253 NBB=   231.
 DE(Corr)=  -1.3254602     E(CORR)=     -419.29168466     Delta=-1.74D-03
 NORM(A)=   0.12155248D+01
 Iteration Nr.   4
 **********************
 DD1Dir will call FoFMem   1 times, MxPair=      1496
 NAB=   506 NAA=   253 NBB=   231.
 DE(Corr)=  -1.3310602     E(CORR)=     -419.29728475     Delta=-5.60D-03
 NORM(A)=   0.12190336D+01
 Iteration Nr.   5
 **********************
 DD1Dir will call FoFMem   1 times, MxPair=      1496
 NAB=   506 NAA=   253 NBB=   231.
 DE(Corr)=  -1.3321504     E(CORR)=     -419.29837489     Delta=-1.09D-03
 NORM(A)=   0.12211359D+01
 Iteration Nr.   6
 **********************
 DD1Dir will call FoFMem   1 times, MxPair=      1496
 NAB=   506 NAA=   253 NBB=   231.
 DE(Corr)=  -1.3324830     E(CORR)=     -419.29870746     Delta=-3.33D-04
 NORM(A)=   0.12216726D+01
 Iteration Nr.   7
 **********************
 DD1Dir will call FoFMem   1 times, MxPair=      1496
 NAB=   506 NAA=   253 NBB=   231.
 DE(Corr)=  -1.3325622     E(CORR)=     -419.29878667     Delta=-7.92D-05
 NORM(A)=   0.12218732D+01
 Iteration Nr.   8
 **********************
 DD1Dir will call FoFMem   1 times, MxPair=      1496
 NAB=   506 NAA=   253 NBB=   231.
 DE(Corr)=  -1.3325463     E(CORR)=     -419.29877078     Delta= 1.59D-05
 NORM(A)=   0.12219489D+01
 Iteration Nr.   9
 **********************
 DD1Dir will call FoFMem   1 times, MxPair=      1496
 NAB=   506 NAA=   253 NBB=   231.
 DE(Corr)=  -1.3325686     E(CORR)=     -419.29879306     Delta=-2.23D-05
 NORM(A)=   0.12219658D+01
 Iteration Nr.  10
 **********************
 DD1Dir will call FoFMem   1 times, MxPair=      1496
 NAB=   506 NAA=   253 NBB=   231.
 DE(Corr)=  -1.3325690     E(CORR)=     -419.29879355     Delta=-4.93D-07
 NORM(A)=   0.12219819D+01
 Iteration Nr.  11
 **********************
 DD1Dir will call FoFMem   1 times, MxPair=      1496
 NAB=   506 NAA=   253 NBB=   231.
 DE(Corr)=  -1.3325811     E(CORR)=     -419.29880555     Delta=-1.20D-05
 NORM(A)=   0.12219923D+01
 Iteration Nr.  12
 **********************
 DD1Dir will call FoFMem   1 times, MxPair=      1496
 NAB=   506 NAA=   253 NBB=   231.
 DE(Corr)=  -1.3325827     E(CORR)=     -419.29880719     Delta=-1.64D-06
 NORM(A)=   0.12220012D+01
 Iteration Nr.  13
 **********************
 DD1Dir will call FoFMem   1 times, MxPair=      1496
 NAB=   506 NAA=   253 NBB=   231.
 DE(Corr)=  -1.3325858     E(CORR)=     -419.29881028     Delta=-3.09D-06
 NORM(A)=   0.12220068D+01
 Iteration Nr.  14
 **********************
 DD1Dir will call FoFMem   1 times, MxPair=      1496
 NAB=   506 NAA=   253 NBB=   231.
 DE(Corr)=  -1.3325869     E(CORR)=     -419.29881143     Delta=-1.15D-06
 NORM(A)=   0.12220116D+01
 Iteration Nr.  15
 **********************
 DD1Dir will call FoFMem   1 times, MxPair=      1496
 NAB=   506 NAA=   253 NBB=   231.
 DE(Corr)=  -1.3325873     E(CORR)=     -419.29881184     Delta=-4.12D-07
 NORM(A)=   0.12220158D+01
 Iteration Nr.  16
 **********************
 DD1Dir will call FoFMem   1 times, MxPair=      1496
 NAB=   506 NAA=   253 NBB=   231.
 DE(Corr)=  -1.3325884     E(CORR)=     -419.29881285     Delta=-1.01D-06
 NORM(A)=   0.12220182D+01
 Iteration Nr.  17
 **********************
 DD1Dir will call FoFMem   1 times, MxPair=      1496
 NAB=   506 NAA=   253 NBB=   231.
 DE(Corr)=  -1.3325884     E(CORR)=     -419.29881288     Delta=-2.68D-08
 NORM(A)=   0.12220194D+01
 Wavefunction amplitudes converged. E(Corr)=     -419.29881288    
 Largest amplitude= 7.00D-02
 Time for triples=    37703.83 seconds.
 T4(CCSD)= -0.59183755D-01
 T5(CCSD)=  0.39478770D-02
 CCSD(T)= -0.41935404876D+03

 S**2, projected HF & approx projected MPn energies after annihilation of
 unwanted spin states (see manual for definitions):

 spins       (S**2,0) (S**2,1)    PUHF        PMP2        PMP3        PMP4
 annihilated
 s+1         0.74968  0.75012 -417.975468 -419.257069 -419.275989
 s+1,s+2     0.75000  0.75000 -417.975399 -419.257009 -419.275938
 s+1 to s+3  0.75000  0.75000 -417.975399 -419.257009 -419.275938
 s+1 to s+4  0.75000  0.75000 -417.975399 -419.257009 -419.275937
 s+1 to s+5  0.75000  0.75000 -417.975399
 s+1 to s+6  0.75000  0.75000 -417.975399

 Discarding MO integrals.

 **********************************************************************

            Population analysis using the SCF density.

 **********************************************************************

 Orbital symmetries:
 Alpha Orbitals:
       Occupied  (A) (A) (A) (A) (A) (A) (A) (A) (A) (A) (A) (A)
                 (A) (A) (A) (A) (A) (A) (A) (A) (A) (A) (A) (A)
                 (A) (A) (A) (A) (A) (A) (A)
       Virtual   (A) (A) (A) (A) (A) (A) (A) (A) (A) (A) (A) (A)
                 (A) (A) (A) (A) (A) (A) (A) (A) (A) (A) (A) (A)
                 (A) (A) (A) (A) (A) (A) (A) (A) (A) (A) (A) (A)
                 (A) (A) (A) (A) (A) (A) (A) (A) (A) (A) (A) (A)
                 (A) (A) (A) (A) (A) (A) (A) (A) (A) (A) (A) (A)
                 (A) (A) (A) (A) (A) (A) (A) (A) (A) (A) (A) (A)
                 (A) (A) (A) (A) (A) (A) (A) (A) (A) (A) (A) (A)
                 (A) (A) (A) (A) (A) (A) (A) (A) (A) (A) (A) (A)
                 (A) (A) (A) (A) (A) (A) (A) (A) (A) (A) (A) (A)
                 (A) (A) (A) (A) (A) (A) (A) (A) (A) (A) (A) (A)
                 (A) (A) (A) (A) (A) (A) (A) (A) (A) (A) (A) (A)
                 (A) (A) (A) (A) (A) (A) (A) (A) (A) (A) (A) (A)
                 (A) (A) (A) (A) (A) (A) (A) (A) (A) (A) (A) (A)
                 (A) (A) (A) (A) (A) (A) (A) (A) (A) (A) (A) (A)
                 (A) (A) (A) (A) (A) (A) (A) (A) (A) (A) (A) (A)
                 (A) (A) (A) (A) (A) (A) (A) (A) (A) (A) (A) (A)
                 (A)
 Beta  Orbitals:
       Occupied  (A) (A) (A) (A) (A) (A) (A) (A) (A) (A) (A) (A)
                 (A) (A) (A) (A) (A) (A) (A) (A) (A) (A) (A) (A)
                 (A) (A) (A) (A) (A) (A)
       Virtual   (A) (A) (A) (A) (A) (A) (A) (A) (A) (A) (A) (A)
                 (A) (A) (A) (A) (A) (A) (A) (A) (A) (A) (A) (A)
                 (A) (A) (A) (A) (A) (A) (A) (A) (A) (A) (A) (A)
                 (A) (A) (A) (A) (A) (A) (A) (A) (A) (A) (A) (A)
                 (A) (A) (A) (A) (A) (A) (A) (A) (A) (A) (A) (A)
                 (A) (A) (A) (A) (A) (A) (A) (A) (A) (A) (A) (A)
                 (A) (A) (A) (A) (A) (A) (A) (A) (A) (A) (A) (A)
                 (A) (A) (A) (A) (A) (A) (A) (A) (A) (A) (A) (A)
                 (A) (A) (A) (A) (A) (A) (A) (A) (A) (A) (A) (A)
                 (A) (A) (A) (A) (A) (A) (A) (A) (A) (A) (A) (A)
                 (A) (A) (A) (A) (A) (A) (A) (A) (A) (A) (A) (A)
                 (A) (A) (A) (A) (A) (A) (A) (A) (A) (A) (A) (A)
                 (A) (A) (A) (A) (A) (A) (A) (A) (A) (A) (A) (A)
                 (A) (A) (A) (A) (A) (A) (A) (A) (A) (A) (A) (A)
                 (A) (A) (A) (A) (A) (A) (A) (A) (A) (A) (A) (A)
                 (A) (A) (A) (A) (A) (A) (A) (A) (A) (A) (A) (A)
                 (A) (A)
 The electronic state is 2-A.
 Alpha  occ. eigenvalues --  -20.63119 -20.60908 -20.57861 -11.43279 -11.31883
 Alpha  occ. eigenvalues --  -11.27724 -11.26890 -11.23518  -1.50236  -1.40092
 Alpha  occ. eigenvalues --   -1.37552  -1.09240  -1.05442  -0.93321  -0.84811
 Alpha  occ. eigenvalues --   -0.79204  -0.73848  -0.73138  -0.71224  -0.67785
 Alpha  occ. eigenvalues --   -0.63763  -0.60845  -0.59731  -0.56944  -0.54020
 Alpha  occ. eigenvalues --   -0.53643  -0.51575  -0.49995  -0.43941  -0.43597
 Alpha  occ. eigenvalues --   -0.42073
 Alpha virt. eigenvalues --    0.03559   0.04448   0.06184   0.06960   0.07420
 Alpha virt. eigenvalues --    0.07771   0.09198   0.10069   0.11040   0.11573
 Alpha virt. eigenvalues --    0.11992   0.13815   0.15009   0.15363   0.16258
 Alpha virt. eigenvalues --    0.16669   0.17631   0.18401   0.18897   0.19566
 Alpha virt. eigenvalues --    0.20338   0.21504   0.22044   0.23040   0.24276
 Alpha virt. eigenvalues --    0.25199   0.25586   0.27565   0.28945   0.29520
 Alpha virt. eigenvalues --    0.30357   0.30633   0.31860   0.34382   0.35121
 Alpha virt. eigenvalues --    0.36227   0.36805   0.37868   0.38228   0.39706
 Alpha virt. eigenvalues --    0.40465   0.40797   0.40967   0.42594   0.44430
 Alpha virt. eigenvalues --    0.45265   0.46762   0.48502   0.49264   0.51404
 Alpha virt. eigenvalues --    0.54993   0.56722   0.57875   0.59736   0.62506
 Alpha virt. eigenvalues --    0.65851   0.68578   0.70006   0.70881   0.74032
 Alpha virt. eigenvalues --    0.75172   0.80235   0.80885   0.82256   0.84502
 Alpha virt. eigenvalues --    0.85072   0.85797   0.85920   0.87541   0.88709
 Alpha virt. eigenvalues --    0.90547   0.94314   0.96549   0.98106   1.00877
 Alpha virt. eigenvalues --    1.06103   1.08327   1.10315   1.21133   1.24010
 Alpha virt. eigenvalues --    1.25765   1.27083   1.28902   1.29402   1.31212
 Alpha virt. eigenvalues --    1.33144   1.35851   1.37041   1.38655   1.40252
 Alpha virt. eigenvalues --    1.41969   1.43124   1.47633   1.50023   1.51167
 Alpha virt. eigenvalues --    1.53491   1.55497   1.58651   1.64671   1.65508
 Alpha virt. eigenvalues --    1.68554   1.71164   1.72213   1.76740   1.80133
 Alpha virt. eigenvalues --    1.81593   1.83459   1.84559   1.86504   1.88470
 Alpha virt. eigenvalues --    1.89911   1.91077   1.93340   1.96474   1.99726
 Alpha virt. eigenvalues --    2.02086   2.08864   2.09185   2.11833   2.16007
 Alpha virt. eigenvalues --    2.20141   2.24205   2.27670   2.34225   2.36874
 Alpha virt. eigenvalues --    2.39344   2.42088   2.44880   2.51823   2.58802
 Alpha virt. eigenvalues --    2.69932   2.73200   2.80271   2.82430   2.84771
 Alpha virt. eigenvalues --    2.87933   2.90637   2.91770   2.93285   2.93689
 Alpha virt. eigenvalues --    2.95387   2.97485   3.00280   3.04255   3.12572
 Alpha virt. eigenvalues --    3.14130   3.18811   3.20198   3.23613   3.28153
 Alpha virt. eigenvalues --    3.34452   3.36063   3.37339   3.39679   3.42686
 Alpha virt. eigenvalues --    3.46156   3.49422   3.51253   3.54648   3.58317
 Alpha virt. eigenvalues --    3.65533   3.69079   3.71265   3.75926   3.80662
 Alpha virt. eigenvalues --    3.92253   4.02284   4.10947   4.14800   4.20702
 Alpha virt. eigenvalues --    4.22171   4.35286   4.44673   4.52506   4.54856
 Alpha virt. eigenvalues --    4.67673   5.52063   5.56430   5.61621   5.76453
 Alpha virt. eigenvalues --    5.81475   5.90573   6.06164   6.21900   6.42720
 Alpha virt. eigenvalues --   24.68569  24.94981  25.00353  25.12678  26.28889
 Alpha virt. eigenvalues --   51.54395  51.58674  51.69980
  Beta  occ. eigenvalues --  -20.63062 -20.57824 -20.57474 -11.43287 -11.30483
  Beta  occ. eigenvalues --  -11.27729 -11.26888 -11.23592  -1.49980  -1.39866
  Beta  occ. eigenvalues --   -1.25438  -1.08707  -1.04235  -0.93198  -0.82752
  Beta  occ. eigenvalues --   -0.78291  -0.73777  -0.70878  -0.68994  -0.64668
  Beta  occ. eigenvalues --   -0.60541  -0.58795  -0.56755  -0.53344  -0.51652
  Beta  occ. eigenvalues --   -0.50076  -0.49626  -0.46513  -0.43590  -0.43502
  Beta virt. eigenvalues --    0.03546   0.04402   0.05144   0.06218   0.07181
  Beta virt. eigenvalues --    0.07654   0.08078   0.09882   0.10471   0.11085
  Beta virt. eigenvalues --    0.11681   0.12329   0.13882   0.15081   0.15436
  Beta virt. eigenvalues --    0.16375   0.16726   0.17664   0.18583   0.18942
  Beta virt. eigenvalues --    0.19596   0.20460   0.21537   0.22139   0.23092
  Beta virt. eigenvalues --    0.24308   0.25334   0.25733   0.27636   0.29213
  Beta virt. eigenvalues --    0.29628   0.30630   0.30986   0.32700   0.34600
  Beta virt. eigenvalues --    0.35722   0.36456   0.36973   0.38384   0.38569
  Beta virt. eigenvalues --    0.39875   0.40731   0.40971   0.41380   0.42993
  Beta virt. eigenvalues --    0.44644   0.45641   0.47011   0.49296   0.49740
  Beta virt. eigenvalues --    0.54624   0.55238   0.57051   0.58224   0.60737
  Beta virt. eigenvalues --    0.62653   0.65933   0.69285   0.69957   0.70944
  Beta virt. eigenvalues --    0.74738   0.75502   0.80522   0.81234   0.82461
  Beta virt. eigenvalues --    0.85035   0.85806   0.85956   0.86279   0.87762
  Beta virt. eigenvalues --    0.89120   0.91095   0.94784   0.96799   0.98735
  Beta virt. eigenvalues --    1.00965   1.06235   1.08570   1.10382   1.21972
  Beta virt. eigenvalues --    1.24594   1.26147   1.28188   1.29506   1.30998
  Beta virt. eigenvalues --    1.33081   1.34063   1.35924   1.38123   1.40030
  Beta virt. eigenvalues --    1.42028   1.43172   1.43607   1.47789   1.50280
  Beta virt. eigenvalues --    1.51323   1.54127   1.55561   1.58877   1.64755
  Beta virt. eigenvalues --    1.65457   1.69985   1.71363   1.73146   1.78616
  Beta virt. eigenvalues --    1.80957   1.81927   1.83527   1.85136   1.86451
  Beta virt. eigenvalues --    1.89032   1.90401   1.91777   1.94074   1.96991
  Beta virt. eigenvalues --    2.00096   2.02972   2.08912   2.09779   2.12045
  Beta virt. eigenvalues --    2.16440   2.20252   2.24517   2.27964   2.34445
  Beta virt. eigenvalues --    2.37338   2.40426   2.42594   2.45201   2.54162
  Beta virt. eigenvalues --    2.59421   2.70172   2.74492   2.80390   2.82537
  Beta virt. eigenvalues --    2.84498   2.88031   2.90852   2.91803   2.93336
  Beta virt. eigenvalues --    2.93961   2.95489   2.97917   3.00053   3.04341
  Beta virt. eigenvalues --    3.12628   3.14130   3.18333   3.20453   3.27603
  Beta virt. eigenvalues --    3.32044   3.35574   3.36094   3.37541   3.39705
  Beta virt. eigenvalues --    3.43440   3.46293   3.51111   3.54666   3.57890
  Beta virt. eigenvalues --    3.59189   3.66170   3.69761   3.71609   3.76763
  Beta virt. eigenvalues --    3.84678   3.92275   4.02330   4.11066   4.16514
  Beta virt. eigenvalues --    4.20835   4.22200   4.39036   4.44986   4.52831
  Beta virt. eigenvalues --    4.56349   4.68071   5.53558   5.57339   5.61838
  Beta virt. eigenvalues --    5.76500   5.88581   5.91908   6.08797   6.22277
  Beta virt. eigenvalues --    6.42783  24.68569  24.95931  25.00416  25.12640
  Beta virt. eigenvalues --   26.28887  51.56329  51.58736  51.70004
          Condensed to atoms (all electrons):
               1          2          3          4          5          6
     1  C    6.840234   0.497403  -2.152721   1.765537  -0.115840  -0.139683
     2  H    0.497403   0.401870  -0.147960   0.051422  -0.003277  -0.006019
     3  C   -2.152721  -0.147960  10.795353  -3.497284   0.149518  -0.060887
     4  C    1.765537   0.051422  -3.497284   7.948680   0.335007   0.032949
     5  O   -0.115840  -0.003277   0.149518   0.335007   8.098480  -0.096747
     6  O   -0.139683  -0.006019  -0.060887   0.032949  -0.096747   8.358457
     7  C    0.075982  -0.000846  -0.482593  -0.053940  -0.031506   0.203503
     8  C    0.045106   0.000906  -0.180482   0.061235   0.018729  -0.166927
     9  H    0.000766   0.000031   0.003159   0.020951  -0.017002  -0.036133
    10  H   -0.003764   0.000004   0.010726  -0.025085   0.002081  -0.026136
    11  H   -0.001734  -0.000075   0.010701  -0.000722  -0.001281  -0.005547
    12  H    0.001702   0.000051  -0.004305   0.006809  -0.001413  -0.016141
    13  H   -0.001174  -0.000039   0.003672  -0.005432   0.001647   0.026228
    14  O    0.001217   0.000067  -0.004563   0.003875  -0.008366   0.007017
    15  H    0.000123  -0.000071  -0.001843  -0.006939   0.004660  -0.001835
               7          8          9         10         11         12
     1  C    0.075982   0.045106   0.000766  -0.003764  -0.001734   0.001702
     2  H   -0.000846   0.000906   0.000031   0.000004  -0.000075   0.000051
     3  C   -0.482593  -0.180482   0.003159   0.010726   0.010701  -0.004305
     4  C   -0.053940   0.061235   0.020951  -0.025085  -0.000722   0.006809
     5  O   -0.031506   0.018729  -0.017002   0.002081  -0.001281  -0.001413
     6  O    0.203503  -0.166927  -0.036133  -0.026136  -0.005547  -0.016141
     7  C    5.986656  -0.067175   0.408652   0.312019  -0.026016  -0.056525
     8  C   -0.067175   5.822786  -0.086653  -0.103843   0.388021   0.416715
     9  H    0.408652  -0.086653   0.560849  -0.050457   0.004702  -0.009694
    10  H    0.312019  -0.103843  -0.050457   0.685463  -0.013412   0.013409
    11  H   -0.026016   0.388021   0.004702  -0.013412   0.539526  -0.036961
    12  H   -0.056525   0.416715  -0.009694   0.013409  -0.036961   0.564280
    13  H   -0.068173   0.435770  -0.004312  -0.011706  -0.030841  -0.031816
    14  O    0.007162  -0.003023  -0.005580  -0.032647  -0.000093  -0.002804
    15  H    0.019430   0.016746  -0.003660  -0.034955   0.000729   0.000096
              13         14         15
     1  C   -0.001174   0.001217   0.000123
     2  H   -0.000039   0.000067  -0.000071
     3  C    0.003672  -0.004563  -0.001843
     4  C   -0.005432   0.003875  -0.006939
     5  O    0.001647  -0.008366   0.004660
     6  O    0.026228   0.007017  -0.001835
     7  C   -0.068173   0.007162   0.019430
     8  C    0.435770  -0.003023   0.016746
     9  H   -0.004312  -0.005580  -0.003660
    10  H   -0.011706  -0.032647  -0.034955
    11  H   -0.030841  -0.000093   0.000729
    12  H   -0.031816  -0.002804   0.000096
    13  H    0.531052   0.001520   0.000279
    14  O    0.001520   8.071971   0.300977
    15  H    0.000279   0.300977   0.429654
          Atomic-Atomic Spin Densities.
               1          2          3          4          5          6
     1  C   -0.003614   0.000406  -0.008484   0.009553   0.000505  -0.004154
     2  H    0.000406  -0.000089  -0.001605   0.001266   0.000028  -0.000064
     3  C   -0.008484  -0.001605   0.015506  -0.012907   0.000272   0.010778
     4  C    0.009553   0.001266  -0.012907  -0.006246  -0.002527  -0.006757
     5  O    0.000505   0.000028   0.000272  -0.002527   0.010202  -0.000019
     6  O   -0.004154  -0.000064   0.010778  -0.006757  -0.000019   0.045085
     7  C   -0.000885   0.000079   0.005039  -0.003349   0.000404  -0.062297
     8  C    0.001289   0.000099  -0.000049   0.006816   0.000001   0.000725
     9  H    0.000270  -0.000069  -0.006311  -0.010577   0.001517   0.002326
    10  H    0.000720   0.000203   0.015591   0.057003  -0.005656  -0.011524
    11  H    0.000041   0.000004  -0.000040  -0.000585  -0.000014   0.000923
    12  H   -0.000440  -0.000002   0.002197   0.002666  -0.000059   0.002587
    13  H    0.000052  -0.000001  -0.000378  -0.000813   0.000008   0.000071
    14  O    0.000906  -0.000055  -0.014240  -0.031364   0.003211   0.013250
    15  H   -0.000287  -0.000004   0.002520   0.003976  -0.000366  -0.001581
               7          8          9         10         11         12
     1  C   -0.000885   0.001289   0.000270   0.000720   0.000041  -0.000440
     2  H    0.000079   0.000099  -0.000069   0.000203   0.000004  -0.000002
     3  C    0.005039  -0.000049  -0.006311   0.015591  -0.000040   0.002197
     4  C   -0.003349   0.006816  -0.010577   0.057003  -0.000585   0.002666
     5  O    0.000404   0.000001   0.001517  -0.005656  -0.000014  -0.000059
     6  O   -0.062297   0.000725   0.002326  -0.011524   0.000923   0.002587
     7  C    0.641456  -0.039521  -0.032492   0.029844  -0.009977   0.003838
     8  C   -0.039521  -0.038882   0.022069  -0.023318   0.008236  -0.011290
     9  H   -0.032492   0.022069  -0.025597   0.029820   0.001007  -0.002040
    10  H    0.029844  -0.023318   0.029820  -0.298820  -0.001070  -0.003009
    11  H   -0.009977   0.008236   0.001007  -0.001070   0.009211  -0.005284
    12  H    0.003838  -0.011290  -0.002040  -0.003009  -0.005284   0.039416
    13  H   -0.003077   0.005716   0.001353  -0.003195   0.000612  -0.002646
    14  O   -0.051082   0.024728  -0.000038   0.013374   0.002199  -0.000697
    15  H    0.002160  -0.002025  -0.000714   0.005894  -0.000228   0.000249
              13         14         15
     1  C    0.000052   0.000906  -0.000287
     2  H   -0.000001  -0.000055  -0.000004
     3  C   -0.000378  -0.014240   0.002520
     4  C   -0.000813  -0.031364   0.003976
     5  O    0.000008   0.003211  -0.000366
     6  O    0.000071   0.013250  -0.001581
     7  C   -0.003077  -0.051082   0.002160
     8  C    0.005716   0.024728  -0.002025
     9  H    0.001353  -0.000038  -0.000714
    10  H   -0.003195   0.013374   0.005894
    11  H    0.000612   0.002199  -0.000228
    12  H   -0.002646  -0.000697   0.000249
    13  H    0.002254   0.001853  -0.000071
    14  O    0.001853   0.800700  -0.002706
    15  H   -0.000071  -0.002706  -0.027204
 Mulliken charges and spin densities:
               1          2
     1  C   -0.813154  -0.004121
     2  H    0.206536   0.000196
     3  C    1.559511   0.007888
     4  C   -0.637061   0.006156
     5  O   -0.334689   0.007507
     6  O   -0.072097  -0.010650
     7  C   -0.226628   0.480139
     8  C   -0.597910  -0.045407
     9  H    0.214380  -0.019476
    10  H    0.278303  -0.194143
    11  H    0.173005   0.005035
    12  H    0.156597   0.025486
    13  H    0.153327   0.001738
    14  O   -0.336730   0.760040
    15  H    0.276611  -0.020388
 Sum of Mulliken charges =  -0.00000   1.00000
 Mulliken charges and spin densities with hydrogens summed into heavy atoms:
               1          2
     1  C   -0.606618  -0.003926
     3  C    1.559511   0.007888
     4  C   -0.637061   0.006156
     5  O   -0.334689   0.007507
     6  O   -0.072097  -0.010650
     7  C    0.266055   0.266519
     8  C   -0.114982  -0.013148
    14  O   -0.060119   0.739653
 Electronic spatial extent (au):  <R**2>=           1211.6171
 Charge=             -0.0000 electrons
 Dipole moment (field-independent basis, Debye):
    X=              1.4633    Y=             -2.2993    Z=              0.3567  Tot=              2.7487
 Quadrupole moment (field-independent basis, Debye-Ang):
   XX=            -37.8201   YY=            -49.9902   ZZ=            -49.2861
   XY=              0.8899   XZ=             -5.7718   YZ=             -0.2550
 Traceless Quadrupole moment (field-independent basis, Debye-Ang):
   XX=              7.8787   YY=             -4.2914   ZZ=             -3.5873
   XY=              0.8899   XZ=             -5.7718   YZ=             -0.2550
 Octapole moment (field-independent basis, Debye-Ang**2):
  XXX=             52.6808  YYY=             12.4604  ZZZ=              2.7167  XYY=             -5.3279
  XXY=            -24.3338  XXZ=             -7.8076  XZZ=             -3.4600  YZZ=             -1.9729
  YYZ=              0.0654  XYZ=             -3.2502
 Hexadecapole moment (field-independent basis, Debye-Ang**3):
 XXXX=           -817.0919 YYYY=           -369.0832 ZZZZ=           -114.6054 XXXY=            -43.2949
 XXXZ=            -68.8618 YYYX=             -7.3582 YYYZ=             -4.3827 ZZZX=              3.2996
 ZZZY=              0.9223 XXYY=           -264.9474 XXZZ=           -204.5876 YYZZ=            -90.1832
 XXYZ=             17.9693 YYXZ=             -7.2375 ZZXY=             -0.0962
 N-N= 3.519571515666D+02 E-N=-1.686382784370D+03  KE= 4.176032097570D+02
 1\1\GINC-AJ\SP\UCCSD(T)-FC\6-311++G(d,p)\C5H7O3(2)\AAYUSH\17-Apr-2025\
 0\\# ccsd(t)/6-311++g(d,p) sp\\Title Card Required\\0,2\C,0,3.278152,-
 0.523733,-0.441033\H,0,4.271619,-0.790615,-0.717117\C,0,2.160614,-0.22
 5049,-0.130463\C,0,0.824529,0.186557,0.260392\O,0,0.56585,1.241402,0.7
 71164\O,0,-0.078277,-0.760266,-0.019652\C,0,-1.417063,-0.484031,0.3554
 84\C,0,-2.294865,-1.618384,-0.090918\H,0,-1.47233,-0.23419,1.416862\H,
 0,-1.765606,0.576744,-0.22468\H,0,-2.214432,-1.763285,-1.168529\H,0,-1
 .996414,-2.543229,0.410682\H,0,-3.333234,-1.401745,0.160595\O,0,-1.915
 678,1.767883,-0.696929\H,0,-1.203257,2.190597,-0.190099\\Version=ES64L
 -G16RevA.03\State=2-A\HF=-417.9662245\MP2=-419.2507246\MP3=-419.272274
 1\MP4D=-419.3039548\MP4DQ=-419.2779227\PUHF=-417.975468\PMP2-0=-419.25
 7069\PMP3-0=-419.2759885\MP4SDQ=-419.2987223\CCSD=-419.2988129\CCSD(T)
 =-419.3540488\S2=0.791239\S2-1=0.765173\S2A=0.750528\RMSD=6.180e-09\PG
 =C01 [X(C5H7O3)]\\@


 ... UNTIL SCIENCE IS MIXED WITH EMOTION AND APPEALS TO THE HEART AND
 IMAGINATION , IT IS LIKE DEAD INORGANIC MATTER; AND WHEN IT IS SO MIXED
 AND SO TRANSFORMED IT IS LITERATURE.

                                  -- JOHN BURROUGHS
 Job cpu time:       0 days 16 hours 53 minutes  0.3 seconds.
 Elapsed time:       0 days  0 hours 42 minutes 32.7 seconds.
 File lengths (MBytes):  RWF=  44258 Int=      0 D2E=      0 Chk=      5 Scr=      1
 Normal termination of Gaussian 16 at Thu Apr 17 13:09:58 2025.
