 Entering Link 1 = C:\G09W\l1.exe PID=     12556.
  
 Copyright (c) 1988,1990,1992,1993,1995,1998,2003,2009,2013,
            Gaussian, Inc.  All Rights Reserved.
  
 This is part of the Gaussian(R) 09 program.  It is based on
 the Gaussian(R) 03 system (copyright 2003, Gaussian, Inc.),
 the Gaussian(R) 98 system (copyright 1998, Gaussian, Inc.),
 the Gaussian(R) 94 system (copyright 1995, Gaussian, Inc.),
 the Gaussian 92(TM) system (copyright 1992, Gaussian, Inc.),
 the Gaussian 90(TM) system (copyright 1990, Gaussian, Inc.),
 the Gaussian 88(TM) system (copyright 1988, Gaussian, Inc.),
 the Gaussian 86(TM) system (copyright 1986, Carnegie Mellon
 University), and the Gaussian 82(TM) system (copyright 1983,
 Carnegie Mellon University). Gaussian is a federally registered
 trademark of Gaussian, Inc.
  
 This software contains proprietary and confidential information,
 including trade secrets, belonging to Gaussian, Inc.
  
 This software is provided under written license and may be
 used, copied, transmitted, or stored only in accord with that
 written license.
  
 The following legend is applicable only to US Government
 contracts under FAR:
  
                    RESTRICTED RIGHTS LEGEND
  
 Use, reproduction and disclosure by the US Government is
 subject to restrictions as set forth in subparagraphs (a)
 and (c) of the Commercial Computer Software - Restricted
 Rights clause in FAR 52.227-19.
  
 Gaussian, Inc.
 340 Quinnipiac St., Bldg. 40, Wallingford CT 06492
  
  
 ---------------------------------------------------------------
 Warning -- This program may not be used in any manner that
 competes with the business of Gaussian, Inc. or will provide
 assistance to any competitor of Gaussian, Inc.  The licensee
 of this program is prohibited from giving any competitor of
 Gaussian, Inc. access to this program.  By using this program,
 the user acknowledges that Gaussian, Inc. is engaged in the
 business of creating and licensing software in the field of
 computational chemistry and represents and warrants to the
 licensee that it is not a competitor of Gaussian, Inc. and that
 it will not use this program in any manner prohibited above.
 ---------------------------------------------------------------
  

 Cite this work as:
 Gaussian 09, Revision D.01,
 M. J. Frisch, G. W. Trucks, H. B. Schlegel, G. E. Scuseria, 
 M. A. Robb, J. R. Cheeseman, G. Scalmani, V. Barone, B. Mennucci, 
 G. A. Petersson, H. Nakatsuji, M. Caricato, X. Li, H. P. Hratchian, 
 A. F. Izmaylov, J. Bloino, G. Zheng, J. L. Sonnenberg, M. Hada, 
 M. Ehara, K. Toyota, R. Fukuda, J. Hasegawa, M. Ishida, T. Nakajima, 
 Y. Honda, O. Kitao, H. Nakai, T. Vreven, J. A. Montgomery, Jr., 
 J. E. Peralta, F. Ogliaro, M. Bearpark, J. J. Heyd, E. Brothers, 
 K. N. Kudin, V. N. Staroverov, T. Keith, R. Kobayashi, J. Normand, 
 K. Raghavachari, A. Rendell, J. C. Burant, S. S. Iyengar, J. Tomasi, 
 M. Cossi, N. Rega, J. M. Millam, M. Klene, J. E. Knox, J. B. Cross, 
 V. Bakken, C. Adamo, J. Jaramillo, R. Gomperts, R. E. Stratmann, 
 O. Yazyev, A. J. Austin, R. Cammi, C. Pomelli, J. W. Ochterski, 
 R. L. Martin, K. Morokuma, V. G. Zakrzewski, G. A. Voth, 
 P. Salvador, J. J. Dannenberg, S. Dapprich, A. D. Daniels, 
 O. Farkas, J. B. Foresman, J. V. Ortiz, J. Cioslowski, 
 and D. J. Fox, Gaussian, Inc., Wallingford CT, 2013.
 
 ******************************************
 Gaussian 09:  IA32W-G09RevD.01 24-Apr-2013
                27-Mar-2025 
 ******************************************
 %chk=ethyl_propiolate.chk
 %nprocshared=4
 Will use up to    4 processors via shared memory.
 %mem=1700MB
 --------------------------
 # freq 6-311++g(d,p) m062x
 --------------------------
 1/10=4,30=1,38=1/1,3;
 2/12=2,17=6,18=5,40=1/2;
 3/5=4,6=6,7=1111,11=2,16=1,25=1,30=1,71=2,74=-55,140=1/1,2,3;
 4//1;
 5/5=2,38=5,98=1/2;
 8/6=4,10=90,11=11/1;
 11/6=1,8=1,9=11,15=111,16=1/1,2,10;
 10/6=1/2;
 6/7=2,8=2,9=2,10=2,18=1,28=1/1;
 7/8=1,10=1,25=1/1,2,3,16;
 1/10=4,30=1/3;
 99//99;
 -------------------
 Title Card Required
 -------------------
 Symbolic Z-matrix:
 Charge =  0 Multiplicity = 2
 C                     3.2782   -0.52372  -0.44103 
 H                     4.27165  -0.79064  -0.71697 
 C                     2.16071  -0.22495  -0.13043 
 C                     0.82388   0.18585   0.26013 
 O                     0.56566   1.24162   0.77101 
 O                    -0.07686  -0.76072  -0.01949 
 C                    -1.41852  -0.48292   0.35557 
 C                    -2.29461  -1.61986  -0.09038 
 H                    -1.47069  -0.2451    1.42007 
 H                    -1.75848   0.52347  -0.20398 
 H                    -2.21448  -1.76298  -1.16829 
 H                    -1.99786  -2.54515   0.40995 
 H                    -3.3331   -1.40217   0.16046 
 O                    -1.91624   1.77299  -0.69878 
 H                    -1.20092   2.19051  -0.18903 
 

 GradGradGradGradGradGradGradGradGradGradGradGradGradGradGradGradGradGrad
 Berny optimization.
 Initialization pass.
 Trust Radius=3.00D-01 FncErr=1.00D-07 GrdErr=1.00D-07
 Number of steps in this run=      2 maximum allowed number of steps=      2.
 GradGradGradGradGradGradGradGradGradGradGradGradGradGradGradGradGradGrad

                          Input orientation:                          
 ---------------------------------------------------------------------
 Center     Atomic      Atomic             Coordinates (Angstroms)
 Number     Number       Type             X           Y           Z
 ---------------------------------------------------------------------
      1          6           0        3.278195   -0.523719   -0.441025
      2          1           0        4.271648   -0.790643   -0.716969
      3          6           0        2.160707   -0.224951   -0.130428
      4          6           0        0.823883    0.185854    0.260130
      5          8           0        0.565659    1.241615    0.771009
      6          8           0       -0.076861   -0.760716   -0.019487
      7          6           0       -1.418519   -0.482919    0.355569
      8          6           0       -2.294605   -1.619863   -0.090377
      9          1           0       -1.470694   -0.245098    1.420070
     10          1           0       -1.758478    0.523468   -0.203979
     11          1           0       -2.214478   -1.762980   -1.168291
     12          1           0       -1.997858   -2.545152    0.409947
     13          1           0       -3.333102   -1.402167    0.160459
     14          8           0       -1.916237    1.772991   -0.698780
     15          1           0       -1.200917    2.190513   -0.189030
 ---------------------------------------------------------------------
                    Distance matrix (angstroms):
                    1          2          3          4          5
     1  C    0.000000
     2  H    1.065055   0.000000
     3  C    1.197711   2.262766   0.000000
     4  C    2.649294   3.714210   1.452031   0.000000
     5  O    3.455905   4.480905   2.346824   1.200961   0.000000
     6  O    3.389729   4.404192   2.303489   1.336234   2.246563
     7  C    4.763964   5.798537   3.621270   2.341951   2.661498
     8  C    5.690394   6.648000   4.668746   3.620557   4.136563
     9  H    5.108155   6.151345   3.948610   2.606965   2.603522
    10  H    5.149841   6.192937   3.990683   2.645367   2.620677
    11  H    5.677512   6.574113   4.752361   3.882007   4.529640
    12  H    5.713762   6.607189   4.792599   3.929766   4.587111
    13  H    6.696469   7.679587   5.626046   4.451098   4.750020
    14  O    5.685371   6.697945   4.575617   3.308590   2.932993
    15  H    5.243377   6.254197   4.139857   2.884479   2.223257
                    6          7          8          9         10
     6  O    0.000000
     7  C    1.420523   0.000000
     8  C    2.379401   1.503009   0.000000
     9  H    2.069047   1.091991   2.202330   0.000000
    10  H    2.123912   1.200617   2.212285   1.819629   0.000000
    11  H    2.625584   2.143422   1.090322   3.091406   2.523030
    12  H    2.656851   2.142754   1.092951   2.566807   3.138572
    13  H    3.323695   2.132771   1.090315   2.528634   2.514026
    14  O    3.203812   2.539391   3.467676   2.959851   1.353153
    15  H    3.162594   2.737002   3.965457   2.931584   1.757878
                   11         12         13         14         15
    11  H    0.000000
    12  H    1.774698   0.000000
    13  H    1.774002   1.775256   0.000000
    14  O    3.579452   4.458957   3.581540   0.000000
    15  H    4.197185   4.839464   4.192339   0.972549   0.000000
 Stoichiometry    C5H7O3(2)
 Framework group  C1[X(C5H7O3)]
 Deg. of freedom    39
 Full point group                 C1      NOp   1
 Largest Abelian subgroup         C1      NOp   1
 Largest concise Abelian subgroup C1      NOp   1
                         Standard orientation:                         
 ---------------------------------------------------------------------
 Center     Atomic      Atomic             Coordinates (Angstroms)
 Number     Number       Type             X           Y           Z
 ---------------------------------------------------------------------
      1          6           0        3.340922   -0.491108   -0.438473
      2          1           0        4.334382   -0.758173   -0.714257
      3          6           0        2.223427   -0.192181   -0.128054
      4          6           0        0.886592    0.218828    0.262249
      5          8           0        0.628312    1.274974    0.772304
      6          8           0       -0.014093   -0.728033   -0.016571
      7          6           0       -1.355753   -0.450044    0.358335
      8          6           0       -2.231774   -1.587410   -0.086664
      9          1           0       -1.407891   -0.211383    1.422650
     10          1           0       -1.695820    0.555873   -0.201992
     11          1           0       -2.151692   -1.731375   -1.164468
     12          1           0       -1.934928   -2.512279    0.414378
     13          1           0       -3.270274   -1.369596    0.164054
     14          8           0       -1.853703    1.804991   -0.697775
     15          1           0       -1.138389    2.222973   -0.188394
 ---------------------------------------------------------------------
 Rotational constants (GHZ):      3.0351021      1.2137546      0.9535946
 Standard basis: 6-311++G(d,p) (5D, 7F)
 There are   233 symmetry adapted cartesian basis functions of A   symmetry.
 There are   225 symmetry adapted basis functions of A   symmetry.
   225 basis functions,   351 primitive gaussians,   233 cartesian basis functions
    31 alpha electrons       30 beta electrons
       nuclear repulsion energy       351.8774273832 Hartrees.
 NAtoms=   15 NActive=   15 NUniq=   15 SFac= 1.00D+00 NAtFMM=   60 NAOKFM=F Big=F
 Integral buffers will be    262144 words long.
 Raffenetti 2 integral format.
 Two-electron integral symmetry is turned on.
 One-electron integrals computed using PRISM.
 NBasis=   225 RedAO= T EigKep=  5.77D-06  NBF=   225
 NBsUse=   224 1.00D-06 EigRej=  7.14D-07 NBFU=   224
 ExpMin= 3.60D-02 ExpMax= 8.59D+03 ExpMxC= 1.30D+03 IAcc=3 IRadAn=         5 AccDes= 0.00D+00
 Harris functional with IExCor= 1009 and IRadAn=       5 diagonalized for initial guess.
 HarFok:  IExCor= 1009 AccDes= 0.00D+00 IRadAn=         5 IDoV= 1 UseB2=F ITyADJ=14
 ICtDFT=  3500011 ScaDFX=  1.000000  1.000000  1.000000  1.000000
 FoFCou: FMM=F IPFlag=           0 FMFlag=      100000 FMFlg1=           0
         NFxFlg=           0 DoJE=T BraDBF=F KetDBF=T FulRan=T
         wScrn=  0.000000 ICntrl=     500 IOpCl=  0 I1Cent=   200000004 NGrid=           0
         NMat0=    1 NMatS0=      1 NMatT0=    0 NMatD0=    1 NMtDS0=    0 NMtDT0=    0
 Petite list used in FoFCou.
 Initial guess <Sx>= 0.0000 <Sy>= 0.0000 <Sz>= 0.5000 <S**2>= 0.7500 S= 0.5000
 Requested convergence on RMS density matrix=1.00D-08 within 128 cycles.
 Requested convergence on MAX density matrix=1.00D-06.
 Requested convergence on             energy=1.00D-06.
 No special actions if energy rises.
 Restarting incremental Fock formation.
 SCF Done:  E(UM062X) =  -420.204590101     A.U. after   22 cycles
            NFock= 22  Conv=0.13D-08     -V/T= 2.0033
 <Sx>= 0.0000 <Sy>= 0.0000 <Sz>= 0.5000 <S**2>= 0.7591 S= 0.5046
 <L.S>= 0.000000000000E+00
 Annihilation of the first spin contaminant:
 S**2 before annihilation     0.7591,   after     0.7500
 DoSCS=F DFT=T ScalE2(SS,OS)=  1.000000  1.000000
 Range of M.O.s used for correlation:     1   224
 NBasis=   225 NAE=    31 NBE=    30 NFC=     0 NFV=     0
 NROrb=    224 NOA=    31 NOB=    30 NVA=   193 NVB=   194

 **** Warning!!: The largest alpha MO coefficient is  0.12388697D+03


 **** Warning!!: The largest beta MO coefficient is  0.12173668D+03

 Symmetrizing basis deriv contribution to polar:
 IMax=3 JMax=2 DiffMx= 0.00D+00
 G2DrvN: will do    16 centers at a time, making    1 passes.
 Calling FoFCou, ICntrl=  3107 FMM=F I1Cent=   0 AccDes= 0.00D+00.
 End of G2Drv F.D. properties file   721 does not exist.
 End of G2Drv F.D. properties file   722 does not exist.
 End of G2Drv F.D. properties file   788 does not exist.
          IDoAtm=111111111111111
          Differentiating once with respect to electric field.
                with respect to dipole field.
          Differentiating once with respect to nuclear coordinates.
          There are    48 degrees of freedom in the 1st order CPHF.  IDoFFX=6 NUNeed=     3.
     46 vectors produced by pass  0 Test12= 2.46D-14 2.08D-09 XBig12= 9.80D+01 3.63D+00.
 AX will form    46 AO Fock derivatives at one time.
     45 vectors produced by pass  1 Test12= 2.46D-14 2.08D-09 XBig12= 1.94D+01 7.06D-01.
     45 vectors produced by pass  2 Test12= 2.46D-14 2.08D-09 XBig12= 7.92D-01 1.56D-01.
     45 vectors produced by pass  3 Test12= 2.46D-14 2.08D-09 XBig12= 1.27D-02 1.40D-02.
     45 vectors produced by pass  4 Test12= 2.46D-14 2.08D-09 XBig12= 1.31D-04 1.76D-03.
     45 vectors produced by pass  5 Test12= 2.46D-14 2.08D-09 XBig12= 1.19D-06 9.84D-05.
     43 vectors produced by pass  6 Test12= 2.46D-14 2.08D-09 XBig12= 8.11D-09 8.60D-06.
     21 vectors produced by pass  7 Test12= 2.46D-14 2.08D-09 XBig12= 4.09D-11 5.42D-07.
      3 vectors produced by pass  8 Test12= 2.46D-14 2.08D-09 XBig12= 3.46D-13 4.95D-08.
      3 vectors produced by pass  9 Test12= 2.46D-14 2.08D-09 XBig12= 3.35D-14 2.22D-08.
      3 vectors produced by pass 10 Test12= 2.46D-14 2.08D-09 XBig12= 6.14D-15 1.62D-08.
      3 vectors produced by pass 11 Test12= 2.46D-14 2.08D-09 XBig12= 1.22D-15 5.43D-09.
      3 vectors produced by pass 12 Test12= 2.46D-14 2.08D-09 XBig12= 8.35D-16 4.26D-09.
      3 vectors produced by pass 13 Test12= 2.46D-14 2.08D-09 XBig12= 2.19D-15 5.42D-09.
      3 vectors produced by pass 14 Test12= 2.46D-14 2.08D-09 XBig12= 1.03D-15 4.20D-09.
      2 vectors produced by pass 15 Test12= 2.46D-14 2.08D-09 XBig12= 5.53D-16 3.43D-09.
      1 vectors produced by pass 16 Test12= 2.46D-14 2.08D-09 XBig12= 6.73D-16 3.12D-09.
 InvSVY:  IOpt=1 It=  1 EMax= 5.33D-15
 Solved reduced A of dimension   359 with    48 vectors.
 Isotropic polarizability for W=    0.000000       77.61 Bohr**3.
 End of Minotr F.D. properties file   721 does not exist.
 End of Minotr F.D. properties file   722 does not exist.
 End of Minotr F.D. properties file   788 does not exist.

 **********************************************************************

            Population analysis using the SCF density.

 **********************************************************************

 Orbital symmetries:
 Alpha Orbitals:
       Occupied  (A) (A) (A) (A) (A) (A) (A) (A) (A) (A) (A) (A)
                 (A) (A) (A) (A) (A) (A) (A) (A) (A) (A) (A) (A)
                 (A) (A) (A) (A) (A) (A) (A)
       Virtual   (A) (A) (A) (A) (A) (A) (A) (A) (A) (A) (A) (A)
                 (A) (A) (A) (A) (A) (A) (A) (A) (A) (A) (A) (A)
                 (A) (A) (A) (A) (A) (A) (A) (A) (A) (A) (A) (A)
                 (A) (A) (A) (A) (A) (A) (A) (A) (A) (A) (A) (A)
                 (A) (A) (A) (A) (A) (A) (A) (A) (A) (A) (A) (A)
                 (A) (A) (A) (A) (A) (A) (A) (A) (A) (A) (A) (A)
                 (A) (A) (A) (A) (A) (A) (A) (A) (A) (A) (A) (A)
                 (A) (A) (A) (A) (A) (A) (A) (A) (A) (A) (A) (A)
                 (A) (A) (A) (A) (A) (A) (A) (A) (A) (A) (A) (A)
                 (A) (A) (A) (A) (A) (A) (A) (A) (A) (A) (A) (A)
                 (A) (A) (A) (A) (A) (A) (A) (A) (A) (A) (A) (A)
                 (A) (A) (A) (A) (A) (A) (A) (A) (A) (A) (A) (A)
                 (A) (A) (A) (A) (A) (A) (A) (A) (A) (A) (A) (A)
                 (A) (A) (A) (A) (A) (A) (A) (A) (A) (A) (A) (A)
                 (A) (A) (A) (A) (A) (A) (A) (A) (A) (A) (A) (A)
                 (A) (A) (A) (A) (A) (A) (A) (A) (A) (A) (A) (A)
                 (A)
 Beta  Orbitals:
       Occupied  (A) (A) (A) (A) (A) (A) (A) (A) (A) (A) (A) (A)
                 (A) (A) (A) (A) (A) (A) (A) (A) (A) (A) (A) (A)
                 (A) (A) (A) (A) (A) (A)
       Virtual   (A) (A) (A) (A) (A) (A) (A) (A) (A) (A) (A) (A)
                 (A) (A) (A) (A) (A) (A) (A) (A) (A) (A) (A) (A)
                 (A) (A) (A) (A) (A) (A) (A) (A) (A) (A) (A) (A)
                 (A) (A) (A) (A) (A) (A) (A) (A) (A) (A) (A) (A)
                 (A) (A) (A) (A) (A) (A) (A) (A) (A) (A) (A) (A)
                 (A) (A) (A) (A) (A) (A) (A) (A) (A) (A) (A) (A)
                 (A) (A) (A) (A) (A) (A) (A) (A) (A) (A) (A) (A)
                 (A) (A) (A) (A) (A) (A) (A) (A) (A) (A) (A) (A)
                 (A) (A) (A) (A) (A) (A) (A) (A) (A) (A) (A) (A)
                 (A) (A) (A) (A) (A) (A) (A) (A) (A) (A) (A) (A)
                 (A) (A) (A) (A) (A) (A) (A) (A) (A) (A) (A) (A)
                 (A) (A) (A) (A) (A) (A) (A) (A) (A) (A) (A) (A)
                 (A) (A) (A) (A) (A) (A) (A) (A) (A) (A) (A) (A)
                 (A) (A) (A) (A) (A) (A) (A) (A) (A) (A) (A) (A)
                 (A) (A) (A) (A) (A) (A) (A) (A) (A) (A) (A) (A)
                 (A) (A) (A) (A) (A) (A) (A) (A) (A) (A) (A) (A)
                 (A) (A)
 The electronic state is 2-A.
 Alpha  occ. eigenvalues --  -19.70507 -19.64983 -19.64758 -10.72323 -10.62957
 Alpha  occ. eigenvalues --  -10.58105 -10.57622 -10.55211  -1.27840  -1.18367
 Alpha  occ. eigenvalues --   -1.11602  -0.92075  -0.88389  -0.79068  -0.71404
 Alpha  occ. eigenvalues --   -0.67564  -0.62002  -0.61717  -0.59637  -0.55921
 Alpha  occ. eigenvalues --   -0.52192  -0.50996  -0.49088  -0.48501  -0.45653
 Alpha  occ. eigenvalues --   -0.43161  -0.40938  -0.40450  -0.38344  -0.37507
 Alpha  occ. eigenvalues --   -0.34284
 Alpha virt. eigenvalues --   -0.02905  -0.00436   0.00407   0.01739   0.02364
 Alpha virt. eigenvalues --    0.03066   0.03347   0.04705   0.05850   0.06068
 Alpha virt. eigenvalues --    0.06303   0.07704   0.08427   0.08802   0.10427
 Alpha virt. eigenvalues --    0.10704   0.12086   0.12379   0.12848   0.13084
 Alpha virt. eigenvalues --    0.13620   0.14323   0.15196   0.16549   0.17093
 Alpha virt. eigenvalues --    0.17658   0.18066   0.18549   0.19434   0.20667
 Alpha virt. eigenvalues --    0.21612   0.22194   0.22776   0.23837   0.25920
 Alpha virt. eigenvalues --    0.26312   0.28235   0.28532   0.29651   0.30383
 Alpha virt. eigenvalues --    0.31068   0.31207   0.32297   0.32750   0.33391
 Alpha virt. eigenvalues --    0.35071   0.36477   0.37043   0.39730   0.40306
 Alpha virt. eigenvalues --    0.42762   0.43918   0.46412   0.47779   0.48849
 Alpha virt. eigenvalues --    0.52591   0.55040   0.55925   0.56937   0.59263
 Alpha virt. eigenvalues --    0.61346   0.63784   0.64897   0.67111   0.67968
 Alpha virt. eigenvalues --    0.68291   0.69326   0.69795   0.72074   0.73336
 Alpha virt. eigenvalues --    0.74177   0.78128   0.80170   0.81935   0.84853
 Alpha virt. eigenvalues --    0.88749   0.90569   0.93542   1.02166   1.05513
 Alpha virt. eigenvalues --    1.06253   1.09145   1.10267   1.11116   1.13086
 Alpha virt. eigenvalues --    1.14591   1.16254   1.18153   1.20605   1.21235
 Alpha virt. eigenvalues --    1.22928   1.23403   1.27899   1.29858   1.31823
 Alpha virt. eigenvalues --    1.33517   1.35956   1.37912   1.44023   1.45468
 Alpha virt. eigenvalues --    1.48335   1.49292   1.50448   1.53981   1.57113
 Alpha virt. eigenvalues --    1.59170   1.60218   1.61471   1.62973   1.65484
 Alpha virt. eigenvalues --    1.66726   1.68108   1.70255   1.72785   1.75148
 Alpha virt. eigenvalues --    1.78901   1.83975   1.84349   1.86230   1.90192
 Alpha virt. eigenvalues --    1.94621   1.98314   2.00671   2.06668   2.10248
 Alpha virt. eigenvalues --    2.13013   2.14012   2.17788   2.24969   2.30024
 Alpha virt. eigenvalues --    2.40698   2.43941   2.49577   2.51511   2.54503
 Alpha virt. eigenvalues --    2.58255   2.59199   2.60924   2.61551   2.65189
 Alpha virt. eigenvalues --    2.65944   2.66512   2.68327   2.72620   2.80315
 Alpha virt. eigenvalues --    2.81964   2.86290   2.88211   2.93741   2.96433
 Alpha virt. eigenvalues --    3.00995   3.03174   3.03626   3.06279   3.10373
 Alpha virt. eigenvalues --    3.12533   3.18965   3.20031   3.21040   3.25222
 Alpha virt. eigenvalues --    3.30675   3.34273   3.36025   3.41566   3.46635
 Alpha virt. eigenvalues --    3.55601   3.66469   3.73763   3.80094   3.84002
 Alpha virt. eigenvalues --    3.85339   3.98104   4.07359   4.14595   4.16505
 Alpha virt. eigenvalues --    4.28306   5.08665   5.12349   5.16106   5.31676
 Alpha virt. eigenvalues --    5.34464   5.44556   5.59890   5.73474   5.94172
 Alpha virt. eigenvalues --   23.61970  23.88579  23.93611  24.03618  25.17186
 Alpha virt. eigenvalues --   49.97727  49.98678  50.09562
  Beta  occ. eigenvalues --  -19.70446 -19.64964 -19.63493 -10.72324 -10.62569
  Beta  occ. eigenvalues --  -10.58104 -10.57623 -10.55213  -1.27631  -1.18211
  Beta  occ. eigenvalues --   -1.06611  -0.91573  -0.88038  -0.78918  -0.70456
  Beta  occ. eigenvalues --   -0.66915  -0.61973  -0.60169  -0.59265  -0.53953
  Beta  occ. eigenvalues --   -0.51303  -0.49777  -0.48370  -0.45285  -0.44156
  Beta  occ. eigenvalues --   -0.40978  -0.40161  -0.38185  -0.37532  -0.37454
  Beta virt. eigenvalues --   -0.10562  -0.02643  -0.00367   0.00439   0.01853
  Beta virt. eigenvalues --    0.02605   0.03148   0.03398   0.05094   0.05915
  Beta virt. eigenvalues --    0.06154   0.06439   0.07798   0.08550   0.08976
  Beta virt. eigenvalues --    0.10503   0.10990   0.12168   0.12448   0.12908
  Beta virt. eigenvalues --    0.13237   0.13776   0.14536   0.15437   0.16689
  Beta virt. eigenvalues --    0.17212   0.17828   0.18344   0.18729   0.19635
  Beta virt. eigenvalues --    0.21057   0.21799   0.22211   0.22849   0.24140
  Beta virt. eigenvalues --    0.26014   0.26335   0.28171   0.28519   0.29787
  Beta virt. eigenvalues --    0.30437   0.31292   0.31373   0.32323   0.32767
  Beta virt. eigenvalues --    0.33665   0.35081   0.36987   0.37462   0.39936
  Beta virt. eigenvalues --    0.41378   0.43051   0.44060   0.46549   0.48022
  Beta virt. eigenvalues --    0.48903   0.52646   0.55381   0.55980   0.57006
  Beta virt. eigenvalues --    0.59577   0.61639   0.64024   0.65024   0.67312
  Beta virt. eigenvalues --    0.68334   0.68658   0.69356   0.69872   0.72207
  Beta virt. eigenvalues --    0.73620   0.74237   0.78354   0.80202   0.82274
  Beta virt. eigenvalues --    0.84893   0.88770   0.90719   0.93553   1.02514
  Beta virt. eigenvalues --    1.05941   1.06360   1.09942   1.10434   1.11926
  Beta virt. eigenvalues --    1.14044   1.14936   1.16352   1.18528   1.21082
  Beta virt. eigenvalues --    1.22604   1.23420   1.23561   1.28033   1.30011
  Beta virt. eigenvalues --    1.31916   1.33719   1.36017   1.38012   1.44065
  Beta virt. eigenvalues --    1.45746   1.48804   1.49472   1.50933   1.55350
  Beta virt. eigenvalues --    1.57444   1.59390   1.60244   1.61748   1.62914
  Beta virt. eigenvalues --    1.65487   1.66831   1.68437   1.70424   1.73237
  Beta virt. eigenvalues --    1.75427   1.79299   1.83998   1.84815   1.86232
  Beta virt. eigenvalues --    1.90518   1.94686   1.98282   2.00807   2.06688
  Beta virt. eigenvalues --    2.10429   2.13358   2.14540   2.17801   2.25870
  Beta virt. eigenvalues --    2.30506   2.40806   2.44278   2.49663   2.51653
  Beta virt. eigenvalues --    2.53121   2.58404   2.59322   2.60992   2.61718
  Beta virt. eigenvalues --    2.65238   2.65797   2.66287   2.67435   2.72460
  Beta virt. eigenvalues --    2.80073   2.81863   2.84585   2.88376   2.95675
  Beta virt. eigenvalues --    2.98531   3.02263   3.03163   3.03401   3.06156
  Beta virt. eigenvalues --    3.10657   3.12514   3.20522   3.20973   3.23593
  Beta virt. eigenvalues --    3.25689   3.30999   3.34428   3.36230   3.41947
  Beta virt. eigenvalues --    3.48342   3.55617   3.66499   3.73842   3.81578
  Beta virt. eigenvalues --    3.84175   3.85418   4.00245   4.07555   4.14955
  Beta virt. eigenvalues --    4.16977   4.28817   5.09571   5.13757   5.16407
  Beta virt. eigenvalues --    5.31770   5.39735   5.45006   5.62357   5.73743
  Beta virt. eigenvalues --    5.94226  23.61970  23.88867  23.93633  24.03628
  Beta virt. eigenvalues --   25.17187  49.97250  49.98449  50.09529
          Condensed to atoms (all electrons):
               1          2          3          4          5          6
     1  C    6.594549   0.473769  -1.633124   1.440692  -0.122618  -0.111689
     2  H    0.473769   0.428759  -0.105242   0.029360  -0.003071  -0.005217
     3  C   -1.633124  -0.105242   9.846831  -2.847318   0.166006  -0.170541
     4  C    1.440692   0.029360  -2.847318   7.756581   0.278436   0.038185
     5  O   -0.122618  -0.003071   0.166006   0.278436   8.071667  -0.130236
     6  O   -0.111689  -0.005217  -0.170541   0.038185  -0.130236   8.333146
     7  C    0.053116  -0.001921  -0.438871  -0.088597  -0.016440   0.245401
     8  C    0.032949   0.000121  -0.173645   0.012629   0.014682  -0.156574
     9  H   -0.000299   0.000202   0.019688   0.030239  -0.014751  -0.037829
    10  H   -0.002479   0.000139   0.011065  -0.015040   0.005089  -0.032201
    11  H   -0.001906  -0.000135   0.008048  -0.003551  -0.001055  -0.006253
    12  H    0.002425   0.000052  -0.008489   0.004825  -0.001595  -0.015909
    13  H   -0.001055  -0.000033   0.003158  -0.006401   0.001810   0.025840
    14  O    0.003015   0.000129  -0.011724   0.006756  -0.008500   0.013617
    15  H    0.000503  -0.000124  -0.011826  -0.022625   0.013124  -0.001233
               7          8          9         10         11         12
     1  C    0.053116   0.032949  -0.000299  -0.002479  -0.001906   0.002425
     2  H   -0.001921   0.000121   0.000202   0.000139  -0.000135   0.000052
     3  C   -0.438871  -0.173645   0.019688   0.011065   0.008048  -0.008489
     4  C   -0.088597   0.012629   0.030239  -0.015040  -0.003551   0.004825
     5  O   -0.016440   0.014682  -0.014751   0.005089  -0.001055  -0.001595
     6  O    0.245401  -0.156574  -0.037829  -0.032201  -0.006253  -0.015909
     7  C    6.079171  -0.061251   0.391781   0.323324  -0.019356  -0.049464
     8  C   -0.061251   5.880451  -0.113352  -0.103938   0.388271   0.413531
     9  H    0.391781  -0.113352   0.553701  -0.047118   0.005766  -0.011880
    10  H    0.323324  -0.103938  -0.047118   0.556880  -0.019502   0.016157
    11  H   -0.019356   0.388271   0.005766  -0.019502   0.511352  -0.034778
    12  H   -0.049464   0.413531  -0.011880   0.016157  -0.034778   0.533731
    13  H   -0.061373   0.427067  -0.005299  -0.014312  -0.027635  -0.029880
    14  O   -0.027221   0.012442  -0.007755   0.058614   0.000261  -0.003326
    15  H    0.040467   0.017236  -0.005188  -0.043447   0.001175   0.000151
              13         14         15
     1  C   -0.001055   0.003015   0.000503
     2  H   -0.000033   0.000129  -0.000124
     3  C    0.003158  -0.011724  -0.011826
     4  C   -0.006401   0.006756  -0.022625
     5  O    0.001810  -0.008500   0.013124
     6  O    0.025840   0.013617  -0.001233
     7  C   -0.061373  -0.027221   0.040467
     8  C    0.427067   0.012442   0.017236
     9  H   -0.005299  -0.007755  -0.005188
    10  H   -0.014312   0.058614  -0.043447
    11  H   -0.027635   0.000261   0.001175
    12  H   -0.029880  -0.003326   0.000151
    13  H    0.504952   0.002120   0.000483
    14  O    0.002120   8.034464   0.285058
    15  H    0.000483   0.285058   0.468195
          Atomic-Atomic Spin Densities.
               1          2          3          4          5          6
     1  C   -0.005180  -0.001022  -0.004318   0.010941   0.000680  -0.002841
     2  H   -0.001022  -0.000458   0.001115   0.000136   0.000067  -0.000011
     3  C   -0.004318   0.001115   0.021865  -0.023857   0.000701   0.006229
     4  C    0.010941   0.000136  -0.023857   0.011536  -0.001461  -0.004519
     5  O    0.000680   0.000067   0.000701  -0.001461   0.011169  -0.000751
     6  O   -0.002841  -0.000011   0.006229  -0.004519  -0.000751   0.052969
     7  C    0.001031   0.000022   0.002630   0.004545   0.001317  -0.046828
     8  C    0.001754   0.000051  -0.005286  -0.000050   0.000374   0.000785
     9  H    0.000429  -0.000040  -0.006709  -0.010725   0.001343   0.001972
    10  H   -0.000372   0.000145   0.015507   0.042187  -0.006359  -0.013647
    11  H    0.000159  -0.000011  -0.001357  -0.002475  -0.000015   0.000857
    12  H   -0.000334   0.000016   0.002422   0.003944  -0.000103   0.002845
    13  H    0.000036  -0.000003  -0.000379  -0.000776   0.000022  -0.000040
    14  O    0.000369  -0.000076  -0.012283  -0.029438   0.002395   0.017001
    15  H   -0.000235   0.000026   0.004272   0.005052   0.000451  -0.002170
               7          8          9         10         11         12
     1  C    0.001031   0.001754   0.000429  -0.000372   0.000159  -0.000334
     2  H    0.000022   0.000051  -0.000040   0.000145  -0.000011   0.000016
     3  C    0.002630  -0.005286  -0.006709   0.015507  -0.001357   0.002422
     4  C    0.004545  -0.000050  -0.010725   0.042187  -0.002475   0.003944
     5  O    0.001317   0.000374   0.001343  -0.006359  -0.000015  -0.000103
     6  O   -0.046828   0.000785   0.001972  -0.013647   0.000857   0.002845
     7  C    0.453544  -0.034443  -0.017242   0.074357  -0.010543   0.003046
     8  C   -0.034443   0.004205   0.018494  -0.029131   0.011559  -0.010843
     9  H   -0.017242   0.018494  -0.009708   0.014640   0.000970  -0.002387
    10  H    0.074357  -0.029131   0.014640  -0.104200  -0.003237   0.000162
    11  H   -0.010543   0.011559   0.000970  -0.003237   0.008950  -0.005845
    12  H    0.003046  -0.010843  -0.002387   0.000162  -0.005845   0.034018
    13  H   -0.002630   0.004290   0.001257  -0.003669   0.000939  -0.002818
    14  O   -0.083616   0.027649   0.003989  -0.044227   0.003373  -0.001846
    15  H    0.000990  -0.002849  -0.001138   0.008971  -0.000355   0.000332
              13         14         15
     1  C    0.000036   0.000369  -0.000235
     2  H   -0.000003  -0.000076   0.000026
     3  C   -0.000379  -0.012283   0.004272
     4  C   -0.000776  -0.029438   0.005052
     5  O    0.000022   0.002395   0.000451
     6  O   -0.000040   0.017001  -0.002170
     7  C   -0.002630  -0.083616   0.000990
     8  C    0.004290   0.027649  -0.002849
     9  H    0.001257   0.003989  -0.001138
    10  H   -0.003669  -0.044227   0.008971
    11  H    0.000939   0.003373  -0.000355
    12  H   -0.002818  -0.001846   0.000332
    13  H    0.001898   0.002295  -0.000217
    14  O    0.002295   0.790199   0.001270
    15  H   -0.000217   0.001270  -0.024579
 Mulliken charges and spin densities:
               1          2
     1  C   -0.727847   0.001097
     2  H    0.183212  -0.000042
     3  C    1.345985   0.000553
     4  C   -0.614170   0.005042
     5  O   -0.252549   0.009830
     6  O    0.011493   0.011850
     7  C   -0.368768   0.346181
     8  C   -0.590620  -0.013442
     9  H    0.242095  -0.004855
    10  H    0.306768  -0.048873
    11  H    0.199297   0.002970
    12  H    0.184449   0.022609
    13  H    0.180556   0.000206
    14  O   -0.357949   0.677055
    15  H    0.258049  -0.010180
 Sum of Mulliken charges =   0.00000   1.00000
 Mulliken charges and spin densities with hydrogens summed into heavy atoms:
               1          2
     1  C   -0.544635   0.001055
     3  C    1.345985   0.000553
     4  C   -0.614170   0.005042
     5  O   -0.252549   0.009830
     6  O    0.011493   0.011850
     7  C    0.180095   0.292453
     8  C   -0.026319   0.012342
    14  O   -0.099900   0.666875
 APT charges:
               1
     1  C   -0.167759
     2  H    0.238698
     3  C   -0.323099
     4  C    1.456998
     5  O   -0.746188
     6  O   -1.040201
     7  C    0.997888
     8  C   -0.103126
     9  H   -0.086806
    10  H   -0.439792
    11  H    0.034142
    12  H    0.014907
    13  H    0.025544
    14  O   -0.181116
    15  H    0.319908
 Sum of APT charges =   0.00000
 APT charges with hydrogens summed into heavy atoms:
               1
     1  C    0.070939
     3  C   -0.323099
     4  C    1.456998
     5  O   -0.746188
     6  O   -1.040201
     7  C    0.471291
     8  C   -0.028533
    14  O    0.138793
 Electronic spatial extent (au):  <R**2>=           1212.5454
 Charge=              0.0000 electrons
 Dipole moment (field-independent basis, Debye):
    X=              1.4014    Y=             -2.8111    Z=              0.6171  Tot=              3.2011
 Quadrupole moment (field-independent basis, Debye-Ang):
   XX=            -38.2830   YY=            -50.1971   ZZ=            -49.1723
   XY=              2.4244   XZ=             -5.7611   YZ=              0.2762
 Traceless Quadrupole moment (field-independent basis, Debye-Ang):
   XX=              7.6011   YY=             -4.3129   ZZ=             -3.2881
   XY=              2.4244   XZ=             -5.7611   YZ=              0.2762
 Octapole moment (field-independent basis, Debye-Ang**2):
  XXX=             50.4498  YYY=              7.9311  ZZZ=              3.3075  XYY=             -3.3139
  XXY=            -26.2293  XXZ=             -6.7449  XZZ=             -2.7824  YZZ=             -2.5988
  YYZ=              1.0696  XYZ=             -3.5644
 Hexadecapole moment (field-independent basis, Debye-Ang**3):
 XXXX=           -828.2727 YYYY=           -376.9107 ZZZZ=           -115.4928 XXXY=            -31.7101
 XXXZ=            -66.3961 YYYX=              1.1441 YYYZ=             -2.3851 ZZZX=              2.6072
 ZZZY=              2.2456 XXYY=           -266.5042 XXZZ=           -204.6520 YYZZ=            -91.3930
 XXYZ=             18.4063 YYXZ=             -8.2276 ZZXY=              1.5286
 N-N= 3.518774273832D+02 E-N=-1.687950064593D+03  KE= 4.188098130140D+02
  Exact polarizability:  95.756  -9.149  82.975  -3.975  -3.086  54.088
 Approx polarizability: 100.189 -12.269  91.478  -7.447   2.004  64.979
                          Isotropic Fermi Contact Couplings
        Atom                 a.u.       MegaHertz       Gauss      10(-4) cm-1
     1  C(13)              0.00007       0.07480       0.02669       0.02495
     2  H(1)              -0.00003      -0.11575      -0.04130      -0.03861
     3  C(13)             -0.00134      -1.50332      -0.53642      -0.50146
     4  C(13)              0.00103       1.15797       0.41319       0.38626
     5  O(17)             -0.00050       0.30576       0.10910       0.10199
     6  O(17)              0.00059      -0.35473      -0.12658      -0.11832
     7  C(13)              0.15093     169.67882      60.54562      56.59876
     8  C(13)             -0.00114      -1.28540      -0.45866      -0.42876
     9  H(1)              -0.00018      -0.81073      -0.28929      -0.27043
    10  H(1)              -0.01850     -82.69286     -29.50687     -27.58337
    11  H(1)               0.00211       9.45269       3.37295       3.15308
    12  H(1)               0.01010      45.12388      16.10132      15.05171
    13  H(1)               0.00044       1.95976       0.69929       0.65370
    14  O(17)              0.11477     -69.57426     -24.82583     -23.20748
    15  H(1)              -0.01161     -51.88940     -18.51543     -17.30844
 --------------------------------------------------------
       Center         ----  Spin Dipole Couplings  ----
                      3XX-RR        3YY-RR        3ZZ-RR
 --------------------------------------------------------
     1   Atom        0.000817     -0.000175     -0.000642
     2   Atom        0.001096     -0.000477     -0.000619
     3   Atom        0.003460     -0.001465     -0.001996
     4   Atom        0.009413     -0.003707     -0.005706
     5   Atom       -0.016884     -0.022422      0.039306
     6   Atom       -0.039505      0.061925     -0.022420
     7   Atom       -0.203663      0.249281     -0.045618
     8   Atom       -0.010716      0.024879     -0.014163
     9   Atom       -0.026621     -0.005900      0.032521
    10   Atom       -0.098756      0.158031     -0.059275
    11   Atom       -0.005069      0.004741      0.000328
    12   Atom       -0.003125      0.006982     -0.003857
    13   Atom        0.004674      0.001405     -0.006079
    14   Atom       -1.218750      1.817371     -0.598620
    15   Atom        0.027071     -0.000749     -0.026322
 --------------------------------------------------------
                        XY            XZ            YZ
 --------------------------------------------------------
     1   Atom       -0.000418     -0.000487     -0.002051
     2   Atom       -0.000436     -0.000211     -0.000049
     3   Atom       -0.000593      0.000132      0.000120
     4   Atom        0.000460      0.004494      0.002976
     5   Atom       -0.002047      0.026226     -0.016101
     6   Atom       -0.082549      0.073376     -0.095185
     7   Atom       -0.124659      0.079831     -0.299292
     8   Atom        0.013230      0.000122     -0.002492
     9   Atom       -0.004484     -0.000159      0.003305
    10   Atom       -0.054765      0.026873     -0.119293
    11   Atom        0.002981      0.003066      0.006290
    12   Atom        0.001396      0.001463     -0.002115
    13   Atom        0.006798     -0.000055     -0.001334
    14   Atom       -0.750112      0.358109     -1.589629
    15   Atom        0.064812      0.091216      0.029099
 --------------------------------------------------------


 ---------------------------------------------------------------------------------
              Anisotropic Spin Dipole Couplings in Principal Axis System
 ---------------------------------------------------------------------------------

       Atom             a.u.   MegaHertz   Gauss  10(-4) cm-1        Axes

              Baa    -0.0026    -0.348    -0.124    -0.116  0.1848  0.6541  0.7335
     1 C(13)  Bbb     0.0009     0.126     0.045     0.042  0.9826 -0.1357 -0.1265
              Bcc     0.0017     0.222     0.079     0.074  0.0168  0.7441 -0.6678
 
              Baa    -0.0007    -0.383    -0.137    -0.128  0.2298  0.5762  0.7844
     2 H(1)   Bbb    -0.0005    -0.273    -0.097    -0.091  0.1314  0.7802 -0.6116
              Bcc     0.0012     0.656     0.234     0.219  0.9643 -0.2436 -0.1036
 
              Baa    -0.0020    -0.273    -0.097    -0.091 -0.0509 -0.2566  0.9652
     3 C(13)  Bbb    -0.0015    -0.201    -0.072    -0.067  0.1077  0.9594  0.2607
              Bcc     0.0035     0.474     0.169     0.158  0.9929 -0.1172  0.0212
 
              Baa    -0.0085    -1.145    -0.409    -0.382 -0.1982 -0.5008  0.8426
     4 C(13)  Bbb    -0.0022    -0.299    -0.107    -0.100 -0.2124  0.8611  0.4619
              Bcc     0.0108     1.443     0.515     0.481  0.9569  0.0874  0.2770
 
              Baa    -0.0305     2.204     0.786     0.735  0.6730 -0.6241 -0.3970
     5 O(17)  Bbb    -0.0225     1.627     0.580     0.543  0.6519  0.7540 -0.0802
              Bcc     0.0529    -3.830    -1.367    -1.278  0.3494 -0.2048  0.9143
 
              Baa    -0.1049     7.589     2.708     2.531  0.7307 -0.0276 -0.6821
     6 O(17)  Bbb    -0.0739     5.346     1.908     1.783  0.5143  0.6794  0.5234
              Bcc     0.1788   -12.935    -4.616    -4.315 -0.4490  0.7332 -0.5107
 
              Baa    -0.2370   -31.799   -11.347   -10.607  0.9170 -0.0103 -0.3987
     7 C(13)  Bbb    -0.2311   -31.014   -11.066   -10.345  0.3358  0.5593  0.7579
              Bcc     0.4681    62.813    22.413    20.952 -0.2152  0.8289 -0.5164
 
              Baa    -0.0157    -2.103    -0.751    -0.702  0.7883 -0.2905 -0.5424
     8 C(13)  Bbb    -0.0137    -1.839    -0.656    -0.614  0.5299 -0.1275  0.8384
              Bcc     0.0294     3.943     1.407     1.315  0.3127  0.9483 -0.0534
 
              Baa    -0.0276   -14.702    -5.246    -4.904  0.9789  0.2040 -0.0086
     9 H(1)   Bbb    -0.0053    -2.803    -1.000    -0.935 -0.2040  0.9752 -0.0862
              Bcc     0.0328    17.505     6.246     5.839 -0.0092  0.0861  0.9962
 
              Baa    -0.1137   -60.664   -21.646   -20.235 -0.5711  0.2308  0.7878
    10 H(1)   Bbb    -0.1086   -57.950   -20.678   -19.330  0.7994  0.3744  0.4698
              Bcc     0.2223   118.613    42.324    39.565 -0.1865  0.8981 -0.3983
 
              Baa    -0.0065    -3.446    -1.230    -1.149  0.9191 -0.0237 -0.3933
    11 H(1)   Bbb    -0.0039    -2.077    -0.741    -0.693  0.2927 -0.6270  0.7219
              Bcc     0.0104     5.523     1.971     1.842  0.2638  0.7786  0.5693
 
              Baa    -0.0055    -2.940    -1.049    -0.981 -0.5941  0.1984  0.7795
    12 H(1)   Bbb    -0.0020    -1.060    -0.378    -0.354  0.7974  0.0181  0.6031
              Bcc     0.0075     4.000     1.427     1.334  0.1055  0.9800 -0.1690
 
              Baa    -0.0065    -3.481    -1.242    -1.161 -0.1884  0.3178  0.9292
    13 H(1)   Bbb    -0.0036    -1.896    -0.677    -0.633 -0.5943  0.7164 -0.3655
              Bcc     0.0101     5.377     1.919     1.794  0.7818  0.6211 -0.0539
 
              Baa    -1.4018   101.435    36.194    33.835  0.7508  0.4248  0.5059
    14 O(17)  Bbb    -1.3769    99.631    35.551    33.233 -0.6284  0.2232  0.7451
              Bcc     2.7787  -201.066   -71.745   -67.068 -0.2036  0.8774 -0.4345
 
              Baa    -0.0980   -52.297   -18.661   -17.445 -0.6447  0.2096  0.7351
    15 H(1)   Bbb    -0.0339   -18.092    -6.456    -6.035 -0.2366  0.8597 -0.4527
              Bcc     0.1319    70.389    25.117    23.479  0.7269  0.4658  0.5046
 

 ---------------------------------------------------------------------------------

 Calling FoFJK, ICntrl=    100127 FMM=F ISym2X=0 I1Cent= 0 IOpClX= 1 NMat=1 NMatS=1 NMatT=0.
 Full mass-weighted force constant matrix:
 Low frequencies ----1331.4844    0.0003    0.0007    0.0010   11.7337   18.0183
 Low frequencies ---   26.1064   63.2084  116.3119
 ******    1 imaginary frequencies (negative Signs) ****** 
 Diagonal vibrational polarizability:
       47.7013906      65.5378950      25.1899321
 Harmonic frequencies (cm**-1), IR intensities (KM/Mole), Raman scattering
 activities (A**4/AMU), depolarization ratios for plane and unpolarized
 incident light, reduced masses (AMU), force constants (mDyne/A),
 and normal coordinates:
                      1                      2                      3
                      A                      A                      A
 Frequencies --  -1331.4830                62.3665               116.2931
 Red. masses --      1.1759                 7.8948                 4.4645
 Frc consts  --      1.2283                 0.0181                 0.0356
 IR Inten    --   2030.0642                 2.7363                 1.0197
  Atom  AN      X      Y      Z        X      Y      Z        X      Y      Z
     1   6     0.00   0.00   0.00     0.10  -0.21   0.29     0.05  -0.01   0.14
     2   1     0.00   0.00   0.00     0.12  -0.32   0.49     0.09  -0.01   0.27
     3   6     0.00   0.00   0.00     0.07  -0.07   0.05     0.01   0.01  -0.03
     4   6     0.01   0.01   0.01     0.04   0.04  -0.15     0.00  -0.01  -0.07
     5   8     0.00   0.00   0.00     0.03   0.13  -0.33     0.01  -0.11   0.15
     6   8    -0.03   0.01   0.00     0.04   0.02  -0.08    -0.04   0.10  -0.32
     7   6     0.03  -0.02   0.00     0.05  -0.01  -0.02     0.01   0.05  -0.10
     8   6     0.00   0.02  -0.01     0.05   0.01  -0.06     0.00  -0.08   0.24
     9   1    -0.03   0.19  -0.06     0.09  -0.09   0.00     0.20   0.17  -0.12
    10   1    -0.11   0.90  -0.34    -0.03   0.02   0.09    -0.13  -0.01  -0.14
    11   1     0.00  -0.01   0.00    -0.01   0.10  -0.08    -0.24  -0.24   0.25
    12   1     0.03   0.03   0.01     0.10  -0.03  -0.16     0.19   0.02   0.31
    13   1     0.00   0.01   0.00     0.06  -0.04   0.02     0.04  -0.13   0.45
    14   8     0.01  -0.09   0.03    -0.32   0.06   0.29    -0.03   0.05  -0.03
    15   1    -0.04   0.00  -0.02    -0.17   0.04   0.11    -0.06  -0.02   0.06
                      4                      5                      6
                      A                      A                      A
 Frequencies --    132.8555               159.0186               168.7829
 Red. masses --      4.1601                 3.2889                 1.5600
 Frc consts  --      0.0433                 0.0490                 0.0262
 IR Inten    --      2.6240                 6.3025                 5.4843
  Atom  AN      X      Y      Z        X      Y      Z        X      Y      Z
     1   6     0.15   0.30   0.11    -0.07  -0.05   0.07     0.02   0.00   0.01
     2   1     0.26   0.57   0.23    -0.07  -0.13   0.16     0.03   0.00   0.02
     3   6     0.02  -0.04  -0.03    -0.07   0.07  -0.04     0.02   0.00  -0.01
     4   6    -0.02  -0.13  -0.08    -0.07   0.08  -0.07     0.02   0.00   0.01
     5   8    -0.02  -0.09  -0.15    -0.08   0.08  -0.08     0.03  -0.02   0.05
     6   8    -0.03  -0.14   0.00    -0.04   0.05  -0.04     0.01   0.01  -0.02
     7   6    -0.01  -0.02   0.03    -0.04  -0.07   0.06     0.03  -0.01   0.09
     8   6    -0.18   0.10   0.06     0.03  -0.09   0.00    -0.04   0.09  -0.03
     9   1     0.05  -0.01   0.03     0.01  -0.17   0.09     0.10  -0.15   0.12
    10   1     0.07   0.02   0.04    -0.08  -0.01   0.15     0.00   0.01   0.20
    11   1    -0.25   0.09   0.06    -0.24   0.20  -0.06    -0.39   0.49  -0.11
    12   1    -0.30   0.05   0.05     0.34  -0.17  -0.33     0.19  -0.07  -0.47
    13   1    -0.14   0.26   0.10     0.06  -0.35   0.34     0.03  -0.06   0.39
    14   8     0.10   0.02   0.06     0.28  -0.03   0.08    -0.07  -0.07  -0.08
    15   1     0.15  -0.02   0.01     0.27  -0.13   0.16    -0.08   0.05  -0.17
                      7                      8                      9
                      A                      A                      A
 Frequencies --    239.6498               270.5502               305.8081
 Red. masses --      2.0559                 4.6061                 3.7647
 Frc consts  --      0.0696                 0.1986                 0.2074
 IR Inten    --      2.6439                 2.9486                 1.8141
  Atom  AN      X      Y      Z        X      Y      Z        X      Y      Z
     1   6     0.00  -0.06   0.07     0.06   0.10   0.09    -0.03   0.06  -0.10
     2   1     0.01  -0.19   0.23     0.16   0.29   0.29    -0.07   0.19  -0.40
     3   6    -0.01   0.11  -0.14    -0.09  -0.16  -0.18     0.04  -0.14   0.31
     4   6    -0.01   0.05  -0.06    -0.01  -0.01  -0.03     0.01   0.01   0.04
     5   8    -0.02  -0.01   0.06     0.28   0.02   0.04     0.04   0.07  -0.06
     6   8     0.02   0.02  -0.05    -0.16   0.12   0.06    -0.04   0.13  -0.19
     7   6     0.05  -0.05   0.11    -0.17   0.03   0.10    -0.01  -0.05   0.08
     8   6    -0.04   0.07  -0.02     0.07  -0.11  -0.07    -0.05   0.01   0.00
     9   1     0.14  -0.20   0.15    -0.22  -0.07   0.12     0.16  -0.27   0.14
    10   1     0.02  -0.04   0.24    -0.23   0.02   0.12    -0.15  -0.05   0.30
    11   1     0.30  -0.07   0.03     0.36  -0.09  -0.05     0.16  -0.05   0.02
    12   1    -0.47   0.06   0.20     0.14  -0.05  -0.01    -0.29  -0.01   0.11
    13   1    -0.08   0.37  -0.42    -0.04  -0.32  -0.31    -0.07   0.17  -0.24
    14   8     0.02  -0.10  -0.01    -0.02  -0.02  -0.03     0.03  -0.11   0.03
    15   1    -0.03   0.01  -0.02     0.07  -0.06  -0.11     0.23  -0.17  -0.21
                     10                     11                     12
                      A                      A                      A
 Frequencies --    374.3130               397.8304               540.1052
 Red. masses --      2.2006                 1.2871                 5.4909
 Frc consts  --      0.1817                 0.1200                 0.9437
 IR Inten    --     49.9474                83.7326                 5.5991
  Atom  AN      X      Y      Z        X      Y      Z        X      Y      Z
     1   6     0.02  -0.01  -0.01     0.01  -0.01   0.00     0.25  -0.09  -0.08
     2   1     0.01  -0.05  -0.02     0.00  -0.07   0.03     0.15  -0.38  -0.21
     3   6     0.04   0.04   0.00     0.02   0.06  -0.03     0.34   0.22   0.06
     4   6     0.04   0.06   0.02     0.02   0.02   0.02     0.05  -0.05  -0.04
     5   8     0.13   0.09   0.02     0.03   0.02   0.03    -0.09  -0.10  -0.03
     6   8     0.03   0.03   0.03     0.02   0.00   0.02    -0.14   0.05   0.03
     7   6    -0.05  -0.08  -0.11    -0.02  -0.03  -0.06    -0.23   0.04   0.13
     8   6    -0.18  -0.05  -0.01    -0.07  -0.03   0.00    -0.08  -0.09  -0.01
     9   1    -0.13  -0.03  -0.12    -0.07   0.02  -0.08    -0.22  -0.04   0.15
    10   1    -0.03  -0.19  -0.18    -0.03  -0.03  -0.07    -0.25   0.19   0.15
    11   1    -0.39  -0.10  -0.02    -0.17  -0.07  -0.01     0.12  -0.02  -0.01
    12   1    -0.27  -0.08  -0.01    -0.09  -0.03   0.01     0.06  -0.05  -0.03
    13   1    -0.11   0.13   0.15    -0.04   0.03   0.08    -0.17  -0.34  -0.16
    14   8     0.02  -0.07   0.00    -0.03   0.00   0.04     0.00   0.05  -0.03
    15   1    -0.40  -0.06   0.59     0.62  -0.24  -0.67    -0.08   0.06   0.07
                     13                     14                     15
                      A                      A                      A
 Frequencies --    589.6678               625.6449               741.0422
 Red. masses --      2.0566                 6.6369                 1.3251
 Frc consts  --      0.4213                 1.5306                 0.4287
 IR Inten    --     33.3911                 9.2062                37.2368
  Atom  AN      X      Y      Z        X      Y      Z        X      Y      Z
     1   6     0.04  -0.01  -0.01    -0.23   0.05   0.06    -0.05  -0.13  -0.06
     2   1     0.06   0.02   0.01    -0.39  -0.36  -0.10     0.33   0.85   0.37
     3   6     0.02  -0.04  -0.03    -0.05   0.40   0.18     0.02   0.07   0.03
     4   6     0.00  -0.01  -0.01    -0.06  -0.17  -0.06     0.00   0.00   0.00
     5   8    -0.06  -0.02   0.01     0.31  -0.09  -0.08     0.01   0.00   0.00
     6   8    -0.01   0.05   0.02    -0.07  -0.17  -0.07     0.00   0.00   0.00
     7   6    -0.04   0.15  -0.05    -0.03   0.08   0.00     0.00   0.00   0.00
     8   6     0.05   0.11   0.00     0.06   0.08   0.01     0.00   0.00   0.00
     9   1    -0.08   0.29  -0.09     0.06   0.17  -0.01     0.00   0.00   0.00
    10   1    -0.10  -0.44  -0.24     0.01  -0.14  -0.10     0.00   0.00   0.00
    11   1     0.08   0.17  -0.01     0.21   0.15   0.01     0.01   0.00   0.00
    12   1     0.09   0.11  -0.04     0.18   0.09  -0.03     0.00   0.00   0.00
    13   1     0.03   0.06  -0.03     0.00  -0.10  -0.09    -0.01  -0.01  -0.01
    14   8     0.00  -0.16   0.06    -0.01  -0.05   0.01     0.00   0.00   0.00
    15   1     0.16  -0.63   0.25     0.02  -0.22   0.12     0.00   0.00   0.00
                     16                     17                     18
                      A                      A                      A
 Frequencies --    773.2221               785.8262               819.5646
 Red. masses --      2.0591                 2.4944                 1.4647
 Frc consts  --      0.7253                 0.9075                 0.5796
 IR Inten    --      4.0537                53.3718               242.2454
  Atom  AN      X      Y      Z        X      Y      Z        X      Y      Z
     1   6    -0.02   0.07  -0.14    -0.01   0.05  -0.10     0.01   0.00   0.00
     2   1     0.12  -0.42   0.84     0.12  -0.40   0.81     0.00   0.01  -0.02
     3   6     0.02  -0.06   0.12    -0.01   0.03  -0.06     0.01   0.00   0.01
     4   6    -0.03   0.09  -0.19     0.04  -0.13   0.28    -0.02   0.00  -0.04
     5   8     0.01  -0.02   0.06    -0.01   0.03  -0.08     0.00  -0.01   0.01
     6   8     0.01  -0.02   0.04    -0.02   0.03  -0.06    -0.01   0.00   0.03
     7   6     0.00  -0.01   0.01     0.00   0.01  -0.02    -0.04   0.07  -0.09
     8   6     0.00  -0.01   0.00     0.01   0.01   0.00     0.01   0.06  -0.04
     9   1    -0.03   0.08  -0.01     0.04  -0.13   0.02    -0.11  -0.39   0.01
    10   1     0.03  -0.02  -0.06    -0.03   0.03   0.10     0.15   0.00   0.30
    11   1     0.01   0.03   0.00    -0.03  -0.06   0.01    -0.15  -0.33   0.01
    12   1    -0.02  -0.03  -0.03     0.04   0.05   0.05     0.25   0.30   0.28
    13   1    -0.01   0.00  -0.02     0.01   0.00   0.03     0.03  -0.05   0.15
    14   8     0.00   0.01   0.00     0.01  -0.01   0.00     0.03  -0.10   0.05
    15   1     0.02  -0.01  -0.01    -0.03   0.03   0.02    -0.12   0.49  -0.22
                     19                     20                     21
                      A                      A                      A
 Frequencies --    898.6572               929.6357               968.3850
 Red. masses --      1.6422                 1.6938                 4.1199
 Frc consts  --      0.7814                 0.8624                 2.2763
 IR Inten    --    159.0696                85.0756                 4.9226
  Atom  AN      X      Y      Z        X      Y      Z        X      Y      Z
     1   6    -0.03   0.01   0.01    -0.03   0.01   0.01    -0.14   0.04   0.04
     2   1    -0.04   0.00   0.00    -0.04   0.00   0.01    -0.15   0.05   0.05
     3   6    -0.01   0.03   0.02    -0.01   0.03   0.01    -0.09   0.00   0.01
     4   6     0.02  -0.04  -0.04     0.02  -0.06  -0.02     0.20  -0.03  -0.05
     5   8     0.00  -0.08  -0.03    -0.01  -0.09  -0.04    -0.03  -0.14  -0.06
     6   8    -0.03   0.10   0.07    -0.03   0.14   0.04     0.23   0.13   0.03
     7   6     0.05  -0.06  -0.02     0.04   0.00  -0.01    -0.02   0.15   0.06
     8   6     0.08   0.01  -0.04     0.04  -0.07   0.01    -0.20  -0.07  -0.04
     9   1    -0.12  -0.39   0.06    -0.09   0.36  -0.10     0.14  -0.02   0.11
    10   1    -0.21   0.17   0.14     0.14  -0.22  -0.17    -0.04   0.17   0.15
    11   1    -0.29  -0.22  -0.02    -0.09   0.17  -0.03     0.06  -0.21  -0.01
    12   1    -0.10   0.07   0.17    -0.32  -0.27  -0.17     0.19   0.07   0.01
    13   1     0.22   0.36   0.26     0.10   0.27   0.00    -0.34  -0.60  -0.19
    14   8    -0.02   0.05  -0.04     0.02  -0.04   0.04    -0.01  -0.01  -0.01
    15   1     0.09  -0.46   0.22    -0.12   0.55  -0.25     0.01  -0.17   0.10
                     22                     23                     24
                      A                      A                      A
 Frequencies --   1130.5532              1153.8703              1162.3874
 Red. masses --      2.7736                 1.9142                 2.0402
 Frc consts  --      2.0887                 1.5016                 1.6242
 IR Inten    --     59.7287                37.1886                 7.6726
  Atom  AN      X      Y      Z        X      Y      Z        X      Y      Z
     1   6    -0.04   0.01   0.01     0.02  -0.01  -0.01     0.01   0.00   0.00
     2   1    -0.04   0.02   0.02     0.02  -0.01  -0.01     0.01   0.00   0.00
     3   6    -0.03  -0.02   0.00     0.01   0.00   0.00     0.00  -0.01   0.00
     4   6     0.08   0.02   0.00    -0.06  -0.01   0.00    -0.02   0.00   0.01
     5   8    -0.01   0.00   0.00     0.01   0.03   0.02     0.00   0.03   0.01
     6   8     0.16  -0.07  -0.06    -0.02  -0.05   0.04     0.01  -0.06  -0.06
     7   6    -0.28   0.02   0.00     0.07   0.21  -0.08     0.00   0.12   0.19
     8   6     0.13  -0.01   0.06     0.00  -0.13   0.01     0.03  -0.08  -0.15
     9   1    -0.40  -0.15   0.03     0.51  -0.13   0.02    -0.12   0.36   0.14
    10   1    -0.37   0.20   0.08    -0.35   0.22   0.41     0.22  -0.07  -0.19
    11   1    -0.06   0.33   0.01    -0.16   0.08  -0.04    -0.48  -0.45  -0.13
    12   1    -0.28  -0.18  -0.04    -0.32  -0.32  -0.17    -0.20   0.05   0.22
    13   1     0.21   0.44   0.05     0.01   0.11  -0.14     0.16   0.13   0.26
    14   8     0.01   0.00   0.00     0.00  -0.02   0.00     0.00   0.00   0.00
    15   1    -0.05   0.14  -0.04     0.00  -0.04   0.04     0.01  -0.03   0.01
                     25                     26                     27
                      A                      A                      A
 Frequencies --   1296.5725              1311.1381              1391.2080
 Red. masses --      7.1888                 1.1457                 1.2223
 Frc consts  --      7.1203                 1.1604                 1.3939
 IR Inten    --    740.1422                12.2969                19.5524
  Atom  AN      X      Y      Z        X      Y      Z        X      Y      Z
     1   6    -0.11   0.03   0.03     0.00   0.00   0.00     0.01   0.00   0.00
     2   1    -0.11   0.07   0.05     0.00   0.00   0.00     0.02  -0.01  -0.01
     3   6    -0.03  -0.01   0.00     0.00   0.00   0.00     0.00   0.00   0.00
     4   6     0.56   0.20   0.00    -0.01   0.00   0.00    -0.06  -0.01   0.01
     5   8    -0.06   0.01   0.01     0.00   0.00   0.00     0.01   0.00   0.00
     6   8    -0.30  -0.18  -0.03    -0.02   0.00  -0.02     0.03   0.00  -0.02
     7   6     0.13   0.05  -0.03     0.03   0.08   0.00     0.08   0.00   0.00
     8   6     0.00   0.00   0.00     0.00  -0.03   0.06     0.02   0.07   0.04
     9   1    -0.44   0.01  -0.03    -0.37  -0.53   0.12    -0.65   0.17  -0.07
    10   1    -0.33  -0.29   0.20     0.60   0.11  -0.28    -0.28   0.01   0.30
    11   1    -0.03  -0.07   0.00     0.00   0.11   0.03    -0.12  -0.28   0.07
    12   1    -0.03  -0.05  -0.07    -0.10  -0.17  -0.13    -0.19  -0.16  -0.24
    13   1    -0.01  -0.01  -0.03    -0.05  -0.02  -0.13    -0.10  -0.32  -0.13
    14   8     0.01  -0.02   0.01    -0.01   0.00   0.00     0.00   0.00   0.00
    15   1    -0.02   0.11  -0.06     0.04  -0.13   0.04    -0.01   0.01   0.01
                     28                     29                     30
                      A                      A                      A
 Frequencies --   1422.9043              1457.1553              1485.4290
 Red. masses --      1.2615                 1.1508                 1.0415
 Frc consts  --      1.5049                 1.4396                 1.3540
 IR Inten    --     16.4206                 3.0506                 8.3447
  Atom  AN      X      Y      Z        X      Y      Z        X      Y      Z
     1   6     0.01   0.00   0.00    -0.01   0.00   0.00     0.00   0.00   0.00
     2   1     0.01   0.00   0.00    -0.01   0.00   0.00     0.00   0.00   0.00
     3   6     0.00   0.00   0.00     0.00   0.00   0.00     0.00   0.00   0.00
     4   6    -0.03  -0.01   0.00     0.04   0.00  -0.01     0.00   0.00   0.00
     5   8     0.00   0.00   0.00     0.00   0.01   0.00     0.00   0.00   0.00
     6   8     0.01   0.00  -0.02    -0.02   0.01   0.00     0.00   0.00   0.00
     7   6     0.06   0.03   0.00    -0.07  -0.04  -0.04     0.01   0.01  -0.02
     8   6    -0.08  -0.10  -0.02     0.05   0.01   0.01     0.00   0.00  -0.05
     9   1    -0.44   0.21  -0.06     0.11   0.36  -0.11    -0.07  -0.03  -0.02
    10   1     0.07   0.09   0.38     0.61   0.19   0.53     0.02   0.03   0.05
    11   1     0.30   0.28  -0.04    -0.21   0.04  -0.01     0.40   0.25  -0.04
    12   1     0.38   0.13   0.12    -0.13  -0.02   0.05    -0.50   0.00   0.26
    13   1     0.07   0.45   0.12    -0.02  -0.13  -0.13     0.06  -0.38   0.56
    14   8     0.00   0.00   0.00    -0.01  -0.01  -0.01     0.00   0.00   0.00
    15   1     0.01  -0.07   0.04     0.03  -0.19   0.09     0.00  -0.01   0.01
                     31                     32                     33
                      A                      A                      A
 Frequencies --   1495.2281              1828.6633              2267.5547
 Red. masses --      1.0528                12.1907                 5.7000
 Frc consts  --      1.3868                24.0186                17.2679
 IR Inten    --      6.8112               315.0449                85.9071
  Atom  AN      X      Y      Z        X      Y      Z        X      Y      Z
     1   6     0.00   0.00   0.00     0.07  -0.02  -0.02    -0.35   0.09   0.10
     2   1     0.00   0.00   0.00     0.11   0.00  -0.02    -0.71   0.19   0.20
     3   6     0.00   0.00   0.00    -0.04   0.00   0.00     0.49  -0.13  -0.14
     4   6    -0.01   0.00   0.00    -0.20   0.69   0.34    -0.08   0.04   0.03
     5   8     0.00   0.00   0.00     0.12  -0.46  -0.22     0.00  -0.01   0.00
     6   8     0.00   0.00   0.00     0.00  -0.05  -0.02     0.00   0.00   0.00
     7   6     0.04  -0.01   0.01    -0.04   0.03   0.00     0.00   0.00   0.00
     8   6     0.03  -0.03   0.00     0.01  -0.01  -0.01     0.00   0.00   0.00
     9   1    -0.12  -0.04   0.00     0.12   0.05   0.03     0.00   0.00   0.00
    10   1    -0.16  -0.05  -0.07     0.15  -0.07   0.10     0.00   0.01   0.00
    11   1    -0.42   0.52  -0.10    -0.02  -0.03   0.00     0.00   0.00   0.00
    12   1    -0.03   0.24   0.50    -0.03  -0.02  -0.02     0.00   0.00   0.00
    13   1    -0.10  -0.22  -0.34     0.03   0.04   0.02     0.00   0.00   0.00
    14   8     0.00   0.00   0.00     0.00   0.00   0.00     0.00   0.00   0.00
    15   1    -0.01   0.04  -0.02     0.02  -0.08   0.00     0.00  -0.01   0.00
                     34                     35                     36
                      A                      A                      A
 Frequencies --   3057.0834              3119.5675              3136.6203
 Red. masses --      1.0381                 1.0869                 1.0980
 Frc consts  --      5.7162                 6.2318                 6.3648
 IR Inten    --      4.6850                 4.0741                 5.7777
  Atom  AN      X      Y      Z        X      Y      Z        X      Y      Z
     1   6     0.00   0.00   0.00     0.00   0.00   0.00     0.00   0.00   0.00
     2   1     0.00   0.00   0.00     0.00   0.00   0.00     0.00   0.00   0.00
     3   6     0.00   0.00   0.00     0.00   0.00   0.00     0.00   0.00   0.00
     4   6     0.00   0.00   0.00     0.00   0.00   0.00     0.00   0.00   0.00
     5   8     0.00   0.00   0.00     0.00   0.00   0.00     0.00   0.00   0.00
     6   8     0.00   0.00   0.00     0.00   0.00   0.00     0.00   0.00   0.00
     7   6     0.00   0.00   0.00     0.00  -0.02  -0.08     0.00   0.00   0.03
     8   6    -0.02  -0.05   0.00     0.00  -0.01   0.03     0.04  -0.04   0.06
     9   1     0.00   0.00   0.01    -0.04   0.20   0.91     0.01  -0.07  -0.31
    10   1     0.00   0.01   0.00     0.00   0.00  -0.01     0.00   0.01   0.00
    11   1    -0.04   0.06   0.49     0.03  -0.04  -0.29     0.05  -0.09  -0.57
    12   1    -0.21   0.63  -0.35    -0.05   0.16  -0.08    -0.16   0.52  -0.28
    13   1     0.42  -0.09  -0.10    -0.01   0.00   0.01    -0.41   0.08   0.11
    14   8     0.00   0.00   0.00     0.00   0.00   0.00     0.00   0.00   0.00
    15   1     0.00   0.00   0.00     0.00   0.00   0.00     0.00   0.00   0.00
                     37                     38                     39
                      A                      A                      A
 Frequencies --   3161.5779              3473.7663              3777.5995
 Red. masses --      1.1024                 1.1732                 1.0666
 Frc consts  --      6.4921                 8.3414                 8.9680
 IR Inten    --      6.4465                64.3801                65.0483
  Atom  AN      X      Y      Z        X      Y      Z        X      Y      Z
     1   6     0.00   0.00   0.00    -0.11   0.03   0.03     0.00   0.00   0.00
     2   1     0.00   0.00   0.00     0.92  -0.25  -0.26     0.00   0.00   0.00
     3   6     0.00   0.00   0.00     0.03  -0.01  -0.01     0.00   0.00   0.00
     4   6     0.00   0.00   0.00     0.00   0.00   0.00     0.00   0.00   0.00
     5   8     0.00   0.00   0.00     0.00   0.00   0.00     0.00   0.00   0.00
     6   8     0.00   0.00   0.00     0.00   0.00   0.00     0.00   0.00   0.00
     7   6     0.00   0.00  -0.01     0.00   0.00   0.00     0.00   0.00   0.00
     8   6     0.07  -0.02  -0.06     0.00   0.00   0.00     0.00   0.00   0.00
     9   1    -0.01   0.04   0.16     0.00   0.00   0.00     0.00   0.00   0.00
    10   1     0.00   0.00   0.00     0.00   0.00   0.00     0.01  -0.02   0.01
    11   1    -0.03   0.07   0.57     0.00   0.00   0.00     0.00   0.00   0.00
    12   1    -0.01   0.06  -0.05     0.00   0.00   0.00     0.00   0.00   0.00
    13   1    -0.76   0.16   0.18     0.00   0.00   0.00     0.00   0.00   0.00
    14   8     0.00   0.00   0.00     0.00   0.00   0.00     0.05   0.03   0.03
    15   1     0.00   0.00   0.00     0.00   0.00   0.00    -0.73  -0.43  -0.52

 -------------------
 - Thermochemistry -
 -------------------
 Temperature   298.150 Kelvin.  Pressure   1.00000 Atm.
 Atom     1 has atomic number  6 and mass  12.00000
 Atom     2 has atomic number  1 and mass   1.00783
 Atom     3 has atomic number  6 and mass  12.00000
 Atom     4 has atomic number  6 and mass  12.00000
 Atom     5 has atomic number  8 and mass  15.99491
 Atom     6 has atomic number  8 and mass  15.99491
 Atom     7 has atomic number  6 and mass  12.00000
 Atom     8 has atomic number  6 and mass  12.00000
 Atom     9 has atomic number  1 and mass   1.00783
 Atom    10 has atomic number  1 and mass   1.00783
 Atom    11 has atomic number  1 and mass   1.00783
 Atom    12 has atomic number  1 and mass   1.00783
 Atom    13 has atomic number  1 and mass   1.00783
 Atom    14 has atomic number  8 and mass  15.99491
 Atom    15 has atomic number  1 and mass   1.00783
 Molecular mass:   115.03952 amu.
 Principal axes and moments of inertia in atomic units:
                           1         2         3
     Eigenvalues --   594.622891486.907841892.56643
           X            0.99959   0.02717  -0.00908
           Y           -0.02714   0.99963   0.00354
           Z            0.00917  -0.00329   0.99995
 This molecule is an asymmetric top.
 Rotational symmetry number  1.
 Warning -- assumption of classical behavior for rotation
           may cause significant error
 Rotational temperatures (Kelvin)      0.14566     0.05825     0.04577
 Rotational constants (GHZ):           3.03510     1.21375     0.95359
    1 imaginary frequencies ignored.
 Zero-point vibrational energy     281290.5 (Joules/Mol)
                                   67.23004 (Kcal/Mol)
 Warning -- explicit consideration of  12 degrees of freedom as
           vibrations may cause significant error
 Vibrational temperatures:     89.73   167.32   191.15   228.79   242.84
          (Kelvin)            344.80   389.26   439.99   538.55   572.39
                              777.09   848.40   900.16  1066.19  1112.49
                             1130.63  1179.17  1292.97  1337.54  1393.29
                             1626.61  1660.16  1672.41  1865.48  1886.43
                             2001.64  2047.24  2096.52  2137.20  2151.30
                             2631.04  3262.50  4398.46  4488.36  4512.89
                             4548.80  4997.97  5435.12
 
 Zero-point correction=                           0.107138 (Hartree/Particle)
 Thermal correction to Energy=                    0.116523
 Thermal correction to Enthalpy=                  0.117467
 Thermal correction to Gibbs Free Energy=         0.072002
 Sum of electronic and zero-point Energies=           -420.097452
 Sum of electronic and thermal Energies=              -420.088067
 Sum of electronic and thermal Enthalpies=            -420.087123
 Sum of electronic and thermal Free Energies=         -420.132588
 
                     E (Thermal)             CV                S
                      KCal/Mol        Cal/Mol-Kelvin    Cal/Mol-Kelvin
 Total                   73.119             32.536             95.688
 Electronic               0.000              0.000              1.377
 Translational            0.889              2.981             40.136
 Rotational               0.889              2.981             28.905
 Vibrational             71.342             26.574             25.270
 Vibration     1          0.597              1.972              4.381
 Vibration     2          0.608              1.936              3.161
 Vibration     3          0.613              1.921              2.904
 Vibration     4          0.621              1.892              2.561
 Vibration     5          0.625              1.881              2.449
 Vibration     6          0.657              1.780              1.805
 Vibration     7          0.674              1.727              1.593
 Vibration     8          0.696              1.663              1.385
 Vibration     9          0.745              1.525              1.062
 Vibration    10          0.764              1.475              0.971
 Vibration    11          0.895              1.161              0.565
 Vibration    12          0.947              1.054              0.468
                       Q            Log10(Q)             Ln(Q)
 Total Bot       0.760810D-33        -33.118724        -76.258680
 Total V=0       0.144937D+17         16.161180         37.212491
 Vib (Bot)       0.169389D-46        -46.771115       -107.694471
 Vib (Bot)    1  0.331019D+01          0.519852          1.197005
 Vib (Bot)    2  0.175875D+01          0.245204          0.564603
 Vib (Bot)    3  0.153338D+01          0.185650          0.427474
 Vib (Bot)    4  0.127172D+01          0.104390          0.240367
 Vib (Bot)    5  0.119447D+01          0.077174          0.177701
 Vib (Bot)    6  0.818328D+00         -0.087073         -0.200492
 Vib (Bot)    7  0.714127D+00         -0.146224         -0.336694
 Vib (Bot)    8  0.619835D+00         -0.207724         -0.478302
 Vib (Bot)    9  0.484945D+00         -0.314308         -0.723720
 Vib (Bot)   10  0.448731D+00         -0.348014         -0.801331
 Vib (Bot)   11  0.293312D+00         -0.532671         -1.226519
 Vib (Bot)   12  0.255914D+00         -0.591906         -1.362914
 Vib (V=0)       0.322693D+03          2.508789          5.776700
 Vib (V=0)    1  0.384774D+01          0.585205          1.347485
 Vib (V=0)    2  0.232844D+01          0.367065          0.845199
 Vib (V=0)    3  0.211284D+01          0.324867          0.748033
 Vib (V=0)    4  0.186648D+01          0.271023          0.624053
 Vib (V=0)    5  0.179490D+01          0.254039          0.584947
 Vib (V=0)    6  0.145899D+01          0.164052          0.377744
 Vib (V=0)    7  0.137177D+01          0.137280          0.316100
 Vib (V=0)    8  0.129636D+01          0.112727          0.259563
 Vib (V=0)    9  0.119654D+01          0.077928          0.179436
 Vib (V=0)   10  0.117183D+01          0.068866          0.158569
 Vib (V=0)   11  0.107968D+01          0.033296          0.076667
 Vib (V=0)   12  0.106169D+01          0.025996          0.059859
 Electronic      0.200000D+01          0.301030          0.693147
 Translational   0.484982D+08          7.685726         17.697038
 Rotational      0.463057D+06          5.665635         13.045606
 ***** Axes restored to original set *****
 -------------------------------------------------------------------
 Center     Atomic                   Forces (Hartrees/Bohr)
 Number     Number              X              Y              Z
 -------------------------------------------------------------------
      1        6          -0.000023613   -0.000011560   -0.000005620
      2        1          -0.000002287    0.000000086   -0.000010809
      3        6          -0.000055226   -0.000066098   -0.000025747
      4        6           0.000331347    0.000314383    0.000119589
      5        8           0.000169048   -0.000108070    0.000172468
      6        8          -0.001012333    0.000424437   -0.000127864
      7        6           0.000734408   -0.000243311   -0.000202338
      8        6          -0.000142418    0.001023280   -0.000335118
      9        1          -0.000068171    0.000491379   -0.000159681
     10        1          -0.000295788    0.002224844   -0.000902835
     11        1          -0.000001197   -0.000006258   -0.000011017
     12        1           0.000071688    0.000122565    0.000038722
     13        1          -0.000011820    0.000031482    0.000005394
     14        8           0.000419241   -0.004185277    0.001484869
     15        1          -0.000112880   -0.000011880   -0.000040014
 -------------------------------------------------------------------
 Cartesian Forces:  Max     0.004185277 RMS     0.000808305

 GradGradGradGradGradGradGradGradGradGradGradGradGradGradGradGradGradGrad
 Berny optimization.
 Search for a local minimum.
 Step number   1 out of a maximum of    2
 All quantities printed in internal units (Hartrees-Bohrs-Radians)
 Second derivative matrix not updated -- analytic derivatives used.
 ITU=  0
     Eigenvalues ---   -0.14086   0.00101   0.00169   0.00263   0.00274
     Eigenvalues ---    0.00602   0.00792   0.00994   0.01321   0.02161
     Eigenvalues ---    0.02212   0.02939   0.04258   0.05433   0.06502
     Eigenvalues ---    0.07430   0.08596   0.08792   0.09094   0.09681
     Eigenvalues ---    0.10836   0.11548   0.14335   0.17691   0.19235
     Eigenvalues ---    0.25674   0.29656   0.36810   0.47718   0.52538
     Eigenvalues ---    0.66310   0.72643   0.77522   0.80092   0.87701
     Eigenvalues ---    0.90900   0.95077   1.70418   2.73326
 Eigenvalue     1 is  -1.41D-01 should be greater than     0.000000 Eigenvector:
                          Y10       Y14       Z10       Z14       Y9
   1                    0.74694  -0.49824  -0.25916   0.16083   0.12599
                          Y7        X10       X14       Y8        X7
   1                   -0.09545  -0.09371   0.09059   0.08929   0.07912
 Angle between quadratic step and forces=  39.69 degrees.
 Linear search not attempted -- first point.
 TrRot=  0.000612 -0.001296  0.000416  1.317241  0.000269 -1.316866
 Variable       Old X    -DE/DX   Delta X   Delta X   Delta X     New X
                                 (Linear)    (Quad)   (Total)
    X1        6.19489  -0.00002   0.00000  -0.00053   0.00040   6.19529
    Y1       -0.98969  -0.00001   0.00000  -0.00039   0.00042  -0.98927
    Z1       -0.83342  -0.00001   0.00000   0.00045   0.00070  -0.83272
    X2        8.07224   0.00000   0.00000  -0.00075   0.00033   8.07257
    Y2       -1.49410   0.00000   0.00000  -0.00172  -0.00034  -1.49444
    Z2       -1.35488  -0.00001   0.00000   0.00035   0.00061  -1.35427
    X3        4.08314  -0.00006   0.00000  -0.00022   0.00054   4.08368
    Y3       -0.42510  -0.00007   0.00000   0.00179   0.00196  -0.42314
    Z3       -0.24647  -0.00003   0.00000  -0.00049  -0.00024  -0.24671
    X4        1.55691   0.00033   0.00000   0.00161   0.00212   1.55903
    Y4        0.35121   0.00031   0.00000   0.00557   0.00499   0.35620
    Z4        0.49157   0.00012   0.00000   0.00005   0.00027   0.49184
    X5        1.06894   0.00017   0.00000   0.00343   0.00326   1.07220
    Y5        2.34631  -0.00011   0.00000   0.00364   0.00312   2.34943
    Z5        1.45700   0.00017   0.00000   0.00282   0.00255   1.45954
    X6       -0.14525  -0.00101   0.00000  -0.00220  -0.00106  -0.14630
    Y6       -1.43754   0.00042   0.00000   0.00678   0.00542  -1.43213
    Z6       -0.03683  -0.00013   0.00000  -0.00364  -0.00284  -0.03967
    X7       -2.68061   0.00073   0.00000   0.00534   0.00634  -2.67427
    Y7       -0.91258  -0.00024   0.00000  -0.00363  -0.00576  -0.91834
    Z7        0.67193  -0.00020   0.00000   0.00510   0.00594   0.67786
    X8       -4.33618  -0.00014   0.00000  -0.00367  -0.00193  -4.33810
    Y8       -3.06110   0.00102   0.00000   0.01082   0.00785  -3.05324
    Z8       -0.17079  -0.00034   0.00000  -0.00373  -0.00223  -0.17302
    X9       -2.77921  -0.00007   0.00000   0.00337   0.00434  -2.77487
    Y9       -0.46317   0.00049   0.00000  -0.00092  -0.00255  -0.46572
    Z9        2.68354  -0.00016   0.00000   0.00369   0.00442   2.68796
   X10       -3.32304  -0.00030   0.00000  -0.00228  -0.00207  -3.32511
   Y10        0.98921   0.00222   0.00000   0.01009   0.00745   0.99666
   Z10       -0.38546  -0.00090   0.00000  -0.00040  -0.00002  -0.38549
   X11       -4.18476   0.00000   0.00000  -0.00341  -0.00170  -4.18646
   Y11       -3.33155  -0.00001   0.00000   0.01316   0.00972  -3.32183
   Z11       -2.20775  -0.00001   0.00000  -0.00363  -0.00206  -2.20981
   X12       -3.77540   0.00007   0.00000  -0.00840  -0.00593  -3.78134
   Y12       -4.80964   0.00012   0.00000   0.00585   0.00333  -4.80631
   Z12        0.77469   0.00004   0.00000  -0.00708  -0.00516   0.76953
   X13       -6.29865  -0.00001   0.00000  -0.00218  -0.00056  -6.29921
   Y13       -2.64971   0.00003   0.00000   0.01328   0.00970  -2.64001
   Z13        0.30322   0.00001   0.00000  -0.00155  -0.00002   0.30320
   X14       -3.62116   0.00042   0.00000   0.00349   0.00277  -3.61840
   Y14        3.35047  -0.00419   0.00000  -0.03490  -0.03789   3.31258
   Z14       -1.32050   0.00148   0.00000   0.00480   0.00460  -1.31590
   X15       -2.26940  -0.00011   0.00000  -0.00587  -0.00683  -2.27623
   Y15        4.13947  -0.00001   0.00000  -0.00518  -0.00742   4.13205
   Z15       -0.35721  -0.00004   0.00000  -0.00599  -0.00650  -0.36372
         Item               Value     Threshold  Converged?
 Maximum Force            0.004185     0.000450     NO 
 RMS     Force            0.000808     0.000300     NO 
 Maximum Displacement     0.037890     0.001800     NO 
 RMS     Displacement     0.007089     0.001200     NO 
 Predicted change in Energy=-2.566850D-04
 GradGradGradGradGradGradGradGradGradGradGradGradGradGradGradGradGradGrad

 1|1|UNPC-DIT|Freq|UM062X|6-311++G(d,p)|C5H7O3(2)|NDITM|27-Mar-2025|0||
 # freq 6-311++g(d,p) m062x||Title Card Required||0,2|C,3.278195,-0.523
 719,-0.441025|H,4.271648,-0.790643,-0.716969|C,2.160707,-0.224951,-0.1
 30428|C,0.823883,0.185854,0.26013|O,0.565659,1.241615,0.771009|O,-0.07
 6861,-0.760716,-0.019487|C,-1.418519,-0.482919,0.355569|C,-2.294605,-1
 .619863,-0.090377|H,-1.470694,-0.245098,1.42007|H,-1.758478,0.523468,-
 0.203979|H,-2.214478,-1.76298,-1.168291|H,-1.997858,-2.545152,0.409947
 |H,-3.333102,-1.402167,0.160459|O,-1.916237,1.772991,-0.69878|H,-1.200
 917,2.190513,-0.18903||Version=IA32W-G09RevD.01|State=2-A|HF=-420.2045
 901|S2=0.759131|S2-1=0.|S2A=0.750039|RMSD=1.251e-009|RMSF=8.083e-004|Z
 eroPoint=0.1071379|Thermal=0.1165227|Dipole=0.5512729,-1.1062044,0.241
 9563|DipoleDeriv=-0.2260696,0.0156383,0.0076449,0.0134784,-0.1447297,-
 0.0063574,0.0170214,-0.0095077,-0.1324766,0.2802047,-0.0126701,-0.0129
 023,-0.0123362,0.2240436,0.0107465,-0.0178521,0.0106365,0.2118459,-0.6
 741355,0.1465337,0.1227617,0.1130162,-0.1544003,-0.0481787,0.1540109,-
 0.0439329,-0.1407616,2.3773597,-0.1353174,-0.1295124,0.5646916,1.29481
 9,0.5888937,-0.0227172,0.4010734,0.6988161,-0.8272337,0.1700994,0.1388
 311,-0.062548,-0.8802608,-0.3636104,-0.0003284,-0.2954131,-0.5310697,-
 1.9805254,0.0190013,-0.197166,-0.5206238,-0.7973173,-0.1471494,-0.0292
 181,-0.1164667,-0.3427605,1.2204016,-0.3871049,0.1949171,-0.2806773,1.
 3428388,-0.3800737,-0.0052786,-0.3561226,0.430425,-0.0630089,0.0700895
 ,-0.0455349,-0.0588891,-0.2227931,0.0312259,-0.0283815,0.1203738,-0.02
 35746,-0.0505258,-0.0108501,-0.060507,0.0547064,-0.139035,0.0471956,0.
 0092252,0.019963,-0.0708562,-0.0080268,0.1882633,-0.0832348,0.3995991,
 -1.192331,0.5009869,-0.142745,0.544487,-0.1190179,0.0831214,-0.0107425
 ,0.0350653,-0.0239508,0.074067,-0.001702,-0.0019703,-0.0356158,-0.0547
 63,0.0633646,-0.0167196,-0.0197779,0.0031455,-0.0729,0.0580372,-0.0375
 546,0.0164643,0.0542556,-0.0605035,-0.0021307,0.031256,0.0305111,0.059
 1086,-0.0219541,0.0340707,-0.0227481,0.0780262,-0.4111248,-0.0657376,0
 .1138764,-0.0937363,0.1617014,-0.2084562,0.1139215,-0.2570567,-0.29392
 34,0.276702,0.0316473,-0.0957171,-0.1263867,0.4471888,-0.0596039,-0.04
 22041,0.0238655,0.2358345|Polar=95.7547891,-9.1471292,82.9808565,-3.97
 99358,-3.0629704,54.0825661|PG=C01 [X(C5H7O3)]|NImag=1||1.36789695,-0.
 35407852,0.15279271,-0.36641607,0.09797655,0.16245558,-0.36833923,0.09
 255841,0.09516487,0.35848565,0.09256719,-0.05249967,-0.02466447,-0.092
 61115,0.04185869,0.09507804,-0.02459811,-0.05614994,-0.09554354,0.0252
 2854,0.04455164,-0.99921418,0.25933218,0.26979937,0.00951798,-0.001677
 91,-0.00091514,1.30844865,0.26094104,-0.10428831,-0.07370528,-0.001391
 32,0.00553717,-0.00074986,-0.32269881,0.19129808,0.27047115,-0.0735799
 4,-0.10894934,-0.00089267,-0.00060538,0.00744266,-0.34232106,0.1098126
 8,0.16294029,0.00656787,0.00050198,-0.00058664,-0.00079573,0.00203454,
 0.00196165,-0.24627385,0.05235194,0.05125180,0.64540300,0.00104191,0.0
 0233093,0.00006567,0.00118311,0.00523674,-0.00055642,0.04264767,-0.073
 26405,-0.00712200,-0.09034972,0.83134756,-0.00017379,0.00020170,0.0017
 7881,0.00159301,-0.00071236,0.00554025,0.04607213,-0.00890981,-0.08269
 299,-0.11036721,0.28870322,0.35464412,-0.00335880,0.00032395,0.0007204
 1,0.00009795,-0.00141049,-0.00076912,-0.01357512,0.04216574,0.02394516
 ,-0.14846762,0.13819348,0.07175016,0.14620936,-0.00124927,0.00153016,0
 .00071399,0.00006764,0.00031526,0.00059916,0.03534599,-0.02618917,-0.0
 2675881,0.13454539,-0.58894988,-0.24632164,-0.13828151,0.70099961,-0.0
 0007598,0.00040043,0.00069753,-0.00014070,0.00080941,-0.00067512,0.021
 27216,-0.02708139,0.00564054,0.06972562,-0.24972949,-0.20159421,-0.074
 24560,0.31789144,0.19020832,-0.00418396,0.00150330,0.00136716,0.001338
 96,0.00090848,0.00010511,-0.06093818,-0.02840507,-0.00136074,-0.192625
 84,-0.08162979,-0.01467850,0.02170780,-0.04610382,-0.01662373,0.497587
 60,0.00152582,-0.00038815,-0.00071558,0.00007864,-0.00055702,-0.000063
 48,-0.00891156,0.00884347,0.00037785,-0.07164702,-0.18596757,-0.040879
 68,-0.03720459,-0.08411378,-0.04472256,0.09596408,0.35220252,0.0015312
 8,-0.00064750,-0.00002537,-0.00021791,-0.00023450,-0.00049085,0.007259
 61,0.00349893,0.01178470,-0.00952227,-0.03644470,-0.08505656,-0.014448
 62,-0.04536041,0.01324142,-0.03803778,0.11387800,0.14048486,0.00130968
 ,-0.00028818,-0.00034543,-0.00050047,0.00008383,0.00007930,0.00480758,
 -0.00137321,-0.00036588,-0.06777969,-0.03829480,-0.00676332,-0.0004716
 1,0.02499075,0.00816603,-0.16948704,0.03070068,0.03585113,0.43641637,-
 0.00087298,0.00043815,0.00037496,0.00025557,0.00019962,0.00014061,-0.0
 0595156,-0.00264283,-0.00252270,-0.01638225,0.02932746,0.01493881,-0.0
 0054299,-0.01439461,0.00015313,0.01902067,-0.09434512,-0.02926351,0.07
 355614,0.39572218,-0.00038694,0.00028831,0.00014412,-0.00001915,0.0001
 7375,-0.00022750,-0.00115069,-0.00303403,0.00451936,-0.00727213,0.0032
 2509,0.00443822,-0.00312386,0.00070537,-0.00629991,0.05883879,-0.02765
 390,-0.08635518,-0.00877775,0.09794005,0.55486719,-0.00041174,0.000172
 68,0.00012472,0.00008409,0.00007064,0.00001725,-0.00159674,-0.00121256
 ,-0.00022259,-0.00236418,0.00755163,0.00392259,0.00221866,-0.00307142,
 -0.00135782,-0.04457523,-0.03383945,-0.00853874,-0.11133217,-0.0590547
 5,-0.02115676,0.56340592,0.00025342,-0.00013858,-0.00011507,-0.0000408
 6,-0.00003848,0.00000748,0.00062384,0.00074396,0.00012367,0.00173025,-
 0.00473442,-0.00209006,-0.00185206,0.00246744,0.00044288,0.00702501,0.
 00959273,0.00381139,-0.07723705,-0.16083651,-0.04683939,-0.03510360,0.
 52191941,0.00012396,-0.00009396,-0.00002236,-0.00001135,-0.00000725,-0
 .00001349,0.00039659,0.00041367,-0.00000514,0.00283762,-0.00121271,-0.
 00057932,-0.00069625,-0.00036136,0.00134356,0.00828652,0.00970296,0.00
 479926,-0.02575496,-0.04585087,-0.09623751,-0.01985324,-0.00891611,0.5
 7410568,-0.00014090,0.00000287,0.00002249,0.00007174,-0.00001624,0.000
 05687,-0.00072613,0.00029695,-0.00100881,0.00345497,0.00785249,0.00468
 754,0.00075326,-0.00338113,-0.00156516,-0.02097499,0.00541650,0.038708
 53,-0.04779270,-0.00380646,-0.00239991,0.00317590,-0.00155547,-0.01889
 110,0.06212363,0.00007676,-0.00000176,0.00003614,-0.00003453,-0.000007
 30,0.00000551,0.00062570,-0.00001551,-0.00024660,-0.00368398,-0.001959
 27,0.00048618,0.00050751,0.00126158,-0.00018264,0.00995822,-0.00000256
 ,-0.00935127,-0.00625320,-0.04622162,-0.05348824,0.00069366,-0.0034714
 7,-0.02424284,-0.00169358,0.05671456,-0.00008871,0.00002408,0.00005747
 ,0.00000025,-0.00001932,0.00001167,0.00021105,0.00030434,-0.00031853,-
 0.00118636,-0.00350355,-0.00078991,-0.00151525,0.00085918,0.00119909,0
 .00854937,-0.00079956,-0.00342929,0.01012725,-0.06189664,-0.31115891,-
 0.00043095,0.00100057,-0.00339619,-0.01320653,0.06469168,0.32935846,-0
 .00003984,-0.00009581,0.00019035,0.00004014,0.00006435,-0.00008315,-0.
 00051788,-0.00038980,0.00029119,0.00298828,0.00946606,0.00280877,0.001
 02884,-0.00388438,-0.00133774,-0.02964541,0.02155581,-0.00981808,-0.03
 115249,-0.00252865,-0.00205102,0.00301707,-0.01025365,0.00488574,0.001
 30162,0.00234125,-0.00138908,0.06324307,0.00034117,0.00006044,-0.00009
 286,-0.00022935,-0.00007481,0.00004469,0.00234219,0.00057510,-0.000129
 17,-0.01637054,-0.02026589,-0.00745579,-0.00291381,0.01100477,0.001514
 10,0.04165533,-0.00654734,0.00314021,-0.03209344,0.01877121,-0.0100880
 1,0.00732031,-0.03172561,0.01627220,0.00178713,-0.01296251,0.00253013,
 0.01400968,-0.03689145,-0.00004060,-0.00008315,0.00002442,0.00009038,0
 .00004932,0.00001083,-0.00078412,-0.00026486,-0.00040429,0.00549332,0.
 00914980,0.00431452,0.00220473,-0.00461738,-0.00094319,-0.00900572,-0.
 00679713,0.00288802,0.00662365,-0.00453729,-0.04201320,-0.00074056,-0.
 00050986,-0.00043256,-0.00723494,0.02454406,-0.01420360,0.00242231,0.0
 3058593,0.04290342,0.00001868,0.00001341,0.00001754,-0.00002111,-0.000
 00741,-0.00000657,0.00009160,0.00003470,0.00002573,-0.00028629,-0.0013
 0178,-0.00041604,-0.00044363,0.00060017,0.00040404,0.00237804,0.001289
 78,0.00013280,0.00036833,-0.00256265,-0.02193305,-0.04893702,0.0028699
 8,0.02225821,-0.00185156,-0.00320144,-0.00056753,0.00025189,0.00039656
 ,0.00030980,0.04860577,-0.00001428,-0.00000344,0.00003421,0.00000341,0
 .00000364,-0.00000327,-0.00000273,0.00004643,-0.00010174,0.00012756,-0
 .00047637,-0.00016169,-0.00033970,-0.00002381,0.00034866,0.00179674,0.
 00127123,0.00143803,0.00285655,-0.00607207,-0.02956206,0.00192813,-0.0
 5082922,-0.03143336,-0.00391608,-0.00304449,-0.00060936,0.00028082,0.0
 0159375,-0.00106200,-0.00001100,0.05529660,-0.00001984,0.00001712,0.00
 001702,-0.00000202,-0.00000555,-0.00000295,-0.00001918,0.00000675,-0.0
 0003535,-0.00019035,-0.00038322,-0.00003806,-0.00006264,0.00034266,0.0
 0017756,0.00026717,0.00058546,0.00095976,0.00062426,-0.00234437,-0.009
 56223,0.02051892,-0.03378721,-0.31476152,-0.00075445,-0.00097521,0.001
 17774,-0.00018470,0.00028858,0.00025512,-0.02165877,0.03903596,0.33913
 180,0.00002857,0.00002418,-0.00000164,-0.00001926,-0.00001728,0.000003
 08,0.00009700,0.00007674,-0.00002002,-0.00039744,-0.00145702,-0.000588
 48,-0.00054317,0.00084200,0.00019823,0.00260568,0.00127101,0.00002870,
 0.00297197,-0.01732953,0.00925399,-0.06579413,0.06212312,-0.03417266,0
 .00046696,0.00080489,0.00002769,-0.00085204,-0.00503802,0.00047487,-0.
 00015881,-0.00293763,0.00162082,0.06803145,-0.00003870,0.00003706,-0.0
 0000890,0.00000043,-0.00001162,0.00000309,0.00001343,-0.00000849,0.000
 07966,-0.00033555,-0.00085864,-0.00054535,-0.00044370,0.00064114,0.000
 13372,0.00137912,0.00221949,-0.00030963,0.00565460,-0.02529710,0.01085
 220,0.06271462,-0.23320111,0.10504883,0.00001635,0.00097592,-0.0003334
 9,-0.00263670,-0.00207537,-0.00150153,-0.00167152,0.00461919,-0.002467
 12,-0.06567711,0.25643519,-0.00000200,-0.00000075,-0.00002563,0.000006
 20,0.00000055,0.00000531,0.00003349,0.00001328,0.00006829,0.00009164,-
 0.00025365,-0.00014686,-0.00024477,0.00005361,-0.00014383,0.00069520,0
 .00059553,-0.00001070,0.00315867,-0.00886117,0.00458012,-0.03488394,0.
 10365422,-0.10428335,0.00066135,0.00027678,0.00038906,-0.00079129,-0.0
 0331680,0.00123359,-0.00947036,0.02730831,-0.01274047,0.03898560,-0.11
 276945,0.10851549,-0.00009260,0.00003067,0.00001879,0.00002641,0.00000
 517,-0.00000181,-0.00030177,-0.00017720,0.00000934,0.00030081,0.001628
 17,0.00064683,0.00018028,-0.00068276,-0.00034877,-0.00273799,-0.004456
 41,-0.00175962,-0.01614180,0.00713724,0.00577278,-0.29688408,0.0513333
 5,0.06016918,0.00040349,-0.00008328,-0.00051651,0.00000624,-0.00012017
 ,0.00022916,-0.00001351,0.00006477,-0.00022183,-0.00652547,0.00069953,
 0.00176755,0.32165910,-0.00014524,0.00008271,0.00006889,0.00001670,0.0
 0001279,-0.00000164,-0.00043487,-0.00039443,-0.00008937,-0.00095996,0.
 00183594,0.00069889,0.00042479,-0.00058926,-0.00021927,-0.00630499,-0.
 00515195,-0.00207610,-0.02186572,0.00714744,0.00868789,0.05461837,-0.0
 5926380,-0.01449757,0.00070457,0.00061603,-0.00042795,-0.00015268,0.00
 081364,0.00028691,0.00346399,-0.00215121,0.00002015,0.02563746,-0.0039
 0675,-0.00788852,-0.05533806,0.06108163,-0.00006260,0.00004518,-0.0000
 0349,0.00000561,0.00000026,0.00000780,-0.00016708,-0.00014863,-0.00001
 525,-0.00038677,0.00036558,0.00069911,0.00012506,-0.00005738,-0.000219
 19,-0.00257567,-0.00240444,0.00038317,-0.00849141,0.00451862,0.0009325
 4,0.06130299,-0.01420097,-0.06223022,0.00037600,0.00047528,-0.00013680
 ,0.00024561,0.00001737,0.00022541,0.03086342,-0.00576319,-0.00471230,-
 0.01532875,0.00174695,0.00290636,-0.06577727,0.01537756,0.06223434,-0.
 00015815,0.00013379,-0.00009992,0.00007067,-0.00007252,-0.00000658,-0.
 00012192,0.00022211,0.00081743,-0.00104304,-0.00749620,-0.00243014,-0.
 00386514,0.00607858,-0.00217812,0.00709458,0.00068400,-0.00009736,-0.0
 0826032,0.01653520,-0.00899305,0.00111706,-0.00138962,0.00148436,0.000
 04886,-0.00098808,0.00005733,-0.00940245,-0.02084861,0.00435409,-0.000
 06392,0.00030470,0.00005896,-0.00035529,0.00000732,-0.00022526,0.00018
 961,0.00047143,-0.00011436,0.29257321,0.00005077,-0.00006675,0.0000627
 3,0.00003655,0.00003552,-0.00001570,-0.00070167,-0.00020065,-0.0002039
 3,0.00462764,0.00779488,0.00217565,0.00318643,-0.00406792,0.00130952,-
 0.01521985,0.00273276,-0.00108585,0.03889234,-0.09641957,0.04804278,-0
 .00256153,0.00887629,-0.00462387,-0.00132600,0.00722640,-0.00180676,-0
 .01653184,0.07979305,-0.03634637,0.00002145,-0.00036233,-0.00043869,0.
 00145829,0.00010230,0.00104882,-0.00012828,-0.00019357,0.00004102,0.15
 263166,0.10668294,-0.00008248,-0.00000229,0.00012586,-0.00004270,-0.00
 001703,-0.00006012,0.00007884,0.00048206,0.00033515,-0.00319229,-0.005
 94593,-0.00302935,-0.00292548,0.00455121,0.00054709,0.00688874,0.00018
 821,0.00141994,-0.01799254,0.04157154,-0.02060714,0.00182415,-0.003635
 87,0.00276528,0.00069129,-0.00325463,0.00188528,0.00318542,-0.04218552
 ,0.00509606,0.00008588,0.00071196,0.00018907,-0.00072386,-0.00006312,-
 0.00055905,0.00003010,0.00014382,-0.00010734,0.20647463,0.10508351,0.1
 6005185,0.00011764,-0.00013490,0.00002399,-0.00005781,0.00007880,0.000
 02461,0.00030294,-0.00044125,-0.00062003,0.00131874,0.01096479,0.00393
 644,-0.00147105,-0.00581621,-0.00189247,-0.00754404,-0.00242731,-0.001
 07165,0.00704436,-0.00747300,0.00339875,-0.00112342,0.00147336,-0.0010
 6261,-0.00031417,0.00093010,-0.00007201,-0.00026705,0.00976157,-0.0043
 9637,0.00006153,-0.00014126,0.00002366,0.00044398,0.00031787,0.0002179
 3,-0.00006873,-0.00013578,-0.00001478,-0.27782377,-0.16443596,-0.19429
 970,0.27938084,-0.00039908,0.00011452,-0.00003099,0.00010676,-0.000010
 53,-0.00004060,-0.00055189,-0.00004077,0.00096578,0.00380972,-0.001397
 43,-0.00012808,-0.00181306,0.00010848,-0.00106793,-0.00154742,0.000211
 31,-0.00099308,0.00067071,-0.00537663,0.00075020,-0.00022674,0.0006393
 8,-0.00019774,-0.00038188,0.00089199,-0.00001336,-0.01124448,-0.002069
 00,-0.00889646,0.00006576,0.00013209,0.00010468,0.00021889,0.00032879,
 0.00013925,0.00008726,0.00006080,-0.00001321,-0.14627375,-0.11193336,-
 0.09762792,0.15747919,0.11834037,0.00014457,0.00005233,-0.00012468,0.0
 0000974,0.00000402,0.00004979,0.00023403,-0.00063785,-0.00031010,0.001
 34238,0.00364230,0.00251222,-0.00071392,-0.00223964,-0.00317967,-0.002
 71591,-0.00129168,-0.00059319,0.00386100,-0.00436116,0.00298004,-0.000
 52602,0.00105434,-0.00105211,-0.00014317,0.00122581,-0.00064553,0.0016
 2569,0.00887495,0.00104544,-0.00004510,-0.00018045,-0.00005519,0.00024
 244,0.00013413,0.00021167,-0.00001794,-0.00008370,0.00003585,-0.199102
 01,-0.11324287,-0.14805258,0.19580423,0.10704948,0.14717803||0.0000236
 1,0.00001156,0.00000562,0.00000229,-0.00000009,0.00001081,0.00005523,0
 .00006610,0.00002575,-0.00033135,-0.00031438,-0.00011959,-0.00016905,0
 .00010807,-0.00017247,0.00101233,-0.00042444,0.00012786,-0.00073441,0.
 00024331,0.00020234,0.00014242,-0.00102328,0.00033512,0.00006817,-0.00
 049138,0.00015968,0.00029579,-0.00222484,0.00090284,0.00000120,0.00000
 626,0.00001102,-0.00007169,-0.00012256,-0.00003872,0.00001182,-0.00003
 148,-0.00000539,-0.00041924,0.00418528,-0.00148487,0.00011288,0.000011
 88,0.00004001|||@


 A COMPLEXITY IS MERELY A DISARRANGEMENT OF SIMPLICITIES.

                                    -- G. O. ABELL IN "EXPLORATION OF THE UNIVERSE"
 Job cpu time:       0 days  0 hours 20 minutes 19.0 seconds.
 File lengths (MBytes):  RWF=    152 Int=      0 D2E=      0 Chk=      9 Scr=      1
 Normal termination of Gaussian 09 at Thu Mar 27 06:01:16 2025.
