 Entering Link 1 = C:\G09W\l1.exe PID=      1676.
  
 Copyright (c) 1988,1990,1992,1993,1995,1998,2003,2009,2013,
            Gaussian, Inc.  All Rights Reserved.
  
 This is part of the Gaussian(R) 09 program.  It is based on
 the Gaussian(R) 03 system (copyright 2003, Gaussian, Inc.),
 the Gaussian(R) 98 system (copyright 1998, Gaussian, Inc.),
 the Gaussian(R) 94 system (copyright 1995, Gaussian, Inc.),
 the Gaussian 92(TM) system (copyright 1992, Gaussian, Inc.),
 the Gaussian 90(TM) system (copyright 1990, Gaussian, Inc.),
 the Gaussian 88(TM) system (copyright 1988, Gaussian, Inc.),
 the Gaussian 86(TM) system (copyright 1986, Carnegie Mellon
 University), and the Gaussian 82(TM) system (copyright 1983,
 Carnegie Mellon University). Gaussian is a federally registered
 trademark of Gaussian, Inc.
  
 This software contains proprietary and confidential information,
 including trade secrets, belonging to Gaussian, Inc.
  
 This software is provided under written license and may be
 used, copied, transmitted, or stored only in accord with that
 written license.
  
 The following legend is applicable only to US Government
 contracts under FAR:
  
                    RESTRICTED RIGHTS LEGEND
  
 Use, reproduction and disclosure by the US Government is
 subject to restrictions as set forth in subparagraphs (a)
 and (c) of the Commercial Computer Software - Restricted
 Rights clause in FAR 52.227-19.
  
 Gaussian, Inc.
 340 Quinnipiac St., Bldg. 40, Wallingford CT 06492
  
  
 ---------------------------------------------------------------
 Warning -- This program may not be used in any manner that
 competes with the business of Gaussian, Inc. or will provide
 assistance to any competitor of Gaussian, Inc.  The licensee
 of this program is prohibited from giving any competitor of
 Gaussian, Inc. access to this program.  By using this program,
 the user acknowledges that Gaussian, Inc. is engaged in the
 business of creating and licensing software in the field of
 computational chemistry and represents and warrants to the
 licensee that it is not a competitor of Gaussian, Inc. and that
 it will not use this program in any manner prohibited above.
 ---------------------------------------------------------------
  

 Cite this work as:
 Gaussian 09, Revision D.01,
 M. J. Frisch, G. W. Trucks, H. B. Schlegel, G. E. Scuseria, 
 M. A. Robb, J. R. Cheeseman, G. Scalmani, V. Barone, B. Mennucci, 
 G. A. Petersson, H. Nakatsuji, M. Caricato, X. Li, H. P. Hratchian, 
 A. F. Izmaylov, J. Bloino, G. Zheng, J. L. Sonnenberg, M. Hada, 
 M. Ehara, K. Toyota, R. Fukuda, J. Hasegawa, M. Ishida, T. Nakajima, 
 Y. Honda, O. Kitao, H. Nakai, T. Vreven, J. A. Montgomery, Jr., 
 J. E. Peralta, F. Ogliaro, M. Bearpark, J. J. Heyd, E. Brothers, 
 K. N. Kudin, V. N. Staroverov, T. Keith, R. Kobayashi, J. Normand, 
 K. Raghavachari, A. Rendell, J. C. Burant, S. S. Iyengar, J. Tomasi, 
 M. Cossi, N. Rega, J. M. Millam, M. Klene, J. E. Knox, J. B. Cross, 
 V. Bakken, C. Adamo, J. Jaramillo, R. Gomperts, R. E. Stratmann, 
 O. Yazyev, A. J. Austin, R. Cammi, C. Pomelli, J. W. Ochterski, 
 R. L. Martin, K. Morokuma, V. G. Zakrzewski, G. A. Voth, 
 P. Salvador, J. J. Dannenberg, S. Dapprich, A. D. Daniels, 
 O. Farkas, J. B. Foresman, J. V. Ortiz, J. Cioslowski, 
 and D. J. Fox, Gaussian, Inc., Wallingford CT, 2013.
 
 ******************************************
 Gaussian 09:  IA32W-G09RevD.01 24-Apr-2013
                25-Mar-2025 
 ******************************************
 %chk=ethyl_propiolate.chk
 %nprocshared=4
 Will use up to    4 processors via shared memory.
 %mem=150MW
 ----------------------------------------------------------------------
 # irc=(calcfc,maxpoints=10,maxcycle=900,stepsize=5) 6-311++g(d,p) geom
 =connectivity m062x geom=connectivity
 ----------------------------------------------------------------------
 1/6=900,10=4,14=-1,18=10,26=3,38=1,39=5,42=10,44=3,57=4/1,23;
 2/12=2,17=6,18=5,29=1,40=1/2;
 3/5=4,6=6,7=1111,11=2,16=1,25=1,30=1,71=2,74=-55,140=1/1,2,3;
 4//1;
 5/5=2,38=5/2;
 8/6=4,10=90,11=11/1;
 11/6=1,8=1,9=11,15=111,16=1/1,2,10;
 10/6=1,13=1/2;
 6/7=2,8=2,9=2,10=2,28=1/1;
 7/10=1,18=20,25=1/1,2,3,16;
 1/6=900,10=4,14=-1,18=10,26=3,39=5,42=10,44=3/23(2);
 2/29=1/2;
 99/5=20/99;
 2/29=1/2;
 3/5=4,6=6,7=1111,11=2,16=1,25=1,30=1,71=2,74=-55,140=1/1,2,3;
 4/5=5,16=3,69=1/1;
 5/5=2,38=5/2;
 8/6=4,10=90,11=11/1;
 11/6=1,8=1,9=11,15=111,16=1/1,2,10;
 10/6=1,13=1/2;
 7/10=1,18=20,25=1/1,2,3,16;
 1/6=900,14=-1,18=10,26=3,39=5,42=10,44=3/23(-8);
 2/29=1/2;
 6/7=2,8=2,9=2,10=2,19=2,28=1/1;
 99/5=20,9=1/99;
 -------------------
 Title Card Required
 -------------------
 Symbolic Z-matrix:
 Charge =  0 Multiplicity = 2
 C                    -1.66353  -0.23608  -0.05401 
 H                    -2.96027  -0.83797   0.02644 
 C                    -0.63351   0.39795  -0.0435 
 C                     0.64045   1.12575   0.01419 
 O                     0.67317   2.27461   0.33963 
 O                     1.74201   0.45716  -0.32614 
 C                     1.69959  -0.95046  -0.62368 
 C                     1.75326  -1.77492   0.64691 
 H                     0.81175  -1.17495  -1.21759 
 H                     2.58102  -1.11466  -1.24141 
 H                     2.63964  -1.51648   1.22774 
 H                     0.86712  -1.60582   1.2608 
 H                     1.79722  -2.83666   0.39635 
 O                    -3.96974  -0.54275  -0.08999 
 H                    -4.07753   0.20101   0.52027 
 
 Recover connectivity data from disk.
 IRC-IRC-IRC-IRC-IRC-IRC-IRC-IRC-IRC-IRC-IRC-IRC-IRC-IRC-IRC-IRC-IRC-IRC
 ------------------------------------------------------------------------
 INPUT DATA FOR L123
 ------------------------------------------------------------------------
 GENERAL PARAMETERS:
 Follow reaction path in both directions.
 Maximum points per path      =  10
 Step size                    =   0.050 bohr
 Integration scheme           = HPC                                 
    Redo corrector integration= Yes                                 
    DWI Weight Power          =  2
    DWI will use Hessian update vectors when possible.
    Max correction cycles     = 900
 Initial Hessian              = CalcFC
 Hessian evaluation           = All updating
 Hessian updating method      = Bofill                              
 ------------------------------------------------------------------------
 IRC-IRC-IRC-IRC-IRC-IRC-IRC-IRC-IRC-IRC-IRC-IRC-IRC-IRC-IRC-IRC-IRC-IRC
                          Input orientation:                          
 ---------------------------------------------------------------------
 Center     Atomic      Atomic             Coordinates (Angstroms)
 Number     Number       Type             X           Y           Z
 ---------------------------------------------------------------------
      1          6           0       -1.663530   -0.236079   -0.054012
      2          1           0       -2.960273   -0.837973    0.026438
      3          6           0       -0.633505    0.397953   -0.043495
      4          6           0        0.640454    1.125746    0.014185
      5          8           0        0.673166    2.274610    0.339625
      6          8           0        1.742010    0.457161   -0.326140
      7          6           0        1.699588   -0.950464   -0.623678
      8          6           0        1.753256   -1.774923    0.646905
      9          1           0        0.811751   -1.174945   -1.217588
     10          1           0        2.581017   -1.114663   -1.241410
     11          1           0        2.639642   -1.516480    1.227739
     12          1           0        0.867118   -1.605820    1.260796
     13          1           0        1.797220   -2.836660    0.396346
     14          8           0       -3.969741   -0.542754   -0.089988
     15          1           0       -4.077527    0.201005    0.520274
 ---------------------------------------------------------------------
                    Distance matrix (angstroms):
                    1          2          3          4          5
     1  C    0.000000
     2  H    1.431884   0.000000
     3  C    1.209570   2.635575   0.000000
     4  C    2.677230   4.101412   1.468326   0.000000
     5  O    3.452341   4.794595   2.318623   1.194517   0.000000
     6  O    3.486020   4.890107   2.393003   1.332761   2.211061
     7  C    3.485029   4.706337   2.756477   2.416461   3.518891
     8  C    3.812316   4.845638   3.300708   3.170575   4.202349
     9  H    2.891781   3.986140   2.437472   2.615299   3.787288
    10  H    4.494219   5.691212   3.749154   3.218965   4.198421
    11  H    4.669004   5.767369   3.999323   3.528573   4.362125
    12  H    3.163715   4.094161   2.822791   3.011124   3.992983
    13  H    4.352314   5.173521   4.069964   4.145457   5.233717
    14  O    2.326790   1.058175   3.466636   4.903941   5.447815
    15  H    2.519569   1.603623   3.495413   4.834317   5.186671
                    6          7          8          9         10
     6  O    0.000000
     7  C    1.439353   0.000000
     8  C    2.434983   1.515584   0.000000
     9  H    2.079382   1.091501   2.173186   0.000000
    10  H    2.003068   1.088793   2.164917   1.770453   0.000000
    11  H    2.667497   2.152166   1.090798   3.072044   2.502317
    12  H    2.745850   2.161883   1.091191   2.516169   3.072413
    13  H    3.372579   2.146559   1.091787   2.517385   2.502370
    14  O    5.803421   5.708970   5.900334   4.953162   6.675723
    15  H    5.886344   6.000797   6.157788   5.368281   7.012184
                   11         12         13         14         15
    11  H    0.000000
    12  H    1.775082   0.000000
    13  H    1.773066   1.768426   0.000000
    14  O    6.809441   5.133218   6.225461   0.000000
    15  H    6.969263   5.316249   6.614788   0.968099   0.000000
 Symmetry turned off by external request.
 Stoichiometry    C5H7O3(2)
 Framework group  C1[X(C5H7O3)]
 Deg. of freedom    39
 Full point group                 C1      NOp   1
 Rotational constants (GHZ):      2.6261227      1.0380458      0.7904807
 Standard basis: 6-311++G(d,p) (5D, 7F)
   225 basis functions,   351 primitive gaussians,   233 cartesian basis functions
    31 alpha electrons       30 beta electrons
       nuclear repulsion energy       340.6223011511 Hartrees.
 NAtoms=   15 NActive=   15 NUniq=   15 SFac= 1.00D+00 NAtFMM=   60 NAOKFM=F Big=F
 Integral buffers will be    262144 words long.
 Raffenetti 2 integral format.
 Two-electron integral symmetry is turned off.
 One-electron integrals computed using PRISM.
 NBasis=   225 RedAO= T EigKep=  1.80D-05  NBF=   225
 NBsUse=   224 1.00D-06 EigRej=  7.56D-07 NBFU=   224
 ExpMin= 3.60D-02 ExpMax= 8.59D+03 ExpMxC= 1.30D+03 IAcc=3 IRadAn=         5 AccDes= 0.00D+00
 Harris functional with IExCor= 1009 and IRadAn=       5 diagonalized for initial guess.
 HarFok:  IExCor= 1009 AccDes= 0.00D+00 IRadAn=         5 IDoV= 1 UseB2=F ITyADJ=14
 ICtDFT=  3500011 ScaDFX=  1.000000  1.000000  1.000000  1.000000
 FoFCou: FMM=F IPFlag=           0 FMFlag=      100000 FMFlg1=           0
         NFxFlg=           0 DoJE=T BraDBF=F KetDBF=T FulRan=T
         wScrn=  0.000000 ICntrl=     500 IOpCl=  0 I1Cent=   200000004 NGrid=           0
         NMat0=    1 NMatS0=      1 NMatT0=    0 NMatD0=    1 NMtDS0=    0 NMtDT0=    0
 Symmetry not used in FoFCou.
 Initial guess <Sx>= 0.0000 <Sy>= 0.0000 <Sz>= 0.5000 <S**2>= 0.7500 S= 0.5000
 Requested convergence on RMS density matrix=1.00D-08 within 128 cycles.
 Requested convergence on MAX density matrix=1.00D-06.
 Requested convergence on             energy=1.00D-06.
 No special actions if energy rises.
 Restarting incremental Fock formation.
 SCF Done:  E(UM062X) =  -420.167129611     A.U. after   22 cycles
            NFock= 22  Conv=0.47D-08     -V/T= 2.0033
 <Sx>= 0.0000 <Sy>= 0.0000 <Sz>= 0.5000 <S**2>= 0.7649 S= 0.5074
 <L.S>= 0.000000000000E+00
 Annihilation of the first spin contaminant:
 S**2 before annihilation     0.7649,   after     0.7502
 DoSCS=F DFT=T ScalE2(SS,OS)=  1.000000  1.000000
 Range of M.O.s used for correlation:     1   224
 NBasis=   225 NAE=    31 NBE=    30 NFC=     0 NFV=     0
 NROrb=    224 NOA=    31 NOB=    30 NVA=   193 NVB=   194

 **** Warning!!: The largest alpha MO coefficient is  0.63161710D+02


 **** Warning!!: The largest beta MO coefficient is  0.60728914D+02

 Symmetrizing basis deriv contribution to polar:
 IMax=3 JMax=2 DiffMx= 0.00D+00
 G2DrvN: will do    16 centers at a time, making    1 passes.
 Calling FoFCou, ICntrl=  3107 FMM=F I1Cent=   0 AccDes= 0.00D+00.
 End of G2Drv F.D. properties file   721 does not exist.
 End of G2Drv F.D. properties file   722 does not exist.
 End of G2Drv F.D. properties file   788 does not exist.
          IDoAtm=111111111111111
          Differentiating once with respect to nuclear coordinates.
          There are    48 degrees of freedom in the 1st order CPHF.  IDoFFX=6 NUNeed=     0.
     42 vectors produced by pass  0 Test12= 2.46D-14 2.08D-09 XBig12= 2.58D-01 2.15D-01.
 AX will form    42 AO Fock derivatives at one time.
     42 vectors produced by pass  1 Test12= 2.46D-14 2.08D-09 XBig12= 4.41D-02 5.90D-02.
     42 vectors produced by pass  2 Test12= 2.46D-14 2.08D-09 XBig12= 2.47D-03 1.22D-02.
     42 vectors produced by pass  3 Test12= 2.46D-14 2.08D-09 XBig12= 4.96D-05 1.32D-03.
     42 vectors produced by pass  4 Test12= 2.46D-14 2.08D-09 XBig12= 8.43D-07 1.53D-04.
     42 vectors produced by pass  5 Test12= 2.46D-14 2.08D-09 XBig12= 7.54D-09 8.06D-06.
     39 vectors produced by pass  6 Test12= 2.46D-14 2.08D-09 XBig12= 6.35D-11 6.71D-07.
     22 vectors produced by pass  7 Test12= 2.46D-14 2.08D-09 XBig12= 5.65D-13 5.00D-08.
      9 vectors produced by pass  8 Test12= 2.46D-14 2.08D-09 XBig12= 2.62D-14 2.86D-08.
      3 vectors produced by pass  9 Test12= 2.46D-14 2.08D-09 XBig12= 8.00D-16 4.07D-09.
      2 vectors produced by pass 10 Test12= 2.46D-14 2.08D-09 XBig12= 5.54D-16 2.80D-09.
 InvSVY:  IOpt=1 It=  1 EMax= 8.88D-16
 Solved reduced A of dimension   327 with    42 vectors.
 End of Minotr F.D. properties file   721 does not exist.
 End of Minotr F.D. properties file   722 does not exist.
 End of Minotr F.D. properties file   788 does not exist.

 **********************************************************************

            Population analysis using the SCF density.

 **********************************************************************

 Alpha  occ. eigenvalues --  -19.69788 -19.68723 -19.63458 -10.71421 -10.61695
 Alpha  occ. eigenvalues --  -10.60957 -10.58728 -10.54811  -1.25799  -1.19386
 Alpha  occ. eigenvalues --   -1.17265  -0.90507  -0.88977  -0.77856  -0.74161
 Alpha  occ. eigenvalues --   -0.68285  -0.64181  -0.58825  -0.57381  -0.56939
 Alpha  occ. eigenvalues --   -0.53610  -0.50064  -0.47777  -0.46936  -0.46443
 Alpha  occ. eigenvalues --   -0.43643  -0.42748  -0.40569  -0.39382  -0.38042
 Alpha  occ. eigenvalues --   -0.37052
 Alpha virt. eigenvalues --   -0.02763  -0.00895  -0.00084   0.01303   0.01369
 Alpha virt. eigenvalues --    0.02959   0.04132   0.04470   0.04965   0.05767
 Alpha virt. eigenvalues --    0.07031   0.07600   0.08001   0.09339   0.10031
 Alpha virt. eigenvalues --    0.10404   0.11255   0.11311   0.12862   0.13639
 Alpha virt. eigenvalues --    0.14122   0.14200   0.15252   0.15379   0.16019
 Alpha virt. eigenvalues --    0.16564   0.17085   0.17627   0.19326   0.19559
 Alpha virt. eigenvalues --    0.20575   0.21204   0.22708   0.24148   0.25304
 Alpha virt. eigenvalues --    0.25750   0.26953   0.27102   0.28491   0.29587
 Alpha virt. eigenvalues --    0.30561   0.31109   0.31879   0.32646   0.33735
 Alpha virt. eigenvalues --    0.34568   0.35181   0.36834   0.38104   0.39143
 Alpha virt. eigenvalues --    0.39955   0.44913   0.45242   0.47783   0.49853
 Alpha virt. eigenvalues --    0.50819   0.52108   0.56034   0.57081   0.58669
 Alpha virt. eigenvalues --    0.60988   0.63208   0.63688   0.67354   0.67933
 Alpha virt. eigenvalues --    0.68053   0.69360   0.70741   0.71170   0.72086
 Alpha virt. eigenvalues --    0.74951   0.76040   0.77429   0.79870   0.82404
 Alpha virt. eigenvalues --    0.85401   0.90056   0.95659   0.97014   0.99833
 Alpha virt. eigenvalues --    1.03334   1.04279   1.06958   1.08010   1.11978
 Alpha virt. eigenvalues --    1.14253   1.17324   1.18212   1.19338   1.22017
 Alpha virt. eigenvalues --    1.23830   1.27087   1.28174   1.30597   1.31512
 Alpha virt. eigenvalues --    1.33519   1.35039   1.37858   1.41218   1.43894
 Alpha virt. eigenvalues --    1.46607   1.48335   1.49954   1.57016   1.57556
 Alpha virt. eigenvalues --    1.58520   1.60293   1.61249   1.61786   1.64468
 Alpha virt. eigenvalues --    1.66095   1.69000   1.70092   1.70702   1.72306
 Alpha virt. eigenvalues --    1.75861   1.78075   1.80142   1.84968   1.88641
 Alpha virt. eigenvalues --    1.91078   1.94533   1.98401   2.02904   2.05633
 Alpha virt. eigenvalues --    2.11287   2.13042   2.19374   2.26987   2.29313
 Alpha virt. eigenvalues --    2.34021   2.39807   2.45886   2.49646   2.50476
 Alpha virt. eigenvalues --    2.53656   2.54348   2.60107   2.62178   2.64177
 Alpha virt. eigenvalues --    2.65822   2.69590   2.71533   2.72961   2.79169
 Alpha virt. eigenvalues --    2.79925   2.81297   2.85632   2.90172   2.93164
 Alpha virt. eigenvalues --    2.97214   2.98825   3.00599   3.01420   3.08295
 Alpha virt. eigenvalues --    3.11875   3.13302   3.16717   3.24663   3.25670
 Alpha virt. eigenvalues --    3.31343   3.35130   3.41365   3.43057   3.53837
 Alpha virt. eigenvalues --    3.62088   3.68003   3.75070   3.84160   3.84983
 Alpha virt. eigenvalues --    3.86353   3.87255   4.01688   4.07815   4.13095
 Alpha virt. eigenvalues --    4.30373   5.07418   5.14857   5.15892   5.26980
 Alpha virt. eigenvalues --    5.36322   5.42415   5.61352   5.68567   5.97952
 Alpha virt. eigenvalues --   23.44682  23.90590  23.93402  24.04133  24.91499
 Alpha virt. eigenvalues --   49.93254  49.98964  50.11879
  Beta  occ. eigenvalues --  -19.68884 -19.68727 -19.63435 -10.71405 -10.61696
  Beta  occ. eigenvalues --  -10.59991 -10.58622 -10.54812  -1.25781  -1.17221
  Beta  occ. eigenvalues --   -1.15985  -0.89202  -0.88746  -0.77502  -0.73331
  Beta  occ. eigenvalues --   -0.64773  -0.63856  -0.58787  -0.57359  -0.53621
  Beta  occ. eigenvalues --   -0.51923  -0.50068  -0.47723  -0.46475  -0.43872
  Beta  occ. eigenvalues --   -0.42831  -0.39820  -0.38826  -0.37321  -0.36512
  Beta virt. eigenvalues --   -0.17535  -0.01881  -0.00643   0.00107   0.01381
  Beta virt. eigenvalues --    0.01581   0.03050   0.04322   0.04787   0.05650
  Beta virt. eigenvalues --    0.05822   0.07144   0.07697   0.08142   0.09394
  Beta virt. eigenvalues --    0.10087   0.10500   0.11297   0.11691   0.12949
  Beta virt. eigenvalues --    0.13741   0.14300   0.14368   0.15356   0.15491
  Beta virt. eigenvalues --    0.16275   0.16704   0.17107   0.17772   0.19345
  Beta virt. eigenvalues --    0.19663   0.20709   0.21084   0.22830   0.24195
  Beta virt. eigenvalues --    0.25364   0.25791   0.27012   0.27310   0.28663
  Beta virt. eigenvalues --    0.29593   0.30598   0.31359   0.32346   0.32665
  Beta virt. eigenvalues --    0.33901   0.34678   0.35238   0.36868   0.38524
  Beta virt. eigenvalues --    0.39230   0.40024   0.45064   0.45278   0.48664
  Beta virt. eigenvalues --    0.49895   0.50851   0.52279   0.56544   0.57237
  Beta virt. eigenvalues --    0.59048   0.61131   0.63433   0.64205   0.67396
  Beta virt. eigenvalues --    0.67874   0.68063   0.69391   0.70749   0.71176
  Beta virt. eigenvalues --    0.72388   0.75043   0.76660   0.77457   0.80955
  Beta virt. eigenvalues --    0.83558   0.85628   0.90123   0.96105   0.97614
  Beta virt. eigenvalues --    1.00003   1.03753   1.04672   1.07544   1.08586
  Beta virt. eigenvalues --    1.12682   1.15488   1.17516   1.18654   1.19957
  Beta virt. eigenvalues --    1.22108   1.23896   1.27277   1.28835   1.30823
  Beta virt. eigenvalues --    1.31799   1.33752   1.35555   1.38292   1.41299
  Beta virt. eigenvalues --    1.44340   1.46882   1.48868   1.49989   1.57423
  Beta virt. eigenvalues --    1.58054   1.58918   1.60361   1.61756   1.61958
  Beta virt. eigenvalues --    1.64679   1.66536   1.69178   1.70253   1.70884
  Beta virt. eigenvalues --    1.72325   1.75885   1.78098   1.80405   1.85014
  Beta virt. eigenvalues --    1.89235   1.91317   1.95061   1.98512   2.03004
  Beta virt. eigenvalues --    2.05808   2.11763   2.13253   2.19374   2.27398
  Beta virt. eigenvalues --    2.29447   2.34052   2.40281   2.46344   2.49096
  Beta virt. eigenvalues --    2.50468   2.53647   2.54499   2.60202   2.62211
  Beta virt. eigenvalues --    2.64196   2.65766   2.68422   2.71746   2.73013
  Beta virt. eigenvalues --    2.79332   2.80407   2.82111   2.85832   2.90469
  Beta virt. eigenvalues --    2.93350   2.97276   2.99948   3.00818   3.03617
  Beta virt. eigenvalues --    3.08487   3.12675   3.14022   3.17593   3.24849
  Beta virt. eigenvalues --    3.27457   3.31425   3.35545   3.41611   3.43021
  Beta virt. eigenvalues --    3.55471   3.62205   3.69128   3.75841   3.84160
  Beta virt. eigenvalues --    3.85023   3.86412   3.88965   4.01810   4.08042
  Beta virt. eigenvalues --    4.13095   4.30370   5.09654   5.14846   5.15841
  Beta virt. eigenvalues --    5.27091   5.39580   5.42411   5.63169   5.68578
  Beta virt. eigenvalues --    5.97951  23.45308  23.90605  23.93410  24.04133
  Beta virt. eigenvalues --   24.92383  49.92440  49.98966  50.11874
          Condensed to atoms (all electrons):
               1          2          3          4          5          6
     1  C    5.591376   0.049393   0.963815  -0.111440  -0.027583  -0.011102
     2  H    0.049393   0.319428  -0.028033   0.011309   0.000110  -0.001940
     3  C    0.963815  -0.028033   5.801080  -1.088242  -0.015890  -0.166756
     4  C   -0.111440   0.011309  -1.088242   7.082737   0.363488   0.123037
     5  O   -0.027583   0.000110  -0.015890   0.363488   8.005751  -0.092876
     6  O   -0.011102  -0.001940  -0.166756   0.123037  -0.092876   8.197137
     7  C   -0.017814  -0.001733  -0.114518   0.014464  -0.004213   0.194176
     8  C   -0.002871   0.000108   0.089485  -0.077598   0.016010  -0.117894
     9  H    0.020748   0.000573   0.003701  -0.014067  -0.001222  -0.005672
    10  H   -0.002223  -0.000540  -0.003294   0.002398   0.001152  -0.084605
    11  H   -0.001673   0.000268   0.017094  -0.018290   0.000795  -0.005454
    12  H    0.005068  -0.001768   0.017819  -0.007473  -0.001107  -0.013992
    13  H   -0.001389   0.000218  -0.005020  -0.000808   0.000340   0.015113
    14  O   -0.000767   0.274596  -0.023657   0.005350   0.000059   0.000381
    15  H    0.026043  -0.042607   0.002227   0.004412  -0.000108   0.000195
               7          8          9         10         11         12
     1  C   -0.017814  -0.002871   0.020748  -0.002223  -0.001673   0.005068
     2  H   -0.001733   0.000108   0.000573  -0.000540   0.000268  -0.001768
     3  C   -0.114518   0.089485   0.003701  -0.003294   0.017094   0.017819
     4  C    0.014464  -0.077598  -0.014067   0.002398  -0.018290  -0.007473
     5  O   -0.004213   0.016010  -0.001222   0.001152   0.000795  -0.001107
     6  O    0.194176  -0.117894  -0.005672  -0.084605  -0.005454  -0.013992
     7  C    5.645326  -0.115009   0.360225   0.469107  -0.064847   0.034952
     8  C   -0.115009   5.522474  -0.019246  -0.077543   0.452526   0.331508
     9  H    0.360225  -0.019246   0.552703  -0.042883   0.006384  -0.022806
    10  H    0.469107  -0.077543  -0.042883   0.527947  -0.012479   0.015820
    11  H   -0.064847   0.452526   0.006384  -0.012479   0.523313  -0.049272
    12  H    0.034952   0.331508  -0.022806   0.015820  -0.049272   0.585624
    13  H   -0.043438   0.404586  -0.003743   0.002004  -0.036212  -0.032424
    14  O    0.001234  -0.000818   0.000114   0.000038  -0.000089  -0.000707
    15  H    0.000502  -0.000204   0.000148   0.000038  -0.000035  -0.000038
              13         14         15
     1  C   -0.001389  -0.000767   0.026043
     2  H    0.000218   0.274596  -0.042607
     3  C   -0.005020  -0.023657   0.002227
     4  C   -0.000808   0.005350   0.004412
     5  O    0.000340   0.000059  -0.000108
     6  O    0.015113   0.000381   0.000195
     7  C   -0.043438   0.001234   0.000502
     8  C    0.404586  -0.000818  -0.000204
     9  H   -0.003743   0.000114   0.000148
    10  H    0.002004   0.000038   0.000038
    11  H   -0.036212  -0.000089  -0.000035
    12  H   -0.032424  -0.000707  -0.000038
    13  H    0.543798   0.000083  -0.000004
    14  O    0.000083   7.742765   0.294429
    15  H   -0.000004   0.294429   0.439328
          Atomic-Atomic Spin Densities.
               1          2          3          4          5          6
     1  C    0.832076  -0.017335  -0.008935  -0.024939  -0.001118   0.001631
     2  H   -0.017335  -0.032329  -0.001952   0.004847  -0.000145   0.000188
     3  C   -0.008935  -0.001952   0.099414  -0.102775  -0.005183   0.008120
     4  C   -0.024939   0.004847  -0.102775   0.097019   0.000922  -0.007414
     5  O   -0.001118  -0.000145  -0.005183   0.000922   0.007593   0.003686
     6  O    0.001631   0.000188   0.008120  -0.007414   0.003686  -0.006673
     7  C    0.000019  -0.000088  -0.018423   0.011567   0.000325   0.003306
     8  C   -0.000773   0.000291   0.011387  -0.006567  -0.000277  -0.001538
     9  H    0.000971  -0.000416   0.004921  -0.003910   0.000090  -0.001236
    10  H   -0.000083   0.000026  -0.001219   0.000409   0.000013  -0.000083
    11  H   -0.000078  -0.000016   0.001137  -0.000581  -0.000035   0.000009
    12  H   -0.000146  -0.000167   0.000296  -0.000338   0.000052   0.000014
    13  H   -0.000153   0.000003  -0.000963   0.000622   0.000007   0.000033
    14  O   -0.119572   0.010501  -0.002271   0.005900   0.000276   0.000083
    15  H    0.001428   0.000933  -0.000031  -0.001503  -0.000054  -0.000041
               7          8          9         10         11         12
     1  C    0.000019  -0.000773   0.000971  -0.000083  -0.000078  -0.000146
     2  H   -0.000088   0.000291  -0.000416   0.000026  -0.000016  -0.000167
     3  C   -0.018423   0.011387   0.004921  -0.001219   0.001137   0.000296
     4  C    0.011567  -0.006567  -0.003910   0.000409  -0.000581  -0.000338
     5  O    0.000325  -0.000277   0.000090   0.000013  -0.000035   0.000052
     6  O    0.003306  -0.001538  -0.001236  -0.000083   0.000009   0.000014
     7  C   -0.009135   0.004376   0.001656   0.000100  -0.000346  -0.001282
     8  C    0.004376  -0.003330  -0.000757  -0.000022   0.000075   0.000932
     9  H    0.001656  -0.000757  -0.000138   0.000373   0.000092   0.000194
    10  H    0.000100  -0.000022   0.000373   0.000340  -0.000008   0.000134
    11  H   -0.000346   0.000075   0.000092  -0.000008   0.000068  -0.000035
    12  H   -0.001282   0.000932   0.000194   0.000134  -0.000035   0.000367
    13  H    0.000671  -0.000366  -0.000122   0.000026  -0.000051  -0.000080
    14  O    0.000602  -0.000326   0.000002   0.000008  -0.000015   0.000064
    15  H   -0.000113   0.000037   0.000041  -0.000009   0.000008   0.000015
              13         14         15
     1  C   -0.000153  -0.119572   0.001428
     2  H    0.000003   0.010501   0.000933
     3  C   -0.000963  -0.002271  -0.000031
     4  C    0.000622   0.005900  -0.001503
     5  O    0.000007   0.000276  -0.000054
     6  O    0.000033   0.000083  -0.000041
     7  C    0.000671   0.000602  -0.000113
     8  C   -0.000366  -0.000326   0.000037
     9  H   -0.000122   0.000002   0.000041
    10  H    0.000026   0.000008  -0.000009
    11  H   -0.000051  -0.000015   0.000008
    12  H   -0.000080   0.000064   0.000015
    13  H   -0.000023   0.000028  -0.000004
    14  O    0.000028   0.520357   0.006076
    15  H   -0.000004   0.006076  -0.016877
 Mulliken charges and spin densities:
               1          2
     1  C   -0.479580   0.662992
     2  H    0.420619  -0.035658
     3  C    0.550189  -0.016475
     4  C   -0.289278  -0.026739
     5  O   -0.244706   0.006154
     6  O   -0.029746   0.000085
     7  C   -0.358415  -0.006765
     8  C   -0.405513   0.003144
     9  H    0.165042   0.001762
    10  H    0.205063   0.000004
    11  H    0.187971   0.000227
    12  H    0.138796   0.000020
    13  H    0.156894  -0.000372
    14  O   -0.293011   0.421715
    15  H    0.275675  -0.010093
 Sum of Mulliken charges =   0.00000   1.00000
 Mulliken charges and spin densities with hydrogens summed into heavy atoms:
               1          2
     1  C   -0.479580   0.662992
     3  C    0.550189  -0.016475
     4  C   -0.289278  -0.026739
     5  O   -0.244706   0.006154
     6  O   -0.029746   0.000085
     7  C    0.011691  -0.004999
     8  C    0.078148   0.003019
    14  O    0.403283   0.375964
 APT charges:
               1
     1  C    0.218906
     2  H   -0.073363
     3  C   -0.420733
     4  C   -0.326803
     5  O    0.055271
     6  O    0.069286
     7  C   -0.791449
     8  C   -1.200420
     9  H    0.206325
    10  H    0.640907
    11  H    0.520757
    12  H    0.144205
    13  H    0.555987
    14  O   -0.108600
    15  H    0.509727
 Sum of APT charges =   0.00000
 APT charges with hydrogens summed into heavy atoms:
               1
     1  C    0.218906
     3  C   -0.420733
     4  C   -0.326803
     5  O    0.055271
     6  O    0.069286
     7  C    0.055782
     8  C    0.020528
    14  O    0.327764
 Electronic spatial extent (au):  <R**2>=           1405.5684
 Charge=              0.0000 electrons
 Dipole moment (field-independent basis, Debye):
    X=             -0.5294    Y=             -3.3741    Z=              0.4012  Tot=              3.4388
 Quadrupole moment (field-independent basis, Debye-Ang):
   XX=            -45.4834   YY=            -53.9833   ZZ=            -47.2018
   XY=             -9.1746   XZ=             -5.9497   YZ=             -0.4385
 Traceless Quadrupole moment (field-independent basis, Debye-Ang):
   XX=              3.4061   YY=             -5.0938   ZZ=              1.6877
   XY=             -9.1746   XZ=             -5.9497   YZ=             -0.4385
 Octapole moment (field-independent basis, Debye-Ang**2):
  XXX=             -7.8166  YYY=            -18.3642  ZZZ=             -0.2754  XYY=             -2.8357
  XXY=             10.3589  XXZ=             20.4233  XZZ=              1.0388  YZZ=              1.3502
  YYZ=             -4.7720  XYZ=             -0.7570
 Hexadecapole moment (field-independent basis, Debye-Ang**3):
 XXXX=          -1135.1822 YYYY=           -521.5021 ZZZZ=           -109.8612 XXXY=            -95.2903
 XXXZ=            -95.5242 YYYX=             -9.3397 YYYZ=             -4.5992 ZZZX=             -7.3741
 ZZZY=              3.9262 XXYY=           -279.0165 XXZZ=           -204.4676 YYZZ=            -99.2656
 XXYZ=              9.6537 YYXZ=             -4.2852 ZZXY=              0.8636
 N-N= 3.406223011511D+02 E-N=-1.665132603466D+03  KE= 4.187859099088D+02
  Exact polarizability:   0.000   0.000   0.000   0.000   0.000   0.000
 Approx polarizability: 115.768  21.330  94.454  -0.879   7.156  60.284
                          Isotropic Fermi Contact Couplings
        Atom                 a.u.       MegaHertz       Gauss      10(-4) cm-1
     1  C(13)              0.64240     722.18474     257.69346     240.89490
     2  H(1)              -0.02867    -128.16597     -45.73281     -42.75157
     3  C(13)              0.08993     101.10005      36.07501      33.72335
     4  C(13)              0.00891      10.01883       3.57497       3.34192
     5  O(17)              0.00074      -0.45109      -0.16096      -0.15047
     6  O(17)             -0.00106       0.64292       0.22941       0.21446
     7  C(13)             -0.00091      -1.02636      -0.36623      -0.34236
     8  C(13)             -0.00018      -0.20129      -0.07182      -0.06714
     9  H(1)               0.00026       1.15463       0.41200       0.38514
    10  H(1)               0.00014       0.63846       0.22782       0.21297
    11  H(1)              -0.00002      -0.09803      -0.03498      -0.03270
    12  H(1)              -0.00003      -0.12752      -0.04550      -0.04254
    13  H(1)               0.00000       0.01859       0.00663       0.00620
    14  O(17)              0.05270     -31.94377     -11.39833     -10.65530
    15  H(1)              -0.00710     -31.74726     -11.32821     -10.58974
 --------------------------------------------------------
       Center         ----  Spin Dipole Couplings  ----
                      3XX-RR        3YY-RR        3ZZ-RR
 --------------------------------------------------------
     1   Atom        0.438196     -0.202854     -0.235342
     2   Atom        0.201820     -0.076627     -0.125192
     3   Atom        0.018180      0.127058     -0.145237
     4   Atom        0.009304     -0.002734     -0.006570
     5   Atom        0.098238     -0.018379     -0.079859
     6   Atom        0.003156      0.003780     -0.006936
     7   Atom        0.003846     -0.001875     -0.001971
     8   Atom        0.002278     -0.000818     -0.001460
     9   Atom        0.004782     -0.002935     -0.001847
    10   Atom        0.001772     -0.000966     -0.000807
    11   Atom        0.001529     -0.000768     -0.000762
    12   Atom        0.003237     -0.001748     -0.001489
    13   Atom        0.001416     -0.000271     -0.001145
    14   Atom        1.808155     -0.828174     -0.979982
    15   Atom       -0.015941      0.020735     -0.004794
 --------------------------------------------------------
                        XY            XZ            YZ
 --------------------------------------------------------
     1   Atom        0.209435      0.014312      0.003711
     2   Atom       -0.029207      0.022613     -0.014370
     3   Atom        0.161072     -0.004489     -0.016314
     4   Atom        0.013740      0.002730      0.001025
     5   Atom        0.031323      0.039057      0.028369
     6   Atom       -0.004859      0.005666      0.000364
     7   Atom       -0.000937     -0.001271      0.000049
     8   Atom       -0.001480      0.001217     -0.000348
     9   Atom       -0.002170     -0.003438      0.000986
    10   Atom       -0.000387     -0.000699      0.000054
    11   Atom       -0.000568      0.000636     -0.000157
    12   Atom       -0.002401      0.002798     -0.001200
    13   Atom       -0.001547      0.000305     -0.000202
    14   Atom        0.693814     -0.165426     -0.036968
    15   Atom       -0.015499     -0.023308      0.076263
 --------------------------------------------------------


 ---------------------------------------------------------------------------------
              Anisotropic Spin Dipole Couplings in Principal Axis System
 ---------------------------------------------------------------------------------

       Atom             a.u.   MegaHertz   Gauss  10(-4) cm-1        Axes

              Baa    -0.2652   -35.590   -12.699   -11.872 -0.2856  0.9582  0.0178
     1 C(13)  Bbb    -0.2356   -31.619   -11.283   -10.547 -0.0141 -0.0228  0.9996
              Bcc     0.5009    67.209    23.982    22.419  0.9582  0.2853  0.0201
 
              Baa    -0.1298   -69.236   -24.705   -23.095 -0.0453  0.2375  0.9703
     2 H(1)   Bbb    -0.0768   -40.988   -14.625   -13.672  0.1199  0.9656 -0.2308
              Bcc     0.2066   110.224    39.331    36.767  0.9917 -0.1059  0.0722
 
              Baa    -0.1466   -19.670    -7.019    -6.561 -0.0725  0.1018  0.9922
     3 C(13)  Bbb    -0.0967   -12.977    -4.631    -4.329  0.8100 -0.5744  0.1182
              Bcc     0.2433    32.647    11.649    10.890  0.5820  0.8122 -0.0408
 
              Baa    -0.0118    -1.583    -0.565    -0.528 -0.5527  0.8236  0.1273
     4 C(13)  Bbb    -0.0068    -0.914    -0.326    -0.305 -0.0236 -0.1681  0.9855
              Bcc     0.0186     2.497     0.891     0.833  0.8330  0.5417  0.1124
 
              Baa    -0.0946     6.844     2.442     2.283 -0.1439 -0.2927  0.9453
     5 O(17)  Bbb    -0.0219     1.583     0.565     0.528 -0.3164  0.9187  0.2363
              Bcc     0.1165    -8.427    -3.007    -2.811  0.9376  0.2651  0.2249
 
              Baa    -0.0099     0.717     0.256     0.239 -0.4475 -0.1821  0.8755
     6 O(17)  Bbb     0.0007    -0.048    -0.017    -0.016  0.5124  0.7502  0.4179
              Bcc     0.0092    -0.669    -0.239    -0.223  0.7329 -0.6357  0.2424
 
              Baa    -0.0023    -0.310    -0.110    -0.103  0.2453  0.4354  0.8662
     7 C(13)  Bbb    -0.0019    -0.261    -0.093    -0.087  0.0431  0.8877 -0.4585
              Bcc     0.0043     0.571     0.204     0.190  0.9685 -0.1497 -0.1990
 
              Baa    -0.0018    -0.246    -0.088    -0.082 -0.3353 -0.1708  0.9265
     8 C(13)  Bbb    -0.0014    -0.184    -0.066    -0.062  0.2823  0.9200  0.2717
              Bcc     0.0032     0.431     0.154     0.144  0.8988 -0.3527  0.2603
 
              Baa    -0.0035    -1.884    -0.672    -0.628  0.1147  0.9415 -0.3169
     9 H(1)   Bbb    -0.0033    -1.757    -0.627    -0.586  0.4341  0.2395  0.8685
              Bcc     0.0068     3.641     1.299     1.215  0.8935 -0.2372 -0.3812
 
              Baa    -0.0010    -0.558    -0.199    -0.186  0.2423  0.8164  0.5242
    10 H(1)   Bbb    -0.0010    -0.509    -0.182    -0.170  0.1294 -0.5626  0.8165
              Bcc     0.0020     1.067     0.381     0.356  0.9615 -0.1300 -0.2420
 
              Baa    -0.0009    -0.496    -0.177    -0.165 -0.1732  0.3008  0.9378
    11 H(1)   Bbb    -0.0009    -0.480    -0.171    -0.160  0.2815  0.9276 -0.2455
              Bcc     0.0018     0.975     0.348     0.325  0.9438 -0.2215  0.2454
 
              Baa    -0.0028    -1.515    -0.541    -0.505 -0.1654  0.5417  0.8241
    12 H(1)   Bbb    -0.0027    -1.434    -0.512    -0.478  0.5009  0.7660 -0.4030
              Bcc     0.0055     2.949     1.052     0.984  0.8496 -0.3461  0.3981
 
              Baa    -0.0012    -0.643    -0.229    -0.214  0.3305  0.6877  0.6464
    13 H(1)   Bbb    -0.0012    -0.623    -0.222    -0.208 -0.3996 -0.5185  0.7559
              Bcc     0.0024     1.266     0.452     0.422  0.8550 -0.5082  0.1035
 
              Baa    -1.0009    72.424    25.843    24.158 -0.2449  0.9156 -0.3189
    14 O(17)  Bbb    -0.9884    71.518    25.519    23.856 -0.0242  0.3230  0.9461
              Bcc     1.9893  -143.942   -51.362   -48.014  0.9692  0.2394 -0.0570
 
              Baa    -0.0706   -37.649   -13.434   -12.558  0.1537 -0.6180  0.7710
    15 H(1)   Bbb    -0.0215   -11.446    -4.084    -3.818  0.9579  0.2846  0.0372
              Bcc     0.0920    49.095    17.518    16.376 -0.2425  0.7329  0.6357
 

 ---------------------------------------------------------------------------------

 Calling FoFJK, ICntrl=    100147 FMM=F ISym2X=0 I1Cent= 0 IOpClX= 1 NMat=1 NMatS=1 NMatT=0.
 -------------------------------------------------------------------
 Center     Atomic                   Forces (Hartrees/Bohr)
 Number     Number              X              Y              Z
 -------------------------------------------------------------------
      1        6          -0.000000306    0.000001116   -0.000001809
      2        1          -0.000000191    0.000003517    0.000000958
      3        6           0.000001502    0.000000509   -0.000004685
      4        6           0.000001950   -0.000001169   -0.000008615
      5        8           0.000003291    0.000001344   -0.000013771
      6        8           0.000001263   -0.000004093   -0.000004701
      7        6          -0.000000823   -0.000004719    0.000001676
      8        6          -0.000001694    0.000000841    0.000006724
      9        1          -0.000000269   -0.000007109    0.000003509
     10        1          -0.000000391   -0.000009285    0.000003135
     11        1          -0.000001278    0.000002927    0.000005190
     12        1          -0.000001215    0.000005138    0.000005327
     13        1          -0.000002651   -0.000000138    0.000011714
     14        8           0.000000070    0.000004186   -0.000000131
     15        1           0.000000744    0.000006935   -0.000004522
 -------------------------------------------------------------------
 Cartesian Forces:  Max     0.000013771 RMS     0.000004528
 IRC-IRC-IRC-IRC-IRC-IRC-IRC-IRC-IRC-IRC-IRC-IRC-IRC-IRC-IRC-IRC-IRC-IRC
          ******** Start new reaction path calculation ********
 Supplied step size of   0.0500 bohr.
    Integration on MW PES will use step size of   0.0512 sqrt(amu)*bohr.
 Point Number:   0          Path Number:   1
 Calculating another point on the path.
 IRC-IRC-IRC-IRC-IRC-IRC-IRC-IRC-IRC-IRC-IRC-IRC-IRC-IRC-IRC-IRC-IRC-IRC
                          Input orientation:                          
 ---------------------------------------------------------------------
 Center     Atomic      Atomic             Coordinates (Angstroms)
 Number     Number       Type             X           Y           Z
 ---------------------------------------------------------------------
      1          6           0       -1.648317   -0.312393   -0.045986
      2          1           0       -2.966925   -0.928388    0.042550
      3          6           0       -0.618695    0.322136   -0.035143
      4          6           0        0.655087    1.049254    0.022651
      5          8           0        0.687423    2.198126    0.348001
      6          8           0        1.756354    0.380635   -0.317761
      7          6           0        1.713831   -1.027017   -0.615296
      8          6           0        1.767494   -1.851456    0.655293
      9          1           0        0.825975   -1.251424   -1.209208
     10          1           0        2.595238   -1.191214   -1.233045
     11          1           0        2.653882   -1.593027    1.236124
     12          1           0        0.881365   -1.682378    1.269209
     13          1           0        1.811449   -2.913187    0.404721
     14          8           0       -3.955884   -0.619111   -0.081938
     15          1           0       -4.061387    0.122739    0.530184
 ---------------------------------------------------------------------
                    Distance matrix (angstroms):
                    1          2          3          4          5
     1  C    0.000000
     2  H    1.458086   0.000000
     3  C    1.209490   2.661583   0.000000
     4  C    2.676651   4.126794   1.467843   0.000000
     5  O    3.451610   4.818988   2.317776   1.194490   0.000000
     6  O    3.485102   4.914542   2.392521   1.332562   2.211137
     7  C    3.484084   4.727787   2.756351   2.416364   3.518949
     8  C    3.811597   4.862327   3.300773   3.170458   4.202392
     9  H    2.890845   4.007161   2.437538   2.615301   3.787280
    10  H    4.493239   5.712607   3.748942   3.218797   4.198463
    11  H    4.668271   5.784448   3.999216   3.528364   4.362175
    12  H    3.163209   4.108835   2.823046   3.011133   3.993063
    13  H    4.351695   5.186854   4.070183   4.145369   5.233753
    14  O    2.328139   1.043642   3.467703   4.904633   5.448116
    15  H    2.518773   1.593895   3.494493   4.833337   5.185713
                    6          7          8          9         10
     6  O    0.000000
     7  C    1.439381   0.000000
     8  C    2.434992   1.515578   0.000000
     9  H    2.079398   1.091503   2.173214   0.000000
    10  H    2.003042   1.088785   2.164925   1.770448   0.000000
    11  H    2.667482   2.152166   1.090795   3.072066   2.502337
    12  H    2.745925   2.161911   1.091194   2.516216   3.072439
    13  H    3.372577   2.146533   1.091783   2.517416   2.502358
    14  O    5.803858   5.709337   5.900782   4.953456   6.676043
    15  H    5.884864   5.998934   6.155399   5.366574   7.010428
                   11         12         13         14         15
    11  H    0.000000
    12  H    1.775076   0.000000
    13  H    1.773061   1.768413   0.000000
    14  O    6.809905   5.133723   6.225893   0.000000
    15  H    6.966853   5.313699   6.612320   0.967557   0.000000
 Symmetry turned off by external request.
 Stoichiometry    C5H7O3(2)
 Framework group  C1[X(C5H7O3)]
 Deg. of freedom    39
 Full point group                 C1      NOp   1
 Rotational constants (GHZ):      2.6257154      1.0377661      0.7902912
 Standard basis: 6-311++G(d,p) (5D, 7F)
   225 basis functions,   351 primitive gaussians,   233 cartesian basis functions
    31 alpha electrons       30 beta electrons
       nuclear repulsion energy       340.6233822109 Hartrees.
 NAtoms=   15 NActive=   15 NUniq=   15 SFac= 1.00D+00 NAtFMM=   60 NAOKFM=F Big=F
 Integral buffers will be    262144 words long.
 Raffenetti 2 integral format.
 Two-electron integral symmetry is turned off.
 One-electron integrals computed using PRISM.
 NBasis=   225 RedAO= T EigKep=  1.80D-05  NBF=   225
 NBsUse=   224 1.00D-06 EigRej=  7.45D-07 NBFU=   224
 Initial guess from the checkpoint file:  "ethyl_propiolate.chk"
 B after Tr=     0.026615   -0.144875    0.015987
         Rot=    1.000000    0.000011   -0.000027   -0.000021 Ang=   0.00 deg.
 Initial guess <Sx>= 0.0000 <Sy>= 0.0000 <Sz>= 0.5000 <S**2>= 0.7649 S= 0.5074
 ExpMin= 3.60D-02 ExpMax= 8.59D+03 ExpMxC= 1.30D+03 IAcc=3 IRadAn=         5 AccDes= 0.00D+00
 Harris functional with IExCor= 1009 and IRadAn=       5 diagonalized for initial guess.
 HarFok:  IExCor= 1009 AccDes= 0.00D+00 IRadAn=         5 IDoV= 1 UseB2=F ITyADJ=14
 ICtDFT=  3500011 ScaDFX=  1.000000  1.000000  1.000000  1.000000
 FoFCou: FMM=F IPFlag=           0 FMFlag=      100000 FMFlg1=           0
         NFxFlg=           0 DoJE=T BraDBF=F KetDBF=T FulRan=T
         wScrn=  0.000000 ICntrl=     500 IOpCl=  0 I1Cent=   200000004 NGrid=           0
         NMat0=    1 NMatS0=      1 NMatT0=    0 NMatD0=    1 NMtDS0=    0 NMtDT0=    0
 Symmetry not used in FoFCou.
 Requested convergence on RMS density matrix=1.00D-08 within 128 cycles.
 Requested convergence on MAX density matrix=1.00D-06.
 Requested convergence on             energy=1.00D-06.
 No special actions if energy rises.
 SCF Done:  E(UM062X) =  -420.167167177     A.U. after   17 cycles
            NFock= 17  Conv=0.78D-08     -V/T= 2.0033
 <Sx>= 0.0000 <Sy>= 0.0000 <Sz>= 0.5000 <S**2>= 0.7655 S= 0.5077
 <L.S>= 0.000000000000E+00
 Annihilation of the first spin contaminant:
 S**2 before annihilation     0.7655,   after     0.7502
 DoSCS=F DFT=T ScalE2(SS,OS)=  1.000000  1.000000
 Range of M.O.s used for correlation:     1   224
 NBasis=   225 NAE=    31 NBE=    30 NFC=     0 NFV=     0
 NROrb=    224 NOA=    31 NOB=    30 NVA=   193 NVB=   194

 **** Warning!!: The largest alpha MO coefficient is  0.62790798D+02


 **** Warning!!: The largest beta MO coefficient is  0.60210618D+02

 Symmetrizing basis deriv contribution to polar:
 IMax=3 JMax=2 DiffMx= 0.00D+00
 Calling FoFJK, ICntrl=      2147 FMM=F ISym2X=0 I1Cent= 0 IOpClX= 1 NMat=1 NMatS=1 NMatT=0.
 -------------------------------------------------------------------
 Center     Atomic                   Forces (Hartrees/Bohr)
 Number     Number              X              Y              Z
 -------------------------------------------------------------------
      1        6           0.000768664    0.000219644   -0.000258203
      2        1          -0.000877738   -0.000957649    0.000520357
      3        6           0.000346419    0.000438544   -0.000027635
      4        6           0.000254015    0.000044016    0.000049544
      5        8           0.000028300    0.000055664   -0.000019117
      6        8           0.000102437    0.000002276   -0.000011395
      7        6           0.000002463   -0.000012826   -0.000000440
      8        6          -0.000002745    0.000003814    0.000008780
      9        1           0.000000074   -0.000003703    0.000003391
     10        1          -0.000000959   -0.000010358    0.000002254
     11        1          -0.000001233    0.000002354    0.000005251
     12        1          -0.000000286    0.000004341    0.000006689
     13        1          -0.000002919    0.000000312    0.000011135
     14        8          -0.000727861    0.000321359   -0.000357613
     15        1           0.000111370   -0.000107787    0.000067001
 -------------------------------------------------------------------
 Cartesian Forces:  Max     0.000957649 RMS     0.000292538
 IRC-IRC-IRC-IRC-IRC-IRC-IRC-IRC-IRC-IRC-IRC-IRC-IRC-IRC-IRC-IRC-IRC-IRC
 Pt  1 Step number   1 out of a maximum of 900
 Modified Bulirsch-Stoer Extrapolation Cycles:
    EPS =    0.000010000000000
 Maximum DWI energy   std dev =  0.000000275 at pt     1
 Maximum DWI gradient std dev =  0.125326910 at pt     1
 CORRECTOR INTEGRATION CONVERGENCE:
   Recorrection delta-x convergence threshold:    0.010000
   Delta-x Convergence Met
 Point Number:   1          Path Number:   1
   CHANGE IN THE REACTION COORDINATE =    0.05114
   NET REACTION COORDINATE UP TO THIS POINT =    0.05114
  # OF POINTS ALONG THE PATH =   1
  # OF STEPS =   1

 Calculating another point on the path.
 IRC-IRC-IRC-IRC-IRC-IRC-IRC-IRC-IRC-IRC-IRC-IRC-IRC-IRC-IRC-IRC-IRC-IRC
                          Input orientation:                          
 ---------------------------------------------------------------------
 Center     Atomic      Atomic             Coordinates (Angstroms)
 Number     Number       Type             X           Y           Z
 ---------------------------------------------------------------------
      1          6           0       -1.647325   -0.312185   -0.046359
      2          1           0       -2.986301   -0.943476    0.051622
      3          6           0       -0.618120    0.322820   -0.035196
      4          6           0        0.655466    1.049325    0.022720
      5          8           0        0.687472    2.198202    0.347984
      6          8           0        1.756478    0.380636   -0.317779
      7          6           0        1.713838   -1.027046   -0.615293
      8          6           0        1.767486   -1.851437    0.655326
      9          1           0        0.825960   -1.251450   -1.209169
     10          1           0        2.595226   -1.191356   -1.233025
     11          1           0        2.653857   -1.592985    1.236182
     12          1           0        0.881387   -1.682280    1.269291
     13          1           0        1.811391   -2.913196    0.404904
     14          8           0       -3.956434   -0.618855   -0.082349
     15          1           0       -4.059251    0.121103    0.531710
 ---------------------------------------------------------------------
                    Distance matrix (angstroms):
                    1          2          3          4          5
     1  C    0.000000
     2  H    1.483571   0.000000
     3  C    1.209388   2.686879   0.000000
     4  C    2.676066   4.151452   1.467374   0.000000
     5  O    3.450918   4.842993   2.316994   1.194462   0.000000
     6  O    3.484185   4.937983   2.392052   1.332409   2.211236
     7  C    3.483121   4.747954   2.756208   2.416305   3.519028
     8  C    3.810852   4.877226   3.300808   3.170363   4.202436
     9  H    2.889894   4.027130   2.437603   2.615375   3.787348
    10  H    4.492255   5.732818   3.748748   3.218729   4.198597
    11  H    4.667497   5.799691   3.999068   3.528153   4.362186
    12  H    3.162669   4.121596   2.823230   3.011087   3.993063
    13  H    4.351047   5.198312   4.070382   4.145335   5.233816
    14  O    2.329662   1.031739   3.468907   4.905455   5.448566
    15  H    2.517794   1.585886   3.493344   4.832103   5.184542
                    6          7          8          9         10
     6  O    0.000000
     7  C    1.439409   0.000000
     8  C    2.434996   1.515577   0.000000
     9  H    2.079457   1.091501   2.173200   0.000000
    10  H    2.003080   1.088776   2.164886   1.770446   0.000000
    11  H    2.667445   2.152181   1.090800   3.072067   2.502345
    12  H    2.745941   2.161935   1.091209   2.516237   3.072431
    13  H    3.372627   2.146598   1.091774   2.517480   2.502387
    14  O    5.804462   5.709872   5.901414   4.953907   6.676530
    15  H    5.883170   5.996868   6.152809   5.364686   7.008487
                   11         12         13         14         15
    11  H    0.000000
    12  H    1.775026   0.000000
    13  H    1.773056   1.768396   0.000000
    14  O    6.810536   5.134425   6.226493   0.000000
    15  H    6.964208   5.310943   6.609651   0.967046   0.000000
 Symmetry turned off by external request.
 Stoichiometry    C5H7O3(2)
 Framework group  C1[X(C5H7O3)]
 Deg. of freedom    39
 Full point group                 C1      NOp   1
 Rotational constants (GHZ):      2.6252532      1.0374590      0.7900838
 Standard basis: 6-311++G(d,p) (5D, 7F)
   225 basis functions,   351 primitive gaussians,   233 cartesian basis functions
    31 alpha electrons       30 beta electrons
       nuclear repulsion energy       340.6163123601 Hartrees.
 NAtoms=   15 NActive=   15 NUniq=   15 SFac= 1.00D+00 NAtFMM=   60 NAOKFM=F Big=F
 Integral buffers will be    262144 words long.
 Raffenetti 2 integral format.
 Two-electron integral symmetry is turned off.
 One-electron integrals computed using PRISM.
 NBasis=   225 RedAO= T EigKep=  1.81D-05  NBF=   225
 NBsUse=   224 1.00D-06 EigRej=  7.34D-07 NBFU=   224
 Initial guess from the checkpoint file:  "ethyl_propiolate.chk"
 B after Tr=    -0.000276   -0.000262    0.000164
         Rot=    1.000000    0.000024   -0.000029   -0.000023 Ang=   0.01 deg.
 Initial guess <Sx>= 0.0000 <Sy>= 0.0000 <Sz>= 0.5000 <S**2>= 0.7655 S= 0.5077
 ExpMin= 3.60D-02 ExpMax= 8.59D+03 ExpMxC= 1.30D+03 IAcc=3 IRadAn=         5 AccDes= 0.00D+00
 Harris functional with IExCor= 1009 and IRadAn=       5 diagonalized for initial guess.
 HarFok:  IExCor= 1009 AccDes= 0.00D+00 IRadAn=         5 IDoV= 1 UseB2=F ITyADJ=14
 ICtDFT=  3500011 ScaDFX=  1.000000  1.000000  1.000000  1.000000
 FoFCou: FMM=F IPFlag=           0 FMFlag=      100000 FMFlg1=           0
         NFxFlg=           0 DoJE=T BraDBF=F KetDBF=T FulRan=T
         wScrn=  0.000000 ICntrl=     500 IOpCl=  0 I1Cent=   200000004 NGrid=           0
         NMat0=    1 NMatS0=      1 NMatT0=    0 NMatD0=    1 NMtDS0=    0 NMtDT0=    0
 Symmetry not used in FoFCou.
 Requested convergence on RMS density matrix=1.00D-08 within 128 cycles.
 Requested convergence on MAX density matrix=1.00D-06.
 Requested convergence on             energy=1.00D-06.
 No special actions if energy rises.
 SCF Done:  E(UM062X) =  -420.167271532     A.U. after   16 cycles
            NFock= 16  Conv=0.86D-08     -V/T= 2.0033
 <Sx>= 0.0000 <Sy>= 0.0000 <Sz>= 0.5000 <S**2>= 0.7660 S= 0.5080
 <L.S>= 0.000000000000E+00
 Annihilation of the first spin contaminant:
 S**2 before annihilation     0.7660,   after     0.7502
 DoSCS=F DFT=T ScalE2(SS,OS)=  1.000000  1.000000
 Range of M.O.s used for correlation:     1   224
 NBasis=   225 NAE=    31 NBE=    30 NFC=     0 NFV=     0
 NROrb=    224 NOA=    31 NOB=    30 NVA=   193 NVB=   194

 **** Warning!!: The largest alpha MO coefficient is  0.62639803D+02


 **** Warning!!: The largest beta MO coefficient is  0.59923765D+02

 Symmetrizing basis deriv contribution to polar:
 IMax=3 JMax=2 DiffMx= 0.00D+00
 Calling FoFJK, ICntrl=      2147 FMM=F ISym2X=0 I1Cent= 0 IOpClX= 1 NMat=1 NMatS=1 NMatT=0.
 -------------------------------------------------------------------
 Center     Atomic                   Forces (Hartrees/Bohr)
 Number     Number              X              Y              Z
 -------------------------------------------------------------------
      1        6           0.001308808    0.000347401   -0.000494195
      2        1          -0.001524991   -0.001773020    0.001014762
      3        6           0.000676245    0.000815476   -0.000057706
      4        6           0.000457460    0.000072470    0.000100597
      5        8           0.000071639    0.000121021   -0.000022312
      6        8           0.000199920    0.000003146   -0.000021659
      7        6           0.000007624   -0.000029912    0.000006423
      8        6          -0.000009304    0.000019566    0.000036553
      9        1          -0.000000394    0.000007099   -0.000000080
     10        1          -0.000000853   -0.000001369   -0.000001709
     11        1          -0.000000443   -0.000000047   -0.000000548
     12        1           0.000002625    0.000001808    0.000001903
     13        1          -0.000002129   -0.000000044    0.000001618
     14        8          -0.001382871    0.000601004   -0.000724323
     15        1           0.000196662   -0.000184601    0.000160676
 -------------------------------------------------------------------
 Cartesian Forces:  Max     0.001773020 RMS     0.000535152
 IRC-IRC-IRC-IRC-IRC-IRC-IRC-IRC-IRC-IRC-IRC-IRC-IRC-IRC-IRC-IRC-IRC-IRC
 Pt  2 Step number   1 out of a maximum of 900
 Modified Bulirsch-Stoer Extrapolation Cycles:
    EPS =    0.000010000000000
 Maximum DWI energy   std dev =  0.000000456 at pt    37
 Maximum DWI gradient std dev =  0.080091397 at pt    27
 CORRECTOR INTEGRATION CONVERGENCE:
   Recorrection delta-x convergence threshold:    0.010000
   Delta-x Convergence Met
 Point Number:   2          Path Number:   1
   CHANGE IN THE REACTION COORDINATE =    0.05113
   NET REACTION COORDINATE UP TO THIS POINT =    0.10226
  # OF POINTS ALONG THE PATH =   2
  # OF STEPS =   1

 Calculating another point on the path.
 IRC-IRC-IRC-IRC-IRC-IRC-IRC-IRC-IRC-IRC-IRC-IRC-IRC-IRC-IRC-IRC-IRC-IRC
                          Input orientation:                          
 ---------------------------------------------------------------------
 Center     Atomic      Atomic             Coordinates (Angstroms)
 Number     Number       Type             X           Y           Z
 ---------------------------------------------------------------------
      1          6           0       -1.646359   -0.311978   -0.046771
      2          1           0       -3.003878   -0.959825    0.061943
      3          6           0       -0.617540    0.323501   -0.035255
      4          6           0        0.655841    1.049398    0.022803
      5          8           0        0.687536    2.198292    0.347968
      6          8           0        1.756617    0.380637   -0.317789
      7          6           0        1.713848   -1.027063   -0.615285
      8          6           0        1.767479   -1.851426    0.655353
      9          1           0        0.825956   -1.251380   -1.209165
     10          1           0        2.595220   -1.191385   -1.233027
     11          1           0        2.653859   -1.592989    1.236193
     12          1           0        0.881391   -1.682265    1.269326
     13          1           0        1.811374   -2.913183    0.404917
     14          8           0       -3.957130   -0.618541   -0.082821
     15          1           0       -4.057078    0.119265    0.533629
 ---------------------------------------------------------------------
                    Distance matrix (angstroms):
                    1          2          3          4          5
     1  C    0.000000
     2  H    1.508106   0.000000
     3  C    1.209311   2.711269   0.000000
     4  C    2.675501   4.175171   1.466900   0.000000
     5  O    3.450266   4.866421   2.316231   1.194443   0.000000
     6  O    3.483304   4.960176   2.391592   1.332274   2.211343
     7  C    3.482175   4.766561   2.756053   2.416243   3.519104
     8  C    3.810140   4.890086   3.300843   3.170275   4.202497
     9  H    2.888940   4.045781   2.437621   2.615390   3.787356
    10  H    4.491275   5.751562   3.748515   3.218604   4.198657
    11  H    4.666783   5.812895   3.998946   3.527974   4.362245
    12  H    3.162170   4.132192   2.823442   3.011092   3.993145
    13  H    4.350426   5.207676   4.070565   4.145277   5.233874
    14  O    2.331297   1.022801   3.470240   4.906391   5.449133
    15  H    2.516824   1.579922   3.492243   4.830910   5.183453
                    6          7          8          9         10
     6  O    0.000000
     7  C    1.439428   0.000000
     8  C    2.435001   1.515576   0.000000
     9  H    2.079462   1.091497   2.173235   0.000000
    10  H    2.003040   1.088772   2.164899   1.770442   0.000000
    11  H    2.667415   2.152176   1.090795   3.072085   2.502353
    12  H    2.746001   2.161951   1.091206   2.516278   3.072450
    13  H    3.372619   2.146572   1.091776   2.517519   2.502372
    14  O    5.805211   5.710552   5.902208   4.954497   6.677157
    15  H    5.881520   5.994803   6.150114   5.362836   7.006564
                   11         12         13         14         15
    11  H    0.000000
    12  H    1.775025   0.000000
    13  H    1.773052   1.768398   0.000000
    14  O    6.811353   5.135279   6.227272   0.000000
    15  H    6.961472   5.308035   6.606893   0.966622   0.000000
 Symmetry turned off by external request.
 Stoichiometry    C5H7O3(2)
 Framework group  C1[X(C5H7O3)]
 Deg. of freedom    39
 Full point group                 C1      NOp   1
 Rotational constants (GHZ):      2.6247529      1.0371283      0.7898604
 Standard basis: 6-311++G(d,p) (5D, 7F)
   225 basis functions,   351 primitive gaussians,   233 cartesian basis functions
    31 alpha electrons       30 beta electrons
       nuclear repulsion energy       340.5996778269 Hartrees.
 NAtoms=   15 NActive=   15 NUniq=   15 SFac= 1.00D+00 NAtFMM=   60 NAOKFM=F Big=F
 Integral buffers will be    262144 words long.
 Raffenetti 2 integral format.
 Two-electron integral symmetry is turned off.
 One-electron integrals computed using PRISM.
 NBasis=   225 RedAO= T EigKep=  1.81D-05  NBF=   225
 NBsUse=   224 1.00D-06 EigRej=  7.22D-07 NBFU=   224
 Initial guess from the checkpoint file:  "ethyl_propiolate.chk"
 B after Tr=    -0.000252   -0.000285    0.000188
         Rot=    1.000000    0.000021   -0.000036   -0.000028 Ang=   0.01 deg.
 Initial guess <Sx>= 0.0000 <Sy>= 0.0000 <Sz>= 0.5000 <S**2>= 0.7661 S= 0.5080
 ExpMin= 3.60D-02 ExpMax= 8.59D+03 ExpMxC= 1.30D+03 IAcc=3 IRadAn=         5 AccDes= 0.00D+00
 Harris functional with IExCor= 1009 and IRadAn=       5 diagonalized for initial guess.
 HarFok:  IExCor= 1009 AccDes= 0.00D+00 IRadAn=         5 IDoV= 1 UseB2=F ITyADJ=14
 ICtDFT=  3500011 ScaDFX=  1.000000  1.000000  1.000000  1.000000
 FoFCou: FMM=F IPFlag=           0 FMFlag=      100000 FMFlg1=           0
         NFxFlg=           0 DoJE=T BraDBF=F KetDBF=T FulRan=T
         wScrn=  0.000000 ICntrl=     500 IOpCl=  0 I1Cent=   200000004 NGrid=           0
         NMat0=    1 NMatS0=      1 NMatT0=    0 NMatD0=    1 NMtDS0=    0 NMtDT0=    0
 Symmetry not used in FoFCou.
 Requested convergence on RMS density matrix=1.00D-08 within 128 cycles.
 Requested convergence on MAX density matrix=1.00D-06.
 Requested convergence on             energy=1.00D-06.
 No special actions if energy rises.
 SCF Done:  E(UM062X) =  -420.167432711     A.U. after   17 cycles
            NFock= 17  Conv=0.80D-08     -V/T= 2.0032
 <Sx>= 0.0000 <Sy>= 0.0000 <Sz>= 0.5000 <S**2>= 0.7666 S= 0.5082
 <L.S>= 0.000000000000E+00
 Annihilation of the first spin contaminant:
 S**2 before annihilation     0.7666,   after     0.7502
 DoSCS=F DFT=T ScalE2(SS,OS)=  1.000000  1.000000
 Range of M.O.s used for correlation:     1   224
 NBasis=   225 NAE=    31 NBE=    30 NFC=     0 NFV=     0
 NROrb=    224 NOA=    31 NOB=    30 NVA=   193 NVB=   194

 **** Warning!!: The largest alpha MO coefficient is  0.62808305D+02


 **** Warning!!: The largest beta MO coefficient is  0.59984234D+02

 Symmetrizing basis deriv contribution to polar:
 IMax=3 JMax=2 DiffMx= 0.00D+00
 Calling FoFJK, ICntrl=      2147 FMM=F ISym2X=0 I1Cent= 0 IOpClX= 1 NMat=1 NMatS=1 NMatT=0.
 -------------------------------------------------------------------
 Center     Atomic                   Forces (Hartrees/Bohr)
 Number     Number              X              Y              Z
 -------------------------------------------------------------------
      1        6           0.001634551    0.000411254   -0.000688546
      2        1          -0.002295020   -0.002250063    0.001393665
      3        6           0.000907826    0.001068900   -0.000093525
      4        6           0.000595929    0.000118906    0.000142292
      5        8           0.000140192    0.000196310   -0.000019009
      6        8           0.000302683    0.000007965   -0.000023937
      7        6           0.000015336   -0.000020741    0.000003151
      8        6          -0.000007672    0.000016762    0.000028330
      9        1          -0.000000426    0.000007641    0.000001354
     10        1          -0.000000541   -0.000006531   -0.000000260
     11        1           0.000000028    0.000000038    0.000001651
     12        1           0.000001174    0.000003053    0.000004870
     13        1          -0.000002591    0.000000851    0.000003620
     14        8          -0.001566965    0.000697387   -0.001005303
     15        1           0.000275495   -0.000251732    0.000251646
 -------------------------------------------------------------------
 Cartesian Forces:  Max     0.002295020 RMS     0.000703324
 IRC-IRC-IRC-IRC-IRC-IRC-IRC-IRC-IRC-IRC-IRC-IRC-IRC-IRC-IRC-IRC-IRC-IRC
 Pt  3 Step number   1 out of a maximum of 900
 Modified Bulirsch-Stoer Extrapolation Cycles:
    EPS =    0.000010000000000
 Maximum DWI energy   std dev =  0.000000547 at pt    36
 Maximum DWI gradient std dev =  0.025480495 at pt    28
 CORRECTOR INTEGRATION CONVERGENCE:
   Recorrection delta-x convergence threshold:    0.010000
   Delta-x Convergence Met
 Point Number:   3          Path Number:   1
   CHANGE IN THE REACTION COORDINATE =    0.05116
   NET REACTION COORDINATE UP TO THIS POINT =    0.15343
  # OF POINTS ALONG THE PATH =   3
  # OF STEPS =   1

 Calculating another point on the path.
 IRC-IRC-IRC-IRC-IRC-IRC-IRC-IRC-IRC-IRC-IRC-IRC-IRC-IRC-IRC-IRC-IRC-IRC
                          Input orientation:                          
 ---------------------------------------------------------------------
 Center     Atomic      Atomic             Coordinates (Angstroms)
 Number     Number       Type             X           Y           Z
 ---------------------------------------------------------------------
      1          6           0       -1.645397   -0.311742   -0.047208
      2          1           0       -3.021373   -0.976066    0.072373
      3          6           0       -0.616961    0.324163   -0.035316
      4          6           0        0.656204    1.049477    0.022893
      5          8           0        0.687609    2.198389    0.347961
      6          8           0        1.756763    0.380640   -0.317800
      7          6           0        1.713858   -1.027074   -0.615283
      8          6           0        1.767474   -1.851417    0.655370
      9          1           0        0.825949   -1.251322   -1.209156
     10          1           0        2.595215   -1.191439   -1.233027
     11          1           0        2.653858   -1.592990    1.236205
     12          1           0        0.881398   -1.682242    1.269361
     13          1           0        1.811355   -2.913177    0.404943
     14          8           0       -3.957816   -0.618238   -0.083295
     15          1           0       -4.054996    0.117376    0.535598
 ---------------------------------------------------------------------
                    Distance matrix (angstroms):
                    1          2          3          4          5
     1  C    0.000000
     2  H    1.532624   0.000000
     3  C    1.209213   2.735579   0.000000
     4  C    2.674920   4.198791   1.466430   0.000000
     5  O    3.449613   4.889751   2.315497   1.194426   0.000000
     6  O    3.482428   4.982316   2.391140   1.332158   2.211456
     7  C    3.481236   4.785174   2.755888   2.416189   3.519182
     8  C    3.809449   4.902977   3.300867   3.170195   4.202563
     9  H    2.887989   4.064476   2.437630   2.615423   3.787381
    10  H    4.490303   5.770314   3.748284   3.218510   4.198740
    11  H    4.666084   5.826092   3.998812   3.527801   4.362301
    12  H    3.161695   4.142836   2.823637   3.011094   3.993223
    13  H    4.349832   5.217113   4.070739   4.145234   5.233943
    14  O    2.332922   1.014494   3.471561   4.907314   5.449711
    15  H    2.515944   1.574347   3.491245   4.829812   5.182483
                    6          7          8          9         10
     6  O    0.000000
     7  C    1.439443   0.000000
     8  C    2.435006   1.515577   0.000000
     9  H    2.079479   1.091492   2.173255   0.000000
    10  H    2.003017   1.088767   2.164895   1.770440   0.000000
    11  H    2.667382   2.152177   1.090794   3.072097   2.502357
    12  H    2.746057   2.161971   1.091208   2.516310   3.072459
    13  H    3.372621   2.146567   1.091775   2.517559   2.502352
    14  O    5.805959   5.711221   5.902991   4.955074   6.677774
    15  H    5.879978   5.992827   6.147491   5.361075   7.004737
                   11         12         13         14         15
    11  H    0.000000
    12  H    1.775015   0.000000
    13  H    1.773048   1.768400   0.000000
    14  O    6.812155   5.136125   6.228038   0.000000
    15  H    6.958802   5.305189   6.604196   0.966230   0.000000
 Symmetry turned off by external request.
 Stoichiometry    C5H7O3(2)
 Framework group  C1[X(C5H7O3)]
 Deg. of freedom    39
 Full point group                 C1      NOp   1
 Rotational constants (GHZ):      2.6242366      1.0367962      0.7896356
 Standard basis: 6-311++G(d,p) (5D, 7F)
   225 basis functions,   351 primitive gaussians,   233 cartesian basis functions
    31 alpha electrons       30 beta electrons
       nuclear repulsion energy       340.5820614198 Hartrees.
 NAtoms=   15 NActive=   15 NUniq=   15 SFac= 1.00D+00 NAtFMM=   60 NAOKFM=F Big=F
 Integral buffers will be    262144 words long.
 Raffenetti 2 integral format.
 Two-electron integral symmetry is turned off.
 One-electron integrals computed using PRISM.
 NBasis=   225 RedAO= T EigKep=  1.81D-05  NBF=   225
 NBsUse=   224 1.00D-06 EigRej=  7.12D-07 NBFU=   224
 Initial guess from the checkpoint file:  "ethyl_propiolate.chk"
 B after Tr=    -0.000248   -0.000282    0.000189
         Rot=    1.000000    0.000020   -0.000036   -0.000028 Ang=   0.01 deg.
 Initial guess <Sx>= 0.0000 <Sy>= 0.0000 <Sz>= 0.5000 <S**2>= 0.7666 S= 0.5083
 ExpMin= 3.60D-02 ExpMax= 8.59D+03 ExpMxC= 1.30D+03 IAcc=3 IRadAn=         5 AccDes= 0.00D+00
 Harris functional with IExCor= 1009 and IRadAn=       5 diagonalized for initial guess.
 HarFok:  IExCor= 1009 AccDes= 0.00D+00 IRadAn=         5 IDoV= 1 UseB2=F ITyADJ=14
 ICtDFT=  3500011 ScaDFX=  1.000000  1.000000  1.000000  1.000000
 FoFCou: FMM=F IPFlag=           0 FMFlag=      100000 FMFlg1=           0
         NFxFlg=           0 DoJE=T BraDBF=F KetDBF=T FulRan=T
         wScrn=  0.000000 ICntrl=     500 IOpCl=  0 I1Cent=   200000004 NGrid=           0
         NMat0=    1 NMatS0=      1 NMatT0=    0 NMatD0=    1 NMtDS0=    0 NMtDT0=    0
 Symmetry not used in FoFCou.
 Requested convergence on RMS density matrix=1.00D-08 within 128 cycles.
 Requested convergence on MAX density matrix=1.00D-06.
 Requested convergence on             energy=1.00D-06.
 No special actions if energy rises.
 SCF Done:  E(UM062X) =  -420.167639900     A.U. after   18 cycles
            NFock= 18  Conv=0.69D-08     -V/T= 2.0032
 <Sx>= 0.0000 <Sy>= 0.0000 <Sz>= 0.5000 <S**2>= 0.7671 S= 0.5085
 <L.S>= 0.000000000000E+00
 Annihilation of the first spin contaminant:
 S**2 before annihilation     0.7671,   after     0.7502
 DoSCS=F DFT=T ScalE2(SS,OS)=  1.000000  1.000000
 Range of M.O.s used for correlation:     1   224
 NBasis=   225 NAE=    31 NBE=    30 NFC=     0 NFV=     0
 NROrb=    224 NOA=    31 NOB=    30 NVA=   193 NVB=   194

 **** Warning!!: The largest alpha MO coefficient is  0.63030834D+02


 **** Warning!!: The largest beta MO coefficient is  0.60130612D+02

 Symmetrizing basis deriv contribution to polar:
 IMax=3 JMax=2 DiffMx= 0.00D+00
 Calling FoFJK, ICntrl=      2147 FMM=F ISym2X=0 I1Cent= 0 IOpClX= 1 NMat=1 NMatS=1 NMatT=0.
 -------------------------------------------------------------------
 Center     Atomic                   Forces (Hartrees/Bohr)
 Number     Number              X              Y              Z
 -------------------------------------------------------------------
      1        6           0.001923273    0.000504893   -0.000878049
      2        1          -0.002674171   -0.002847238    0.001807493
      3        6           0.001119067    0.001270944   -0.000126666
      4        6           0.000709140    0.000169532    0.000183114
      5        8           0.000219449    0.000273220   -0.000014172
      6        8           0.000404707    0.000009295   -0.000027457
      7        6           0.000024318   -0.000013915    0.000002195
      8        6          -0.000008071    0.000017461    0.000028073
      9        1           0.000000031    0.000010529    0.000002000
     10        1           0.000000127   -0.000009047    0.000000155
     11        1           0.000000031   -0.000000387    0.000001867
     12        1           0.000001567    0.000004092    0.000005128
     13        1          -0.000002666    0.000000785    0.000003527
     14        8          -0.002055193    0.000930405   -0.001322316
     15        1           0.000338390   -0.000320570    0.000335108
 -------------------------------------------------------------------
 Cartesian Forces:  Max     0.002847238 RMS     0.000871220
 IRC-IRC-IRC-IRC-IRC-IRC-IRC-IRC-IRC-IRC-IRC-IRC-IRC-IRC-IRC-IRC-IRC-IRC
 Pt  4 Step number   1 out of a maximum of 900
 Modified Bulirsch-Stoer Extrapolation Cycles:
    EPS =    0.000010000000000
 Maximum DWI energy   std dev =  0.000000446 at pt    36
 Maximum DWI gradient std dev =  0.026116857 at pt    38
 CORRECTOR INTEGRATION CONVERGENCE:
   Recorrection delta-x convergence threshold:    0.010000
   Delta-x Convergence Met
 Point Number:   4          Path Number:   1
   CHANGE IN THE REACTION COORDINATE =    0.05116
   NET REACTION COORDINATE UP TO THIS POINT =    0.20459
  # OF POINTS ALONG THE PATH =   4
  # OF STEPS =   1

 Calculating another point on the path.
 IRC-IRC-IRC-IRC-IRC-IRC-IRC-IRC-IRC-IRC-IRC-IRC-IRC-IRC-IRC-IRC-IRC-IRC
                          Input orientation:                          
 ---------------------------------------------------------------------
 Center     Atomic      Atomic             Coordinates (Angstroms)
 Number     Number       Type             X           Y           Z
 ---------------------------------------------------------------------
      1          6           0       -1.644486   -0.311511   -0.047651
      2          1           0       -3.037818   -0.992923    0.083462
      3          6           0       -0.616396    0.324790   -0.035385
      4          6           0        0.656552    1.049570    0.022986
      5          8           0        0.687705    2.198501    0.347957
      6          8           0        1.756923    0.380644   -0.317809
      7          6           0        1.713873   -1.027078   -0.615282
      8          6           0        1.767470   -1.851409    0.655383
      9          1           0        0.825948   -1.251255   -1.209145
     10          1           0        2.595218   -1.191498   -1.233024
     11          1           0        2.653858   -1.592993    1.236216
     12          1           0        0.881408   -1.682213    1.269390
     13          1           0        1.811340   -2.913172    0.404964
     14          8           0       -3.958553   -0.617895   -0.083810
     15          1           0       -4.052886    0.115414    0.537741
 ---------------------------------------------------------------------
                    Distance matrix (angstroms):
                    1          2          3          4          5
     1  C    0.000000
     2  H    1.556562   0.000000
     3  C    1.209131   2.759307   0.000000
     4  C    2.674380   4.221825   1.465984   0.000000
     5  O    3.449026   4.912704   2.314827   1.194412   0.000000
     6  O    3.481616   5.003723   2.390717   1.332073   2.211577
     7  C    3.480347   4.802913   2.755718   2.416149   3.519262
     8  C    3.808804   4.914762   3.300881   3.170133   4.202638
     9  H    2.887080   4.082432   2.437619   2.615461   3.787413
    10  H    4.489385   5.788235   3.748057   3.218442   4.198833
    11  H    4.665434   5.838159   3.998677   3.527647   4.362360
    12  H    3.161260   4.152333   2.823812   3.011100   3.993307
    13  H    4.349280   5.225423   4.070897   4.145209   5.234023
    14  O    2.334541   1.008157   3.472897   4.908262   5.450341
    15  H    2.515022   1.570078   3.490240   4.828708   5.181551
                    6          7          8          9         10
     6  O    0.000000
     7  C    1.439453   0.000000
     8  C    2.435010   1.515580   0.000000
     9  H    2.079493   1.091485   2.173272   0.000000
    10  H    2.002994   1.088765   2.164885   1.770440   0.000000
    11  H    2.667345   2.152179   1.090793   3.072105   2.502355
    12  H    2.746109   2.161987   1.091210   2.516334   3.072462
    13  H    3.372623   2.146567   1.091776   2.517600   2.502325
    14  O    5.806764   5.711945   5.903838   4.955701   6.678445
    15  H    5.878452   5.990848   6.144817   5.359329   7.002922
                   11         12         13         14         15
    11  H    0.000000
    12  H    1.775005   0.000000
    13  H    1.773045   1.768407   0.000000
    14  O    6.813022   5.137036   6.228873   0.000000
    15  H    6.956072   5.302266   6.601447   0.965902   0.000000
 Symmetry turned off by external request.
 Stoichiometry    C5H7O3(2)
 Framework group  C1[X(C5H7O3)]
 Deg. of freedom    39
 Full point group                 C1      NOp   1
 Rotational constants (GHZ):      2.6236875      1.0364537      0.7894035
 Standard basis: 6-311++G(d,p) (5D, 7F)
   225 basis functions,   351 primitive gaussians,   233 cartesian basis functions
    31 alpha electrons       30 beta electrons
       nuclear repulsion energy       340.5570839322 Hartrees.
 NAtoms=   15 NActive=   15 NUniq=   15 SFac= 1.00D+00 NAtFMM=   60 NAOKFM=F Big=F
 Integral buffers will be    262144 words long.
 Raffenetti 2 integral format.
 Two-electron integral symmetry is turned off.
 One-electron integrals computed using PRISM.
 NBasis=   225 RedAO= T EigKep=  1.82D-05  NBF=   225
 NBsUse=   224 1.00D-06 EigRej=  7.02D-07 NBFU=   224
 Initial guess from the checkpoint file:  "ethyl_propiolate.chk"
 B after Tr=    -0.000232   -0.000293    0.000202
         Rot=    1.000000    0.000020   -0.000039   -0.000031 Ang=   0.01 deg.
 Initial guess <Sx>= 0.0000 <Sy>= 0.0000 <Sz>= 0.5000 <S**2>= 0.7671 S= 0.5085
 ExpMin= 3.60D-02 ExpMax= 8.59D+03 ExpMxC= 1.30D+03 IAcc=3 IRadAn=         5 AccDes= 0.00D+00
 Harris functional with IExCor= 1009 and IRadAn=       5 diagonalized for initial guess.
 HarFok:  IExCor= 1009 AccDes= 0.00D+00 IRadAn=         5 IDoV= 1 UseB2=F ITyADJ=14
 ICtDFT=  3500011 ScaDFX=  1.000000  1.000000  1.000000  1.000000
 FoFCou: FMM=F IPFlag=           0 FMFlag=      100000 FMFlg1=           0
         NFxFlg=           0 DoJE=T BraDBF=F KetDBF=T FulRan=T
         wScrn=  0.000000 ICntrl=     500 IOpCl=  0 I1Cent=   200000004 NGrid=           0
         NMat0=    1 NMatS0=      1 NMatT0=    0 NMatD0=    1 NMtDS0=    0 NMtDT0=    0
 Symmetry not used in FoFCou.
 Requested convergence on RMS density matrix=1.00D-08 within 128 cycles.
 Requested convergence on MAX density matrix=1.00D-06.
 Requested convergence on             energy=1.00D-06.
 No special actions if energy rises.
[...]
  Beta virt. eigenvalues --    0.39878   0.40318   0.45047   0.45576   0.47771
  Beta virt. eigenvalues --    0.50117   0.51011   0.52742   0.56159   0.57475
  Beta virt. eigenvalues --    0.59274   0.61408   0.63729   0.64319   0.67909
  Beta virt. eigenvalues --    0.68330   0.68573   0.69773   0.71461   0.71659
  Beta virt. eigenvalues --    0.72694   0.75590   0.77342   0.78450   0.82353
  Beta virt. eigenvalues --    0.84644   0.86784   0.90711   0.96755   0.99684
  Beta virt. eigenvalues --    1.01548   1.03847   1.05062   1.07443   1.09749
  Beta virt. eigenvalues --    1.12387   1.14897   1.17941   1.19151   1.20280
  Beta virt. eigenvalues --    1.22505   1.24205   1.27756   1.29008   1.30912
  Beta virt. eigenvalues --    1.31751   1.35014   1.35600   1.39902   1.41710
  Beta virt. eigenvalues --    1.43509   1.45887   1.49045   1.50228   1.58009
  Beta virt. eigenvalues --    1.58195   1.60188   1.60898   1.61947   1.63023
  Beta virt. eigenvalues --    1.65354   1.68722   1.70036   1.71854   1.73227
  Beta virt. eigenvalues --    1.76451   1.78603   1.79201   1.81274   1.85430
  Beta virt. eigenvalues --    1.90543   1.93397   1.98261   1.99129   2.03642
  Beta virt. eigenvalues --    2.06613   2.11164   2.13708   2.19750   2.29925
  Beta virt. eigenvalues --    2.34245   2.36017   2.43305   2.49146   2.50662
  Beta virt. eigenvalues --    2.53064   2.54671   2.55220   2.60052   2.62542
  Beta virt. eigenvalues --    2.63484   2.65142   2.67135   2.72501   2.73473
  Beta virt. eigenvalues --    2.79771   2.81216   2.83830   2.89676   2.93938
  Beta virt. eigenvalues --    2.97421   2.97766   3.01107   3.02096   3.05929
  Beta virt. eigenvalues --    3.09876   3.13142   3.13600   3.15776   3.21245
  Beta virt. eigenvalues --    3.25206   3.31239   3.34073   3.41621   3.43513
  Beta virt. eigenvalues --    3.54030   3.60888   3.66649   3.76357   3.84424
  Beta virt. eigenvalues --    3.85408   3.86785   3.88542   4.03373   4.13222
  Beta virt. eigenvalues --    4.13470   4.30735   5.05907   5.15298   5.16383
  Beta virt. eigenvalues --    5.27505   5.27699   5.42812   5.55007   5.68998
  Beta virt. eigenvalues --    5.98331  23.54750  23.91079  23.93832  24.04411
  Beta virt. eigenvalues --   25.05087  49.90716  49.99398  50.12462
          Condensed to atoms (all electrons):
               1          2          3          4          5          6
     1  C    5.423230   0.252739   0.897303  -0.068240  -0.033867  -0.017231
     2  H    0.252739   0.357254  -0.064509   0.023953  -0.001564  -0.003825
     3  C    0.897303  -0.064509   6.014517  -1.181299  -0.005641  -0.162757
     4  C   -0.068240   0.023953  -1.181299   7.157798   0.360418   0.119291
     5  O   -0.033867  -0.001564  -0.005641   0.360418   8.012048  -0.092032
     6  O   -0.017231  -0.003825  -0.162757   0.119291  -0.092032   8.204423
     7  C   -0.019796   0.000205  -0.113477   0.010549  -0.004727   0.195571
     8  C   -0.001683  -0.000114   0.081574  -0.072888   0.015585  -0.117309
     9  H    0.019620  -0.002020   0.016132  -0.021874  -0.001027  -0.005756
    10  H   -0.002539  -0.000523  -0.000583  -0.000254   0.001281  -0.085256
    11  H   -0.001802   0.000427   0.017349  -0.018551   0.000815  -0.005813
    12  H    0.004401  -0.003145   0.029489  -0.017689  -0.000740  -0.013534
    13  H   -0.000997   0.000265  -0.006867   0.000593   0.000304   0.015346
    14  O    0.005755   0.069652  -0.020008   0.003152   0.000110   0.000420
    15  H    0.026605  -0.036432   0.003350   0.004773  -0.000062   0.000228
               7          8          9         10         11         12
     1  C   -0.019796  -0.001683   0.019620  -0.002539  -0.001802   0.004401
     2  H    0.000205  -0.000114  -0.002020  -0.000523   0.000427  -0.003145
     3  C   -0.113477   0.081574   0.016132  -0.000583   0.017349   0.029489
     4  C    0.010549  -0.072888  -0.021874  -0.000254  -0.018551  -0.017689
     5  O   -0.004727   0.015585  -0.001027   0.001281   0.000815  -0.000740
     6  O    0.195571  -0.117309  -0.005756  -0.085256  -0.005813  -0.013534
     7  C    5.639515  -0.110800   0.360274   0.468584  -0.063283   0.029542
     8  C   -0.110800   5.519648  -0.019185  -0.076529   0.451118   0.335230
     9  H    0.360274  -0.019185   0.553477  -0.042879   0.006315  -0.021226
    10  H    0.468584  -0.076529  -0.042879   0.528334  -0.012021   0.015598
    11  H   -0.063283   0.451118   0.006315  -0.012021   0.523782  -0.049127
    12  H    0.029542   0.335230  -0.021226   0.015598  -0.049127   0.586316
    13  H   -0.042038   0.402970  -0.004013   0.002199  -0.036486  -0.032925
    14  O    0.000917  -0.000796   0.000892  -0.000007  -0.000081  -0.000507
    15  H    0.000134  -0.000107   0.000100   0.000010  -0.000037  -0.000069
              13         14         15
     1  C   -0.000997   0.005755   0.026605
     2  H    0.000265   0.069652  -0.036432
     3  C   -0.006867  -0.020008   0.003350
     4  C    0.000593   0.003152   0.004773
     5  O    0.000304   0.000110  -0.000062
     6  O    0.015346   0.000420   0.000228
     7  C   -0.042038   0.000917   0.000134
     8  C    0.402970  -0.000796  -0.000107
     9  H   -0.004013   0.000892   0.000100
    10  H    0.002199  -0.000007   0.000010
    11  H   -0.036486  -0.000081  -0.000037
    12  H   -0.032925  -0.000507  -0.000069
    13  H    0.546490   0.000088   0.000008
    14  O    0.000088   7.865826   0.273036
    15  H    0.000008   0.273036   0.455887
          Atomic-Atomic Spin Densities.
               1          2          3          4          5          6
     1  C    0.347634   0.036826  -0.025697  -0.012385  -0.001124  -0.000248
     2  H    0.036826   0.001074  -0.007474  -0.004058  -0.000236  -0.000049
     3  C   -0.025697  -0.007474   0.080991  -0.046028  -0.004086   0.004336
     4  C   -0.012385  -0.004058  -0.046028   0.038960   0.003164  -0.002757
     5  O   -0.001124  -0.000236  -0.004086   0.003164   0.003190   0.001460
     6  O   -0.000248  -0.000049   0.004336  -0.002757   0.001460  -0.003610
     7  C   -0.004639  -0.003692  -0.003060   0.005274   0.000483   0.001752
     8  C    0.001261   0.002641   0.005828  -0.005706  -0.000169  -0.000794
     9  H    0.001255  -0.000462  -0.001897   0.001110  -0.000063  -0.000342
    10  H   -0.000596  -0.000304  -0.000896   0.000629   0.000039   0.000141
    11  H    0.000154   0.000144   0.000233  -0.000169  -0.000043   0.000059
    12  H   -0.000390  -0.000918  -0.000932   0.001426   0.000016   0.000068
    13  H   -0.000089  -0.000043  -0.000122   0.000058   0.000008  -0.000038
    14  O   -0.089158  -0.047218   0.007517   0.006682   0.000229   0.000081
    15  H    0.002664   0.000546  -0.000391  -0.001363  -0.000026  -0.000034
               7          8          9         10         11         12
     1  C   -0.004639   0.001261   0.001255  -0.000596   0.000154  -0.000390
     2  H   -0.003692   0.002641  -0.000462  -0.000304   0.000144  -0.000918
     3  C   -0.003060   0.005828  -0.001897  -0.000896   0.000233  -0.000932
     4  C    0.005274  -0.005706   0.001110   0.000629  -0.000169   0.001426
     5  O    0.000483  -0.000169  -0.000063   0.000039  -0.000043   0.000016
     6  O    0.001752  -0.000794  -0.000342   0.000141   0.000059   0.000068
     7  C   -0.002278  -0.001056   0.002012   0.000596  -0.000273   0.000223
     8  C   -0.001056   0.002732  -0.001336  -0.000655   0.000345  -0.000242
     9  H    0.002012  -0.001336  -0.000203   0.000128  -0.000067   0.000139
    10  H    0.000596  -0.000655   0.000128   0.000892  -0.000215   0.000168
    11  H   -0.000273   0.000345  -0.000067  -0.000215   0.000089  -0.000196
    12  H    0.000223  -0.000242   0.000139   0.000168  -0.000196   0.000204
    13  H    0.000383  -0.000405   0.000019   0.000100  -0.000004   0.000049
    14  O    0.001374  -0.000749   0.000051   0.000075  -0.000040   0.000259
    15  H   -0.000151   0.000063   0.000076  -0.000011   0.000010   0.000019
              13         14         15
     1  C   -0.000089  -0.089158   0.002664
     2  H   -0.000043  -0.047218   0.000546
     3  C   -0.000122   0.007517  -0.000391
     4  C    0.000058   0.006682  -0.001363
     5  O    0.000008   0.000229  -0.000026
     6  O   -0.000038   0.000081  -0.000034
     7  C    0.000383   0.001374  -0.000151
     8  C   -0.000405  -0.000749   0.000063
     9  H    0.000019   0.000051   0.000076
    10  H    0.000100   0.000075  -0.000011
    11  H   -0.000004  -0.000040   0.000010
    12  H    0.000049   0.000259   0.000019
    13  H   -0.000057   0.000026  -0.000008
    14  O    0.000026   0.903225   0.009282
    15  H   -0.000008   0.009282  -0.029600
 Mulliken charges and spin densities:
               1          2
     1  C   -0.483498   0.255466
     2  H    0.407635  -0.023221
     3  C    0.495426   0.008322
     4  C   -0.299732  -0.015162
     5  O   -0.250903   0.002844
     6  O   -0.031766   0.000025
     7  C   -0.351170  -0.003052
     8  C   -0.406715   0.001759
     9  H    0.161168   0.000421
    10  H    0.204584   0.000091
    11  H    0.187395   0.000026
    12  H    0.138385  -0.000107
    13  H    0.155064  -0.000122
    14  O   -0.198450   0.791635
    15  H    0.272577  -0.018925
 Sum of Mulliken charges =   0.00000   1.00000
 Mulliken charges and spin densities with hydrogens summed into heavy atoms:
               1          2
     1  C   -0.075863   0.232245
     3  C    0.495426   0.008322
     4  C   -0.299732  -0.015162
     5  O   -0.250903   0.002844
     6  O   -0.031766   0.000025
     7  C    0.014582  -0.002540
     8  C    0.074128   0.001556
    14  O    0.074127   0.772710
 APT charges:
               1
     1  C   -0.056811
     2  H    0.416807
     3  C   -0.359226
     4  C   -0.340548
     5  O    0.032555
     6  O    0.074359
     7  C   -0.790629
     8  C   -1.210732
     9  H    0.204619
    10  H    0.642472
    11  H    0.519442
    12  H    0.142146
    13  H    0.564039
    14  O   -0.309650
    15  H    0.471156
 Sum of APT charges =   0.00000
 APT charges with hydrogens summed into heavy atoms:
               1
     1  C    0.359996
     3  C   -0.359226
     4  C   -0.340548
     5  O    0.032555
     6  O    0.074359
     7  C    0.056462
     8  C    0.014895
    14  O    0.161506
 Electronic spatial extent (au):  <R**2>=           1400.1243
 Charge=              0.0000 electrons
 Dipole moment (field-independent basis, Debye):
    X=             -1.3606    Y=             -3.4735    Z=              0.3137  Tot=              3.7436
 Quadrupole moment (field-independent basis, Debye-Ang):
   XX=            -41.2472   YY=            -53.8403   ZZ=            -47.2290
   XY=             -8.8316   XZ=             -5.6453   YZ=             -0.4292
 Traceless Quadrupole moment (field-independent basis, Debye-Ang):
   XX=              6.1916   YY=             -6.4014   ZZ=              0.2098
   XY=             -8.8316   XZ=             -5.6453   YZ=             -0.4292
 Octapole moment (field-independent basis, Debye-Ang**2):
  XXX=            -34.6261  YYY=             -6.3969  ZZZ=             -1.4469  XYY=             -2.6623
  XXY=             10.8626  XXZ=             18.9322  XZZ=             -0.0983  YZZ=              4.8466
  YYZ=             -5.3112  XYZ=             -0.7497
 Hexadecapole moment (field-independent basis, Debye-Ang**3):
 XXXX=          -1009.7389 YYYY=           -519.7071 ZZZZ=           -110.0210 XXXY=            -75.4272
 XXXZ=            -91.7888 YYYX=             -7.9453 YYYZ=             -3.6271 ZZZX=             -7.3277
 ZZZY=              4.0232 XXYY=           -279.4783 XXZZ=           -203.1011 YYZZ=            -99.9537
 XXYZ=              9.3291 YYXZ=             -4.1491 ZZXY=              1.5042
 N-N= 3.405464141311D+02 E-N=-1.665228684518D+03  KE= 4.188296317649D+02
  Exact polarizability:   0.000   0.000   0.000   0.000   0.000   0.000
 Approx polarizability: 105.079  16.974  90.451  -1.001   7.111  59.847
                          Isotropic Fermi Contact Couplings
        Atom                 a.u.       MegaHertz       Gauss      10(-4) cm-1
     1  C(13)              0.30535     343.26992     122.48724     114.50252
     2  H(1)              -0.02378    -106.27523     -37.92164     -35.44960
     3  C(13)              0.04090      45.98464      16.40846      15.33882
     4  C(13)              0.00269       3.02214       1.07837       1.00808
     5  O(17)              0.00075      -0.45726      -0.16316      -0.15253
     6  O(17)             -0.00058       0.34980       0.12482       0.11668
     7  C(13)             -0.00010      -0.11617      -0.04145      -0.03875
     8  C(13)             -0.00003      -0.03064      -0.01093      -0.01022
     9  H(1)               0.00012       0.52138       0.18604       0.17391
    10  H(1)               0.00006       0.27078       0.09662       0.09032
    11  H(1)              -0.00001      -0.03882      -0.01385      -0.01295
    12  H(1)               0.00000      -0.01860      -0.00664      -0.00621
    13  H(1)               0.00000       0.01745       0.00623       0.00582
    14  O(17)              0.11274     -68.34344     -24.38664     -22.79692
    15  H(1)              -0.01353     -60.46706     -21.57615     -20.16964
 --------------------------------------------------------
       Center         ----  Spin Dipole Couplings  ----
                      3XX-RR        3YY-RR        3ZZ-RR
 --------------------------------------------------------
     1   Atom        0.203095     -0.093107     -0.109988
     2   Atom        0.195578     -0.083723     -0.111855
     3   Atom       -0.002642      0.068503     -0.065860
     4   Atom        0.005104     -0.001563     -0.003541
     5   Atom        0.037537     -0.007731     -0.029807
     6   Atom        0.000873      0.001714     -0.002587
     7   Atom        0.002695     -0.001338     -0.001357
     8   Atom        0.001738     -0.000698     -0.001041
     9   Atom        0.003194     -0.001840     -0.001354
    10   Atom        0.001304     -0.000700     -0.000605
    11   Atom        0.001143     -0.000578     -0.000565
    12   Atom        0.002312     -0.001191     -0.001120
    13   Atom        0.001112     -0.000274     -0.000838
    14   Atom        3.017887     -1.395039     -1.622848
    15   Atom       -0.036635      0.046449     -0.009814
 --------------------------------------------------------
                        XY            XZ            YZ
 --------------------------------------------------------
     1   Atom        0.110542     -0.001434      0.000259
     2   Atom       -0.012246      0.013781     -0.004743
     3   Atom        0.055114     -0.000517     -0.005504
     4   Atom        0.005934      0.001141      0.000722
     5   Atom        0.013631      0.017851      0.011297
     6   Atom       -0.000868      0.001888     -0.000258
     7   Atom       -0.000586     -0.000600      0.000065
     8   Atom       -0.000984      0.000615     -0.000179
     9   Atom       -0.001340     -0.001974      0.000645
    10   Atom       -0.000270     -0.000467      0.000052
    11   Atom       -0.000378      0.000438     -0.000098
    12   Atom       -0.001472      0.001650     -0.000707
    13   Atom       -0.001022      0.000202     -0.000120
    14   Atom        1.053594     -0.213607     -0.050236
    15   Atom       -0.017124     -0.029326      0.126134
 --------------------------------------------------------


 ---------------------------------------------------------------------------------
              Anisotropic Spin Dipole Couplings in Principal Axis System
 ---------------------------------------------------------------------------------

       Atom             a.u.   MegaHertz   Gauss  10(-4) cm-1        Axes

              Baa    -0.1298   -17.423    -6.217    -5.812 -0.3151  0.9484 -0.0351
     1 C(13)  Bbb    -0.1100   -14.757    -5.266    -4.922 -0.0076  0.0345  0.9994
              Bcc     0.2398    32.180    11.482    10.734  0.9490  0.3151 -0.0037
 
              Baa    -0.1131   -60.334   -21.529   -20.125 -0.0384  0.1437  0.9889
     2 H(1)   Bbb    -0.0837   -44.641   -15.929   -14.891  0.0503  0.9886 -0.1417
              Bcc     0.1967   104.975    37.458    35.016  0.9980 -0.0443  0.0452
 
              Baa    -0.0662    -8.878    -3.168    -2.961 -0.0423  0.0581  0.9974
     3 C(13)  Bbb    -0.0325    -4.365    -1.557    -1.456  0.8775 -0.4752  0.0649
              Bcc     0.0987    13.242     4.725     4.417  0.4777  0.8780 -0.0309
 
              Baa    -0.0050    -0.676    -0.241    -0.225 -0.5019  0.8643 -0.0343
     4 C(13)  Bbb    -0.0037    -0.495    -0.177    -0.165 -0.1118 -0.0255  0.9934
              Bcc     0.0087     1.171     0.418     0.391  0.8577  0.5024  0.1094
 
              Baa    -0.0365     2.645     0.944     0.882 -0.1742 -0.2869  0.9420
     5 O(17)  Bbb    -0.0102     0.736     0.262     0.245 -0.3420  0.9147  0.2154
              Bcc     0.0467    -3.380    -1.206    -1.128  0.9234  0.2846  0.2574
 
              Baa    -0.0034     0.247     0.088     0.083 -0.4063 -0.0228  0.9135
     6 O(17)  Bbb     0.0008    -0.059    -0.021    -0.020  0.6421  0.7042  0.3031
              Bcc     0.0026    -0.189    -0.067    -0.063 -0.6502  0.7097 -0.2714
 
              Baa    -0.0015    -0.195    -0.070    -0.065  0.1925  0.4950  0.8473
     7 C(13)  Bbb    -0.0014    -0.189    -0.067    -0.063  0.0477  0.8577 -0.5119
              Bcc     0.0029     0.384     0.137     0.128  0.9801 -0.1389 -0.1415
 
              Baa    -0.0012    -0.158    -0.056    -0.053 -0.2625 -0.1855  0.9469
     8 C(13)  Bbb    -0.0010    -0.139    -0.050    -0.046  0.2718  0.9274  0.2570
              Bcc     0.0022     0.297     0.106     0.099  0.9258 -0.3249  0.1930
 
              Baa    -0.0023    -1.220    -0.435    -0.407 -0.0160  0.8062 -0.5914
     9 H(1)   Bbb    -0.0020    -1.068    -0.381    -0.356  0.4169  0.5430  0.7289
              Bcc     0.0043     2.289     0.817     0.763  0.9088 -0.2349 -0.3448
 
              Baa    -0.0007    -0.394    -0.141    -0.131  0.1976  0.9222  0.3324
    10 H(1)   Bbb    -0.0007    -0.378    -0.135    -0.126  0.1636 -0.3653  0.9164
              Bcc     0.0014     0.772     0.276     0.258  0.9665 -0.1267 -0.2231
 
              Baa    -0.0007    -0.359    -0.128    -0.120 -0.1468  0.3608  0.9210
    11 H(1)   Bbb    -0.0007    -0.350    -0.125    -0.117  0.2679  0.9108 -0.3141
              Bcc     0.0013     0.709     0.253     0.236  0.9522 -0.2006  0.2304
 
              Baa    -0.0019    -0.998    -0.356    -0.333 -0.0928  0.6145  0.7834
    12 H(1)   Bbb    -0.0017    -0.890    -0.318    -0.297  0.4761  0.7185 -0.5071
              Bcc     0.0035     1.888     0.674     0.630  0.8745 -0.3259  0.3592
 
              Baa    -0.0009    -0.460    -0.164    -0.153  0.0277  0.2450  0.9691
    13 H(1)   Bbb    -0.0008    -0.434    -0.155    -0.145  0.4753  0.8497 -0.2284
              Bcc     0.0017     0.894     0.319     0.298  0.8794 -0.4669  0.0930
 
              Baa    -1.6351   118.312    42.217    39.465 -0.1490  0.7811  0.6064
    14 O(17)  Bbb    -1.6313   118.041    42.120    39.374  0.1688 -0.5841  0.7939
              Bcc     3.2664  -236.353   -84.337   -78.839  0.9743  0.2207 -0.0448
 
              Baa    -0.1130   -60.270   -21.506   -20.104  0.1656 -0.6009  0.7820
    15 H(1)   Bbb    -0.0399   -21.294    -7.598    -7.103  0.9722  0.2325 -0.0272
              Bcc     0.1529    81.564    29.104    27.207 -0.1655  0.7647  0.6227
 

 ---------------------------------------------------------------------------------


 This type of calculation cannot be archived.


 NEVER LOSE YOUR IGNORANCE, IT CAN'T BE REPLACED.
   -- ANDY CAPP
 Job cpu time:       0 days  1 hours 22 minutes 52.0 seconds.
 File lengths (MBytes):  RWF=    150 Int=      0 D2E=      0 Chk=      9 Scr=      1
 Normal termination of Gaussian 09 at Tue Mar 25 11:52:21 2025.
