 Entering Gaussian System, Link 0=g16
 Initial command:
 /opt/g16/l1.exe "/home/aayush/scratches/g16/Gau-14672.inp" -scrdir="/home/aayush/scratches/g16/"
 Entering Link 1 = /opt/g16/l1.exe PID=     14675.
  
 Copyright (c) 1988,1990,1992,1993,1995,1998,2003,2009,2016,
            Gaussian, Inc.  All Rights Reserved.
  
 This is part of the Gaussian(R) 16 program.  It is based on
 the Gaussian(R) 09 system (copyright 2009, Gaussian, Inc.),
 the Gaussian(R) 03 system (copyright 2003, Gaussian, Inc.),
 the Gaussian(R) 98 system (copyright 1998, Gaussian, Inc.),
 the Gaussian(R) 94 system (copyright 1995, Gaussian, Inc.),
 the Gaussian 92(TM) system (copyright 1992, Gaussian, Inc.),
 the Gaussian 90(TM) system (copyright 1990, Gaussian, Inc.),
 the Gaussian 88(TM) system (copyright 1988, Gaussian, Inc.),
 the Gaussian 86(TM) system (copyright 1986, Carnegie Mellon
 University), and the Gaussian 82(TM) system (copyright 1983,
 Carnegie Mellon University). Gaussian is a federally registered
 trademark of Gaussian, Inc.
  
 This software contains proprietary and confidential information,
 including trade secrets, belonging to Gaussian, Inc.
  
 This software is provided under written license and may be
 used, copied, transmitted, or stored only in accord with that
 written license.
  
 The following legend is applicable only to US Government
 contracts under FAR:
  
                    RESTRICTED RIGHTS LEGEND
  
 Use, reproduction and disclosure by the US Government is
 subject to restrictions as set forth in subparagraphs (a)
 and (c) of the Commercial Computer Software - Restricted
 Rights clause in FAR 52.227-19.
  
 Gaussian, Inc.
 340 Quinnipiac St., Bldg. 40, Wallingford CT 06492
  
  
 ---------------------------------------------------------------
 Warning -- This program may not be used in any manner that
 competes with the business of Gaussian, Inc. or will provide
 assistance to any competitor of Gaussian, Inc.  The licensee
 of this program is prohibited from giving any competitor of
 Gaussian, Inc. access to this program.  By using this program,
 the user acknowledges that Gaussian, Inc. is engaged in the
 business of creating and licensing software in the field of
 computational chemistry and represents and warrants to the
 licensee that it is not a competitor of Gaussian, Inc. and that
 it will not use this program in any manner prohibited above.
 ---------------------------------------------------------------
  

 Cite this work as:
 Gaussian 16, Revision A.03,
 M. J. Frisch, G. W. Trucks, H. B. Schlegel, G. E. Scuseria, 
 M. A. Robb, J. R. Cheeseman, G. Scalmani, V. Barone, 
 G. A. Petersson, H. Nakatsuji, X. Li, M. Caricato, A. V. Marenich, 
 J. Bloino, B. G. Janesko, R. Gomperts, B. Mennucci, H. P. Hratchian, 
 J. V. Ortiz, A. F. Izmaylov, J. L. Sonnenberg, D. Williams-Young, 
 F. Ding, F. Lipparini, F. Egidi, J. Goings, B. Peng, A. Petrone, 
 T. Henderson, D. Ranasinghe, V. G. Zakrzewski, J. Gao, N. Rega, 
 G. Zheng, W. Liang, M. Hada, M. Ehara, K. Toyota, R. Fukuda, 
 J. Hasegawa, M. Ishida, T. Nakajima, Y. Honda, O. Kitao, H. Nakai, 
 T. Vreven, K. Throssell, J. A. Montgomery, Jr., J. E. Peralta, 
 F. Ogliaro, M. J. Bearpark, J. J. Heyd, E. N. Brothers, K. N. Kudin, 
 V. N. Staroverov, T. A. Keith, R. Kobayashi, J. Normand, 
 K. Raghavachari, A. P. Rendell, J. C. Burant, S. S. Iyengar, 
 J. Tomasi, M. Cossi, J. M. Millam, M. Klene, C. Adamo, R. Cammi, 
 J. W. Ochterski, R. L. Martin, K. Morokuma, O. Farkas, 
 J. B. Foresman, and D. J. Fox, Gaussian, Inc., Wallingford CT, 2016.
 
 ******************************************
 Gaussian 16:  ES64L-G16RevA.03 25-Dec-2016
                 6-Jun-2025 
 ******************************************
 %nprocshared=24
 Will use up to   24 processors via shared memory.
 %mem=12GB
 %chk=ethyl_propiolate.chk
 -----------------------------------------------------
 # opt=(calcfc,tight,ts,noeigentest) freq 6-31+g m062x
 -----------------------------------------------------
 1/5=1,7=10,10=4,11=1,18=20,26=3,38=1/1,3;
 2/9=110,12=2,17=6,18=5,40=1/2;
 3/5=1,6=6,7=10,11=2,25=1,30=1,71=2,74=-55,140=1/1,2,3;
 4//1;
 5/5=2,38=5/2;
 8/6=4,10=90,11=11/1;
 11/6=1,8=1,9=11,15=111,16=1/1,2,10;
 10/6=1,13=1/2;
 6/7=2,8=2,9=2,10=2,28=1/1;
 7/10=1,18=20,25=1/1,2,3,16;
 1/5=1,7=10,10=4,11=1,18=20,26=3/3(2);
 2/9=110/2;
 99//99;
 2/9=110/2;
 3/5=1,6=6,7=10,11=2,25=1,30=1,71=1,74=-55/1,2,3;
 4/5=5,16=3,69=1/1;
 5/5=2,38=5/2;
 7//1,2,3,16;
 1/5=1,7=10,11=1,18=20,26=3/3(-5);
 2/9=110/2;
 6/7=2,8=2,9=2,10=2,19=2,28=1/1;
 99/9=1/99;
 -------------------
 Title Card Required
 -------------------
 Symbolic Z-matrix:
 Charge =  0 Multiplicity = 2
 O                    -3.0946   -0.49124  -0.62922 
 H                    -2.70356  -1.35285  -0.38251 
 C                     2.62838   2.91793  -1.54997 
 H                     3.2199    3.76983  -1.79107 
 C                     1.96228   1.95993  -1.27839 
 C                     1.20144   0.76576  -0.93568 
 O                     1.70045  -0.25074  -0.53929 
 O                    -0.10471   0.96265  -1.11668 
 C                    -0.96202  -0.15883  -0.82199 
 C                    -0.96913  -1.15468  -1.96518 
 H                    -2.07532   0.35146  -0.65284 
 H                    -0.62705  -0.61996   0.10783 
 H                    -1.68111  -1.95365  -1.74934 
 H                    -1.2689   -0.666    -2.89341 
 H                     0.01769  -1.59922  -2.09508 
 
 Add virtual bond connecting atoms H11        and O1         Dist= 2.50D+00.

 GradGradGradGradGradGradGradGradGradGradGradGradGradGradGradGradGradGrad
 Berny optimization.
 Initialization pass.
                           ----------------------------
                           !    Initial Parameters    !
                           ! (Angstroms and Degrees)  !
 --------------------------                            --------------------------
 ! Name  Definition              Value          Derivative Info.                !
 --------------------------------------------------------------------------------
 ! R1    R(1,2)                  0.9778         calculate D2E/DX2 analytically  !
 ! R2    R(1,11)                 1.3227         calculate D2E/DX2 analytically  !
 ! R3    R(3,4)                  1.0648         calculate D2E/DX2 analytically  !
 ! R4    R(3,5)                  1.198          calculate D2E/DX2 analytically  !
 ! R5    R(5,6)                  1.4568         calculate D2E/DX2 analytically  !
 ! R6    R(6,7)                  1.1998         calculate D2E/DX2 analytically  !
 ! R7    R(6,8)                  1.3332         calculate D2E/DX2 analytically  !
 ! R8    R(8,9)                  1.4421         calculate D2E/DX2 analytically  !
 ! R9    R(9,10)                 1.5161         calculate D2E/DX2 analytically  !
 ! R10   R(9,11)                 1.2363         calculate D2E/DX2 analytically  !
 ! R11   R(9,12)                 1.0906         calculate D2E/DX2 analytically  !
 ! R12   R(10,13)                1.0917         calculate D2E/DX2 analytically  !
 ! R13   R(10,14)                1.091          calculate D2E/DX2 analytically  !
 ! R14   R(10,15)                1.0901         calculate D2E/DX2 analytically  !
 ! A1    A(2,1,11)             104.9342         calculate D2E/DX2 analytically  !
 ! A2    A(5,6,7)              123.7101         calculate D2E/DX2 analytically  !
 ! A3    A(5,6,8)              111.0176         calculate D2E/DX2 analytically  !
 ! A4    A(7,6,8)              125.2717         calculate D2E/DX2 analytically  !
 ! A5    A(6,8,9)              116.0929         calculate D2E/DX2 analytically  !
 ! A6    A(8,9,10)             111.0706         calculate D2E/DX2 analytically  !
 ! A7    A(8,9,11)             104.0231         calculate D2E/DX2 analytically  !
 ! A8    A(8,9,12)             108.6904         calculate D2E/DX2 analytically  !
 ! A9    A(10,9,11)            111.7188         calculate D2E/DX2 analytically  !
 ! A10   A(10,9,12)            111.5044         calculate D2E/DX2 analytically  !
 ! A11   A(11,9,12)            109.54           calculate D2E/DX2 analytically  !
 ! A12   A(9,10,13)            109.5535         calculate D2E/DX2 analytically  !
 ! A13   A(9,10,14)            110.4018         calculate D2E/DX2 analytically  !
 ! A14   A(9,10,15)            110.6987         calculate D2E/DX2 analytically  !
 ! A15   A(13,10,14)           108.4715         calculate D2E/DX2 analytically  !
 ! A16   A(13,10,15)           108.3907         calculate D2E/DX2 analytically  !
 ! A17   A(14,10,15)           109.2695         calculate D2E/DX2 analytically  !
 ! A18   A(1,11,9)             115.6832         calculate D2E/DX2 analytically  !
 ! A19   L(4,3,5,14,-1)        179.9991         calculate D2E/DX2 analytically  !
 ! A20   L(3,5,6,14,-1)        181.4482         calculate D2E/DX2 analytically  !
 ! A21   L(4,3,5,14,-2)        180.0784         calculate D2E/DX2 analytically  !
 ! A22   L(3,5,6,14,-2)        177.125          calculate D2E/DX2 analytically  !
 ! D1    D(2,1,11,9)            23.0927         calculate D2E/DX2 analytically  !
 ! D2    D(5,6,7,8)            179.6936         calculate D2E/DX2 analytically  !
 ! D3    D(5,6,8,9)            179.3849         calculate D2E/DX2 analytically  !
 ! D4    D(7,6,8,9)             -0.8882         calculate D2E/DX2 analytically  !
 ! D5    D(6,8,9,10)           -79.8164         calculate D2E/DX2 analytically  !
 ! D6    D(6,8,9,11)           159.854          calculate D2E/DX2 analytically  !
 ! D7    D(6,8,9,12)            43.2115         calculate D2E/DX2 analytically  !
 ! D8    D(8,9,10,13)         -175.7796         calculate D2E/DX2 analytically  !
 ! D9    D(8,9,10,14)          -56.3848         calculate D2E/DX2 analytically  !
 ! D10   D(8,9,10,15)           64.7415         calculate D2E/DX2 analytically  !
 ! D11   D(11,9,10,13)         -60.1223         calculate D2E/DX2 analytically  !
 ! D12   D(11,9,10,14)          59.2724         calculate D2E/DX2 analytically  !
 ! D13   D(11,9,10,15)        -179.6013         calculate D2E/DX2 analytically  !
 ! D14   D(12,9,10,13)          62.8272         calculate D2E/DX2 analytically  !
 ! D15   D(12,9,10,14)        -177.7781         calculate D2E/DX2 analytically  !
 ! D16   D(12,9,10,15)         -56.6518         calculate D2E/DX2 analytically  !
 ! D17   D(8,9,11,1)           167.0782         calculate D2E/DX2 analytically  !
 ! D18   D(10,9,11,1)           47.1865         calculate D2E/DX2 analytically  !
 ! D19   D(12,9,11,1)          -76.8739         calculate D2E/DX2 analytically  !
 --------------------------------------------------------------------------------
 Trust Radius=3.00D-01 FncErr=1.00D-07 GrdErr=1.00D-06 EigMax=2.50D+02 EigMin=1.00D-04
 Number of steps in this run=     65 maximum allowed number of steps=    100.
 Search for a saddle point of order  1.
 GradGradGradGradGradGradGradGradGradGradGradGradGradGradGradGradGradGrad

                          Input orientation:                          
 ---------------------------------------------------------------------
 Center     Atomic      Atomic             Coordinates (Angstroms)
 Number     Number       Type             X           Y           Z
 ---------------------------------------------------------------------
      1          8           0       -3.094597   -0.491240   -0.629223
      2          1           0       -2.703557   -1.352847   -0.382514
      3          6           0        2.628382    2.917930   -1.549973
      4          1           0        3.219898    3.769830   -1.791067
      5          6           0        1.962281    1.959928   -1.278392
      6          6           0        1.201435    0.765761   -0.935681
      7          8           0        1.700455   -0.250739   -0.539291
      8          8           0       -0.104707    0.962653   -1.116678
      9          6           0       -0.962022   -0.158834   -0.821986
     10          6           0       -0.969134   -1.154684   -1.965181
     11          1           0       -2.075318    0.351459   -0.652841
     12          1           0       -0.627050   -0.619964    0.107829
     13          1           0       -1.681105   -1.953653   -1.749339
     14          1           0       -1.268903   -0.666000   -2.893410
     15          1           0        0.017692   -1.599215   -2.095077
 ---------------------------------------------------------------------
                    Distance matrix (angstroms):
                    1          2          3          4          5
     1  O    0.000000
     2  H    0.977826   0.000000
     3  C    6.724783   6.930517   0.000000
     4  H    7.705806   7.956956   1.064778   0.000000
     5  C    5.657002   5.791988   1.198004   2.262781   0.000000
     6  C    4.486632   4.476992   2.654310   3.718912   1.456837
     7  O    4.801922   4.542526   3.452968   4.476676   2.345607
     8  O    3.360187   3.557324   3.388308   4.403185   2.300685
     9  C    2.166917   2.156791   4.784082   5.819104   3.639919
    10  C    2.596639   2.356337   5.449835   6.467546   4.331938
    11  H    1.322735   1.836415   5.432901   6.404696   4.390979
    12  H    2.578489   2.255978   5.085552   6.138005   3.909232
    13  H    2.321912   1.809582   6.507207   7.535239   5.367698
    14  H    2.913802   2.972303   5.462436   6.406331   4.465908
    15  H    3.614233   3.224712   5.245707   6.258849   4.137137
                    6          7          8          9         10
     6  C    0.000000
     7  O    1.199757   0.000000
     8  O    1.333243   2.250401   0.000000
     9  C    2.355494   2.679020   1.442070   0.000000
    10  C    3.075606   3.158637   2.439326   1.516134   0.000000
    11  H    3.314930   3.825180   2.114713   1.236300   2.283495
    12  H    2.520418   2.443844   2.068076   1.090598   2.168022
    13  H    4.045528   3.974806   3.374927   2.144397   1.091715
    14  H    3.461967   3.812007   2.676684   2.154574   1.091000
    15  H    2.887656   2.659050   2.745071   2.157614   1.090095
                   11         12         13         14         15
    11  H    0.000000
    12  H    1.902568   0.000000
    13  H    2.582877   2.517704   0.000000
    14  H    2.589533   3.069451   1.771117   0.000000
    15  H    3.204039   2.495480   1.769484   1.778637   0.000000
 Stoichiometry    C5H7O3(2)
 Framework group  C1[X(C5H7O3)]
 Deg. of freedom    39
 Full point group                 C1      NOp   1
 Largest Abelian subgroup         C1      NOp   1
 Largest concise Abelian subgroup C1      NOp   1
                         Standard orientation:                         
 ---------------------------------------------------------------------
 Center     Atomic      Atomic             Coordinates (Angstroms)
 Number     Number       Type             X           Y           Z
 ---------------------------------------------------------------------
      1          8           0       -3.207331   -0.935936   -0.301260
      2          1           0       -3.348491   -0.001055   -0.550690
      3          6           0        3.489499   -0.759420    0.285279
      4          1           0        4.455156   -1.162291    0.482643
      5          6           0        2.402777   -0.306866    0.062918
      6          6           0        1.106623    0.294243   -0.221731
      7          8           0        0.966674    1.416219   -0.622982
      8          8           0        0.117283   -0.566874    0.017476
      9          6           0       -1.219233   -0.078197   -0.215946
     10          6           0       -1.699099    0.771978    0.944051
     11          1           0       -1.896072   -1.105149   -0.341228
     12          1           0       -1.228307    0.481120   -1.152154
     13          1           0       -2.737037    1.066104    0.776670
     14          1           0       -1.645683    0.208105    1.876507
     15          1           0       -1.095991    1.675474    1.034952
 ---------------------------------------------------------------------
 Rotational constants (GHZ):           4.9581747           0.9401819           0.8650456
 Standard basis: 6-31+G (6D, 7F)
 There are   118 symmetry adapted cartesian basis functions of A   symmetry.
 There are   118 symmetry adapted basis functions of A   symmetry.
   118 basis functions,   236 primitive gaussians,   118 cartesian basis functions
    31 alpha electrons       30 beta electrons
       nuclear repulsion energy       351.2334014968 Hartrees.
 NAtoms=   15 NActive=   15 NUniq=   15 SFac= 1.00D+00 NAtFMM=   60 NAOKFM=F Big=F
 Integral buffers will be    131072 words long.
 Raffenetti 2 integral format.
 Two-electron integral symmetry is turned on.
 One-electron integrals computed using PRISM.
 NBasis=   118 RedAO= T EigKep=  1.60D-06  NBF=   118
 NBsUse=   118 1.00D-06 EigRej= -1.00D+00 NBFU=   118
 ExpMin= 4.38D-02 ExpMax= 5.48D+03 ExpMxC= 8.25D+02 IAcc=3 IRadAn=         5 AccDes= 0.00D+00
 Harris functional with IExCor= 1009 and IRadAn=       5 diagonalized for initial guess.
 HarFok:  IExCor= 1009 AccDes= 0.00D+00 IRadAn=         5 IDoV= 1 UseB2=F ITyADJ=14
 ICtDFT=  3500011 ScaDFX=  1.000000  1.000000  1.000000  1.000000
 FoFCou: FMM=F IPFlag=           0 FMFlag=      100000 FMFlg1=           0
         NFxFlg=           0 DoJE=T BraDBF=F KetDBF=T FulRan=T
         wScrn=  0.000000 ICntrl=       500 IOpCl=  0 I1Cent=   200000004 NGrid=           0
         NMat0=    1 NMatS0=      1 NMatT0=    0 NMatD0=    1 NMtDS0=    0 NMtDT0=    0
 Petite list used in FoFCou.
 Initial guess <Sx>= 0.0000 <Sy>= 0.0000 <Sz>= 0.5000 <S**2>= 0.7500 S= 0.5000
 Requested convergence on RMS density matrix=1.00D-08 within 128 cycles.
 Requested convergence on MAX density matrix=1.00D-06.
 Requested convergence on             energy=1.00D-06.
 No special actions if energy rises.
 SCF Done:  E(UM062X) =  -419.920114286     A.U. after   20 cycles
            NFock= 20  Conv=0.42D-08     -V/T= 2.0047
 <Sx>= 0.0000 <Sy>= 0.0000 <Sz>= 0.5000 <S**2>= 0.7574 S= 0.5037
 <L.S>=  0.00000000000    
 Annihilation of the first spin contaminant:
 S**2 before annihilation     0.7574,   after     0.7500
 DoSCS=F DFT=T ScalE2(SS,OS)=  1.000000  1.000000
 Range of M.O.s used for correlation:     1   118
 NBasis=   118 NAE=    31 NBE=    30 NFC=     0 NFV=     0
 NROrb=    118 NOA=    31 NOB=    30 NVA=    87 NVB=    88

 **** Warning!!: The largest alpha MO coefficient is  0.20987745D+03


 **** Warning!!: The largest beta MO coefficient is  0.21722489D+03

 Symmetrizing basis deriv contribution to polar:
 IMax=3 JMax=2 DiffMx= 0.00D+00
 G2DrvN: will do    16 centers at a time, making    1 passes.
 Calling FoFCou, ICntrl=  3107 FMM=F I1Cent=   0 AccDes= 0.00D+00.
 End of G2Drv F.D. properties file   721 does not exist.
 End of G2Drv F.D. properties file   722 does not exist.
 End of G2Drv F.D. properties file   788 does not exist.
          IDoAtm=111111111111111
          Differentiating once with respect to nuclear coordinates.
 Keep R1 and R2 ints in memory in canonical form, NReq=71861356.
          There are    48 degrees of freedom in the 1st order CPHF.  IDoFFX=6 NUNeed=     0.
     42 vectors produced by pass  0 Test12= 1.11D-14 2.08D-09 XBig12= 5.99D-01 1.37D-01.
 AX will form    42 AO Fock derivatives at one time.
     42 vectors produced by pass  1 Test12= 1.11D-14 2.08D-09 XBig12= 4.61D-02 4.47D-02.
     42 vectors produced by pass  2 Test12= 1.11D-14 2.08D-09 XBig12= 1.80D-03 6.06D-03.
     42 vectors produced by pass  3 Test12= 1.11D-14 2.08D-09 XBig12= 1.07D-05 4.76D-04.
     42 vectors produced by pass  4 Test12= 1.11D-14 2.08D-09 XBig12= 5.42D-08 2.93D-05.
     42 vectors produced by pass  5 Test12= 1.11D-14 2.08D-09 XBig12= 3.44D-10 2.32D-06.
     37 vectors produced by pass  6 Test12= 1.11D-14 2.08D-09 XBig12= 2.01D-12 2.03D-07.
     11 vectors produced by pass  7 Test12= 1.11D-14 2.08D-09 XBig12= 1.20D-14 1.31D-08.
      3 vectors produced by pass  8 Test12= 1.11D-14 2.08D-09 XBig12= 6.75D-16 4.31D-09.
 InvSVY:  IOpt=1 It=  1 EMax= 1.78D-15
 Solved reduced A of dimension   303 with    42 vectors.
 End of Minotr F.D. properties file   721 does not exist.
 End of Minotr F.D. properties file   722 does not exist.
 End of Minotr F.D. properties file   788 does not exist.

 **********************************************************************

            Population analysis using the SCF density.

 **********************************************************************

 Orbital symmetries:
 Alpha Orbitals:
       Occupied  (A) (A) (A) (A) (A) (A) (A) (A) (A) (A) (A) (A)
                 (A) (A) (A) (A) (A) (A) (A) (A) (A) (A) (A) (A)
                 (A) (A) (A) (A) (A) (A) (A)
       Virtual   (A) (A) (A) (A) (A) (A) (A) (A) (A) (A) (A) (A)
                 (A) (A) (A) (A) (A) (A) (A) (A) (A) (A) (A) (A)
                 (A) (A) (A) (A) (A) (A) (A) (A) (A) (A) (A) (A)
                 (A) (A) (A) (A) (A) (A) (A) (A) (A) (A) (A) (A)
                 (A) (A) (A) (A) (A) (A) (A) (A) (A) (A) (A) (A)
                 (A) (A) (A) (A) (A) (A) (A) (A) (A) (A) (A) (A)
                 (A) (A) (A) (A) (A) (A) (A) (A) (A) (A) (A) (A)
                 (A) (A) (A)
 Beta  Orbitals:
       Occupied  (A) (A) (A) (A) (A) (A) (A) (A) (A) (A) (A) (A)
                 (A) (A) (A) (A) (A) (A) (A) (A) (A) (A) (A) (A)
                 (A) (A) (A) (A) (A) (A)
       Virtual   (A) (A) (A) (A) (A) (A) (A) (A) (A) (A) (A) (A)
                 (A) (A) (A) (A) (A) (A) (A) (A) (A) (A) (A) (A)
                 (A) (A) (A) (A) (A) (A) (A) (A) (A) (A) (A) (A)
                 (A) (A) (A) (A) (A) (A) (A) (A) (A) (A) (A) (A)
                 (A) (A) (A) (A) (A) (A) (A) (A) (A) (A) (A) (A)
                 (A) (A) (A) (A) (A) (A) (A) (A) (A) (A) (A) (A)
                 (A) (A) (A) (A) (A) (A) (A) (A) (A) (A) (A) (A)
                 (A) (A) (A) (A)
 The electronic state is 2-A.
 Alpha  occ. eigenvalues --  -19.72188 -19.68982 -19.67378 -10.74045 -10.64584
 Alpha  occ. eigenvalues --  -10.59165 -10.58856 -10.56059  -1.29363  -1.19939
 Alpha  occ. eigenvalues --   -1.15909  -0.92112  -0.88596  -0.79993  -0.72580
 Alpha  occ. eigenvalues --   -0.66610  -0.62797  -0.61190  -0.59557  -0.57923
 Alpha  occ. eigenvalues --   -0.55199  -0.51153  -0.48716  -0.47681  -0.45743
 Alpha  occ. eigenvalues --   -0.41962  -0.40831  -0.40047  -0.38034  -0.37253
 Alpha  occ. eigenvalues --   -0.34914
 Alpha virt. eigenvalues --   -0.02445   0.01037   0.02157   0.03141   0.03696
 Alpha virt. eigenvalues --    0.03955   0.04903   0.06082   0.07605   0.07662
 Alpha virt. eigenvalues --    0.08291   0.08439   0.09463   0.11097   0.12344
 Alpha virt. eigenvalues --    0.12612   0.13885   0.15471   0.16192   0.16543
 Alpha virt. eigenvalues --    0.17864   0.18781   0.19330   0.19761   0.22022
 Alpha virt. eigenvalues --    0.22616   0.23237   0.24183   0.25038   0.26092
 Alpha virt. eigenvalues --    0.26986   0.28019   0.29169   0.30283   0.31350
 Alpha virt. eigenvalues --    0.32028   0.32708   0.33674   0.35070   0.35633
 Alpha virt. eigenvalues --    0.36589   0.36875   0.39037   0.41224   0.43245
 Alpha virt. eigenvalues --    0.47359   0.57592   0.60216   0.68786   0.69834
 Alpha virt. eigenvalues --    0.72025   0.73307   0.73823   0.74760   0.76249
 Alpha virt. eigenvalues --    0.78693   0.82926   0.85341   0.86559   0.89750
 Alpha virt. eigenvalues --    0.92082   0.95789   1.01273   1.07167   1.08550
 Alpha virt. eigenvalues --    1.09047   1.11296   1.14869   1.17159   1.20159
 Alpha virt. eigenvalues --    1.22235   1.24324   1.27981   1.31606   1.33315
 Alpha virt. eigenvalues --    1.36381   1.37260   1.41871   1.43895   1.44854
 Alpha virt. eigenvalues --    1.47953   1.62219   1.69022   1.75941   1.81283
 Alpha virt. eigenvalues --    1.99491   2.04533
  Beta  occ. eigenvalues --  -19.72117 -19.67583 -19.67377 -10.74013 -10.64100
  Beta  occ. eigenvalues --  -10.59162 -10.58853 -10.56079  -1.29197  -1.19755
  Beta  occ. eigenvalues --   -1.11074  -0.91528  -0.88127  -0.79657  -0.71482
  Beta  occ. eigenvalues --   -0.66051  -0.61955  -0.59489  -0.58135  -0.57378
  Beta  occ. eigenvalues --   -0.53444  -0.50719  -0.47614  -0.46625  -0.42814
  Beta  occ. eigenvalues --   -0.40516  -0.40256  -0.38227  -0.38018  -0.37165
  Beta virt. eigenvalues --   -0.09638  -0.02373   0.01330   0.02162   0.03213
  Beta virt. eigenvalues --    0.03763   0.04074   0.04986   0.06156   0.07647
  Beta virt. eigenvalues --    0.07738   0.08355   0.08537   0.09591   0.11213
  Beta virt. eigenvalues --    0.12425   0.12687   0.14035   0.15501   0.16304
  Beta virt. eigenvalues --    0.16655   0.17916   0.18921   0.19407   0.19979
  Beta virt. eigenvalues --    0.22039   0.22859   0.22992   0.24388   0.24928
  Beta virt. eigenvalues --    0.26266   0.27204   0.28667   0.29273   0.30331
  Beta virt. eigenvalues --    0.31460   0.32519   0.32825   0.33915   0.35131
  Beta virt. eigenvalues --    0.35859   0.36745   0.37209   0.39125   0.41341
  Beta virt. eigenvalues --    0.43395   0.47407   0.57645   0.60318   0.68939
  Beta virt. eigenvalues --    0.70009   0.72261   0.73492   0.73942   0.75167
  Beta virt. eigenvalues --    0.76446   0.79094   0.83836   0.85564   0.87286
  Beta virt. eigenvalues --    0.90830   0.92253   0.95811   1.01383   1.07355
  Beta virt. eigenvalues --    1.08831   1.09260   1.11631   1.15135   1.17561
  Beta virt. eigenvalues --    1.20502   1.22724   1.24780   1.28950   1.31691
  Beta virt. eigenvalues --    1.34426   1.36886   1.37865   1.43785   1.44052
  Beta virt. eigenvalues --    1.45021   1.47965   1.62314   1.69532   1.76872
  Beta virt. eigenvalues --    1.82642   1.99559   2.04629
          Condensed to atoms (all electrons):
               1          2          3          4          5          6
     1  O    8.380271   0.149093   0.003175   0.000000   0.006653  -0.025282
     2  H    0.149093   0.453657  -0.000230   0.000000  -0.001962   0.005500
     3  C    0.003175  -0.000230  23.386852   0.751288  -4.163521 -13.072668
     4  H    0.000000   0.000000   0.751288   0.334486  -0.328814  -0.103631
     5  C    0.006653  -0.001962  -4.163521  -0.328814  17.393844  -4.995103
     6  C   -0.025282   0.005500 -13.072668  -0.103631  -4.995103  22.712072
     7  O    0.000177   0.000197   0.000028  -0.000435   0.239266  -0.137113
     8  O    0.013740   0.005466  -0.866273  -0.000862  -1.533482   1.633117
     9  C   -0.031495   0.044078  -0.218341  -0.000242  -0.803962   0.494771
    10  C   -0.063484  -0.017141  -0.077699  -0.000181  -0.115285   0.091989
    11  H    0.015317  -0.022554   0.002836   0.000000  -0.008048  -0.001133
    12  H    0.002678  -0.005452   0.009393  -0.000000   0.063114  -0.038124
    13  H   -0.016444   0.013513   0.000312   0.000000   0.003859   0.002312
    14  H    0.002425  -0.000412   0.003068  -0.000000   0.014221  -0.000207
    15  H    0.002217  -0.000068   0.000552   0.000000  -0.017148   0.004824
               7          8          9         10         11         12
     1  O    0.000177   0.013740  -0.031495  -0.063484   0.015317   0.002678
     2  H    0.000197   0.005466   0.044078  -0.017141  -0.022554  -0.005452
     3  C    0.000028  -0.866273  -0.218341  -0.077699   0.002836   0.009393
     4  H   -0.000435  -0.000862  -0.000242  -0.000181   0.000000  -0.000000
     5  C    0.239266  -1.533482  -0.803962  -0.115285  -0.008048   0.063114
     6  C   -0.137113   1.633117   0.494771   0.091989  -0.001133  -0.038124
     7  O    8.520789  -0.244543  -0.007541  -0.031519  -0.000014   0.000202
     8  O   -0.244543   9.181623   0.153548  -0.037535  -0.054153  -0.036028
     9  C   -0.007541   0.153548   6.601068  -0.326802   0.377007   0.333355
    10  C   -0.031519  -0.037535  -0.326802   5.989134  -0.058299  -0.053972
    11  H   -0.000014  -0.054153   0.377007  -0.058299   0.410817  -0.024224
    12  H    0.000202  -0.036028   0.333355  -0.053972  -0.024224   0.497169
    13  H   -0.000369   0.007945  -0.078482   0.402691   0.001080  -0.000941
    14  H   -0.000539  -0.002113  -0.066716   0.397823  -0.003674   0.003431
    15  H    0.001210  -0.008503  -0.023038   0.378268   0.002101  -0.003694
              13         14         15
     1  O   -0.016444   0.002425   0.002217
     2  H    0.013513  -0.000412  -0.000068
     3  C    0.000312   0.003068   0.000552
     4  H    0.000000  -0.000000   0.000000
     5  C    0.003859   0.014221  -0.017148
     6  C    0.002312  -0.000207   0.004824
     7  O   -0.000369  -0.000539   0.001210
     8  O    0.007945  -0.002113  -0.008503
     9  C   -0.078482  -0.066716  -0.023038
    10  C    0.402691   0.397823   0.378268
    11  H    0.001080  -0.003674   0.002101
    12  H   -0.000941   0.003431  -0.003694
    13  H    0.538971  -0.023564  -0.024074
    14  H   -0.023564   0.456894  -0.025677
    15  H   -0.024074  -0.025677   0.472291
          Atomic-Atomic Spin Densities.
               1          2          3          4          5          6
     1  O    0.887656   0.003068   0.002307   0.000000   0.004619  -0.034334
     2  H    0.003068  -0.031396  -0.000051  -0.000000  -0.000328   0.001298
     3  C    0.002307  -0.000051   0.186353   0.005349  -0.171512  -0.061621
     4  H    0.000000  -0.000000   0.005349   0.000433  -0.005055  -0.000782
     5  C    0.004619  -0.000328  -0.171512  -0.005055   0.033126   0.088208
     6  C   -0.034334   0.001298  -0.061621  -0.000782   0.088208   0.141669
     7  O    0.000657  -0.000048   0.004250   0.000010  -0.003185  -0.005281
     8  O    0.024918  -0.001069   0.016740  -0.000008   0.024861  -0.106517
     9  C   -0.099472  -0.003841   0.031340   0.000077   0.034742  -0.049763
    10  C   -0.010257   0.004639  -0.003203  -0.000003  -0.006367   0.016074
    11  H   -0.094469   0.003503  -0.002787  -0.000000   0.001135   0.032707
    12  H    0.002047   0.000351   0.000544   0.000000  -0.004004  -0.008954
    13  H    0.001048  -0.000045  -0.000029   0.000000  -0.000203  -0.000257
    14  H    0.001876  -0.000109   0.000669   0.000000   0.000648  -0.005771
    15  H   -0.001114   0.000021  -0.001392  -0.000000  -0.000955   0.011763
               7          8          9         10         11         12
     1  O    0.000657   0.024918  -0.099472  -0.010257  -0.094469   0.002047
     2  H   -0.000048  -0.001069  -0.003841   0.004639   0.003503   0.000351
     3  C    0.004250   0.016740   0.031340  -0.003203  -0.002787   0.000544
     4  H    0.000010  -0.000008   0.000077  -0.000003  -0.000000   0.000000
     5  C   -0.003185   0.024861   0.034742  -0.006367   0.001135  -0.004004
     6  C   -0.005281  -0.106517  -0.049763   0.016074   0.032707  -0.008954
     7  O   -0.002943   0.005477   0.005260  -0.002129  -0.000574   0.001115
     8  O    0.005477   0.125823  -0.068438  -0.005819  -0.022476   0.005527
     9  C    0.005260  -0.068438   0.471753  -0.009195   0.049419   0.008385
    10  C   -0.002129  -0.005819  -0.009195  -0.024054   0.016057  -0.003297
    11  H   -0.000574  -0.022476   0.049419   0.016057  -0.011381   0.002655
    12  H    0.001115   0.005527   0.008385  -0.003297   0.002655  -0.016760
    13  H    0.000033   0.000489   0.000048  -0.000517  -0.000711   0.000088
    14  H    0.000170   0.001575   0.001587   0.000649  -0.000511  -0.000047
    15  H   -0.000818  -0.002853  -0.014339   0.011165   0.000202  -0.000108
              13         14         15
     1  O    0.001048   0.001876  -0.001114
     2  H   -0.000045  -0.000109   0.000021
     3  C   -0.000029   0.000669  -0.001392
     4  H    0.000000   0.000000  -0.000000
     5  C   -0.000203   0.000648  -0.000955
     6  C   -0.000257  -0.005771   0.011763
     7  O    0.000033   0.000170  -0.000818
     8  O    0.000489   0.001575  -0.002853
     9  C    0.000048   0.001587  -0.014339
    10  C   -0.000517   0.000649   0.011165
    11  H   -0.000711  -0.000511   0.000202
    12  H    0.000088  -0.000047  -0.000108
    13  H    0.001154   0.000197  -0.000664
    14  H    0.000197   0.004447  -0.001089
    15  H   -0.000664  -0.001089   0.007714
 Mulliken charges and spin densities:
               1          2
     1  O   -0.439040   0.688551
     2  H    0.376315  -0.024005
     3  C    0.241227   0.006958
     4  H    0.348391   0.000021
     5  C    0.246366  -0.004271
     6  C   -0.571325   0.018439
     7  O   -0.339796   0.001995
     8  O   -0.211948  -0.001768
     9  C   -0.447208   0.357564
    10  C   -0.477988  -0.016257
    11  H    0.362942  -0.027232
    12  H    0.253093  -0.012455
    13  H    0.173191   0.000633
    14  H    0.245042   0.004292
    15  H    0.240737   0.007535
 Sum of Mulliken charges =  -0.00000   1.00000
 Mulliken charges and spin densities with hydrogens summed into heavy atoms:
               1          2
     1  O   -0.062726   0.664546
     3  C    0.589619   0.006979
     5  C    0.246366  -0.004271
     6  C   -0.571325   0.018439
     7  O   -0.339796   0.001995
     8  O   -0.211948  -0.001768
     9  C    0.168827   0.317877
    10  C    0.180982  -0.003797
 APT charges:
               1
     1  O   -0.738435
     2  H    0.484742
     3  C    0.904367
     4  H    1.164760
     5  C   -1.859045
     6  C   -0.019257
     7  O   -0.392636
     8  O    0.018367
     9  C   -0.540601
    10  C   -1.341279
    11  H    0.525766
    12  H    0.445302
    13  H    0.550121
    14  H    0.432001
    15  H    0.365826
 Sum of APT charges =  -0.00000
 APT charges with hydrogens summed into heavy atoms:
               1
     1  O   -0.253693
     3  C    2.069127
     5  C   -1.859045
     6  C   -0.019257
     7  O   -0.392636
     8  O    0.018367
     9  C    0.430467
    10  C    0.006669
 Electronic spatial extent (au):  <R**2>=           1308.4953
 Charge=             -0.0000 electrons
 Dipole moment (field-independent basis, Debye):
    X=              0.6822    Y=              0.4395    Z=              0.4906  Tot=              0.9483
 Quadrupole moment (field-independent basis, Debye-Ang):
   XX=            -40.0120   YY=            -54.4814   ZZ=            -47.9965
   XY=            -12.7608   XZ=              3.2284   YZ=              1.2233
 Traceless Quadrupole moment (field-independent basis, Debye-Ang):
   XX=              7.4846   YY=             -6.9848   ZZ=             -0.4998
   XY=            -12.7608   XZ=              3.2284   YZ=              1.2233
 Octapole moment (field-independent basis, Debye-Ang**2):
  XXX=             53.2382  YYY=             -3.8145  ZZZ=             -2.4481  XYY=             -0.2298
  XXY=              5.0834  XXZ=              4.7102  XZZ=             -6.9383  YZZ=              0.4871
  YYZ=              3.8281  XYZ=              2.2557
 Hexadecapole moment (field-independent basis, Debye-Ang**3):
 XXXX=          -1112.4644 YYYY=           -242.6603 ZZZZ=           -127.6140 XXXY=           -179.1743
 XXXZ=             57.8269 YYYX=             -3.3877 YYYZ=              2.9767 ZZZX=             -1.5040
 ZZZY=             -3.2033 XXYY=           -278.9028 XXZZ=           -256.7858 YYZZ=            -63.5484
 XXYZ=            -19.5424 YYXZ=              3.7321 ZZXY=             -0.1866
 N-N= 3.512334014968D+02 E-N=-1.684647928529D+03  KE= 4.179373107360D+02
  Exact polarizability:   0.000   0.000   0.000   0.000   0.000   0.000
 Approx polarizability: 103.802  -8.719  75.419   7.532  -9.869  50.286
                          Isotropic Fermi Contact Couplings
        Atom                 a.u.       MegaHertz       Gauss      10(-4) cm-1
     1  O(17)              0.13610     -82.50042     -29.43820     -27.51918
     2  H(1)              -0.01229     -54.92371     -19.59814     -18.32058
     3  C(13)              0.00076       0.85723       0.30588       0.28594
     4  H(1)              -0.00000      -0.01356      -0.00484      -0.00452
     5  C(13)              0.00309       3.47056       1.23838       1.15765
     6  C(13)              0.01897      21.32687       7.60996       7.11388
     7  O(17)              0.00039      -0.23391      -0.08347      -0.07803
     8  O(17)              0.08659     -52.48748     -18.72884     -17.50794
     9  C(13)              0.22869     257.09055      91.73630      85.75618
    10  C(13)             -0.01155     -12.98107      -4.63197      -4.33002
    11  H(1)              -0.01273     -56.90643     -20.30563     -18.98194
    12  H(1)              -0.00341     -15.24278      -5.43900      -5.08444
    13  H(1)               0.00004       0.17937       0.06401       0.05983
    14  H(1)               0.00245      10.94886       3.90683       3.65215
    15  H(1)               0.00418      18.67759       6.66463       6.23017
 --------------------------------------------------------
       Center         ----  Spin Dipole Couplings  ----
                      3XX-RR        3YY-RR        3ZZ-RR
 --------------------------------------------------------
     1   Atom        2.574062     -1.259678     -1.314384
     2   Atom       -0.030846      0.111716     -0.080870
     3   Atom        0.000687      0.000012     -0.000699
     4   Atom        0.001088     -0.000513     -0.000575
     5   Atom        0.005361     -0.002407     -0.002954
     6   Atom        0.018033     -0.005040     -0.012993
     7   Atom        0.003768     -0.003321     -0.000448
     8   Atom        0.034644     -0.018615     -0.016029
     9   Atom       -0.046272      0.243040     -0.196768
    10   Atom       -0.005463      0.009809     -0.004346
    11   Atom        0.119401     -0.019845     -0.099556
    12   Atom       -0.016046      0.003191      0.012854
    13   Atom       -0.005987      0.010399     -0.004412
    14   Atom       -0.003600     -0.005466      0.009065
    15   Atom       -0.002525      0.003872     -0.001347
 --------------------------------------------------------
                        XY            XZ            YZ
 --------------------------------------------------------
     1   Atom        0.535892     -0.061600     -0.011420
     2   Atom       -0.028836      0.010094     -0.055408
     3   Atom       -0.000143      0.000278     -0.001950
     4   Atom       -0.000240      0.000192     -0.000093
     5   Atom       -0.001706      0.000947      0.000219
     6   Atom        0.018165     -0.008404     -0.005254
     7   Atom        0.004015     -0.010520     -0.002651
     8   Atom        0.077696      0.033537      0.028860
     9   Atom        0.262319      0.010013      0.019700
    10   Atom        0.005657      0.002661      0.008424
    11   Atom        0.048335      0.005534      0.012460
    12   Atom        0.011535     -0.001854     -0.025292
    13   Atom        0.000044     -0.001603      0.011575
    14   Atom        0.002145      0.002589      0.006713
    15   Atom        0.002446      0.001402      0.005996
 --------------------------------------------------------


 ---------------------------------------------------------------------------------
              Anisotropic Spin Dipole Couplings in Principal Axis System
 ---------------------------------------------------------------------------------

       Atom             a.u.   MegaHertz   Gauss  10(-4) cm-1        Axes

              Baa    -1.3337    96.502    34.434    32.190 -0.1317  0.9785  0.1590
     1 O(17)  Bbb    -1.3149    95.145    33.950    31.737  0.0370 -0.1554  0.9872
              Bcc     2.6486  -191.647   -68.384   -63.927  0.9906  0.1359 -0.0158
 
              Baa    -0.0958   -51.094   -18.231   -17.043 -0.0380  0.2529  0.9667
     2 H(1)   Bbb    -0.0365   -19.448    -6.940    -6.487  0.9823  0.1873 -0.0104
              Bcc     0.1322    70.542    25.171    23.530 -0.1837  0.9492 -0.2555
 
              Baa    -0.0023    -0.313    -0.112    -0.104 -0.0408  0.6377  0.7692
     3 C(13)  Bbb     0.0006     0.082     0.029     0.027  0.9621  0.2327 -0.1419
              Bcc     0.0017     0.231     0.082     0.077 -0.2695  0.7343 -0.6231
 
              Baa    -0.0006    -0.343    -0.122    -0.114 -0.0125  0.5684  0.8227
     4 H(1)   Bbb    -0.0005    -0.269    -0.096    -0.090  0.1888  0.8093 -0.5562
              Bcc     0.0011     0.612     0.218     0.204  0.9819 -0.1484  0.1174
 
              Baa    -0.0033    -0.447    -0.160    -0.149 -0.1967 -0.5532  0.8095
     5 C(13)  Bbb    -0.0025    -0.332    -0.118    -0.111  0.1062  0.8087  0.5785
              Bcc     0.0058     0.779     0.278     0.260  0.9747 -0.1998  0.1004
 
              Baa    -0.0157    -2.106    -0.752    -0.703 -0.1523  0.6336  0.7585
     6 C(13)  Bbb    -0.0146    -1.957    -0.698    -0.653 -0.4992  0.6131 -0.6123
              Bcc     0.0303     4.063     1.450     1.355  0.8530  0.4719 -0.2230
 
              Baa    -0.0091     0.660     0.235     0.220  0.6481 -0.1039  0.7544
     7 O(17)  Bbb    -0.0046     0.334     0.119     0.111 -0.1410  0.9571  0.2530
              Bcc     0.0137    -0.994    -0.355    -0.331  0.7484  0.2703 -0.6057
 
              Baa    -0.0745     5.388     1.923     1.797 -0.5605  0.8238 -0.0852
     8 O(17)  Bbb    -0.0316     2.287     0.816     0.763 -0.3269 -0.1256  0.9367
              Bcc     0.1061    -7.675    -2.738    -2.560  0.7609  0.5528  0.3397
 
              Baa    -0.2017   -27.060    -9.656    -9.026  0.8085 -0.4913  0.3239
     9 C(13)  Bbb    -0.1971   -26.450    -9.438    -8.823 -0.2969  0.1347  0.9454
              Bcc     0.3988    53.510    19.094    17.849  0.5081  0.8605  0.0370
 
              Baa    -0.0083    -1.110    -0.396    -0.370 -0.0223 -0.4165  0.9089
    10 C(13)  Bbb    -0.0073    -0.982    -0.350    -0.328  0.9584 -0.2677 -0.0992
              Bcc     0.0156     2.092     0.746     0.698  0.2846  0.8688  0.4051
 
              Baa    -0.1015   -54.142   -19.319   -18.060  0.0095 -0.1564  0.9877
    11 H(1)   Bbb    -0.0334   -17.824    -6.360    -5.945 -0.3031  0.9408  0.1519
              Bcc     0.1349    71.966    25.679    24.005  0.9529  0.3008  0.0385
 
              Baa    -0.0252   -13.472    -4.807    -4.494  0.6947 -0.6144 -0.3740
    12 H(1)   Bbb    -0.0101    -5.367    -1.915    -1.790  0.6984  0.4517  0.5552
              Bcc     0.0353    18.838     6.722     6.284 -0.1721 -0.6469  0.7429
 
              Baa    -0.0111    -5.946    -2.122    -1.983  0.2676 -0.4565  0.8485
    13 H(1)   Bbb    -0.0056    -2.996    -1.069    -0.999  0.9630  0.1561 -0.2197
              Bcc     0.0168     8.941     3.191     2.983 -0.0322  0.8759  0.4814
 
              Baa    -0.0084    -4.457    -1.591    -1.487 -0.2408  0.9171 -0.3176
    14 H(1)   Bbb    -0.0040    -2.124    -0.758    -0.708  0.9503  0.1564 -0.2691
              Bcc     0.0123     6.581     2.348     2.195  0.1971  0.3667  0.9092
 
              Baa    -0.0053    -2.822    -1.007    -0.941  0.0776 -0.5604  0.8246
    15 H(1)   Bbb    -0.0032    -1.723    -0.615    -0.575  0.9659 -0.1626 -0.2014
              Bcc     0.0085     4.545     1.622     1.516  0.2470  0.8121  0.5287
 

 ---------------------------------------------------------------------------------

 Calling FoFJK, ICntrl=    100147 FMM=F ISym2X=0 I1Cent= 0 IOpClX= 1 NMat=1 NMatS=1 NMatT=0.
 ***** Axes restored to original set *****
 -------------------------------------------------------------------
 Center     Atomic                   Forces (Hartrees/Bohr)
 Number     Number              X              Y              Z
 -------------------------------------------------------------------
      1        8          -0.047808335    0.004895504    0.008283502
      2        1          -0.004889692   -0.004033602    0.005963200
      3        6           0.011285185    0.016852041   -0.004820435
      4        1           0.000668647    0.000685274   -0.000169855
      5        6          -0.014838329   -0.021233423    0.006030219
      6        6           0.018715847    0.051445203   -0.014873626
      7        8           0.015873646   -0.043602069    0.016439821
      8        8          -0.022061575    0.004297252   -0.004166619
      9        6           0.013803081    0.005671678   -0.004995219
     10        6           0.002624135    0.000628432   -0.001332598
     11        1           0.022775023   -0.015574771   -0.003579081
     12        1          -0.002271131    0.001980731    0.004173172
     13        1           0.004739017   -0.002200797   -0.006249428
     14        1          -0.001631095   -0.000167935   -0.000381683
     15        1           0.003015576    0.000356480   -0.000321370
 -------------------------------------------------------------------
 Cartesian Forces:  Max     0.051445203 RMS     0.015561149
 FormGI is forming the generalized inverse of G from B-inverse, IUseBI=4.

 GradGradGradGradGradGradGradGradGradGradGradGradGradGradGradGradGradGrad
 Berny optimization.
 Internal  Forces:  Max     0.100537290 RMS     0.018190609
 Search for a saddle point.
 Step number   1 out of a maximum of   65
 All quantities printed in internal units (Hartrees-Bohrs-Radians)
 Swapping is turned off.
 Second derivative matrix not updated -- analytic derivatives used.
 ITU=  0
     Eigenvalues ---   -0.05758  -0.00470  -0.00407   0.00243   0.00555
     Eigenvalues ---    0.01949   0.02415   0.03529   0.04235   0.04662
     Eigenvalues ---    0.04887   0.05878   0.06171   0.07816   0.08522
     Eigenvalues ---    0.10245   0.10631   0.12305   0.13422   0.13680
     Eigenvalues ---    0.16525   0.18989   0.20323   0.22098   0.24383
     Eigenvalues ---    0.27620   0.31804   0.35216   0.35409   0.35649
     Eigenvalues ---    0.36047   0.38746   0.40979   0.42391   0.49030
     Eigenvalues ---    0.55781   0.68094   0.98514   1.20601
 Eigenvectors required to have negative eigenvalues:
                          R2        R10       A18       D18       A9
   1                   -0.80302   0.53267   0.13132  -0.09093  -0.08764
                          D17       D5        D14       D15       D19
   1                   -0.06629  -0.06075  -0.05681  -0.05404  -0.05228
 RFO step:  Lambda0=2.407530645D-03 Lambda=-3.25166394D-02.
 Linear search not attempted -- option 19 set.
 Maximum step size (   0.300) exceeded in Quadratic search.
    -- Step size scaled by   0.698
 Iteration  1 RMS(Cart)=  0.14507699 RMS(Int)=  0.03425330
 Iteration  2 RMS(Cart)=  0.07992695 RMS(Int)=  0.00669982
 Iteration  3 RMS(Cart)=  0.00756519 RMS(Int)=  0.00021129
 Iteration  4 RMS(Cart)=  0.00007083 RMS(Int)=  0.00020776
 Iteration  5 RMS(Cart)=  0.00000001 RMS(Int)=  0.00020776
 Variable       Old X    -DE/DX   Delta X   Delta X   Delta X     New X
                                 (Linear)    (Quad)   (Total)
    R1        1.84782   0.00310   0.00000  -0.00001  -0.00001   1.84782
    R2        2.49961   0.04031   0.00000  -0.05641  -0.05641   2.44320
    R3        2.01214   0.00096   0.00000   0.00196   0.00196   2.01410
    R4        2.26390   0.02180   0.00000   0.01213   0.01213   2.27603
    R5        2.75302  -0.00478   0.00000  -0.02103  -0.02103   2.73199
    R6        2.26721   0.04898   0.00000   0.03302   0.03302   2.30023
    R7        2.51946   0.03080   0.00000   0.03868   0.03868   2.55814
    R8        2.72512   0.01262   0.00000   0.00659   0.00659   2.73171
    R9        2.86508   0.00712   0.00000  -0.01241  -0.01241   2.85267
   R10        2.33627   0.02233   0.00000   0.01517   0.01517   2.35143
   R11        2.06093   0.00202   0.00000   0.00459   0.00459   2.06552
   R12        2.06304  -0.00272   0.00000   0.00970   0.00970   2.07274
   R13        2.06169   0.00070   0.00000  -0.00075  -0.00075   2.06094
   R14        2.05998   0.00262   0.00000   0.00515   0.00515   2.06513
    A1        1.83145   0.01079   0.00000   0.02341   0.02341   1.85485
    A2        2.15915   0.00422   0.00000   0.01723   0.01722   2.17637
    A3        1.93762   0.00283   0.00000   0.00728   0.00728   1.94490
    A4        2.18640  -0.00705   0.00000  -0.02450  -0.02450   2.16191
    A5        2.02620   0.01256   0.00000   0.01923   0.01923   2.04544
    A6        1.93855  -0.00998   0.00000   0.00572   0.00568   1.94423
    A7        1.81555  -0.01003   0.00000  -0.02330  -0.02353   1.79201
    A8        1.89701   0.00249   0.00000   0.02455   0.02396   1.92097
    A9        1.94986   0.02215   0.00000   0.03769   0.03783   1.98769
   A10        1.94612   0.00268   0.00000   0.00688   0.00696   1.95308
   A11        1.91183  -0.00859   0.00000  -0.05430  -0.05421   1.85762
   A12        1.91207   0.01154   0.00000   0.02463   0.02433   1.93640
   A13        1.92687  -0.00125   0.00000   0.01420   0.01391   1.94079
   A14        1.93206  -0.00349   0.00000  -0.01764  -0.01755   1.91450
   A15        1.89318  -0.00399   0.00000   0.01171   0.01110   1.90429
   A16        1.89177  -0.00361   0.00000  -0.04125  -0.04117   1.85060
   A17        1.90711   0.00073   0.00000   0.00789   0.00798   1.91509
   A18        2.01905   0.10054   0.00000   0.26232   0.26232   2.28138
   A19        3.14158   0.00022   0.00000   0.00149   0.00149   3.14307
   A20        3.16687  -0.00007   0.00000  -0.00179  -0.00179   3.16508
   A21        3.14296  -0.00012   0.00000  -0.00069  -0.00069   3.14227
   A22        3.09141   0.00007   0.00000   0.00355   0.00355   3.09497
    D1        0.40304   0.01010   0.00000  -0.25217  -0.25217   0.15087
    D2        3.13624   0.00000   0.00000   0.00218   0.00218   3.13843
    D3        3.13086   0.00011   0.00000   0.00942   0.00943   3.14029
    D4       -0.01550   0.00012   0.00000   0.01141   0.01140  -0.00410
    D5       -1.39306   0.00475   0.00000  -0.01023  -0.01046  -1.40352
    D6        2.78998  -0.01051   0.00000  -0.04418  -0.04428   2.74569
    D7        0.75418   0.00328   0.00000   0.01883   0.01917   0.77335
    D8       -3.06793  -0.00022   0.00000  -0.11723  -0.11747   3.09778
    D9       -0.98410   0.00132   0.00000  -0.07859  -0.07847  -1.06257
   D10        1.12995  -0.00091   0.00000  -0.07089  -0.07096   1.05899
   D11       -1.04933  -0.00522   0.00000  -0.11925  -0.11940  -1.16873
   D12        1.03450  -0.00368   0.00000  -0.08061  -0.08040   0.95410
   D13       -3.13463  -0.00591   0.00000  -0.07291  -0.07289   3.07567
   D14        1.09654   0.00169   0.00000  -0.15735  -0.15750   0.93904
   D15       -3.10281   0.00323   0.00000  -0.11871  -0.11850   3.06187
   D16       -0.98876   0.00100   0.00000  -0.11102  -0.11099  -1.09975
   D17        2.91607   0.00719   0.00000  -0.25582  -0.25645   2.65962
   D18        0.82356   0.01370   0.00000  -0.26809  -0.26823   0.55533
   D19       -1.34170   0.00100   0.00000  -0.26408  -0.26332  -1.60502
         Item               Value     Threshold  Converged?
 Maximum Force            0.100537     0.000015     NO 
 RMS     Force            0.018191     0.000010     NO 
 Maximum Displacement     0.814247     0.000060     NO 
 RMS     Displacement     0.212659     0.000040     NO 
 Predicted change in Energy=-1.750097D-02
 GradGradGradGradGradGradGradGradGradGradGradGradGradGradGradGradGradGrad

                          Input orientation:                          
 ---------------------------------------------------------------------
 Center     Atomic      Atomic             Coordinates (Angstroms)
 Number     Number       Type             X           Y           Z
 ---------------------------------------------------------------------
      1          8           0       -3.189124   -0.207116   -0.592088
      2          1           0       -3.091967   -1.154597   -0.813395
      3          6           0        2.581816    2.976137   -1.570801
      4          1           0        3.128954    3.857385   -1.815750
      5          6           0        1.964191    1.980342   -1.292298
      6          6           0        1.269502    0.759341   -0.950776
      7          8           0        1.812472   -0.271044   -0.597029
      8          8           0       -0.071275    0.903132   -1.069830
      9          6           0       -0.889299   -0.247411   -0.758832
     10          6           0       -0.934931   -1.218948   -1.913315
     11          1           0       -1.990208    0.265474   -0.488100
     12          1           0       -0.535031   -0.722104    0.159792
     13          1           0       -1.520645   -2.109239   -1.653701
     14          1           0       -1.364801   -0.755467   -2.802030
     15          1           0        0.074093   -1.575501   -2.134670
 ---------------------------------------------------------------------
                    Distance matrix (angstroms):
                    1          2          3          4          5
     1  O    0.000000
     2  H    0.977823   0.000000
     3  C    6.662936   7.058926   0.000000
     4  H    7.611545   8.051369   1.065813   0.000000
     5  C    5.641978   5.968410   1.204422   2.270235   0.000000
     6  C    4.576248   4.764919   2.649676   3.715322   1.445708
     7  O    5.002007   4.988086   3.476249   4.501370   2.361177
     8  O    3.343930   3.663959   3.403999   4.418763   2.313653
     9  C    2.306213   2.382795   4.806162   5.840615   3.659218
    10  C    2.801934   2.422142   5.484848   6.503371   4.361883
    11  H    1.292886   1.826552   5.424328   6.392988   4.384607
    12  H    2.806197   2.769849   5.136796   6.188640   3.957005
    13  H    2.743887   2.021511   6.534379   7.566084   5.385105
    14  H    2.917651   2.664034   5.569253   6.514981   4.565756
    15  H    3.860132   3.456424   5.227239   6.241004   4.114131
                    6          7          8          9         10
     6  C    0.000000
     7  O    1.217229   0.000000
     8  O    1.353711   2.269523   0.000000
     9  C    2.389731   2.706715   1.445557   0.000000
    10  C    3.114424   3.190510   2.441433   1.509569   0.000000
    11  H    3.329217   3.841886   2.104120   1.244325   2.312651
    12  H    2.585417   2.507390   2.090079   1.093028   2.168997
    13  H    4.062976   3.950340   3.393517   2.160044   1.096849
    14  H    3.558278   3.897661   2.724827   2.158444   1.090604
    15  H    2.877863   2.662313   2.701599   2.141232   1.092820
                   11         12         13         14         15
    11  H    0.000000
    12  H    1.874196   0.000000
    13  H    2.686703   2.486832   0.000000
    14  H    2.605327   3.076040   1.782034   0.000000
    15  H    3.218962   2.522672   1.749113   1.785565   0.000000
 Stoichiometry    C5H7O3(2)
 Framework group  C1[X(C5H7O3)]
 Deg. of freedom    39
 Full point group                 C1      NOp   1
 Largest Abelian subgroup         C1      NOp   1
 Largest concise Abelian subgroup C1      NOp   1
                         Standard orientation:                         
 ---------------------------------------------------------------------
 Center     Atomic      Atomic             Coordinates (Angstroms)
 Number     Number       Type             X           Y           Z
 ---------------------------------------------------------------------
      1          8           0       -3.190234   -1.156417   -0.268753
      2          1           0       -3.580212   -0.283431   -0.063932
      3          6           0        3.440934   -0.898644    0.327807
      4          1           0        4.375173   -1.364936    0.541647
      5          6           0        2.385704   -0.371498    0.084416
      6          6           0        1.145476    0.306844   -0.218501
      7          8           0        1.062706    1.453066   -0.619713
      8          8           0        0.077066   -0.496060   -0.003145
      9          6           0       -1.231010    0.060159   -0.266185
     10          6           0       -1.703283    0.922459    0.879326
     11          1           0       -1.926592   -0.954513   -0.453139
     12          1           0       -1.222341    0.607721   -1.212128
     13          1           0       -2.676033    1.376159    0.653512
     14          1           0       -1.784155    0.344580    1.800701
     15          1           0       -1.009070    1.753778    1.025044
 ---------------------------------------------------------------------
 Rotational constants (GHZ):           4.3558020           0.9451980           0.8440853
 Standard basis: 6-31+G (6D, 7F)
 There are   118 symmetry adapted cartesian basis functions of A   symmetry.
 There are   118 symmetry adapted basis functions of A   symmetry.
   118 basis functions,   236 primitive gaussians,   118 cartesian basis functions
    31 alpha electrons       30 beta electrons
       nuclear repulsion energy       347.0251111626 Hartrees.
 NAtoms=   15 NActive=   15 NUniq=   15 SFac= 1.00D+00 NAtFMM=   60 NAOKFM=F Big=F
 Integral buffers will be    131072 words long.
 Raffenetti 2 integral format.
 Two-electron integral symmetry is turned on.
 One-electron integrals computed using PRISM.
 NBasis=   118 RedAO= T EigKep=  1.64D-06  NBF=   118
 NBsUse=   118 1.00D-06 EigRej= -1.00D+00 NBFU=   118
 Initial guess from the checkpoint file:  "ethyl_propiolate.chk"
 B after Tr=    -0.000000    0.000000    0.000000
         Rot=    0.999854    0.015908    0.002570    0.005608 Ang=   1.96 deg.
 Initial guess <Sx>= 0.0000 <Sy>= 0.0000 <Sz>= 0.5000 <S**2>= 0.7577 S= 0.5038
 ExpMin= 4.38D-02 ExpMax= 5.48D+03 ExpMxC= 8.25D+02 IAcc=2 IRadAn=         4 AccDes= 0.00D+00
 Harris functional with IExCor= 1009 and IRadAn=       4 diagonalized for initial guess.
 HarFok:  IExCor= 1009 AccDes= 0.00D+00 IRadAn=         4 IDoV= 1 UseB2=F ITyADJ=14
 ICtDFT=  3500011 ScaDFX=  1.000000  1.000000  1.000000  1.000000
 FoFCou: FMM=F IPFlag=           0 FMFlag=      100000 FMFlg1=           0
         NFxFlg=           0 DoJE=T BraDBF=F KetDBF=T FulRan=T
         wScrn=  0.000000 ICntrl=       500 IOpCl=  0 I1Cent=   200000004 NGrid=           0
         NMat0=    1 NMatS0=      1 NMatT0=    0 NMatD0=    1 NMtDS0=    0 NMtDT0=    0
 Petite list used in FoFCou.
 Requested convergence on RMS density matrix=1.00D-08 within 128 cycles.
 Requested convergence on MAX density matrix=1.00D-06.
 Requested convergence on             energy=1.00D-06.
 No special actions if energy rises.
 SCF Done:  E(UM062X) =  -419.937878571     A.U. after   20 cycles
            NFock= 20  Conv=0.51D-08     -V/T= 2.0054
 <Sx>= 0.0000 <Sy>= 0.0000 <Sz>= 0.5000 <S**2>= 0.7586 S= 0.5043
 <L.S>=  0.00000000000    
 Annihilation of the first spin contaminant:
 S**2 before annihilation     0.7586,   after     0.7500
 Calling FoFJK, ICntrl=      2127 FMM=F ISym2X=0 I1Cent= 0 IOpClX= 1 NMat=1 NMatS=1 NMatT=0.
 ***** Axes restored to original set *****
 -------------------------------------------------------------------
 Center     Atomic                   Forces (Hartrees/Bohr)
 Number     Number              X              Y              Z
 -------------------------------------------------------------------
      1        8          -0.022016510    0.012511770    0.006617529
      2        1          -0.000881766   -0.004806668   -0.000660649
      3        6           0.003360489    0.005950845   -0.001588220
      4        1           0.000264407    0.000240044   -0.000079088
      5        6          -0.004614973   -0.007610813    0.002054883
      6        6           0.006608150    0.019642723   -0.004640258
      7        8           0.006124000   -0.016032874    0.005249444
      8        8          -0.008768408    0.001273933   -0.002148236
      9        6           0.011433743    0.001603602    0.004867725
     10        6          -0.001072837   -0.002188518   -0.000432375
     11        1           0.008674146   -0.016130541   -0.008628541
     12        1          -0.001034969    0.002468316    0.002316263
     13        1           0.000471979    0.001237834   -0.000647309
     14        1          -0.000195977    0.000396463   -0.000964488
     15        1           0.001648525    0.001443884   -0.001316680
 -------------------------------------------------------------------
 Cartesian Forces:  Max     0.022016510 RMS     0.007139616

 GradGradGradGradGradGradGradGradGradGradGradGradGradGradGradGradGradGrad
 Berny optimization.
 FormGI is forming the generalized inverse of G from B-inverse, IUseBI=4.
 Internal  Forces:  Max     0.044520397 RMS     0.007447417
 Search for a saddle point.
 Step number   2 out of a maximum of   65
 All quantities printed in internal units (Hartrees-Bohrs-Radians)
 Swapping is turned off.
 Update second derivatives using D2CorX and points    1    2
 ITU=  0  0
     Eigenvalues ---   -0.05724  -0.00489   0.00166   0.00287   0.00556
     Eigenvalues ---    0.01949   0.02414   0.03529   0.04239   0.04669
     Eigenvalues ---    0.04889   0.05852   0.06170   0.07816   0.08478
     Eigenvalues ---    0.10185   0.10630   0.12299   0.13279   0.13657
     Eigenvalues ---    0.16506   0.19037   0.20315   0.22042   0.24381
     Eigenvalues ---    0.27616   0.31756   0.35209   0.35409   0.35650
     Eigenvalues ---    0.36045   0.38741   0.40979   0.42391   0.48977
     Eigenvalues ---    0.55767   0.67881   0.98482   1.20599
 Eigenvectors required to have negative eigenvalues:
                          R2        R10       A18       A9        D18
   1                    0.80180  -0.53520  -0.13580   0.09540   0.07783
                          D5        D17       D15       D14       A6
   1                    0.06481   0.05437   0.04961   0.04959  -0.04862
 RFO step:  Lambda0=3.377525778D-04 Lambda=-1.19181419D-02.
 Linear search not attempted -- option 19 set.
 Maximum step size (   0.300) exceeded in Quadratic search.
    -- Step size scaled by   0.925
 Iteration  1 RMS(Cart)=  0.11545004 RMS(Int)=  0.08243537
 Iteration  2 RMS(Cart)=  0.06804314 RMS(Int)=  0.05203696
 Iteration  3 RMS(Cart)=  0.04359595 RMS(Int)=  0.02506461
 Iteration  4 RMS(Cart)=  0.03951733 RMS(Int)=  0.00397535
 Iteration  5 RMS(Cart)=  0.00363772 RMS(Int)=  0.00016652
 Iteration  6 RMS(Cart)=  0.00002142 RMS(Int)=  0.00016606
 Iteration  7 RMS(Cart)=  0.00000000 RMS(Int)=  0.00016606
 Variable       Old X    -DE/DX   Delta X   Delta X   Delta X     New X
                                 (Linear)    (Quad)   (Total)
    R1        1.84782   0.00472   0.00000  -0.00056  -0.00056   1.84725
    R2        2.44320   0.01794   0.00000  -0.04325  -0.04325   2.39995
    R3        2.01410   0.00035   0.00000   0.00109   0.00109   2.01519
    R4        2.27603   0.00736   0.00000   0.00576   0.00576   2.28179
    R5        2.73199  -0.00177   0.00000  -0.01202  -0.01202   2.71998
    R6        2.30023   0.01783   0.00000   0.01771   0.01771   2.31794
    R7        2.55814   0.01149   0.00000   0.02343   0.02343   2.58157
    R8        2.73171   0.00469   0.00000  -0.00239  -0.00239   2.72932
    R9        2.85267   0.00197   0.00000   0.00105   0.00105   2.85373
   R10        2.35143   0.00853   0.00000  -0.00810  -0.00810   2.34334
   R11        2.06552   0.00054   0.00000  -0.00299  -0.00299   2.06253
   R12        2.07274  -0.00141   0.00000   0.00427   0.00427   2.07702
   R13        2.06094   0.00103   0.00000   0.00374   0.00374   2.06469
   R14        2.06513   0.00132   0.00000   0.00335   0.00335   2.06848
    A1        1.85485   0.00251   0.00000   0.03786   0.03786   1.89271
    A2        2.17637   0.00178   0.00000   0.01175   0.01175   2.18812
    A3        1.94490   0.00116   0.00000   0.00436   0.00435   1.94925
    A4        2.16191  -0.00294   0.00000  -0.01609  -0.01610   2.14581
    A5        2.04544   0.00430   0.00000   0.00766   0.00766   2.05310
    A6        1.94423  -0.00200   0.00000  -0.00350  -0.00398   1.94025
    A7        1.79201  -0.00244   0.00000  -0.00140  -0.00151   1.79050
    A8        1.92097  -0.00022   0.00000   0.02144   0.02087   1.94184
    A9        1.98769   0.00380   0.00000  -0.02308  -0.02302   1.96467
   A10        1.95308   0.00296   0.00000   0.03799   0.03754   1.99062
   A11        1.85762  -0.00260   0.00000  -0.03511  -0.03475   1.82287
   A12        1.93640   0.00070   0.00000   0.01428   0.01418   1.95058
   A13        1.94079  -0.00010   0.00000   0.00167   0.00153   1.94232
   A14        1.91450  -0.00073   0.00000  -0.00582  -0.00582   1.90869
   A15        1.90429  -0.00023   0.00000   0.01708   0.01687   1.92115
   A16        1.85060   0.00084   0.00000  -0.01568  -0.01564   1.83496
   A17        1.91509  -0.00045   0.00000  -0.01246  -0.01249   1.90260
   A18        2.28138   0.04452   0.00000   0.27240   0.27240   2.55378
   A19        3.14307   0.00010   0.00000   0.00184   0.00184   3.14491
   A20        3.16508  -0.00003   0.00000  -0.00038  -0.00038   3.16470
   A21        3.14227  -0.00008   0.00000  -0.00189  -0.00189   3.14038
   A22        3.09497   0.00014   0.00000   0.00750   0.00750   3.10246
    D1        0.15087   0.00079   0.00000  -0.73622  -0.73622  -0.58534
    D2        3.13843   0.00003   0.00000   0.00521   0.00522  -3.13954
    D3        3.14029   0.00017   0.00000   0.02908   0.02909  -3.11381
    D4       -0.00410   0.00020   0.00000   0.03370   0.03369   0.02959
    D5       -1.40352  -0.00073   0.00000  -0.05022  -0.05026  -1.45377
    D6        2.74569  -0.00275   0.00000  -0.02010  -0.02011   2.72559
    D7        0.77335   0.00150   0.00000   0.01195   0.01200   0.78535
    D8        3.09778   0.00077   0.00000  -0.03799  -0.03794   3.05984
    D9       -1.06257   0.00089   0.00000  -0.00520  -0.00505  -1.06762
   D10        1.05899  -0.00024   0.00000  -0.02372  -0.02359   1.03541
   D11       -1.16873  -0.00124   0.00000  -0.05705  -0.05695  -1.22568
   D12        0.95410  -0.00112   0.00000  -0.02427  -0.02406   0.93004
   D13        3.07567  -0.00224   0.00000  -0.04278  -0.04260   3.03307
   D14        0.93904   0.00035   0.00000  -0.09146  -0.09181   0.84723
   D15        3.06187   0.00047   0.00000  -0.05868  -0.05891   3.00296
   D16       -1.09975  -0.00065   0.00000  -0.07719  -0.07745  -1.17720
   D17        2.65962   0.00108   0.00000  -0.13073  -0.13067   2.52895
   D18        0.55533   0.00310   0.00000  -0.11351  -0.11326   0.44207
   D19       -1.60502  -0.00124   0.00000  -0.12121  -0.12153  -1.72655
         Item               Value     Threshold  Converged?
 Maximum Force            0.044520     0.000015     NO 
 RMS     Force            0.007447     0.000010     NO 
 Maximum Displacement     1.140923     0.000060     NO 
 RMS     Displacement     0.245093     0.000040     NO 
 Predicted change in Energy=-9.651771D-03
 GradGradGradGradGradGradGradGradGradGradGradGradGradGradGradGradGradGrad

                          Input orientation:                          
 ---------------------------------------------------------------------
 Center     Atomic      Atomic             Coordinates (Angstroms)
 Number     Number       Type             X           Y           Z
 ---------------------------------------------------------------------
      1          8           0       -3.175703   -0.067053   -0.418507
      2          1           0       -3.414247   -0.550847   -1.233734
      3          6           0        2.485027    3.033026   -1.577815
      4          1           0        2.979361    3.946488   -1.819506
      5          6           0        1.928109    1.997958   -1.301303
      6          6           0        1.307284    0.743792   -0.964602
      7          8           0        1.902117   -0.277017   -0.634947
      8          8           0       -0.053948    0.813687   -1.056367
      9          6           0       -0.810161   -0.367392   -0.711157
     10          6           0       -0.888409   -1.324724   -1.876436
     11          1           0       -1.916869    0.100378   -0.404415
     12          1           0       -0.440206   -0.818610    0.211224
     13          1           0       -1.390391   -2.262675   -1.600198
     14          1           0       -1.391590   -0.867941   -2.731947
     15          1           0        0.123375   -1.618685   -2.173113
 ---------------------------------------------------------------------
                    Distance matrix (angstroms):
                    1          2          3          4          5
     1  O    0.000000
     2  H    0.977525   0.000000
     3  C    6.557313   6.911148   0.000000
     4  H    7.480382   7.838837   1.066392   0.000000
     5  C    5.576065   5.919606   1.207469   2.273858   0.000000
     6  C    4.588340   4.903200   2.646451   3.712676   1.439349
     7  O    5.086766   5.356982   3.490726   4.516816   2.370700
     8  O    3.305741   3.631119   3.412296   4.426938   2.321861
     9  C    2.402423   2.662330   4.813752   5.847946   3.666235
    10  C    2.989818   2.718788   5.518988   6.538238   4.393605
    11  H    1.269998   1.831393   5.417932   6.384991   4.380534
    12  H    2.905915   3.317305   5.156816   6.206727   3.978657
    13  H    3.066674   2.675938   6.562302   7.595822   5.408768
    14  H    3.029271   2.536992   5.619407   6.566315   4.613082
    15  H    4.046001   3.812805   5.250733   6.265208   4.134879
                    6          7          8          9         10
     6  C    0.000000
     7  O    1.226601   0.000000
     8  O    1.366110   2.278908   0.000000
     9  C    2.404691   2.714854   1.444291   0.000000
    10  C    3.151391   3.228935   2.437548   1.510127   0.000000
    11  H    3.335109   3.844507   2.098649   1.240041   2.292486
    12  H    2.622477   2.548687   2.102469   1.091444   2.194393
    13  H    4.089043   3.964235   3.397916   2.172362   1.099111
    14  H    3.606261   3.949065   2.724836   2.161528   1.092585
    15  H    2.905759   2.707388   2.682350   2.138817   1.094594
                   11         12         13         14         15
    11  H    0.000000
    12  H    1.845016   0.000000
    13  H    2.700203   2.503881   0.000000
    14  H    2.575066   3.093512   1.796145   0.000000
    15  H    3.200948   2.577364   1.741965   1.780739   0.000000
 Stoichiometry    C5H7O3(2)
 Framework group  C1[X(C5H7O3)]
 Deg. of freedom    39
 Full point group                 C1      NOp   1
 Largest Abelian subgroup         C1      NOp   1
 Largest concise Abelian subgroup C1      NOp   1
                         Standard orientation:                         
 ---------------------------------------------------------------------
 Center     Atomic      Atomic             Coordinates (Angstroms)
 Number     Number       Type             X           Y           Z
 ---------------------------------------------------------------------
      1          8           0       -3.133510   -1.299501   -0.322197
      2          1           0       -3.526578   -0.938530    0.496798
      3          6           0        3.382677   -1.005093    0.349361
      4          1           0        4.290329   -1.520018    0.568933
      5          6           0        2.356764   -0.420200    0.097597
      6          6           0        1.159804    0.315665   -0.214675
      7          8           0        1.123832    1.466504   -0.637552
      8          8           0        0.036231   -0.425372    0.019221
      9          6           0       -1.239941    0.178559   -0.285128
     10          6           0       -1.712629    1.055687    0.849640
     11          1           0       -1.970757   -0.807783   -0.460453
     12          1           0       -1.219935    0.678405   -1.255181
     13          1           0       -2.641829    1.584975    0.595702
     14          1           0       -1.848700    0.478259    1.767138
     15          1           0       -0.974997    1.843927    1.030507
 ---------------------------------------------------------------------
 Rotational constants (GHZ):           3.8697216           0.9618551           0.8388000
 Standard basis: 6-31+G (6D, 7F)
 There are   118 symmetry adapted cartesian basis functions of A   symmetry.
 There are   118 symmetry adapted basis functions of A   symmetry.
   118 basis functions,   236 primitive gaussians,   118 cartesian basis functions
    31 alpha electrons       30 beta electrons
       nuclear repulsion energy       344.4805690727 Hartrees.
 NAtoms=   15 NActive=   15 NUniq=   15 SFac= 1.00D+00 NAtFMM=   60 NAOKFM=F Big=F
 Integral buffers will be    131072 words long.
 Raffenetti 2 integral format.
 Two-electron integral symmetry is turned on.
 One-electron integrals computed using PRISM.
 NBasis=   118 RedAO= T EigKep=  1.63D-06  NBF=   118
 NBsUse=   118 1.00D-06 EigRej= -1.00D+00 NBFU=   118
 Initial guess from the checkpoint file:  "ethyl_propiolate.chk"
 B after Tr=     0.000000   -0.000000   -0.000000
         Rot=    0.999956    0.008612    0.002424    0.002707 Ang=   1.07 deg.
 Initial guess <Sx>= 0.0000 <Sy>= 0.0000 <Sz>= 0.5000 <S**2>= 0.7587 S= 0.5043
 ExpMin= 4.38D-02 ExpMax= 5.48D+03 ExpMxC= 8.25D+02 IAcc=2 IRadAn=         4 AccDes= 0.00D+00
 Harris functional with IExCor= 1009 and IRadAn=       4 diagonalized for initial guess.
 HarFok:  IExCor= 1009 AccDes= 0.00D+00 IRadAn=         4 IDoV= 1 UseB2=F ITyADJ=14
 ICtDFT=  3500011 ScaDFX=  1.000000  1.000000  1.000000  1.000000
 FoFCou: FMM=F IPFlag=           0 FMFlag=      100000 FMFlg1=           0
         NFxFlg=           0 DoJE=T BraDBF=F KetDBF=T FulRan=T
         wScrn=  0.000000 ICntrl=       500 IOpCl=  0 I1Cent=   200000004 NGrid=           0
         NMat0=    1 NMatS0=      1 NMatT0=    0 NMatD0=    1 NMtDS0=    0 NMtDT0=    0
 Petite list used in FoFCou.
 Requested convergence on RMS density matrix=1.00D-08 within 128 cycles.
 Requested convergence on MAX density matrix=1.00D-06.
 Requested convergence on             energy=1.00D-06.
 No special actions if energy rises.
 SCF Done:  E(UM062X) =  -419.946062786     A.U. after   20 cycles
            NFock= 20  Conv=0.69D-08     -V/T= 2.0057
 <Sx>= 0.0000 <Sy>= 0.0000 <Sz>= 0.5000 <S**2>= 0.7592 S= 0.5046
 <L.S>=  0.00000000000    
 Annihilation of the first spin contaminant:
 S**2 before annihilation     0.7592,   after     0.7500
 Calling FoFJK, ICntrl=      2127 FMM=F ISym2X=0 I1Cent= 0 IOpClX= 1 NMat=1 NMatS=1 NMatT=0.
 ***** Axes restored to original set *****
 -------------------------------------------------------------------
 Center     Atomic                   Forces (Hartrees/Bohr)
 Number     Number              X              Y              Z
 -------------------------------------------------------------------
      1        8          -0.006872509    0.008570604    0.012259481
      2        1           0.000941768   -0.002826892   -0.006859772
      3        6           0.000216656    0.000650539   -0.000062695
      4        1           0.000035875   -0.000023405   -0.000025803
      5        6          -0.000116720   -0.000456062   -0.000070751
      6        6           0.000386285    0.002293421   -0.000031847
      7        8           0.000959352   -0.001805280    0.000830130
      8        8          -0.000658589    0.001596046   -0.000081861
      9        6           0.007527743   -0.001796649   -0.001746281
     10        6           0.000101349   -0.006172867    0.002003752
     11        1          -0.002601950   -0.009023504   -0.006151553
     12        1           0.000544378    0.001111979    0.001360922
     13        1          -0.002449070    0.005585464    0.000846956
     14        1           0.000553842   -0.000202799   -0.000714328
     15        1           0.001431591    0.002499406   -0.001556351
 -------------------------------------------------------------------
 Cartesian Forces:  Max     0.012259481 RMS     0.003726391

 GradGradGradGradGradGradGradGradGradGradGradGradGradGradGradGradGradGrad
 Berny optimization.
 FormGI is forming the generalized inverse of G from B-inverse, IUseBI=4.
 Internal  Forces:  Max     0.015762256 RMS     0.002939801
 Search for a saddle point.
 Step number   3 out of a maximum of   65
 All quantities printed in internal units (Hartrees-Bohrs-Radians)
 Swapping is turned off.
 Update second derivatives using D2CorX and points    2    3
 ITU=  0  0  0
     Eigenvalues ---   -0.05768  -0.00144   0.00229   0.00552   0.00741
     Eigenvalues ---    0.01949   0.02418   0.03529   0.04234   0.04682
     Eigenvalues ---    0.04889   0.05829   0.06169   0.07816   0.08444
     Eigenvalues ---    0.10166   0.10630   0.12347   0.13226   0.13664
     Eigenvalues ---    0.16490   0.19057   0.20312   0.22021   0.24387
     Eigenvalues ---    0.27620   0.31759   0.35216   0.35409   0.35650
     Eigenvalues ---    0.36044   0.38740   0.40979   0.42391   0.49023
     Eigenvalues ---    0.55763   0.67821   0.98479   1.20599
 Eigenvectors required to have negative eigenvalues:
                          R2        R10       A18       A9        D18
   1                    0.80033  -0.53383  -0.14662   0.09584   0.08050
                          D5        D17       D15       D14       D16
   1                    0.06756   0.05760   0.05284   0.05265   0.05081
 RFO step:  Lambda0=6.089802159D-05 Lambda=-4.53363989D-03.
 Linear search not attempted -- option 19 set.
 Iteration  1 RMS(Cart)=  0.06757707 RMS(Int)=  0.08175257
 Iteration  2 RMS(Cart)=  0.05250570 RMS(Int)=  0.05537315
 Iteration  3 RMS(Cart)=  0.04419016 RMS(Int)=  0.02846878
 Iteration  4 RMS(Cart)=  0.04412035 RMS(Int)=  0.00476128
 Iteration  5 RMS(Cart)=  0.00438322 RMS(Int)=  0.00017081
 Iteration  6 RMS(Cart)=  0.00003952 RMS(Int)=  0.00016901
 Iteration  7 RMS(Cart)=  0.00000000 RMS(Int)=  0.00016901
 Variable       Old X    -DE/DX   Delta X   Delta X   Delta X     New X
                                 (Linear)    (Quad)   (Total)
    R1        1.84725   0.00689   0.00000   0.01082   0.01082   1.85807
    R2        2.39995   0.00506   0.00000   0.03326   0.03326   2.43321
    R3        2.01519   0.00000   0.00000   0.00009   0.00009   2.01528
    R4        2.28179   0.00067   0.00000   0.00062   0.00062   2.28241
    R5        2.71998   0.00024   0.00000  -0.00077  -0.00077   2.71920
    R6        2.31794   0.00219   0.00000   0.00285   0.00285   2.32079
    R7        2.58157   0.00149   0.00000   0.00480   0.00480   2.58638
    R8        2.72932   0.00214   0.00000  -0.00073  -0.00073   2.72859
    R9        2.85373  -0.00151   0.00000  -0.00174  -0.00174   2.85198
   R10        2.34334   0.00619   0.00000  -0.02447  -0.02447   2.31887
   R11        2.06253   0.00088   0.00000  -0.00071  -0.00071   2.06182
   R12        2.07702  -0.00344   0.00000  -0.01571  -0.01571   2.06131
   R13        2.06469   0.00022   0.00000   0.00453   0.00453   2.06922
   R14        2.06848   0.00107   0.00000   0.00231   0.00231   2.07080
    A1        1.89271  -0.00519   0.00000  -0.02955  -0.02955   1.86316
    A2        2.18812   0.00007   0.00000   0.00233   0.00233   2.19045
    A3        1.94925   0.00010   0.00000   0.00092   0.00092   1.95017
    A4        2.14581  -0.00017   0.00000  -0.00326  -0.00326   2.14255
    A5        2.05310   0.00110   0.00000  -0.00053  -0.00053   2.05258
    A6        1.94025   0.00170   0.00000   0.00514   0.00493   1.94518
    A7        1.79050  -0.00052   0.00000   0.01839   0.01843   1.80893
    A8        1.94184  -0.00127   0.00000   0.00122   0.00082   1.94266
    A9        1.96467  -0.00079   0.00000  -0.04348  -0.04332   1.92135
   A10        1.99062   0.00108   0.00000   0.03366   0.03326   2.02388
   A11        1.82287  -0.00056   0.00000  -0.01916  -0.01884   1.80404
   A12        1.95058  -0.00410   0.00000  -0.00347  -0.00364   1.94693
   A13        1.94232   0.00105   0.00000  -0.00462  -0.00473   1.93759
   A14        1.90869  -0.00028   0.00000   0.00238   0.00222   1.91091
   A15        1.92115   0.00045   0.00000  -0.01758  -0.01769   1.90346
   A16        1.83496   0.00397   0.00000   0.05408   0.05386   1.88882
   A17        1.90260  -0.00092   0.00000  -0.02845  -0.02854   1.87406
   A18        2.55378   0.01576   0.00000   0.16262   0.16262   2.71640
   A19        3.14491   0.00001   0.00000   0.00109   0.00109   3.14600
   A20        3.16470   0.00004   0.00000   0.00170   0.00170   3.16640
   A21        3.14038  -0.00005   0.00000  -0.00276  -0.00276   3.13762
   A22        3.10246   0.00008   0.00000   0.00653   0.00653   3.10900
[...]
 ! D13   D(11,9,10,15)         179.0902         -DE/DX =    0.0                 !
 ! D14   D(12,9,10,13)          58.5835         -DE/DX =    0.0                 !
 ! D15   D(12,9,10,14)         178.5544         -DE/DX =    0.0                 !
 ! D16   D(12,9,10,15)         -60.9133         -DE/DX =    0.0                 !
 ! D17   D(8,9,11,1)            20.5528         -DE/DX =    0.0                 !
 ! D18   D(10,9,11,1)          -98.0443         -DE/DX =    0.0                 !
 ! D19   D(12,9,11,1)          136.2011         -DE/DX =    0.0                 !
 --------------------------------------------------------------------------------
 GradGradGradGradGradGradGradGradGradGradGradGradGradGradGradGradGradGrad


 ----------------------------------------------------------------------

 Electric dipole moment (input orientation):
 (Debye = 10**-18 statcoulomb cm , SI units = C m)
                  (au)            (Debye)         (10**-30 SI)
   Tot        0.102373D+01      0.260206D+01      0.867954D+01
   x          0.401775D+00      0.102121D+01      0.340639D+01
   y          0.729151D+00      0.185332D+01      0.618200D+01
   z         -0.595766D+00     -0.151429D+01     -0.505112D+01

 Dipole polarizability, Alpha (input orientation).
 (esu units = cm**3 , SI units = C**2 m**2 J**-1)
 Alpha(0;0):
               (au)            (10**-24 esu)      (10**-40 SI)
   iso        0.752161D+02      0.111459D+02      0.124015D+02
   aniso      0.428669D+02      0.635223D+01      0.706780D+01
   xx         0.896992D+02      0.132920D+02      0.147894D+02
   yx         0.451388D+01      0.668888D+00      0.744238D+00
   yy         0.875810D+02      0.129782D+02      0.144402D+02
   zx        -0.429662D+01     -0.636693D+00     -0.708417D+00
   zy        -0.565270D+01     -0.837644D+00     -0.932005D+00
   zz         0.483680D+02      0.716740D+01      0.797481D+01

 ----------------------------------------------------------------------

 Dipole orientation:
     8         -5.70050672         -0.66003471         -1.19028509
     1         -5.66202678         -1.32341836          0.55478271
     6          1.34694357         -1.27556416          7.43969996
     1          1.49401897         -2.06097176          9.28987381
     6          1.19545085         -0.38252975          5.34454955
     6          1.10296732          0.69711349          2.84859915
     8          2.92138239          1.53402470          1.67793836
     8         -1.29969892          0.69413650          1.89618013
     6         -1.66825050          1.67901066         -0.64057440
     6         -2.17526869          4.47607188         -0.64921727
     1         -3.59425102          0.57808219         -1.29527649
     1         -0.16293472          1.02586492         -1.89111187
     1         -2.66936418          5.09798407         -2.55528446
     1         -3.73851347          4.92833566          0.62099166
     1         -0.48641712          5.50874583         -0.03920470

 Electric dipole moment (dipole orientation):
 (Debye = 10**-18 statcoulomb cm , SI units = C m)
                  (au)            (Debye)         (10**-30 SI)
   Tot        0.102373D+01      0.260206D+01      0.867954D+01
   x          0.000000D+00      0.000000D+00      0.000000D+00
   y          0.000000D+00      0.000000D+00      0.000000D+00
   z          0.102373D+01      0.260206D+01      0.867954D+01

 Dipole polarizability, Alpha (dipole orientation).
 (esu units = cm**3 , SI units = C**2 m**2 J**-1)
 Alpha(0;0):
               (au)            (10**-24 esu)      (10**-40 SI)
   iso        0.752161D+02      0.111459D+02      0.124015D+02
   aniso      0.428669D+02      0.635223D+01      0.706780D+01
   xx         0.795669D+02      0.117906D+02      0.131188D+02
   yx         0.116503D+02      0.172640D+01      0.192088D+01
   yy         0.622822D+02      0.922927D+01      0.102689D+02
   zx         0.117292D+02      0.173809D+01      0.193389D+01
   zy        -0.144664D+02     -0.214370D+01     -0.238519D+01
   zz         0.837991D+02      0.124178D+02      0.138166D+02

 ----------------------------------------------------------------------
 1\1\GINC-AJ\Freq\UM062X\6-31+G\C5H7O3(2)\AAYUSH\06-Jun-2025\0\\#N Geom
 =AllCheck Guess=TCheck SCRF=Check GenChk UM062X/6-31+G Freq\\Title Car
 d Required\\0,2\O,-3.0317879285,0.3216724469,-0.568563796\H,-2.7130184
 319,1.2142754999,-0.8479468642\C,2.0691934549,3.1366648168,-1.53061320
 94\H,2.450252762,4.1025940872,-1.7738196384\C,1.6452106423,2.040125544
 4,-1.253446836\C,1.1836237513,0.7199221477,-0.9109296624\O,1.887327525
 1,-0.1921929362,-0.488199776\O,-0.1620982911,0.5866818655,-1.115493034
 6\C,-0.7728859147,-0.6890192859,-0.7820252256\C,-0.7553198689,-1.65035
 95372,-1.9388921253\H,-1.9317605514,-0.3599258057,-0.5654532501\H,-0.3
 746526115,-1.0663160806,0.1618900604\H,-1.32903048,-2.5461335401,-1.68
 89202961\H,-1.1959213285,-1.1880184342,-2.8251825423\H,0.2746162307,-1
 .9495858384,-2.165227624\\Version=ES64L-G16RevA.03\State=2-A\HF=-419.9
 539052\S2=0.759816\S2-1=0.\S2A=0.750043\RMSD=3.648e-09\RMSF=9.451e-07\
 ZeroPoint=0.1068614\Thermal=0.116656\Dipole=0.4017752,0.7291509,-0.595
 7664\DipoleDeriv=0.0770623,-0.1653752,-0.1075698,-0.1891349,-0.1873622
 ,-0.0448887,-0.0357768,-0.0821583,-0.5430867,0.3559942,-0.0919664,0.03
 69213,-0.2694283,0.1966833,0.1016817,0.0714018,0.0651385,0.3456587,-0.
 2088727,0.0082692,-0.0042958,-0.0250035,-0.1850494,-0.0055685,0.001618
 1,-0.0039997,-0.1960182,0.2717729,0.0030484,0.0033643,0.012515,0.27484
 44,-0.0062512,0.0014799,-0.0077053,0.2533529,-0.2527598,-0.2157615,0.0
 341388,-0.2677716,-0.6134208,0.1402302,0.0490133,0.1507335,-0.0795516,
 2.2901771,0.5702193,0.1952758,0.3005,1.6560439,-0.3855467,0.3656806,-0
 .3000118,0.5463695,-0.9317597,0.0133609,-0.1208107,0.254648,-0.861073,
 0.227206,-0.227415,0.1624055,-0.4479987,-1.8440765,-0.5517858,-0.07665
 49,-0.7893993,-0.8720339,0.0265801,-0.0596472,0.0126481,-0.4130659,1.6
 139401,-0.1774435,-0.1941495,0.3406937,0.7650393,0.0980755,-0.436678,0
 .1478269,0.3866851,-0.345935,0.1417918,0.1144543,-0.0175526,-0.1393312
 ,-0.0769721,0.065195,-0.1063116,-0.0996897,-1.1175876,0.4628867,0.2115
 019,0.6392426,-0.1385505,-0.1200867,0.0705088,-0.019912,0.1698659,-0.0
 712193,0.0510869,-0.0708964,-0.0303851,-0.0081594,-0.0145126,0.0971638
 ,-0.0285107,-0.033113,0.0672816,-0.0996321,0.0174593,-0.0933359,-0.025
 5273,0.0156455,0.0146366,0.0380035,0.0733499,0.100216,0.0221201,-0.062
 5485,0.053502,0.054231,0.078689,-0.0492614,0.0219256,-0.018655,-0.0042
 335,0.0291813,0.0238098,0.0809099,0.083666,-0.0342815,0.0720806,-0.050
 0723,0.0558968\Polar=89.6991937,4.5138812,87.5810303,-4.2966205,-5.652
 7038,48.3680034\Quadrupole=-9.0877235,9.5292774,-0.441554,4.1369587,-0
 .3536513,-0.3726291\PG=C01 [X(C5H7O3)]\NImag=1\\0.09814542,0.12498882,
 0.39266826,-0.04785382,-0.11841092,0.04405288,-0.06858975,-0.14029481,
 0.04661007,0.06711025,-0.11062150,-0.37891348,0.11404012,0.12062627,0.
 38821667,0.03897647,0.11872353,-0.03911210,-0.04137296,-0.11804253,0.0
 3864195,0.00001830,-0.00005525,0.00002398,0.00009023,-0.00004347,-0.00
 000103,0.26027248,0.00009452,-0.00004488,0.00004302,0.00011837,-0.0002
 8574,0.00000769,0.48180391,1.31550417,-0.00002488,0.00004371,0.0000698
 2,-0.00003556,0.00006586,-0.00010002,-0.12375799,-0.31075532,0.1619262
 0,0.00001470,0.00002642,-0.00000817,-0.00003355,-0.00003017,0.00000769
 ,-0.08344603,-0.12896070,0.03305604,0.07006184,-0.00002026,0.00002879,
 -0.00001418,-0.00008164,0.00007994,0.00000107,-0.12845734,-0.35933194,
 0.08133179,0.12979778,0.34822437,-0.00000692,-0.00002422,-0.00005045,0
 .00002469,0.00000226,0.00005592,0.03288567,0.08123143,-0.05660898,-0.0
 3288674,-0.08260346,0.04117969,0.00013255,-0.00012975,0.00001439,0.000
 18704,-0.00029484,0.00003930,-0.18657275,-0.34859624,0.09033481,0.0098
 8763,0.00045302,-0.00077217,0.30115498,0.00028836,-0.00029952,0.000065
 45,0.00035672,-0.00048115,0.00006046,-0.34989778,-0.95870034,0.2260681
 8,0.00065095,0.01166751,0.00064292,0.44219989,1.28502551,0.00003068,-0
 .00002959,-0.00002287,-0.00005545,-0.00001255,0.00003488,0.09077214,0.
 22620093,-0.11911999,-0.00086100,0.00061891,0.01306499,-0.10755584,-0.
 30113685,0.18220432,-0.00122787,0.00266897,-0.00055014,-0.00339744,0.0
 0287359,-0.00022295,0.01155541,-0.00051583,-0.00095072,0.00319060,-0.0
 0253173,0.00069267,-0.10130293,-0.07749742,0.02527264,0.62670651,-0.00
 109744,0.00120177,-0.00043963,-0.00076456,0.00166380,0.00002857,-0.001
 25142,0.00453234,0.00403581,-0.00178506,-0.00112693,0.00127250,-0.0710
 9559,-0.26746737,0.04104549,-0.09557114,0.81335746,-0.00124550,0.00118
 788,-0.00059189,-0.00042081,0.00069569,0.00017975,-0.00080506,0.004252
 26,0.01603286,0.00052456,0.00107902,0.00344294,0.02280767,0.04056714,-
 0.10837020,0.10459671,-0.21256766,0.30456118,-0.00015989,-0.00048814,0
 .00034584,0.00133415,-0.00125714,-0.00008110,-0.00283324,-0.00394429,0
 .00102456,-0.00020721,0.00021260,0.00003970,0.01680972,0.00850334,-0.0
 0413112,-0.27223990,0.23570416,-0.11072254,0.33658173,0.00023327,0.000
 36939,-0.00010961,-0.00078179,0.00018413,0.00005967,-0.00125859,0.0004
 9363,-0.00092159,-0.00091576,0.00071669,-0.00067676,0.02299177,-0.0573
 4734,0.03113192,0.23748295,-0.42731956,0.15613439,-0.29352475,0.470477
 59,0.00013527,-0.00037668,0.00030816,0.00056971,-0.00045523,-0.0000663
 9,0.00033652,-0.00149452,-0.00126479,0.00037471,-0.00042849,-0.0005672
 3,-0.00912447,0.02844677,0.01485703,-0.11261761,0.15675021,-0.14907216
 ,0.14960556,-0.19616445,0.12201163,0.00416524,-0.00594478,0.00106804,0
 .00354789,-0.00384722,0.00018952,0.00093082,-0.00029723,0.00036341,0.0
 0039598,0.00074094,-0.00011201,-0.03729525,-0.02529570,-0.00117795,-0.
 23458466,-0.01738906,-0.02898543,-0.08138196,0.03821671,-0.03095101,0.
 45261226,0.00670376,-0.00390786,0.00098799,-0.00012738,-0.00248232,-0.
 00016390,-0.00110739,-0.00381730,0.00087280,0.00127711,0.00005764,0.00
 010834,-0.04738648,-0.01651622,0.00078681,-0.03984561,-0.10527518,0.01
 020361,0.04310324,0.01545252,0.01232859,0.09753005,0.32723113,-0.00036
 080,0.00070870,0.00124387,-0.00060213,0.00015397,-0.00125997,0.0004397
 4,0.00116919,-0.00065597,-0.00026968,0.00003111,-0.00033869,0.00695515
 ,0.00431940,0.01168597,-0.02040210,0.01441782,-0.06820557,-0.03352695,
 0.01087108,0.01773128,0.04196632,-0.07310913,0.11103818,-0.10873780,0.
 06143711,0.00288153,0.00293948,0.00869637,-0.00320498,0.00020322,0.001
 35947,-0.00019075,0.00008055,-0.00045949,0.00016726,-0.00073108,0.0026
 3480,-0.00268604,-0.04898648,-0.04866343,0.00670611,0.00779141,-0.0039
 7218,0.00414672,-0.07216356,-0.00307262,-0.00133627,0.34022573,0.02943
 697,-0.01495315,-0.00125852,0.00328100,-0.00130966,0.00007417,0.000056
 88,0.00173092,-0.00070980,-0.00013988,-0.00025527,0.00004301,0.0039174
 4,0.00354957,0.00111265,-0.03467840,-0.00800933,-0.00408231,0.01311471
 ,-0.00832393,0.00392692,-0.05560842,-0.15464531,0.03266469,-0.00196710
 ,0.42743260,0.02291236,-0.01265379,0.00199152,-0.00143874,-0.00260131,
 0.00028392,0.00013653,-0.00094736,-0.00039093,0.00006875,0.00004306,-0
 .00021967,-0.00330636,0.00112252,0.00667898,0.01059671,-0.00658225,0.0
 0277178,-0.00210725,0.00246375,-0.00531191,0.00556044,0.03419613,-0.07
 827788,0.08207892,-0.02298971,0.57030994,0.00943603,-0.00534287,-0.000
 41967,-0.00086456,-0.00149135,0.00158950,-0.00012676,-0.00024883,0.000
 10496,0.00004735,0.00007529,-0.00006678,-0.00081504,-0.00031202,0.0006
 8263,0.00657469,-0.00194227,0.00081482,-0.00097122,0.00181019,-0.00043
 657,-0.00577103,-0.02488365,-0.01444133,-0.06022024,0.00817135,0.00672
 169,0.57164591,-0.00391083,0.00224416,0.00067419,0.00005697,0.00021785
 ,-0.00038073,0.00002679,-0.00022997,0.00004172,0.00005759,0.00003037,-
 0.00007980,-0.00126284,-0.00011364,0.00121331,0.00624744,-0.00134623,0
 .00023985,-0.00165016,0.00108125,-0.00175499,-0.01032349,-0.03678080,-
 0.02243578,-0.00179729,-0.12429692,-0.06154689,0.00871213,0.55610367,-
 0.00285640,0.00191475,0.00070906,0.00015825,0.00036987,-0.00009819,0.0
 0004166,0.00028016,0.00009869,-0.00003040,-0.00003392,0.00001994,0.000
 48862,-0.00041160,-0.00099042,-0.00385592,0.00286296,-0.00039938,0.000
 68522,-0.00166610,0.00066727,0.00496446,0.00745909,0.01171974,-0.00494
 630,-0.06909707,-0.17916576,0.00480582,-0.05012167,0.53966599,0.064222
 50,-0.03466627,-0.00272535,-0.00241610,-0.01364603,0.00451698,-0.00015
 327,-0.00079659,0.00011483,0.00000778,0.00023098,-0.00000728,-0.001416
 76,-0.00167119,0.00014204,0.01035436,0.00438527,0.00550221,-0.00213901
 ,0.00000833,-0.00121655,-0.03513960,-0.02028111,0.00310778,0.02313717,
 -0.00491180,-0.01762109,-0.02043901,0.00827285,0.00445957,-0.02467512,
 -0.04417686,0.00009000,0.00441937,0.01788696,-0.00742624,-0.00014176,0
 .00010970,0.00010835,-0.00003154,0.00001820,-0.00010292,0.00005092,-0.
 00024270,0.00081719,-0.00050426,-0.00612827,-0.00679078,0.00037860,0.0
 0182584,0.00105491,0.00028119,-0.01777276,0.00257508,0.00443445,-0.042
 82556,-0.02271297,0.01501031,0.02525003,-0.00840339,-0.00746684,0.0559
 4494,0.04513463,-0.00600703,0.00643482,-0.01023237,-0.00389656,0.00525
 587,0.00226856,-0.00001334,0.00005229,-0.00008495,0.00000165,-0.000000
 37,0.00001324,0.00022907,0.00021431,0.00032608,-0.00151328,0.00119457,
 -0.00102369,-0.00035954,-0.00093990,0.00034433,0.00958632,0.00237499,-
 0.00134898,0.00619043,-0.00080202,-0.03231594,0.01670832,-0.00892365,-
 0.00701139,-0.00411699,-0.00833135,0.04909744,0.00457314,-0.00266281,0
 .00129984,-0.00028201,-0.00120793,-0.00029740,0.00005289,-0.00002228,0
 .00002126,0.00001124,0.00005627,0.00003818,-0.00017197,0.00000474,-0.0
 0074221,0.00475757,-0.00202459,0.00150572,-0.00261612,0.00101206,-0.00
 008480,0.00165401,-0.01435338,0.01805561,-0.08014992,0.03737183,-0.108
 26973,0.00346331,0.00107256,0.00527721,-0.01707929,0.01302242,-0.01709
 319,0.08456852,-0.00173504,0.00083760,-0.00037113,-0.00009638,0.000248
 60,0.00007175,0.00002405,-0.00005392,-0.00008666,0.00001552,0.00004753
 ,0.00002492,-0.00034765,-0.00023846,-0.00014126,0.00626724,-0.00069652
 ,0.00217934,-0.00116895,0.00187190,-0.00129180,0.00113302,-0.02404244,
 0.02796492,0.02888971,-0.07985546,0.07889803,-0.00828130,0.01052868,-0
 .02065226,0.00646179,-0.00256140,0.00512691,-0.03192841,0.09588041,-0.
 00391574,0.00199286,0.00050305,0.00051154,0.00049780,-0.00010769,-0.00
 005474,0.00001031,0.00009237,0.00000059,-0.00001348,0.00000289,0.00032
 355,-0.00013180,-0.00033975,-0.00338627,0.00057319,0.00015981,-0.00025
 094,-0.00188044,0.00061480,-0.00009531,0.00706340,-0.00328154,-0.09152
 225,0.08139116,-0.25708278,-0.01084144,0.00857331,-0.01654191,0.008222
 88,-0.00552559,0.00138168,0.10068102,-0.08957467,0.27535857,-0.0002722
 4,-0.00016054,-0.00016101,0.00001410,-0.00000028,-0.00006332,0.0000103
 9,-0.00002261,-0.00004793,0.00000013,0.00001198,0.00000702,0.00000828,
 -0.00001919,0.00019057,-0.00002436,0.00100888,0.00015563,0.00002397,-0
 .00041169,-0.00033710,0.00169426,0.00111447,0.00003681,-0.00119831,0.0
 0194194,0.00118656,-0.12368808,-0.11966753,0.03301176,0.00065443,-0.00
 017012,-0.00012272,0.00000067,-0.00008724,-0.00032522,0.13128885,0.000
 58761,0.00010754,-0.00002594,-0.00017470,0.00011985,0.00009242,-0.0000
 3156,-0.00006853,0.00002746,0.00001560,0.00002295,-0.00001197,-0.00030
 519,-0.00014833,0.00016270,0.00259100,-0.00064156,0.00025049,-0.000527
 29,0.00071769,-0.00025830,-0.00218478,-0.00276300,-0.00429423,-0.01098
 400,-0.01749823,0.00814934,-0.11782409,-0.23151235,0.05111837,-0.00044
 033,-0.00004371,0.00030348,-0.00000745,0.00061746,-0.00043617,0.130949
 73,0.25373623,0.00036116,-0.00001596,-0.00008267,-0.00007438,-0.000043
 33,-0.00000164,-0.00003285,-0.00011543,-0.00001615,0.00001902,0.000004
 21,-0.00001701,-0.00038792,0.00004078,0.00040111,0.00215441,-0.0010428
 8,0.00002563,-0.00047544,0.00067341,-0.00040380,-0.00221680,-0.0062950
 6,-0.00373159,-0.01365743,-0.02129238,0.00762611,0.03423010,0.05340246
 ,-0.06539648,-0.00064010,0.00026124,0.00064870,-0.00024340,0.00125905,
 0.00023822,-0.03742668,-0.05505891,0.06753368,-0.00016227,-0.00013702,
 -0.00059920,0.00012579,0.00015050,0.00009980,-0.00001368,-0.00001342,-
 0.00000069,-0.00000387,-0.00001737,-0.00001014,0.00004816,0.00000564,0
 .00012747,-0.00095782,0.00025814,-0.00065055,0.00020836,-0.00060636,-0
 .00002732,-0.00018068,0.00017342,0.00037041,0.00033195,-0.00011529,0.0
 0239281,-0.09471189,0.04797606,-0.09082585,0.00093562,-0.00085992,0.00
 062270,0.00086830,0.00054405,0.00037240,0.00715589,-0.00782432,0.01573
 565,0.09813234,-0.00014111,0.00008414,0.00040827,0.00000839,-0.0001902
 0,-0.00022015,0.00004345,0.00002780,0.00001492,-0.00001851,-0.00001413
 ,0.00000315,0.00005538,0.00007892,-0.00014493,-0.00120783,0.00012908,-
 0.00018648,0.00034569,-0.00029860,0.00025088,0.00159843,0.00254504,0.0
 0136663,-0.01006167,0.00816633,-0.02352424,0.04823259,-0.10080168,0.09
 758501,-0.00063368,0.00066397,0.00018823,0.00041757,-0.00294858,-0.003
 26921,0.01254866,-0.01067947,0.02223362,-0.05331775,0.10699153,0.00058
 969,-0.00009419,0.00084461,-0.00000846,-0.00024632,-0.00036290,0.00000
 643,-0.00003721,0.00004445,-0.00001028,0.00000319,-0.00000470,-0.00000
 573,-0.00005597,-0.00012609,-0.00053346,0.00034310,-0.00007126,0.00026
 471,-0.00032090,0.00022683,0.00118524,0.00101845,0.00257603,-0.0106637
 5,0.01132699,-0.02708182,-0.08939725,0.09432789,-0.22551639,-0.0013860
 7,0.00076988,0.00003185,0.00053195,-0.00392903,-0.00188991,-0.00328711
 ,0.00204933,-0.00510477,0.09872027,-0.10183247,0.25031672,-0.00155807,
 0.00076090,0.00007367,0.00023448,0.00009320,-0.00017551,0.00001200,0.0
 0004175,-0.00001137,-0.00000714,-0.00001103,0.00000687,0.00007743,0.00
 004884,-0.00000856,-0.00041770,0.00022811,0.00021648,-0.00020079,-0.00
 028417,-0.00037306,0.00151630,0.00115555,0.00000745,-0.00252208,0.0001
 2876,0.00108841,-0.28355946,0.06618976,0.04862229,0.00414629,-0.001881
 90,-0.00021584,0.00034968,0.00030960,0.00027993,-0.01566797,0.00615976
 ,0.00265465,-0.01177620,0.00213039,0.00399382,0.30937323,-0.00063029,0
 .00048724,-0.00000849,-0.00001340,0.00035794,-0.00017024,0.00003800,0.
 00013540,0.00000266,-0.00000908,-0.00004460,0.00001675,0.00004376,0.00
 017368,-0.00030327,-0.00015495,-0.00221100,-0.00033184,-0.00024884,0.0
 0086973,0.00023990,-0.00055571,0.00236905,0.00173717,0.02078588,-0.009
 01921,-0.00903759,0.06807479,-0.06672100,-0.01214075,0.00174284,-0.002
 40272,-0.00214818,-0.00075061,0.00036461,0.00072933,-0.02703648,0.0080
 3347,0.00598918,0.01378364,-0.00375415,-0.00332275,-0.07506954,0.07136
 156,-0.00073452,0.00059909,0.00036939,0.00003079,0.00031983,-0.0003560
 8,0.00002234,0.00010255,-0.00002262,0.00001325,-0.00001847,0.00002711,
 -0.00004007,0.00018829,-0.00028403,0.00071932,-0.00189180,0.00056021,-
 0.00031070,0.00134553,-0.00007504,-0.00134524,0.00216788,0.00110512,0.
 02603680,-0.01030779,-0.00981557,0.04994519,-0.01322921,-0.05776078,0.
 00164715,-0.00360462,-0.00209456,-0.00068005,0.00052189,0.00089219,0.0
 0718273,-0.00206807,-0.00171934,-0.02632775,0.00712677,0.00611736,-0.0
 5615924,0.01874811,0.06305663\\0.00000040,-0.00000119,-0.00000021,-0.0
 0000022,-0.00000095,0.00000023,-0.00000107,0.00000070,-0.00000118,-0.0
 0000139,0.00000072,-0.00000155,-0.00000062,0.00000056,-0.00000079,-0.0
 0000030,0.00000074,0.00000002,0.00000017,0.00000068,-0.00000026,-0.000
 00054,-0.00000021,-0.00000124,-0.00000120,-0.00000221,0.00000068,0.000
 00112,-0.00000068,0.00000047,-0.00000010,0.00000240,0.00000211,0.00000
 119,0.00000074,0.00000024,0.00000140,-0.00000024,0.00000026,0.00000041
 ,-0.00000083,0.00000049,0.00000075,-0.00000025,0.00000071\\\@


 BE NOT THE FIRST BY WHOM THE NEW ARE TRIED,
 NOR YET THE THE LAST TO LAY THE OLD ASIDE.

                          -- ALEXANDER POPE
 Job cpu time:       0 days  0 hours 13 minutes  9.7 seconds.
 Elapsed time:       0 days  0 hours  0 minutes 32.9 seconds.
 File lengths (MBytes):  RWF=     60 Int=      0 D2E=      0 Chk=      6 Scr=      1
 Normal termination of Gaussian 16 at Fri Jun  6 15:07:37 2025.
