 Entering Link 1 = C:\G09W\l1.exe PID=      5644.
  
 Copyright (c) 1988,1990,1992,1993,1995,1998,2003,2009,2013,
            Gaussian, Inc.  All Rights Reserved.
  
 This is part of the Gaussian(R) 09 program.  It is based on
 the Gaussian(R) 03 system (copyright 2003, Gaussian, Inc.),
 the Gaussian(R) 98 system (copyright 1998, Gaussian, Inc.),
 the Gaussian(R) 94 system (copyright 1995, Gaussian, Inc.),
 the Gaussian 92(TM) system (copyright 1992, Gaussian, Inc.),
 the Gaussian 90(TM) system (copyright 1990, Gaussian, Inc.),
 the Gaussian 88(TM) system (copyright 1988, Gaussian, Inc.),
 the Gaussian 86(TM) system (copyright 1986, Carnegie Mellon
 University), and the Gaussian 82(TM) system (copyright 1983,
 Carnegie Mellon University). Gaussian is a federally registered
 trademark of Gaussian, Inc.
  
 This software contains proprietary and confidential information,
 including trade secrets, belonging to Gaussian, Inc.
  
 This software is provided under written license and may be
 used, copied, transmitted, or stored only in accord with that
 written license.
  
 The following legend is applicable only to US Government
 contracts under FAR:
  
                    RESTRICTED RIGHTS LEGEND
  
 Use, reproduction and disclosure by the US Government is
 subject to restrictions as set forth in subparagraphs (a)
 and (c) of the Commercial Computer Software - Restricted
 Rights clause in FAR 52.227-19.
  
 Gaussian, Inc.
 340 Quinnipiac St., Bldg. 40, Wallingford CT 06492
  
  
 ---------------------------------------------------------------
 Warning -- This program may not be used in any manner that
 competes with the business of Gaussian, Inc. or will provide
 assistance to any competitor of Gaussian, Inc.  The licensee
 of this program is prohibited from giving any competitor of
 Gaussian, Inc. access to this program.  By using this program,
 the user acknowledges that Gaussian, Inc. is engaged in the
 business of creating and licensing software in the field of
 computational chemistry and represents and warrants to the
 licensee that it is not a competitor of Gaussian, Inc. and that
 it will not use this program in any manner prohibited above.
 ---------------------------------------------------------------
  

 Cite this work as:
 Gaussian 09, Revision D.01,
 M. J. Frisch, G. W. Trucks, H. B. Schlegel, G. E. Scuseria, 
 M. A. Robb, J. R. Cheeseman, G. Scalmani, V. Barone, B. Mennucci, 
 G. A. Petersson, H. Nakatsuji, M. Caricato, X. Li, H. P. Hratchian, 
 A. F. Izmaylov, J. Bloino, G. Zheng, J. L. Sonnenberg, M. Hada, 
 M. Ehara, K. Toyota, R. Fukuda, J. Hasegawa, M. Ishida, T. Nakajima, 
 Y. Honda, O. Kitao, H. Nakai, T. Vreven, J. A. Montgomery, Jr., 
 J. E. Peralta, F. Ogliaro, M. Bearpark, J. J. Heyd, E. Brothers, 
 K. N. Kudin, V. N. Staroverov, T. Keith, R. Kobayashi, J. Normand, 
 K. Raghavachari, A. Rendell, J. C. Burant, S. S. Iyengar, J. Tomasi, 
 M. Cossi, N. Rega, J. M. Millam, M. Klene, J. E. Knox, J. B. Cross, 
 V. Bakken, C. Adamo, J. Jaramillo, R. Gomperts, R. E. Stratmann, 
 O. Yazyev, A. J. Austin, R. Cammi, C. Pomelli, J. W. Ochterski, 
 R. L. Martin, K. Morokuma, V. G. Zakrzewski, G. A. Voth, 
 P. Salvador, J. J. Dannenberg, S. Dapprich, A. D. Daniels, 
 O. Farkas, J. B. Foresman, J. V. Ortiz, J. Cioslowski, 
 and D. J. Fox, Gaussian, Inc., Wallingford CT, 2013.
 
 ******************************************
 Gaussian 09:  IA32W-G09RevD.01 24-Apr-2013
                14-Mar-2025 
 ******************************************
 %nprocshared=4
 Will use up to    4 processors via shared memory.
 %mem=150MW
 %chk=ethyl_propiolate.chk
 --------------------------
 # ccsd(t)/6-311++g(d,p) sp
 --------------------------
 1/38=1/1;
 2/12=2,17=6,18=5,40=1/2;
 3/5=4,6=6,7=1111,11=9,16=1,25=1,30=1/1,2,3;
 4//1;
 5/5=2,38=5/2;
 8/6=4,9=120000,10=2/1,4;
 9/5=7,14=2/13;
 6/7=2,8=2,9=2,10=2/1;
 99/5=1,9=1/99;
 -------------------
 Title Card Required
 -------------------
 Symbolic Z-matrix:
 Charge =  0 Multiplicity = 2
 C                     2.51444   1.23278  -0.67878 
 H                     3.14333   2.03068  -0.99933 
 C                     1.81354   0.3296   -0.31779 
 C                     1.03131  -0.81666   0.14395 
 O                     1.53682  -1.84601   0.46839 
 O                    -0.30357  -0.65354   0.18787 
 C                    -0.91458   0.57399  -0.19386 
 C                    -1.05815   1.52779   0.96233 
 H                    -0.43807   0.99389  -1.08134 
 H                    -1.9892    0.23582  -0.53877 
 H                    -1.57802   1.04001   1.7878 
 H                    -0.07477   1.85913   1.30799 
 H                    -1.63106   2.40334   0.65353 
 O                    -3.11255  -0.53492  -0.68556 
 H                    -2.7172   -1.37218  -0.39058 
 
                          Input orientation:                          
 ---------------------------------------------------------------------
 Center     Atomic      Atomic             Coordinates (Angstroms)
 Number     Number       Type             X           Y           Z
 ---------------------------------------------------------------------
      1          6           0        2.514441    1.232780   -0.678783
      2          1           0        3.143333    2.030682   -0.999334
      3          6           0        1.813539    0.329599   -0.317788
      4          6           0        1.031312   -0.816657    0.143949
      5          8           0        1.536821   -1.846008    0.468393
      6          8           0       -0.303569   -0.653535    0.187874
      7          6           0       -0.914576    0.573986   -0.193864
      8          6           0       -1.058154    1.527792    0.962327
      9          1           0       -0.438065    0.993893   -1.081343
     10          1           0       -1.989196    0.235815   -0.538765
     11          1           0       -1.578015    1.040015    1.787800
     12          1           0       -0.074769    1.859128    1.307985
     13          1           0       -1.631061    2.403344    0.653533
     14          8           0       -3.112552   -0.534920   -0.685559
     15          1           0       -2.717196   -1.372179   -0.390579
 ---------------------------------------------------------------------
                    Distance matrix (angstroms):
                    1          2          3          4          5
     1  C    0.000000
     2  H    1.065320   0.000000
     3  C    1.198882   2.264186   0.000000
     4  C    2.660216   3.724925   1.462526   0.000000
     5  O    3.427928   4.445653   2.329790   1.191791   0.000000
     6  O    3.500066   4.527209   2.388387   1.345528   2.210818
     7  C    3.525240   4.386043   2.741841   2.415468   3.507749
     8  C    3.942551   4.664065   3.364667   3.245312   4.284903
     9  H    2.989383   3.729352   2.468608   2.634103   3.790369
    10  H    4.614790   5.456787   3.810304   3.270667   4.216770
    11  H    4.782195   5.571415   4.054729   3.599731   4.446590
    12  H    3.323186   3.963500   2.923748   3.120612   4.126763
    13  H    4.508933   5.066131   4.136321   4.209075   5.303465
    14  O    5.898123   6.768816   5.014880   4.235454   4.966611
    15  H    5.851401   6.804105   4.840342   3.826962   4.365662
                    6          7          8          9         10
     6  O    0.000000
     7  C    1.423328   0.000000
     8  C    2.434618   1.505702   0.000000
     9  H    2.083991   1.091331   2.201396   0.000000
    10  H    2.039678   1.178187   2.188452   1.809718   0.000000
    11  H    2.655577   2.141104   1.090682   3.087652   2.495739
    12  H    2.760521   2.147654   1.093759   2.567003   3.116193
    13  H    3.365053   2.139622   1.090948   2.533690   2.499603
    14  O    2.944035   2.510485   3.345274   3.105929   1.370222
    15  H    2.583922   2.660018   3.604526   3.357066   1.771324
                   11         12         13         14         15
    11  H    0.000000
    12  H    1.777897   0.000000
    13  H    1.774272   1.773844   0.000000
    14  O    3.309491   4.351300   3.552658   0.000000
    15  H    3.444089   4.506538   4.065026   0.971762   0.000000
 Stoichiometry    C5H7O3(2)
 Framework group  C1[X(C5H7O3)]
 Deg. of freedom    39
 Full point group                 C1      NOp   1
 Largest Abelian subgroup         C1      NOp   1
 Largest concise Abelian subgroup C1      NOp   1
                         Standard orientation:                         
 ---------------------------------------------------------------------
 Center     Atomic      Atomic             Coordinates (Angstroms)
 Number     Number       Type             X           Y           Z
 ---------------------------------------------------------------------
      1          6           0        2.514441    1.232780   -0.678783
      2          1           0        3.143333    2.030682   -0.999334
      3          6           0        1.813539    0.329599   -0.317788
      4          6           0        1.031312   -0.816657    0.143949
      5          8           0        1.536821   -1.846008    0.468393
      6          8           0       -0.303569   -0.653535    0.187874
      7          6           0       -0.914576    0.573986   -0.193864
      8          6           0       -1.058154    1.527792    0.962327
      9          1           0       -0.438065    0.993893   -1.081343
     10          1           0       -1.989196    0.235815   -0.538765
     11          1           0       -1.578015    1.040015    1.787800
     12          1           0       -0.074769    1.859128    1.307985
     13          1           0       -1.631061    2.403344    0.653533
     14          8           0       -3.112552   -0.534920   -0.685559
     15          1           0       -2.717196   -1.372179   -0.390579
 ---------------------------------------------------------------------
 Rotational constants (GHZ):      2.7995221      1.2313826      0.9814032
 Standard basis: 6-311++G(d,p) (5D, 7F)
 There are   233 symmetry adapted cartesian basis functions of A   symmetry.
 There are   225 symmetry adapted basis functions of A   symmetry.
   225 basis functions,   351 primitive gaussians,   233 cartesian basis functions
    31 alpha electrons       30 beta electrons
       nuclear repulsion energy       350.6023668605 Hartrees.
 NAtoms=   15 NActive=   15 NUniq=   15 SFac= 1.00D+00 NAtFMM=   60 NAOKFM=F Big=F
 Integral buffers will be    262144 words long.
 Raffenetti 2 integral format.
 Two-electron integral symmetry is turned on.
 One-electron integrals computed using PRISM.
 NBasis=   225 RedAO= T EigKep=  1.51D-06  NBF=   225
 NBsUse=   225 1.00D-06 EigRej= -1.00D+00 NBFU=   225
 ExpMin= 3.60D-02 ExpMax= 8.59D+03 ExpMxC= 1.30D+03 IAcc=3 IRadAn=         5 AccDes= 0.00D+00
 Harris functional with IExCor=  205 and IRadAn=       5 diagonalized for initial guess.
 HarFok:  IExCor=  205 AccDes= 0.00D+00 IRadAn=         5 IDoV= 1 UseB2=F ITyADJ=14
 ICtDFT=  3500011 ScaDFX=  1.000000  1.000000  1.000000  1.000000
 FoFCou: FMM=F IPFlag=           0 FMFlag=      100000 FMFlg1=           0
         NFxFlg=           0 DoJE=T BraDBF=F KetDBF=T FulRan=T
         wScrn=  0.000000 ICntrl=     500 IOpCl=  0 I1Cent=   200000004 NGrid=           0
         NMat0=    1 NMatS0=      1 NMatT0=    0 NMatD0=    1 NMtDS0=    0 NMtDT0=    0
 Petite list used in FoFCou.
 Initial guess <Sx>= 0.0000 <Sy>= 0.0000 <Sz>= 0.5000 <S**2>= 0.7500 S= 0.5000
 Requested convergence on RMS density matrix=1.00D-08 within 128 cycles.
 Requested convergence on MAX density matrix=1.00D-06.
 Requested convergence on             energy=1.00D-06.
 No special actions if energy rises.
 Initial convergence to 1.0D-05 achieved.  Increase integral accuracy.
 Restarting incremental Fock formation.
 SCF Done:  E(UHF) =  -417.960145297     A.U. after   36 cycles
            NFock= 36  Conv=0.83D-08     -V/T= 2.0007
 <Sx>= 0.0000 <Sy>= 0.0000 <Sz>= 0.5000 <S**2>= 0.7744 S= 0.5121
 <L.S>= 0.000000000000E+00
 Annihilation of the first spin contaminant:
 S**2 before annihilation     0.7744,   after     0.7503
 ExpMin= 3.60D-02 ExpMax= 8.59D+03 ExpMxC= 1.30D+03 IAcc=3 IRadAn=         5 AccDes= 0.00D+00
 HarFok:  IExCor=  205 AccDes= 0.00D+00 IRadAn=         5 IDoV=-2 UseB2=F ITyADJ=14
 ICtDFT= 12500011 ScaDFX=  1.000000  1.000000  1.000000  1.000000
 Range of M.O.s used for correlation:     9   225
 NBasis=   225 NAE=    31 NBE=    30 NFC=     8 NFV=     0
 NROrb=    217 NOA=    23 NOB=    22 NVA=   194 NVB=   195

 **** Warning!!: The largest alpha MO coefficient is  0.21576423D+03


 **** Warning!!: The largest beta MO coefficient is  0.20940228D+03

 Semi-Direct transformation.
 ModeAB=           4 MOrb=            23 LenV=     156192751
 LASXX=    109339976 LTotXX=   109339976 LenRXX=   221407890
 LTotAB=   112067914 MaxLAS=   129271891 LenRXY=           0
 NonZer=   330747866 LenScr=   498161664 LnRSAI=   129271891
 LnScr1=   194939904 LExtra=           0 Total=   1043781349
 MaxDsk=          -1 SrtSym=           T ITran=            4
 JobTyp=1 Pass  1:  I=   1 to  23.
 (rs|ai) integrals will be sorted in core.
 ModeAB=           4 MOrb=            22 LenV=     156192751
 LASXX=    104936601 LTotXX=   104936601 LenRXX=   190867446
 LTotAB=    85930845 MaxLAS=   123651374 LenRXY=           0
 NonZer=   295804047 LenScr=   445774336 LnRSAI=   123651374
 LnScr1=   186503680 LExtra=           0 Total=    946796836
 MaxDsk=          -1 SrtSym=           T ITran=            4
 JobTyp=2 Pass  1:  I=   1 to  22.
 (rs|ai) integrals will be sorted in core.
 SymMOI:  orbitals are not symmetric.
 Spin components of T(2) and E(2):
     alpha-alpha T2 =       0.5335242872D-01 E2=     -0.1718962296D+00
     alpha-beta  T2 =       0.2932361914D+00 E2=     -0.9473552866D+00
     beta-beta   T2 =       0.5200059311D-01 E2=     -0.1598511793D+00
 ANorm=    0.1182619640D+01
 E2 =    -0.1279102695D+01 EUMP2 =    -0.41923924799193D+03
 (S**2,0)=  0.77440D+00           (S**2,1)=  0.75821D+00
 E(PUHF)=      -0.41796648128D+03        E(PMP2)=      -0.41924349674D+03
 Would need an additional       495550238 words for in-memory AO integral storage.
 Iterations=  50 Convergence= 0.100D-06
 Iteration Nr.   1
 **********************
 DD1Dir will call FoFJK   3 times, MxPair=       500
 NAB=   506 NAA=   253 NBB=   231 NumPrc=  4.
 FoFJK:  IHMeth= 1 ICntrl=     200 DoSepK=F KAlg= 0 I1Cent=   0 FoldK=F
 IRaf= 990000000 NMat= 500 IRICut=     625 DoRegI=T DoRafI=T ISym2E= 2.
 FoFCou: FMM=F IPFlag=           0 FMFlag=      100000 FMFlg1=           0
         NFxFlg=           0 DoJE=F BraDBF=F KetDBF=F FulRan=T
         wScrn=  0.000000 ICntrl=     200 IOpCl=  0 I1Cent=           0 NGrid=           0
         NMat0=  500 NMatS0=      0 NMatT0=  250 NMatD0=  500 NMtDS0=    0 NMtDT0=    0
 Integrals replicated using symmetry in FoFCou.
 E(PMP3)=      -0.41926493661D+03
 MP4(R+Q)=  0.25956272D-01
 E3=       -0.23112105D-01        EUMP3=      -0.41926236010D+03
 E4(DQ)=   -0.56382452D-02        UMP4(DQ)=   -0.41926799834D+03
 E4(SDQ)=  -0.25396818D-01        UMP4(SDQ)=  -0.41928775692D+03
 DE(Corr)=  -1.2755466     E(Corr)=     -419.23569189    
 NORM(A)=   0.11876649D+01
 Iteration Nr.   2
 **********************
 DD1Dir will call FoFJK   3 times, MxPair=       500
 NAB=   506 NAA=   253 NBB=   231 NumPrc=  4.
 DE(Corr)=  -1.3189476     E(CORR)=     -419.27909294     Delta=-4.34D-02
 NORM(A)=   0.12059755D+01
 Iteration Nr.   3
 **********************
 DD1Dir will call FoFJK   3 times, MxPair=       500
 NAB=   506 NAA=   253 NBB=   231 NumPrc=  4.
 DE(Corr)=  -1.3203098     E(CORR)=     -419.28045511     Delta=-1.36D-03
 NORM(A)=   0.12128899D+01
 Iteration Nr.   4
 **********************
 DD1Dir will call FoFJK   3 times, MxPair=       500
 NAB=   506 NAA=   253 NBB=   231 NumPrc=  4.
 DE(Corr)=  -1.3255679     E(CORR)=     -419.28571323     Delta=-5.26D-03
 NORM(A)=   0.12161029D+01
 Iteration Nr.   5
 **********************
 DD1Dir will call FoFJK   3 times, MxPair=       500
 NAB=   506 NAA=   253 NBB=   231 NumPrc=  4.
 DE(Corr)=  -1.3265926     E(CORR)=     -419.28673788     Delta=-1.02D-03
 NORM(A)=   0.12181168D+01
 Iteration Nr.   6
 **********************
 DD1Dir will call FoFJK   3 times, MxPair=       500
 NAB=   506 NAA=   253 NBB=   231 NumPrc=  4.
 DE(Corr)=  -1.3269247     E(CORR)=     -419.28706996     Delta=-3.32D-04
 NORM(A)=   0.12187198D+01
 Iteration Nr.   7
 **********************
 DD1Dir will call FoFJK   3 times, MxPair=       500
 NAB=   506 NAA=   253 NBB=   231 NumPrc=  4.
 DE(Corr)=  -1.3270111     E(CORR)=     -419.28715644     Delta=-8.65D-05
 NORM(A)=   0.12188964D+01
 Iteration Nr.   8
 **********************
 DD1Dir will call FoFJK   3 times, MxPair=       500
 NAB=   506 NAA=   253 NBB=   231 NumPrc=  4.
 DE(Corr)=  -1.3269995     E(CORR)=     -419.28714479     Delta= 1.16D-05
 NORM(A)=   0.12189795D+01
 Iteration Nr.   9
 **********************
 DD1Dir will call FoFJK   3 times, MxPair=       500
 NAB=   506 NAA=   253 NBB=   231 NumPrc=  4.
 DE(Corr)=  -1.3270149     E(CORR)=     -419.28716023     Delta=-1.54D-05
 NORM(A)=   0.12190008D+01
 Iteration Nr.  10
 **********************
 DD1Dir will call FoFJK   3 times, MxPair=       500
 NAB=   506 NAA=   253 NBB=   231 NumPrc=  4.
 DE(Corr)=  -1.3270178     E(CORR)=     -419.28716313     Delta=-2.90D-06
 NORM(A)=   0.12190143D+01
 Iteration Nr.  11
 **********************
 DD1Dir will call FoFJK   3 times, MxPair=       500
 NAB=   506 NAA=   253 NBB=   231 NumPrc=  4.
 DE(Corr)=  -1.3270274     E(CORR)=     -419.28717271     Delta=-9.58D-06
 NORM(A)=   0.12190291D+01
 Iteration Nr.  12
 **********************
 DD1Dir will call FoFJK   3 times, MxPair=       500
 NAB=   506 NAA=   253 NBB=   231 NumPrc=  4.
 DE(Corr)=  -1.3270309     E(CORR)=     -419.28717616     Delta=-3.45D-06
 NORM(A)=   0.12190399D+01
 Iteration Nr.  13
 **********************
 DD1Dir will call FoFJK   3 times, MxPair=       500
 NAB=   506 NAA=   253 NBB=   231 NumPrc=  4.
 DE(Corr)=  -1.3270339     E(CORR)=     -419.28717921     Delta=-3.06D-06
 NORM(A)=   0.12190494D+01
 Iteration Nr.  14
 **********************
 DD1Dir will call FoFJK   3 times, MxPair=       500
 NAB=   506 NAA=   253 NBB=   231 NumPrc=  4.
 DE(Corr)=  -1.3270359     E(CORR)=     -419.28718123     Delta=-2.02D-06
 NORM(A)=   0.12190580D+01
 Iteration Nr.  15
 **********************
 DD1Dir will call FoFJK   3 times, MxPair=       500
 NAB=   506 NAA=   253 NBB=   231 NumPrc=  4.
 DE(Corr)=  -1.3270370     E(CORR)=     -419.28718233     Delta=-1.10D-06
 NORM(A)=   0.12190662D+01
 Iteration Nr.  16
 **********************
 DD1Dir will call FoFJK   3 times, MxPair=       500
 NAB=   506 NAA=   253 NBB=   231 NumPrc=  4.
 DE(Corr)=  -1.3270388     E(CORR)=     -419.28718407     Delta=-1.73D-06
 NORM(A)=   0.12190714D+01
 Iteration Nr.  17
 **********************
 DD1Dir will call FoFJK   3 times, MxPair=       500
 NAB=   506 NAA=   253 NBB=   231 NumPrc=  4.
 DE(Corr)=  -1.3270392     E(CORR)=     -419.28718448     Delta=-4.11D-07
 NORM(A)=   0.12190721D+01
 Iteration Nr.  18
 **********************
 DD1Dir will call FoFJK   3 times, MxPair=       500
 NAB=   506 NAA=   253 NBB=   231 NumPrc=  4.
 DE(Corr)=  -1.3270394     E(CORR)=     -419.28718468     Delta=-1.98D-07
 NORM(A)=   0.12190706D+01
 Iteration Nr.  19
 **********************
 DD1Dir will call FoFJK   3 times, MxPair=       500
 NAB=   506 NAA=   253 NBB=   231 NumPrc=  4.
 DE(Corr)=  -1.3270389     E(CORR)=     -419.28718419     Delta= 4.87D-07
 NORM(A)=   0.12190684D+01
 Iteration Nr.  20
 **********************
 DD1Dir will call FoFJK   3 times, MxPair=       500
 NAB=   506 NAA=   253 NBB=   231 NumPrc=  4.
 DE(Corr)=  -1.3270384     E(CORR)=     -419.28718371     Delta= 4.78D-07
 NORM(A)=   0.12190668D+01
 Iteration Nr.  21
 **********************
 DD1Dir will call FoFJK   3 times, MxPair=       500
 NAB=   506 NAA=   253 NBB=   231 NumPrc=  4.
 DE(Corr)=  -1.3270381     E(CORR)=     -419.28718335     Delta= 3.60D-07
 NORM(A)=   0.12190659D+01
 Iteration Nr.  22
 **********************
 DD1Dir will call FoFJK   3 times, MxPair=       500
 NAB=   506 NAA=   253 NBB=   231 NumPrc=  4.
 DE(Corr)=  -1.3270378     E(CORR)=     -419.28718314     Delta= 2.14D-07
 NORM(A)=   0.12190656D+01
 Iteration Nr.  23
 **********************
 DD1Dir will call FoFJK   3 times, MxPair=       500
 NAB=   506 NAA=   253 NBB=   231 NumPrc=  4.
 DE(Corr)=  -1.3270378     E(CORR)=     -419.28718312     Delta= 2.06D-08
 NORM(A)=   0.12190657D+01
 Iteration Nr.  24
 **********************
 DD1Dir will call FoFJK   3 times, MxPair=       500
 NAB=   506 NAA=   253 NBB=   231 NumPrc=  4.
 DE(Corr)=  -1.3270378     E(CORR)=     -419.28718313     Delta=-1.47D-08
 NORM(A)=   0.12190659D+01
 Iteration Nr.  25
 **********************
 DD1Dir will call FoFJK   3 times, MxPair=       500
 NAB=   506 NAA=   253 NBB=   231 NumPrc=  4.
 DE(Corr)=  -1.3270379     E(CORR)=     -419.28718319     Delta=-6.17D-08
 NORM(A)=   0.12190663D+01
 Iteration Nr.  26
 **********************
 DD1Dir will call FoFJK   3 times, MxPair=       500
 NAB=   506 NAA=   253 NBB=   231 NumPrc=  4.
 DE(Corr)=  -1.3270380     E(CORR)=     -419.28718325     Delta=-6.23D-08
 NORM(A)=   0.12190666D+01
 Iteration Nr.  27
 **********************
 DD1Dir will call FoFJK   3 times, MxPair=       500
 NAB=   506 NAA=   253 NBB=   231 NumPrc=  4.
 DE(Corr)=  -1.3270380     E(CORR)=     -419.28718331     Delta=-5.04D-08
 NORM(A)=   0.12190668D+01
 Iteration Nr.  28
 **********************
 DD1Dir will call FoFJK   3 times, MxPair=       500
 NAB=   506 NAA=   253 NBB=   231 NumPrc=  4.
 DE(Corr)=  -1.3270380     E(CORR)=     -419.28718334     Delta=-3.85D-08
 NORM(A)=   0.12190669D+01
 Iteration Nr.  29
 **********************
 DD1Dir will call FoFJK   3 times, MxPair=       500
 NAB=   506 NAA=   253 NBB=   231 NumPrc=  4.
 DE(Corr)=  -1.3270381     E(CORR)=     -419.28718335     Delta=-1.07D-08
 NORM(A)=   0.12190669D+01
 Iteration Nr.  30
 **********************
 DD1Dir will call FoFJK   3 times, MxPair=       500
 NAB=   506 NAA=   253 NBB=   231 NumPrc=  4.
 DE(Corr)=  -1.3270380     E(CORR)=     -419.28718334     Delta= 1.84D-08
 NORM(A)=   0.12190667D+01
 Iteration Nr.  31
 **********************
 DD1Dir will call FoFJK   3 times, MxPair=       500
 NAB=   506 NAA=   253 NBB=   231 NumPrc=  4.
 DE(Corr)=  -1.3270380     E(CORR)=     -419.28718331     Delta= 2.62D-08
 NORM(A)=   0.12190666D+01
 Iteration Nr.  32
 **********************
 DD1Dir will call FoFJK   3 times, MxPair=       500
 NAB=   506 NAA=   253 NBB=   231 NumPrc=  4.
 DE(Corr)=  -1.3270380     E(CORR)=     -419.28718328     Delta= 2.97D-08
 NORM(A)=   0.12190665D+01
 Iteration Nr.  33
 **********************
 DD1Dir will call FoFJK   3 times, MxPair=       500
 NAB=   506 NAA=   253 NBB=   231 NumPrc=  4.
 DE(Corr)=  -1.3270380     E(CORR)=     -419.28718326     Delta= 2.01D-08
 NORM(A)=   0.12190666D+01
 Iteration Nr.  34
 **********************
 DD1Dir will call FoFJK   3 times, MxPair=       500
 NAB=   506 NAA=   253 NBB=   231 NumPrc=  4.
 DE(Corr)=  -1.3270380     E(CORR)=     -419.28718329     Delta=-2.94D-08
 NORM(A)=   0.12190667D+01
 Iteration Nr.  35
 **********************
 DD1Dir will call FoFJK   3 times, MxPair=       500
 NAB=   506 NAA=   253 NBB=   231 NumPrc=  4.
 DE(Corr)=  -1.3270380     E(CORR)=     -419.28718331     Delta=-1.82D-08
 NORM(A)=   0.12190665D+01
 Iteration Nr.  36
 **********************
 DD1Dir will call FoFJK   3 times, MxPair=       500
 NAB=   506 NAA=   253 NBB=   231 NumPrc=  4.
 DE(Corr)=  -1.3270380     E(CORR)=     -419.28718326     Delta= 4.47D-08
 NORM(A)=   0.12190665D+01
 Largest amplitude= 3.94D-02
 Time for triples=    12478.00 seconds.
 T4(CCSD)= -0.58239254D-01
 T5(CCSD)=  0.38230776D-02
 CCSD(T)= -0.41934159944D+03

 S**2, projected HF & approx projected MPn energies after annihilation of
 unwanted spin states (see manual for definitions):

 spins       (S**2,0) (S**2,1)    PUHF        PMP2        PMP3        PMP4
 annihilated
 s+1         0.74983  0.75007 -417.966481 -419.243497 -419.264937
 s+1,s+2     0.75000  0.75000 -417.966441 -419.243461 -419.264906
 s+1 to s+3  0.75000  0.75000 -417.966441 -419.243461 -419.264906
 s+1 to s+4  0.75000  0.75000 -417.966441 -419.243461 -419.264905
 s+1 to s+5  0.75000  0.75000 -417.966441
 s+1 to s+6  0.75000  0.75000 -417.966441

 Discarding MO integrals.

 **********************************************************************

            Population analysis using the SCF density.

 **********************************************************************

 Orbital symmetries:
 Alpha Orbitals:
       Occupied  (A) (A) (A) (A) (A) (A) (A) (A) (A) (A) (A) (A)
                 (A) (A) (A) (A) (A) (A) (A) (A) (A) (A) (A) (A)
                 (A) (A) (A) (A) (A) (A) (A)
       Virtual   (A) (A) (A) (A) (A) (A) (A) (A) (A) (A) (A) (A)
                 (A) (A) (A) (A) (A) (A) (A) (A) (A) (A) (A) (A)
                 (A) (A) (A) (A) (A) (A) (A) (A) (A) (A) (A) (A)
                 (A) (A) (A) (A) (A) (A) (A) (A) (A) (A) (A) (A)
                 (A) (A) (A) (A) (A) (A) (A) (A) (A) (A) (A) (A)
                 (A) (A) (A) (A) (A) (A) (A) (A) (A) (A) (A) (A)
                 (A) (A) (A) (A) (A) (A) (A) (A) (A) (A) (A) (A)
                 (A) (A) (A) (A) (A) (A) (A) (A) (A) (A) (A) (A)
                 (A) (A) (A) (A) (A) (A) (A) (A) (A) (A) (A) (A)
                 (A) (A) (A) (A) (A) (A) (A) (A) (A) (A) (A) (A)
                 (A) (A) (A) (A) (A) (A) (A) (A) (A) (A) (A) (A)
                 (A) (A) (A) (A) (A) (A) (A) (A) (A) (A) (A) (A)
                 (A) (A) (A) (A) (A) (A) (A) (A) (A) (A) (A) (A)
                 (A) (A) (A) (A) (A) (A) (A) (A) (A) (A) (A) (A)
                 (A) (A) (A) (A) (A) (A) (A) (A) (A) (A) (A) (A)
                 (A) (A) (A) (A) (A) (A) (A) (A) (A) (A) (A) (A)
                 (A) (A)
 Beta  Orbitals:
       Occupied  (A) (A) (A) (A) (A) (A) (A) (A) (A) (A) (A) (A)
                 (A) (A) (A) (A) (A) (A) (A) (A) (A) (A) (A) (A)
                 (A) (A) (A) (A) (A) (A)
       Virtual   (A) (A) (A) (A) (A) (A) (A) (A) (A) (A) (A) (A)
                 (A) (A) (A) (A) (A) (A) (A) (A) (A) (A) (A) (A)
                 (A) (A) (A) (A) (A) (A) (A) (A) (A) (A) (A) (A)
                 (A) (A) (A) (A) (A) (A) (A) (A) (A) (A) (A) (A)
                 (A) (A) (A) (A) (A) (A) (A) (A) (A) (A) (A) (A)
                 (A) (A) (A) (A) (A) (A) (A) (A) (A) (A) (A) (A)
                 (A) (A) (A) (A) (A) (A) (A) (A) (A) (A) (A) (A)
                 (A) (A) (A) (A) (A) (A) (A) (A) (A) (A) (A) (A)
                 (A) (A) (A) (A) (A) (A) (A) (A) (A) (A) (A) (A)
                 (A) (A) (A) (A) (A) (A) (A) (A) (A) (A) (A) (A)
                 (A) (A) (A) (A) (A) (A) (A) (A) (A) (A) (A) (A)
                 (A) (A) (A) (A) (A) (A) (A) (A) (A) (A) (A) (A)
                 (A) (A) (A) (A) (A) (A) (A) (A) (A) (A) (A) (A)
                 (A) (A) (A) (A) (A) (A) (A) (A) (A) (A) (A) (A)
                 (A) (A) (A) (A) (A) (A) (A) (A) (A) (A) (A) (A)
                 (A) (A) (A) (A) (A) (A) (A) (A) (A) (A) (A) (A)
                 (A) (A) (A)
 The electronic state is 2-A.
 Alpha  occ. eigenvalues --  -20.63733 -20.62122 -20.56578 -11.42477 -11.31339
 Alpha  occ. eigenvalues --  -11.28151 -11.27349 -11.23585  -1.48659  -1.40420
 Alpha  occ. eigenvalues --   -1.39167  -1.08267  -1.05902  -0.92586  -0.88288
 Alpha  occ. eigenvalues --   -0.77131  -0.74677  -0.73466  -0.69101  -0.67842
 Alpha  occ. eigenvalues --   -0.66897  -0.61110  -0.59232  -0.56659  -0.56356
 Alpha  occ. eigenvalues --   -0.54537  -0.49894  -0.48496  -0.45172  -0.43800
 Alpha  occ. eigenvalues --   -0.43387
 Alpha virt. eigenvalues --    0.03121   0.04735   0.05688   0.06164   0.07286
 Alpha virt. eigenvalues --    0.08143   0.08974   0.09477   0.10366   0.11991
 Alpha virt. eigenvalues --    0.12805   0.13387   0.14921   0.15633   0.15712
 Alpha virt. eigenvalues --    0.16014   0.17254   0.17759   0.18961   0.19428
 Alpha virt. eigenvalues --    0.19802   0.19946   0.20653   0.21663   0.23099
 Alpha virt. eigenvalues --    0.23339   0.24302   0.25810   0.28424   0.29361
 Alpha virt. eigenvalues --    0.30410   0.30678   0.31222   0.32233   0.33267
 Alpha virt. eigenvalues --    0.34339   0.35129   0.36309   0.37017   0.39124
 Alpha virt. eigenvalues --    0.39744   0.40508   0.40632   0.41604   0.42354
 Alpha virt. eigenvalues --    0.43936   0.45192   0.45662   0.46949   0.49067
 Alpha virt. eigenvalues --    0.50647   0.54292   0.57551   0.58958   0.62443
 Alpha virt. eigenvalues --    0.62891   0.64640   0.66257   0.71121   0.71753
 Alpha virt. eigenvalues --    0.75275   0.77351   0.78259   0.79253   0.82354
 Alpha virt. eigenvalues --    0.84456   0.85208   0.85802   0.86199   0.87522
 Alpha virt. eigenvalues --    0.88336   0.90305   0.92794   0.97065   0.98972
 Alpha virt. eigenvalues --    1.02101   1.04749   1.07756   1.15214   1.17683
 Alpha virt. eigenvalues --    1.22628   1.25362   1.26535   1.27704   1.30012
 Alpha virt. eigenvalues --    1.30480   1.34670   1.36582   1.37390   1.39381
 Alpha virt. eigenvalues --    1.40782   1.43330   1.47460   1.49113   1.50604
 Alpha virt. eigenvalues --    1.52435   1.53430   1.56734   1.59819   1.62132
 Alpha virt. eigenvalues --    1.63767   1.67972   1.69374   1.71355   1.78268
 Alpha virt. eigenvalues --    1.81415   1.82919   1.84253   1.85416   1.86520
 Alpha virt. eigenvalues --    1.87822   1.90451   1.92760   1.94214   2.00266
 Alpha virt. eigenvalues --    2.01577   2.02929   2.06635   2.07329   2.11597
 Alpha virt. eigenvalues --    2.15979   2.19431   2.24467   2.27890   2.30407
 Alpha virt. eigenvalues --    2.34826   2.37392   2.42674   2.44556   2.54186
 Alpha virt. eigenvalues --    2.60590   2.70336   2.74640   2.79830   2.81125
 Alpha virt. eigenvalues --    2.83562   2.87150   2.88852   2.91508   2.92374
 Alpha virt. eigenvalues --    2.94083   2.95586   2.97279   3.02958   3.05444
 Alpha virt. eigenvalues --    3.12158   3.13259   3.15339   3.19149   3.24634
 Alpha virt. eigenvalues --    3.27168   3.29621   3.34292   3.35743   3.39270
 Alpha virt. eigenvalues --    3.40970   3.45078   3.46634   3.46763   3.55975
 Alpha virt. eigenvalues --    3.58742   3.68067   3.68578   3.73237   3.77960
 Alpha virt. eigenvalues --    3.80566   3.90280   3.99792   4.12119   4.15652
 Alpha virt. eigenvalues --    4.21446   4.22100   4.30581   4.44322   4.52322
 Alpha virt. eigenvalues --    4.53293   4.70014   5.48745   5.59631   5.61477
 Alpha virt. eigenvalues --    5.67469   5.72888   5.88874   6.02462   6.17579
 Alpha virt. eigenvalues --    6.46673  24.68229  24.97264  25.00820  25.12721
 Alpha virt. eigenvalues --   26.27092  51.51475  51.58582  51.72783
  Beta  occ. eigenvalues --  -20.62165 -20.59922 -20.56584 -11.42444 -11.30359
  Beta  occ. eigenvalues --  -11.28124 -11.27373 -11.23641  -1.48592  -1.39323
  Beta  occ. eigenvalues --   -1.26353  -1.08239  -1.04577  -0.92135  -0.87504
  Beta  occ. eigenvalues --   -0.76230  -0.73849  -0.69659  -0.67379  -0.66079
  Beta  occ. eigenvalues --   -0.62010  -0.59070  -0.56377  -0.54997  -0.51902
  Beta  occ. eigenvalues --   -0.50718  -0.48731  -0.46729  -0.43854  -0.43618
  Beta virt. eigenvalues --    0.03123   0.04341   0.05249   0.05891   0.07022
  Beta virt. eigenvalues --    0.07361   0.08188   0.09253   0.09514   0.10914
  Beta virt. eigenvalues --    0.12007   0.12824   0.13542   0.15051   0.15658
  Beta virt. eigenvalues --    0.15824   0.16027   0.17355   0.17834   0.19032
  Beta virt. eigenvalues --    0.19476   0.19875   0.20288   0.20730   0.21777
  Beta virt. eigenvalues --    0.23146   0.23445   0.24375   0.26029   0.28679
  Beta virt. eigenvalues --    0.29477   0.30697   0.30792   0.31483   0.33121
  Beta virt. eigenvalues --    0.33869   0.34518   0.35281   0.37075   0.37319
  Beta virt. eigenvalues --    0.39465   0.39909   0.40559   0.40781   0.41894
  Beta virt. eigenvalues --    0.42504   0.44328   0.45418   0.45982   0.47288
  Beta virt. eigenvalues --    0.50738   0.52960   0.54515   0.57864   0.59029
  Beta virt. eigenvalues --    0.62505   0.62983   0.64732   0.66440   0.71302
  Beta virt. eigenvalues --    0.72470   0.75615   0.77531   0.78253   0.79488
  Beta virt. eigenvalues --    0.83303   0.85020   0.85443   0.86009   0.86679
  Beta virt. eigenvalues --    0.87814   0.88508   0.90479   0.92906   0.97411
  Beta virt. eigenvalues --    0.99298   1.02331   1.04939   1.07930   1.15318
  Beta virt. eigenvalues --    1.18698   1.23263   1.26092   1.27606   1.29251
  Beta virt. eigenvalues --    1.30407   1.33109   1.36496   1.37404   1.38560
  Beta virt. eigenvalues --    1.40546   1.41873   1.43479   1.47787   1.49309
  Beta virt. eigenvalues --    1.50842   1.52865   1.53619   1.56973   1.59802
  Beta virt. eigenvalues --    1.62639   1.63923   1.69233   1.70150   1.71484
  Beta virt. eigenvalues --    1.80337   1.81899   1.83029   1.84981   1.85748
  Beta virt. eigenvalues --    1.86964   1.88064   1.90666   1.93550   1.94447
  Beta virt. eigenvalues --    2.00734   2.01860   2.03268   2.06836   2.07748
  Beta virt. eigenvalues --    2.11981   2.16517   2.19529   2.24755   2.28112
  Beta virt. eigenvalues --    2.30624   2.35895   2.37576   2.42864   2.45324
  Beta virt. eigenvalues --    2.56050   2.60889   2.70476   2.76355   2.79907
  Beta virt. eigenvalues --    2.81041   2.83525   2.87243   2.88901   2.91749
  Beta virt. eigenvalues --    2.92710   2.94354   2.95782   2.97578   3.03242
  Beta virt. eigenvalues --    3.05383   3.12288   3.13169   3.15626   3.22460
  Beta virt. eigenvalues --    3.25529   3.29621   3.31968   3.34891   3.35780
  Beta virt. eigenvalues --    3.39393   3.41128   3.45358   3.48441   3.54875
  Beta virt. eigenvalues --    3.56907   3.59010   3.68216   3.68823   3.73624
  Beta virt. eigenvalues --    3.77976   3.85379   3.90554   3.99836   4.12519
  Beta virt. eigenvalues --    4.16866   4.21637   4.22211   4.33537   4.45202
  Beta virt. eigenvalues --    4.52729   4.53874   4.70255   5.51008   5.59719
  Beta virt. eigenvalues --    5.61469   5.72883   5.77578   5.89384   6.04995
  Beta virt. eigenvalues --    6.17642   6.46694  24.68231  24.97932  25.00894
  Beta virt. eigenvalues --   25.12692  26.27094  51.53655  51.58570  51.72777
          Condensed to atoms (all electrons):
               1          2          3          4          5          6
     1  C   27.521372   0.891086 -11.975105  -8.406893  -0.144247  -0.010538
     2  H    0.891086   0.407889  -0.417547  -0.092776  -0.004913  -0.003778
     3  C  -11.975105  -0.417547  14.611849   1.917722   0.031845  -0.195827
     4  C   -8.406893  -0.092776   1.917722  12.171272   0.459558   0.102705
     5  O   -0.144247  -0.004913   0.031845   0.459558   8.034350  -0.049708
     6  O   -0.010538  -0.003778  -0.195827   0.102705  -0.049708   8.278922
     7  C   -0.239690  -0.006899   0.104733  -0.087857  -0.004642   0.240650
     8  C    0.131199   0.004574  -0.074243   0.033949   0.004942  -0.129688
     9  H    0.017953  -0.002473   0.028712  -0.061404   0.001049  -0.015341
    10  H   -0.051266  -0.000986   0.027089   0.011040   0.002014  -0.084136
    11  H    0.016573   0.000571  -0.005228  -0.009239   0.000545  -0.006142
    12  H   -0.063054  -0.003609   0.063667   0.011057  -0.000804  -0.011395
    13  H    0.009079   0.000201  -0.004859  -0.008052   0.000340   0.016447
    14  O    0.006310   0.000188  -0.003321   0.000616   0.000342   0.018378
    15  H   -0.004087  -0.000042  -0.009577   0.009769  -0.000785   0.000029
               7          8          9         10         11         12
     1  C   -0.239690   0.131199   0.017953  -0.051266   0.016573  -0.063054
     2  H   -0.006899   0.004574  -0.002473  -0.000986   0.000571  -0.003609
     3  C    0.104733  -0.074243   0.028712   0.027089  -0.005228   0.063667
     4  C   -0.087857   0.033949  -0.061404   0.011040  -0.009239   0.011057
     5  O   -0.004642   0.004942   0.001049   0.002014   0.000545  -0.000804
     6  O    0.240650  -0.129688  -0.015341  -0.084136  -0.006142  -0.011395
     7  C    6.044643  -0.394609   0.444445   0.391720  -0.061004  -0.010891
     8  C   -0.394609   5.795072  -0.086707  -0.125143   0.443860   0.360605
     9  H    0.444445  -0.086707   0.558738  -0.047939  -0.000354   0.000198
    10  H    0.391720  -0.125143  -0.047939   0.725563  -0.018674   0.022299
    11  H   -0.061004   0.443860  -0.000354  -0.018674   0.538094  -0.051012
    12  H   -0.010891   0.360605   0.000198   0.022299  -0.051012   0.595448
    13  H   -0.061931   0.433784  -0.003796  -0.010808  -0.031008  -0.034584
    14  O    0.005009   0.001442  -0.004886  -0.077485   0.004624  -0.005162
    15  H    0.026416   0.002656   0.000826  -0.035613  -0.001278   0.000090
              13         14         15
     1  C    0.009079   0.006310  -0.004087
     2  H    0.000201   0.000188  -0.000042
     3  C   -0.004859  -0.003321  -0.009577
     4  C   -0.008052   0.000616   0.009769
     5  O    0.000340   0.000342  -0.000785
     6  O    0.016447   0.018378   0.000029
     7  C   -0.061931   0.005009   0.026416
     8  C    0.433784   0.001442   0.002656
     9  H   -0.003796  -0.004886   0.000826
    10  H   -0.010808  -0.077485  -0.035613
    11  H   -0.031008   0.004624  -0.001278
    12  H   -0.034584  -0.005162   0.000090
    13  H    0.555282   0.000284   0.001570
    14  O    0.000284   8.024351   0.294445
    15  H    0.001570   0.294445   0.444813
          Atomic-Atomic Spin Densities.
               1          2          3          4          5          6
     1  C    0.244414   0.012415  -0.165634  -0.055118   0.000466  -0.003478
     2  H    0.012415  -0.000114  -0.010039  -0.003095   0.000077  -0.000294
     3  C   -0.165634  -0.010039   0.116771   0.042428  -0.001374   0.009355
     4  C   -0.055118  -0.003095   0.042428   0.000717   0.002436   0.004135
     5  O    0.000466   0.000077  -0.001374   0.002436  -0.002369   0.001330
     6  O   -0.003478  -0.000294   0.009355   0.004135   0.001330   0.010025
     7  C   -0.037254  -0.000175  -0.005003   0.031347  -0.000895  -0.066042
     8  C    0.029259   0.000314  -0.007605  -0.020926   0.000733   0.008311
     9  H   -0.008236  -0.000085   0.000465   0.009792  -0.000053   0.002407
    10  H   -0.004359   0.000099  -0.005274   0.000645  -0.001296  -0.010045
    11  H    0.002839   0.000006   0.000394  -0.001997   0.000168   0.000842
    12  H   -0.011969  -0.000205   0.005714   0.005051  -0.000303   0.000316
    13  H    0.000875   0.000002  -0.000257  -0.000184  -0.000019   0.000254
    14  O    0.005852   0.000039   0.003874  -0.004421   0.000146   0.026584
    15  H   -0.001244  -0.000018  -0.000704   0.000901  -0.000042  -0.002473
               7          8          9         10         11         12
     1  C   -0.037254   0.029259  -0.008236  -0.004359   0.002839  -0.011969
     2  H   -0.000175   0.000314  -0.000085   0.000099   0.000006  -0.000205
     3  C   -0.005003  -0.007605   0.000465  -0.005274   0.000394   0.005714
     4  C    0.031347  -0.020926   0.009792   0.000645  -0.001997   0.005051
     5  O   -0.000895   0.000733  -0.000053  -0.001296   0.000168  -0.000303
     6  O   -0.066042   0.008311   0.002407  -0.010045   0.000842   0.000316
     7  C    0.477283  -0.031505  -0.026192   0.071978  -0.005890   0.001568
     8  C   -0.031505  -0.025002   0.006544  -0.008213   0.001344   0.001209
     9  H   -0.026192   0.006544  -0.016258   0.013634   0.000156  -0.000249
    10  H    0.071978  -0.008213   0.013634  -0.160433   0.002346  -0.003828
    11  H   -0.005890   0.001344   0.000156   0.002346   0.003921  -0.001563
    12  H    0.001568   0.001209  -0.000249  -0.003828  -0.001563   0.019319
    13  H   -0.001260   0.001865   0.000116  -0.001814   0.000152  -0.000467
    14  O   -0.085971   0.019810   0.002549  -0.022821   0.001677  -0.000971
    15  H    0.004689  -0.000041   0.000036   0.000750  -0.000089   0.000176
              13         14         15
     1  C    0.000875   0.005852  -0.001244
     2  H    0.000002   0.000039  -0.000018
     3  C   -0.000257   0.003874  -0.000704
     4  C   -0.000184  -0.004421   0.000901
     5  O   -0.000019   0.000146  -0.000042
     6  O    0.000254   0.026584  -0.002473
     7  C   -0.001260  -0.085971   0.004689
     8  C    0.001865   0.019810  -0.000041
     9  H    0.000116   0.002549   0.000036
    10  H   -0.001814  -0.022821   0.000750
    11  H    0.000152   0.001677  -0.000089
    12  H   -0.000467  -0.000971   0.000176
    13  H    0.001548   0.000587   0.000008
    14  O    0.000587   0.916773   0.005075
    15  H    0.000008   0.005075  -0.036890
 Mulliken charges and spin densities:
               1          2
     1  C   -1.698692   0.008827
     2  H    0.228513  -0.001073
     3  C    1.900089  -0.016891
     4  C   -0.051468   0.011710
     5  O   -0.329885  -0.000995
     6  O   -0.150577  -0.018773
     7  C   -0.390092   0.326676
     8  C   -0.401693  -0.023902
     9  H    0.170977  -0.015374
    10  H    0.272323  -0.128630
    11  H    0.179672   0.004305
    12  H    0.127147   0.013797
    13  H    0.138052   0.001406
    14  O   -0.265134   0.868783
    15  H    0.270768  -0.029867
 Sum of Mulliken charges =   0.00000   1.00000
 Mulliken charges and spin densities with hydrogens summed into heavy atoms:
               1          2
     1  C   -1.470178   0.007754
     3  C    1.900089  -0.016891
     4  C   -0.051468   0.011710
     5  O   -0.329885  -0.000995
     6  O   -0.150577  -0.018773
     7  C    0.053208   0.182672
     8  C    0.043178  -0.004393
    14  O    0.005633   0.838916
 Electronic spatial extent (au):  <R**2>=           1188.6738
 Charge=              0.0000 electrons
 Dipole moment (field-independent basis, Debye):
    X=              0.1430    Y=              3.7371    Z=             -0.9044  Tot=              3.8476
 Quadrupole moment (field-independent basis, Debye-Ang):
   XX=            -50.0548   YY=            -47.1790   ZZ=            -48.1463
   XY=             11.1771   XZ=             -5.2103   YZ=              0.4878
 Traceless Quadrupole moment (field-independent basis, Debye-Ang):
   XX=             -1.5947   YY=              1.2810   ZZ=              0.3137
   XY=             11.1771   XZ=             -5.2103   YZ=              0.4878
 Octapole moment (field-independent basis, Debye-Ang**2):
  XXX=             14.9158  YYY=              6.2002  ZZZ=              2.6202  XYY=            -12.6097
  XXY=             13.5911  XXZ=             -2.5297  XZZ=             -0.9169  YZZ=             -0.8157
  YYZ=             -9.4602  XYZ=             -4.1398
 Hexadecapole moment (field-independent basis, Debye-Ang**3):
 XXXX=           -990.8594 YYYY=           -409.8541 ZZZZ=           -157.3191 XXXY=            101.1594
 XXXZ=            -41.5152 YYYX=             57.4653 YYYZ=             -1.8949 ZZZX=              4.0513
 ZZZY=             -4.2789 XXYY=           -173.5689 XXZZ=           -190.4536 YYZZ=            -92.3899
 XXYZ=            -17.5676 YYXZ=            -13.2008 ZZXY=              5.1147
 N-N= 3.506023668605D+02 E-N=-1.683635999923D+03  KE= 4.176601733198D+02
 1|1|UNPC-DIT|SP|UCCSD(T)-FC|6-311++G(d,p)|C5H7O3(2)|NDITM|14-Mar-2025|
 0||# ccsd(t)/6-311++g(d,p) sp||Title Card Required||0,2|C,0,2.514441,1
 .23278,-0.678783|H,0,3.143333,2.030682,-0.999334|C,0,1.813539,0.329599
 ,-0.317788|C,0,1.031312,-0.816657,0.143949|O,0,1.536821,-1.846008,0.46
 8393|O,0,-0.303569,-0.653535,0.187874|C,0,-0.914576,0.573986,-0.193864
 |C,0,-1.058154,1.527792,0.962327|H,0,-0.438065,0.993893,-1.081343|H,0,
 -1.989196,0.235815,-0.538765|H,0,-1.578015,1.040015,1.7878|H,0,-0.0747
 69,1.859128,1.307985|H,0,-1.631061,2.403344,0.653533|O,0,-3.112552,-0.
 53492,-0.685559|H,0,-2.717196,-1.372179,-0.390579||Version=IA32W-G09Re
 vD.01|State=2-A|HF=-417.9601453|MP2=-419.239248|MP3=-419.2623601|MP4D=
 -419.2939546|MP4DQ=-419.2679983|PUHF=-417.9664813|PMP2-0=-419.2434967|
 PMP3-0=-419.2649366|MP4SDQ=-419.2877569|CCSD=-419.2871833|CCSD(T)=-419
 .3415994|S2=0.774403|S2-1=0.758211|S2A=0.750289|RMSD=8.281e-009|PG=C01
  [X(C5H7O3)]||@


      SCIENCE SANS CONSCIENCE N'EST QUE RUINE DE L'AME.

                                                  -- RABELAIS
 Job cpu time:       0 days  9 hours 57 minutes 39.0 seconds.
 File lengths (MBytes):  RWF=  12169 Int=      0 D2E=      0 Chk=      8 Scr=      1
 Normal termination of Gaussian 09 at Fri Mar 14 19:47:23 2025.
