 Entering Gaussian System, Link 0=g16
 Initial command:
 /opt/g16/l1.exe "/home/aayush/scratches/g16/Gau-6672.inp" -scrdir="/home/aayush/scratches/g16/"
 Entering Link 1 = /opt/g16/l1.exe PID=      6675.
  
 Copyright (c) 1988,1990,1992,1993,1995,1998,2003,2009,2016,
            Gaussian, Inc.  All Rights Reserved.
  
 This is part of the Gaussian(R) 16 program.  It is based on
 the Gaussian(R) 09 system (copyright 2009, Gaussian, Inc.),
 the Gaussian(R) 03 system (copyright 2003, Gaussian, Inc.),
 the Gaussian(R) 98 system (copyright 1998, Gaussian, Inc.),
 the Gaussian(R) 94 system (copyright 1995, Gaussian, Inc.),
 the Gaussian 92(TM) system (copyright 1992, Gaussian, Inc.),
 the Gaussian 90(TM) system (copyright 1990, Gaussian, Inc.),
 the Gaussian 88(TM) system (copyright 1988, Gaussian, Inc.),
 the Gaussian 86(TM) system (copyright 1986, Carnegie Mellon
 University), and the Gaussian 82(TM) system (copyright 1983,
 Carnegie Mellon University). Gaussian is a federally registered
 trademark of Gaussian, Inc.
  
 This software contains proprietary and confidential information,
 including trade secrets, belonging to Gaussian, Inc.
  
 This software is provided under written license and may be
 used, copied, transmitted, or stored only in accord with that
 written license.
  
 The following legend is applicable only to US Government
 contracts under FAR:
  
                    RESTRICTED RIGHTS LEGEND
  
 Use, reproduction and disclosure by the US Government is
 subject to restrictions as set forth in subparagraphs (a)
 and (c) of the Commercial Computer Software - Restricted
 Rights clause in FAR 52.227-19.
  
 Gaussian, Inc.
 340 Quinnipiac St., Bldg. 40, Wallingford CT 06492
  
  
 ---------------------------------------------------------------
 Warning -- This program may not be used in any manner that
 competes with the business of Gaussian, Inc. or will provide
 assistance to any competitor of Gaussian, Inc.  The licensee
 of this program is prohibited from giving any competitor of
 Gaussian, Inc. access to this program.  By using this program,
 the user acknowledges that Gaussian, Inc. is engaged in the
 business of creating and licensing software in the field of
 computational chemistry and represents and warrants to the
 licensee that it is not a competitor of Gaussian, Inc. and that
 it will not use this program in any manner prohibited above.
 ---------------------------------------------------------------
  

 Cite this work as:
 Gaussian 16, Revision A.03,
 M. J. Frisch, G. W. Trucks, H. B. Schlegel, G. E. Scuseria, 
 M. A. Robb, J. R. Cheeseman, G. Scalmani, V. Barone, 
 G. A. Petersson, H. Nakatsuji, X. Li, M. Caricato, A. V. Marenich, 
 J. Bloino, B. G. Janesko, R. Gomperts, B. Mennucci, H. P. Hratchian, 
 J. V. Ortiz, A. F. Izmaylov, J. L. Sonnenberg, D. Williams-Young, 
 F. Ding, F. Lipparini, F. Egidi, J. Goings, B. Peng, A. Petrone, 
 T. Henderson, D. Ranasinghe, V. G. Zakrzewski, J. Gao, N. Rega, 
 G. Zheng, W. Liang, M. Hada, M. Ehara, K. Toyota, R. Fukuda, 
 J. Hasegawa, M. Ishida, T. Nakajima, Y. Honda, O. Kitao, H. Nakai, 
 T. Vreven, K. Throssell, J. A. Montgomery, Jr., J. E. Peralta, 
 F. Ogliaro, M. J. Bearpark, J. J. Heyd, E. N. Brothers, K. N. Kudin, 
 V. N. Staroverov, T. A. Keith, R. Kobayashi, J. Normand, 
 K. Raghavachari, A. P. Rendell, J. C. Burant, S. S. Iyengar, 
 J. Tomasi, M. Cossi, J. M. Millam, M. Klene, C. Adamo, R. Cammi, 
 J. W. Ochterski, R. L. Martin, K. Morokuma, O. Farkas, 
 J. B. Foresman, and D. J. Fox, Gaussian, Inc., Wallingford CT, 2016.
 
 ******************************************
 Gaussian 16:  ES64L-G16RevA.03 25-Dec-2016
                29-May-2025 
 ******************************************
 %nprocshared=24
 Will use up to   24 processors via shared memory.
 %mem=12GB
 %chk=ethyl_propiolate_ts1.chk
 ------------------------------------------------------
 # opt=(calcfc,tight,noeigentest) freq 6-311++g** m062x
 ------------------------------------------------------
 1/7=10,10=4,11=1,18=20,19=15,26=3,38=1/1,3;
 2/9=110,12=2,17=6,18=5,40=1/2;
 3/5=4,6=6,7=1111,11=2,25=1,30=1,71=2,74=-55,140=1/1,2,3;
 4//1;
 5/5=2,38=5/2;
 8/6=4,10=90,11=11/1;
 11/6=1,8=1,9=11,15=111,16=1/1,2,10;
 10/6=1,13=1/2;
 6/7=2,8=2,9=2,10=2,28=1/1;
 7/10=1,18=20,25=1/1,2,3,16;
 1/7=10,10=4,11=1,18=20,19=15,26=3/3(2);
 2/9=110/2;
 99//99;
 2/9=110/2;
 3/5=4,6=6,7=1111,11=2,25=1,30=1,71=1,74=-55/1,2,3;
 4/5=5,16=3,69=1/1;
 5/5=2,38=5/2;
 7//1,2,3,16;
 1/7=10,11=1,18=20,19=15,26=3/3(-5);
 2/9=110/2;
 6/7=2,8=2,9=2,10=2,19=2,28=1/1;
 99/9=1/99;
 -------------------
 Title Card Required
 -------------------
 Symbolic Z-matrix:
 Charge =  0 Multiplicity = 2
 C                    -2.17582  -0.01205  -0.01515 
 H                    -3.21221  -0.28179  -0.02016 
 C                    -1.00747   0.29918  -0.00928 
 C                     0.37018   0.7207   -0.00177 
 O                     0.75156   1.89116   0.00399 
 O                     1.22727  -0.33398  -0.00158 
 C                     2.66281  -0.02042   0.00499 
 C                     3.38817  -1.34792   0.0038 
 H                     2.8837    0.5842   -0.87875 
 H                     2.87684   0.57888   0.89402 
 H                     3.12044  -1.93176   0.88734 
 H                     3.12698  -1.92655  -0.8851 
 H                     4.46936  -1.1829    0.00828 
 O                    -5.29131  -0.72356  -0.00877 
 H                    -6.19246  -0.34596   0.14966 
 
 Add virtual bond connecting atoms O14        and H2         Dist= 4.02D+00.

 GradGradGradGradGradGradGradGradGradGradGradGradGradGradGradGradGradGrad
 Berny optimization.
 Initialization pass.
                           ----------------------------
                           !    Initial Parameters    !
                           ! (Angstroms and Degrees)  !
 --------------------------                            --------------------------
 ! Name  Definition              Value          Derivative Info.                !
 --------------------------------------------------------------------------------
 ! R1    R(1,2)                  1.0709         calculate D2E/DX2 analytically  !
 ! R2    R(1,3)                  1.2091         calculate D2E/DX2 analytically  !
 ! R3    R(2,14)                 2.1256         calculate D2E/DX2 analytically  !
 ! R4    R(3,4)                  1.4407         calculate D2E/DX2 analytically  !
 ! R5    R(4,5)                  1.231          calculate D2E/DX2 analytically  !
 ! R6    R(4,6)                  1.359          calculate D2E/DX2 analytically  !
 ! R7    R(6,7)                  1.4694         calculate D2E/DX2 analytically  !
 ! R8    R(7,8)                  1.5127         calculate D2E/DX2 analytically  !
 ! R9    R(7,9)                  1.0933         calculate D2E/DX2 analytically  !
 ! R10   R(7,10)                 1.0933         calculate D2E/DX2 analytically  !
 ! R11   R(8,11)                 1.0923         calculate D2E/DX2 analytically  !
 ! R12   R(8,12)                 1.0923         calculate D2E/DX2 analytically  !
 ! R13   R(8,13)                 1.0937         calculate D2E/DX2 analytically  !
 ! R14   R(14,15)                0.9898         calculate D2E/DX2 analytically  !
 ! A1    A(3,4,5)              125.0609         calculate D2E/DX2 analytically  !
 ! A2    A(3,4,6)              112.0863         calculate D2E/DX2 analytically  !
 ! A3    A(5,4,6)              122.8529         calculate D2E/DX2 analytically  !
 ! A4    A(4,6,7)              116.7775         calculate D2E/DX2 analytically  !
 ! A5    A(6,7,8)              106.3308         calculate D2E/DX2 analytically  !
 ! A6    A(6,7,9)              108.1659         calculate D2E/DX2 analytically  !
 ! A7    A(6,7,10)             108.1707         calculate D2E/DX2 analytically  !
 ! A8    A(8,7,9)              112.8168         calculate D2E/DX2 analytically  !
 ! A9    A(8,7,10)             112.8178         calculate D2E/DX2 analytically  !
 ! A10   A(9,7,10)             108.3361         calculate D2E/DX2 analytically  !
 ! A11   A(7,8,11)             110.5408         calculate D2E/DX2 analytically  !
 ! A12   A(7,8,12)             110.5386         calculate D2E/DX2 analytically  !
 ! A13   A(7,8,13)             109.9743         calculate D2E/DX2 analytically  !
 ! A14   A(11,8,12)            108.4503         calculate D2E/DX2 analytically  !
 ! A15   A(11,8,13)            108.6403         calculate D2E/DX2 analytically  !
 ! A16   A(12,8,13)            108.6406         calculate D2E/DX2 analytically  !
 ! A17   A(2,14,15)            144.3008         calculate D2E/DX2 analytically  !
 ! A18   L(2,1,3,12,-1)        180.3182         calculate D2E/DX2 analytically  !
 ! A19   L(1,2,14,11,-1)       182.3211         calculate D2E/DX2 analytically  !
 ! A20   L(1,3,4,12,-1)        182.0281         calculate D2E/DX2 analytically  !
 ! A21   L(2,1,3,12,-2)        179.8651         calculate D2E/DX2 analytically  !
 ! A22   L(1,2,14,11,-2)       177.3283         calculate D2E/DX2 analytically  !
 ! A23   L(1,3,4,12,-2)        179.2528         calculate D2E/DX2 analytically  !
 ! D1    D(5,4,14,15)          -14.8758         calculate D2E/DX2 analytically  !
 ! D2    D(6,4,14,15)          164.8738         calculate D2E/DX2 analytically  !
 ! D3    D(3,4,6,7)            179.9637         calculate D2E/DX2 analytically  !
 ! D4    D(5,4,6,7)             -0.041          calculate D2E/DX2 analytically  !
 ! D5    D(4,6,7,8)           -179.9983         calculate D2E/DX2 analytically  !
 ! D6    D(4,6,7,9)            -58.5702         calculate D2E/DX2 analytically  !
 ! D7    D(4,6,7,10)            58.5698         calculate D2E/DX2 analytically  !
 ! D8    D(6,7,8,11)           -60.0565         calculate D2E/DX2 analytically  !
 ! D9    D(6,7,8,12)            60.029          calculate D2E/DX2 analytically  !
 ! D10   D(6,7,8,13)           179.9857         calculate D2E/DX2 analytically  !
 ! D11   D(9,7,8,11)          -178.4632         calculate D2E/DX2 analytically  !
 ! D12   D(9,7,8,12)           -58.3777         calculate D2E/DX2 analytically  !
 ! D13   D(9,7,8,13)            61.5791         calculate D2E/DX2 analytically  !
 ! D14   D(10,7,8,11)           58.3566         calculate D2E/DX2 analytically  !
 ! D15   D(10,7,8,12)          178.442          calculate D2E/DX2 analytically  !
 ! D16   D(10,7,8,13)          -61.6012         calculate D2E/DX2 analytically  !
 --------------------------------------------------------------------------------
 Trust Radius=3.00D-01 FncErr=1.00D-07 GrdErr=1.00D-06 EigMax=2.50D+02 EigMin=1.00D-04
 Number of steps in this run=     63 maximum allowed number of steps=    100.
 GradGradGradGradGradGradGradGradGradGradGradGradGradGradGradGradGradGrad

                          Input orientation:                          
 ---------------------------------------------------------------------
 Center     Atomic      Atomic             Coordinates (Angstroms)
 Number     Number       Type             X           Y           Z
 ---------------------------------------------------------------------
      1          6           0       -2.175820   -0.012051   -0.015145
      2          1           0       -3.212210   -0.281791   -0.020161
      3          6           0       -1.007467    0.299178   -0.009277
      4          6           0        0.370178    0.720699   -0.001766
      5          8           0        0.751557    1.891160    0.003986
      6          8           0        1.227270   -0.333983   -0.001577
      7          6           0        2.662814   -0.020421    0.004990
      8          6           0        3.388172   -1.347917    0.003801
      9          1           0        2.883695    0.584198   -0.878745
     10          1           0        2.876835    0.578882    0.894018
     11          1           0        3.120441   -1.931756    0.887343
     12          1           0        3.126978   -1.926550   -0.885099
     13          1           0        4.469362   -1.182897    0.008275
     14          8           0       -5.291315   -0.723559   -0.008772
     15          1           0       -6.192462   -0.345960    0.149660
 ---------------------------------------------------------------------
                    Distance matrix (angstroms):
                    1          2          3          4          5
     1  C    0.000000
     2  H    1.070929   0.000000
     3  C    1.209110   2.280030   0.000000
     4  C    2.649379   3.720058   1.440709   0.000000
     5  O    3.491721   4.520370   2.372498   1.231041   0.000000
     6  O    3.418310   4.439826   2.322714   1.359029   2.275433
     7  C    4.838683   5.880889   3.684197   2.409457   2.703155
     8  C    5.722142   6.685973   4.694117   3.658892   4.176525
     9  H    5.167205   6.216684   3.997293   2.665613   2.652051
    10  H    5.167698   6.217150   3.997747   2.665684   2.651610
    11  H    5.705272   6.606695   4.777093   3.923006   4.583298
    12  H    5.704541   6.605956   4.776459   3.922773   4.583449
    13  H    6.747583   7.734297   5.673844   4.519634   4.824098
    14  O    3.195715   2.125551   4.404242   5.842810   6.584316
    15  H    4.033865   2.985776   5.227393   6.650484   7.296940
                    6          7          8          9         10
     6  O    0.000000
     7  C    1.469405   0.000000
     8  C    2.386962   1.512743   0.000000
     9  H    2.087157   1.093316   2.183221   0.000000
    10  H    2.087218   1.093316   2.183233   1.772784   0.000000
    11  H    2.631949   2.154338   1.092334   3.083041   2.522438
    12  H    2.631686   2.154306   1.092329   2.522515   3.083021
    13  H    3.351405   2.148250   1.093720   2.534516   2.534669
    14  O    6.530220   7.985159   8.701924   8.324534   8.320460
    15  H    7.421283   8.862439   9.633989   9.181472   9.146669
                   11         12         13         14         15
    11  H    0.000000
    12  H    1.772462   0.000000
    13  H    1.775708   1.775706   0.000000
    14  O    8.545198   8.548847   9.771494   0.000000
    15  H    9.475710   9.508993  10.695557   0.989822   0.000000
 Stoichiometry    C5H7O3(2)
 Framework group  C1[X(C5H7O3)]
 Deg. of freedom    39
 Full point group                 C1      NOp   1
 Largest Abelian subgroup         C1      NOp   1
 Largest concise Abelian subgroup C1      NOp   1
                         Standard orientation:                         
 ---------------------------------------------------------------------
 Center     Atomic      Atomic             Coordinates (Angstroms)
 Number     Number       Type             X           Y           Z
 ---------------------------------------------------------------------
      1          6           0       -2.175820   -0.012051   -0.015145
      2          1           0       -3.212210   -0.281791   -0.020161
      3          6           0       -1.007467    0.299178   -0.009277
      4          6           0        0.370178    0.720699   -0.001766
      5          8           0        0.751557    1.891160    0.003986
      6          8           0        1.227270   -0.333983   -0.001577
      7          6           0        2.662814   -0.020421    0.004990
      8          6           0        3.388172   -1.347917    0.003801
      9          1           0        2.883695    0.584198   -0.878745
     10          1           0        2.876835    0.578882    0.894018
     11          1           0        3.120441   -1.931756    0.887343
     12          1           0        3.126978   -1.926550   -0.885099
     13          1           0        4.469362   -1.182897    0.008275
     14          8           0       -5.291315   -0.723559   -0.008772
     15          1           0       -6.192462   -0.345960    0.149660
 ---------------------------------------------------------------------
 Rotational constants (GHZ):           4.6307240           0.5723915           0.5127254
 Standard basis: 6-311++G(d,p) (5D, 7F)
 There are   233 symmetry adapted cartesian basis functions of A   symmetry.
 There are   225 symmetry adapted basis functions of A   symmetry.
   225 basis functions,   351 primitive gaussians,   233 cartesian basis functions
    31 alpha electrons       30 beta electrons
       nuclear repulsion energy       317.8928183380 Hartrees.
 NAtoms=   15 NActive=   15 NUniq=   15 SFac= 1.00D+00 NAtFMM=   60 NAOKFM=F Big=F
 Integral buffers will be    131072 words long.
 Raffenetti 2 integral format.
 Two-electron integral symmetry is turned on.
 One-electron integrals computed using PRISM.
 NBasis=   225 RedAO= T EigKep=  3.78D-06  NBF=   225
 NBsUse=   224 1.00D-06 EigRej=  3.02D-07 NBFU=   224
 ExpMin= 3.60D-02 ExpMax= 8.59D+03 ExpMxC= 1.30D+03 IAcc=3 IRadAn=         5 AccDes= 0.00D+00
 Harris functional with IExCor= 1009 and IRadAn=       5 diagonalized for initial guess.
 HarFok:  IExCor= 1009 AccDes= 0.00D+00 IRadAn=         5 IDoV= 1 UseB2=F ITyADJ=14
 ICtDFT=  3500011 ScaDFX=  1.000000  1.000000  1.000000  1.000000
 FoFCou: FMM=F IPFlag=           0 FMFlag=      100000 FMFlg1=           0
         NFxFlg=           0 DoJE=T BraDBF=F KetDBF=T FulRan=T
         wScrn=  0.000000 ICntrl=       500 IOpCl=  0 I1Cent=   200000004 NGrid=           0
         NMat0=    1 NMatS0=      1 NMatT0=    0 NMatD0=    1 NMtDS0=    0 NMtDT0=    0
 Petite list used in FoFCou.
 Initial guess <Sx>= 0.0000 <Sy>= 0.0000 <Sz>= 0.5000 <S**2>= 0.7500 S= 0.5000
 Requested convergence on RMS density matrix=1.00D-08 within 128 cycles.
 Requested convergence on MAX density matrix=1.00D-06.
 Requested convergence on             energy=1.00D-06.
 No special actions if energy rises.
 Restarting incremental Fock formation.
 SCF Done:  E(UM062X) =  -420.205278430     A.U. after   25 cycles
            NFock= 25  Conv=0.61D-08     -V/T= 2.0040
 <Sx>= 0.0000 <Sy>= 0.0000 <Sz>= 0.5000 <S**2>= 0.7528 S= 0.5014
 <L.S>=  0.00000000000    
 Annihilation of the first spin contaminant:
 S**2 before annihilation     0.7528,   after     0.7500
 DoSCS=F DFT=T ScalE2(SS,OS)=  1.000000  1.000000
 Range of M.O.s used for correlation:     1   224
 NBasis=   225 NAE=    31 NBE=    30 NFC=     0 NFV=     0
 NROrb=    224 NOA=    31 NOB=    30 NVA=   193 NVB=   194

 **** Warning!!: The largest alpha MO coefficient is  0.14274155D+03


 **** Warning!!: The largest beta MO coefficient is  0.13880412D+03

 Symmetrizing basis deriv contribution to polar:
 IMax=3 JMax=2 DiffMx= 0.00D+00
 G2DrvN: will do    16 centers at a time, making    1 passes.
 Calling FoFCou, ICntrl=  3107 FMM=F I1Cent=   0 AccDes= 0.00D+00.
 End of G2Drv F.D. properties file   721 does not exist.
 End of G2Drv F.D. properties file   722 does not exist.
 End of G2Drv F.D. properties file   788 does not exist.
          IDoAtm=111111111111111
          Differentiating once with respect to nuclear coordinates.
 Keep R1 and R2 ints in memory in canonical form, NReq=671901989.
          There are    48 degrees of freedom in the 1st order CPHF.  IDoFFX=6 NUNeed=     0.
     42 vectors produced by pass  0 Test12= 2.46D-14 2.08D-09 XBig12= 3.00D-01 9.93D-02.
 AX will form    42 AO Fock derivatives at one time.
     42 vectors produced by pass  1 Test12= 2.46D-14 2.08D-09 XBig12= 4.99D-02 4.17D-02.
     42 vectors produced by pass  2 Test12= 2.46D-14 2.08D-09 XBig12= 1.17D-03 4.75D-03.
     42 vectors produced by pass  3 Test12= 2.46D-14 2.08D-09 XBig12= 2.21D-05 5.97D-04.
     42 vectors produced by pass  4 Test12= 2.46D-14 2.08D-09 XBig12= 2.44D-07 6.95D-05.
     42 vectors produced by pass  5 Test12= 2.46D-14 2.08D-09 XBig12= 1.59D-09 3.84D-06.
     33 vectors produced by pass  6 Test12= 2.46D-14 2.08D-09 XBig12= 8.86D-12 2.83D-07.
     18 vectors produced by pass  7 Test12= 2.46D-14 2.08D-09 XBig12= 7.07D-14 2.83D-08.
      1 vectors produced by pass  8 Test12= 2.46D-14 2.08D-09 XBig12= 5.96D-16 2.55D-09.
 InvSVY:  IOpt=1 It=  1 EMax= 1.33D-15
 Solved reduced A of dimension   304 with    42 vectors.
 End of Minotr F.D. properties file   721 does not exist.
 End of Minotr F.D. properties file   722 does not exist.
 End of Minotr F.D. properties file   788 does not exist.

 **********************************************************************

            Population analysis using the SCF density.

 **********************************************************************

 Orbital symmetries:
 Alpha Orbitals:
       Occupied  (A) (A) (A) (A) (A) (A) (A) (A) (A) (A) (A) (A)
                 (A) (A) (A) (A) (A) (A) (A) (A) (A) (A) (A) (A)
                 (A) (A) (A) (A) (A) (A) (A)
       Virtual   (A) (A) (A) (A) (A) (A) (A) (A) (A) (A) (A) (A)
                 (A) (A) (A) (A) (A) (A) (A) (A) (A) (A) (A) (A)
                 (A) (A) (A) (A) (A) (A) (A) (A) (A) (A) (A) (A)
                 (A) (A) (A) (A) (A) (A) (A) (A) (A) (A) (A) (A)
                 (A) (A) (A) (A) (A) (A) (A) (A) (A) (A) (A) (A)
                 (A) (A) (A) (A) (A) (A) (A) (A) (A) (A) (A) (A)
                 (A) (A) (A) (A) (A) (A) (A) (A) (A) (A) (A) (A)
                 (A) (A) (A) (A) (A) (A) (A) (A) (A) (A) (A) (A)
                 (A) (A) (A) (A) (A) (A) (A) (A) (A) (A) (A) (A)
                 (A) (A) (A) (A) (A) (A) (A) (A) (A) (A) (A) (A)
                 (A) (A) (A) (A) (A) (A) (A) (A) (A) (A) (A) (A)
                 (A) (A) (A) (A) (A) (A) (A) (A) (A) (A) (A) (A)
                 (A) (A) (A) (A) (A) (A) (A) (A) (A) (A) (A) (A)
                 (A) (A) (A) (A) (A) (A) (A) (A) (A) (A) (A) (A)
                 (A) (A) (A) (A) (A) (A) (A) (A) (A) (A) (A) (A)
                 (A) (A) (A) (A) (A) (A) (A) (A) (A) (A) (A) (A)
                 (A)
 Beta  Orbitals:
       Occupied  (A) (A) (A) (A) (A) (A) (A) (A) (A) (A) (A) (A)
                 (A) (A) (A) (A) (A) (A) (A) (A) (A) (A) (A) (A)
                 (A) (A) (A) (A) (A) (A)
       Virtual   (A) (A) (A) (A) (A) (A) (A) (A) (A) (A) (A) (A)
                 (A) (A) (A) (A) (A) (A) (A) (A) (A) (A) (A) (A)
                 (A) (A) (A) (A) (A) (A) (A) (A) (A) (A) (A) (A)
                 (A) (A) (A) (A) (A) (A) (A) (A) (A) (A) (A) (A)
                 (A) (A) (A) (A) (A) (A) (A) (A) (A) (A) (A) (A)
                 (A) (A) (A) (A) (A) (A) (A) (A) (A) (A) (A) (A)
                 (A) (A) (A) (A) (A) (A) (A) (A) (A) (A) (A) (A)
                 (A) (A) (A) (A) (A) (A) (A) (A) (A) (A) (A) (A)
                 (A) (A) (A) (A) (A) (A) (A) (A) (A) (A) (A) (A)
                 (A) (A) (A) (A) (A) (A) (A) (A) (A) (A) (A) (A)
                 (A) (A) (A) (A) (A) (A) (A) (A) (A) (A) (A) (A)
                 (A) (A) (A) (A) (A) (A) (A) (A) (A) (A) (A) (A)
                 (A) (A) (A) (A) (A) (A) (A) (A) (A) (A) (A) (A)
                 (A) (A) (A) (A) (A) (A) (A) (A) (A) (A) (A) (A)
                 (A) (A) (A) (A) (A) (A) (A) (A) (A) (A) (A) (A)
                 (A) (A) (A) (A) (A) (A) (A) (A) (A) (A) (A) (A)
                 (A) (A)
 The electronic state is 2-A.
 Alpha  occ. eigenvalues --  -19.72095 -19.67453 -19.62455 -10.70168 -10.60388
 Alpha  occ. eigenvalues --  -10.56347 -10.55964 -10.53857  -1.23036  -1.16811
 Alpha  occ. eigenvalues --   -1.13800  -0.89571  -0.86258  -0.76605  -0.69619
 Alpha  occ. eigenvalues --   -0.63988  -0.60923  -0.57678  -0.57614  -0.56130
 Alpha  occ. eigenvalues --   -0.53038  -0.50546  -0.48401  -0.46725  -0.46569
 Alpha  occ. eigenvalues --   -0.43446  -0.42905  -0.38179  -0.37787  -0.36003
 Alpha  occ. eigenvalues --   -0.35131
 Alpha virt. eigenvalues --   -0.01483  -0.01418   0.00124   0.02287   0.02489
 Alpha virt. eigenvalues --    0.02588   0.04239   0.04565   0.05981   0.07047
 Alpha virt. eigenvalues --    0.07195   0.07766   0.09279   0.09469   0.09764
 Alpha virt. eigenvalues --    0.12380   0.13075   0.13266   0.13368   0.14025
 Alpha virt. eigenvalues --    0.14275   0.14945   0.15145   0.16275   0.17157
 Alpha virt. eigenvalues --    0.17518   0.17836   0.17912   0.19138   0.20409
 Alpha virt. eigenvalues --    0.20868   0.21572   0.23366   0.23914   0.24170
 Alpha virt. eigenvalues --    0.24579   0.25705   0.27297   0.27969   0.29788
 Alpha virt. eigenvalues --    0.31435   0.31844   0.33067   0.33164   0.33423
 Alpha virt. eigenvalues --    0.35170   0.37594   0.37980   0.39929   0.41746
 Alpha virt. eigenvalues --    0.42928   0.44370   0.46061   0.49903   0.51992
 Alpha virt. eigenvalues --    0.53547   0.54250   0.54619   0.57167   0.57452
 Alpha virt. eigenvalues --    0.61126   0.64085   0.64534   0.69068   0.69454
 Alpha virt. eigenvalues --    0.69625   0.70347   0.71276   0.72033   0.73481
 Alpha virt. eigenvalues --    0.75709   0.80442   0.81991   0.83875   0.88260
 Alpha virt. eigenvalues --    0.90296   0.91803   0.94718   1.00672   1.03531
 Alpha virt. eigenvalues --    1.03956   1.05629   1.07184   1.11920   1.15803
 Alpha virt. eigenvalues --    1.16502   1.17443   1.19650   1.20769   1.24374
 Alpha virt. eigenvalues --    1.24444   1.26252   1.29422   1.31274   1.31863
 Alpha virt. eigenvalues --    1.33616   1.35107   1.37621   1.40081   1.46405
 Alpha virt. eigenvalues --    1.49455   1.50126   1.51585   1.53436   1.58207
 Alpha virt. eigenvalues --    1.58524   1.58971   1.61300   1.62932   1.64180
 Alpha virt. eigenvalues --    1.66278   1.68080   1.69915   1.69948   1.76336
 Alpha virt. eigenvalues --    1.76705   1.85084   1.85650   1.87124   1.91323
 Alpha virt. eigenvalues --    1.96923   2.00432   2.02371   2.03788   2.07247
 Alpha virt. eigenvalues --    2.12011   2.14009   2.20128   2.27243   2.36351
 Alpha virt. eigenvalues --    2.42173   2.48148   2.49535   2.50316   2.52552
 Alpha virt. eigenvalues --    2.54506   2.58779   2.62014   2.64917   2.65234
 Alpha virt. eigenvalues --    2.66304   2.68587   2.73047   2.74051   2.79418
 Alpha virt. eigenvalues --    2.81287   2.82575   2.83368   2.87194   2.89354
 Alpha virt. eigenvalues --    2.96681   2.97225   3.04048   3.04667   3.06171
 Alpha virt. eigenvalues --    3.07576   3.10233   3.10937   3.13096   3.21253
 Alpha virt. eigenvalues --    3.26560   3.28728   3.33215   3.38432   3.40273
 Alpha virt. eigenvalues --    3.56713   3.65273   3.72097   3.82438   3.82996
 Alpha virt. eigenvalues --    3.85090   3.85322   4.08425   4.12981   4.16816
 Alpha virt. eigenvalues --    4.29577   4.92965   5.04236   5.12219   5.16743
 Alpha virt. eigenvalues --    5.32325   5.42894   5.50897   5.68228   5.93195
 Alpha virt. eigenvalues --   23.62080  23.90203  23.93135  24.04946  25.18528
 Alpha virt. eigenvalues --   49.87727  49.99703  50.09073
  Beta  occ. eigenvalues --  -19.70474 -19.67453 -19.62455 -10.70169 -10.60388
  Beta  occ. eigenvalues --  -10.56350 -10.55964 -10.53857  -1.23036  -1.13800
  Beta  occ. eigenvalues --   -1.08414  -0.89571  -0.86259  -0.76605  -0.69615
  Beta  occ. eigenvalues --   -0.63940  -0.60120  -0.57678  -0.56199  -0.55152
  Beta  occ. eigenvalues --   -0.50545  -0.48393  -0.46706  -0.43445  -0.42959
  Beta  occ. eigenvalues --   -0.42870  -0.38179  -0.37785  -0.36005  -0.35130
  Beta virt. eigenvalues --   -0.13123  -0.01431  -0.01342   0.00124   0.02302
  Beta virt. eigenvalues --    0.02491   0.02590   0.04254   0.04639   0.05982
  Beta virt. eigenvalues --    0.07040   0.07361   0.07783   0.09243   0.09665
  Beta virt. eigenvalues --    0.09784   0.12350   0.13046   0.13335   0.13696
  Beta virt. eigenvalues --    0.14211   0.14277   0.14900   0.15131   0.16346
  Beta virt. eigenvalues --    0.17224   0.17547   0.17981   0.18009   0.19130
  Beta virt. eigenvalues --    0.20428   0.20768   0.21677   0.23257   0.23764
  Beta virt. eigenvalues --    0.24119   0.24572   0.25746   0.26848   0.27968
  Beta virt. eigenvalues --    0.29703   0.31426   0.31771   0.33061   0.33123
  Beta virt. eigenvalues --    0.33381   0.35161   0.37540   0.37980   0.39706
  Beta virt. eigenvalues --    0.40880   0.42933   0.44360   0.46061   0.49926
  Beta virt. eigenvalues --    0.51997   0.53550   0.54398   0.55089   0.57251
  Beta virt. eigenvalues --    0.57452   0.61131   0.64087   0.64547   0.69068
  Beta virt. eigenvalues --    0.69455   0.69625   0.70348   0.71310   0.72031
  Beta virt. eigenvalues --    0.73485   0.75711   0.80442   0.81995   0.83948
  Beta virt. eigenvalues --    0.88163   0.90300   0.91866   0.94712   1.03565
  Beta virt. eigenvalues --    1.03870   1.05813   1.05983   1.08001   1.11919
  Beta virt. eigenvalues --    1.16452   1.16513   1.17554   1.19650   1.20821
  Beta virt. eigenvalues --    1.24388   1.24446   1.26266   1.29422   1.31295
  Beta virt. eigenvalues --    1.31875   1.34943   1.35128   1.37635   1.40080
  Beta virt. eigenvalues --    1.46394   1.50126   1.50287   1.51597   1.54200
  Beta virt. eigenvalues --    1.58207   1.58524   1.59025   1.61310   1.62930
  Beta virt. eigenvalues --    1.64180   1.66281   1.68086   1.69916   1.69948
  Beta virt. eigenvalues --    1.76336   1.76705   1.85069   1.85653   1.87123
  Beta virt. eigenvalues --    1.91325   1.96918   2.02020   2.02379   2.03954
  Beta virt. eigenvalues --    2.07268   2.12014   2.14008   2.20128   2.27243
  Beta virt. eigenvalues --    2.36351   2.42168   2.48048   2.49534   2.50315
  Beta virt. eigenvalues --    2.52546   2.54506   2.58779   2.62020   2.64925
  Beta virt. eigenvalues --    2.65233   2.66303   2.68587   2.73046   2.74913
  Beta virt. eigenvalues --    2.82365   2.83349   2.85364   2.86997   2.88982
  Beta virt. eigenvalues --    2.90653   2.96721   2.97228   3.04071   3.04688
  Beta virt. eigenvalues --    3.07582   3.10935   3.11186   3.11235   3.13737
  Beta virt. eigenvalues --    3.21378   3.26560   3.28748   3.33226   3.38513
  Beta virt. eigenvalues --    3.40274   3.56710   3.65292   3.72132   3.82996
  Beta virt. eigenvalues --    3.85083   3.85322   3.86114   4.08424   4.12981
  Beta virt. eigenvalues --    4.16808   4.29577   5.03205   5.05563   5.12225
  Beta virt. eigenvalues --    5.16746   5.32327   5.42894   5.53052   5.68228
  Beta virt. eigenvalues --    5.93196  23.62079  23.90203  23.93134  24.04946
  Beta virt. eigenvalues --   25.18524  49.87279  49.99703  50.09073
          Condensed to atoms (all electrons):
               1          2          3          4          5          6
     1  C    6.077419   0.418589  -2.072228   2.128611  -0.095057  -0.092387
     2  H    0.418589   0.705265  -0.138938  -0.079394  -0.003763  -0.005772
     3  C   -2.072228  -0.138938  17.898671 -10.436518   0.281153  -0.244193
     4  C    2.128611  -0.079394 -10.436518  14.878718   0.191827   0.055437
     5  O   -0.095057  -0.003763   0.281153   0.191827   8.037616  -0.123732
     6  O   -0.092387  -0.005772  -0.244193   0.055437  -0.123732   8.410564
     7  C    0.043021  -0.003689  -0.610161   0.199601  -0.045913   0.283035
     8  C    0.045638   0.001595  -0.300325   0.282263   0.015776  -0.182762
     9  H   -0.001213  -0.000191  -0.003670  -0.006946  -0.011346  -0.033777
    10  H   -0.001059  -0.000189  -0.004425  -0.005427  -0.011449  -0.034108
    11  H   -0.001026   0.000002   0.012374  -0.005737  -0.001160  -0.009800
    12  H   -0.000978  -0.000017   0.011907  -0.005209  -0.001152  -0.009778
    13  H   -0.000609  -0.000029   0.002108  -0.003265   0.001524   0.023388
    14  O    0.115196  -0.144594   0.003129   0.012497  -0.000011   0.000004
    15  H    0.000964  -0.009114  -0.003086   0.003386  -0.000003   0.000000
               7          8          9         10         11         12
     1  C    0.043021   0.045638  -0.001213  -0.001059  -0.001026  -0.000978
     2  H   -0.003689   0.001595  -0.000191  -0.000189   0.000002  -0.000017
     3  C   -0.610161  -0.300325  -0.003670  -0.004425   0.012374   0.011907
     4  C    0.199601   0.282263  -0.006946  -0.005427  -0.005737  -0.005209
     5  O   -0.045913   0.015776  -0.011346  -0.011449  -0.001160  -0.001152
     6  O    0.283035  -0.182762  -0.033777  -0.034108  -0.009800  -0.009778
     7  C    5.418518   0.100323   0.431436   0.430137  -0.029777  -0.030308
     8  C    0.100323   5.567536  -0.053392  -0.052772   0.394359   0.394826
     9  H    0.431436  -0.053392   0.536312  -0.051148   0.007066  -0.010051
    10  H    0.430137  -0.052772  -0.051148   0.536741  -0.010103   0.007070
    11  H   -0.029777   0.394359   0.007066  -0.010103   0.538586  -0.038988
    12  H   -0.030308   0.394826  -0.010051   0.007070  -0.038988   0.538266
    13  H   -0.041473   0.400829  -0.004108  -0.004101  -0.032807  -0.032785
    14  O    0.000168   0.000026   0.000005   0.000005  -0.000002  -0.000001
    15  H    0.000020   0.000001   0.000000   0.000001  -0.000000  -0.000000
              13         14         15
     1  C   -0.000609   0.115196   0.000964
     2  H   -0.000029  -0.144594  -0.009114
     3  C    0.002108   0.003129  -0.003086
     4  C   -0.003265   0.012497   0.003386
     5  O    0.001524  -0.000011  -0.000003
     6  O    0.023388   0.000004   0.000000
     7  C   -0.041473   0.000168   0.000020
     8  C    0.400829   0.000026   0.000001
     9  H   -0.004108   0.000005   0.000000
    10  H   -0.004101   0.000005   0.000001
    11  H   -0.032807  -0.000002  -0.000000
    12  H   -0.032785  -0.000001  -0.000000
    13  H    0.528411   0.000000   0.000000
    14  O    0.000000   8.032774   0.243588
    15  H    0.000000   0.243588   0.480874
          Atomic-Atomic Spin Densities.
               1          2          3          4          5          6
     1  C    0.029747   0.006582  -0.062172   0.022620   0.000176   0.000563
     2  H    0.006582   0.006850  -0.037995   0.021258  -0.000027   0.000115
     3  C   -0.062172  -0.037995   0.137381  -0.023996  -0.001161  -0.002019
     4  C    0.022620   0.021258  -0.023996  -0.026081   0.000969   0.001120
     5  O    0.000176  -0.000027  -0.001161   0.000969   0.000192  -0.000010
     6  O    0.000563   0.000115  -0.002019   0.001120  -0.000010   0.000053
     7  C    0.000826  -0.000162  -0.007060   0.005493   0.000012  -0.000086
     8  C    0.000431   0.000207   0.000045  -0.001642   0.000036   0.000330
     9  H   -0.000058  -0.000008   0.000256  -0.000158   0.000000  -0.000006
    10  H   -0.000069  -0.000006   0.000359  -0.000240   0.000001  -0.000003
    11  H   -0.000009  -0.000003   0.000013   0.000006   0.000000  -0.000002
    12  H   -0.000002  -0.000004  -0.000052   0.000043   0.000000   0.000000
    13  H   -0.000015  -0.000003   0.000052  -0.000020   0.000000  -0.000005
    14  O    0.008482  -0.010523   0.000985  -0.001280  -0.000000  -0.000001
    15  H   -0.001023   0.001593   0.000239  -0.000265   0.000000  -0.000000
               7          8          9         10         11         12
     1  C    0.000826   0.000431  -0.000058  -0.000069  -0.000009  -0.000002
     2  H   -0.000162   0.000207  -0.000008  -0.000006  -0.000003  -0.000004
     3  C   -0.007060   0.000045   0.000256   0.000359   0.000013  -0.000052
     4  C    0.005493  -0.001642  -0.000158  -0.000240   0.000006   0.000043
     5  O    0.000012   0.000036   0.000000   0.000001   0.000000   0.000000
     6  O   -0.000086   0.000330  -0.000006  -0.000003  -0.000002   0.000000
     7  C   -0.000060   0.000990   0.000021   0.000033  -0.000003  -0.000015
     8  C    0.000990  -0.000255  -0.000057  -0.000082  -0.000001   0.000028
     9  H    0.000021  -0.000057   0.000008  -0.000000   0.000001  -0.000000
    10  H    0.000033  -0.000082  -0.000000   0.000004   0.000000   0.000001
    11  H   -0.000003  -0.000001   0.000001   0.000000   0.000000  -0.000001
    12  H   -0.000015   0.000028  -0.000000   0.000001  -0.000001   0.000001
    13  H    0.000019  -0.000036   0.000002   0.000002   0.000000  -0.000000
    14  O   -0.000002  -0.000002  -0.000000  -0.000000   0.000000   0.000000
    15  H    0.000001  -0.000001   0.000000  -0.000000   0.000000   0.000000
              13         14         15
     1  C   -0.000015   0.008482  -0.001023
     2  H   -0.000003  -0.010523   0.001593
     3  C    0.000052   0.000985   0.000239
     4  C   -0.000020  -0.001280  -0.000265
     5  O    0.000000  -0.000000   0.000000
     6  O   -0.000005  -0.000001  -0.000000
     7  C    0.000019  -0.000002   0.000001
     8  C   -0.000036  -0.000002  -0.000001
     9  H    0.000002  -0.000000   0.000000
    10  H    0.000002  -0.000000  -0.000000
    11  H    0.000000   0.000000   0.000000
    12  H   -0.000000   0.000000   0.000000
    13  H    0.000004   0.000000   0.000000
    14  O    0.000000   1.020637   0.008291
    15  H    0.000000   0.008291  -0.032312
 Mulliken charges and spin densities:
               1          2
     1  C   -0.564882   0.006078
     2  H    0.260238  -0.012126
     3  C    1.604203   0.004876
     4  C   -1.209842  -0.002174
     5  O   -0.234310   0.000188
     6  O   -0.036118   0.000047
     7  C   -0.144938   0.000008
     8  C   -0.613920  -0.000009
     9  H    0.201023   0.000001
    10  H    0.200829  -0.000000
    11  H    0.177014   0.000000
    12  H    0.177197  -0.000000
    13  H    0.162918   0.000000
    14  O   -0.262784   1.026588
    15  H    0.283370  -0.023477
 Sum of Mulliken charges =  -0.00000   1.00000
 Mulliken charges and spin densities with hydrogens summed into heavy atoms:
               1          2
     1  C   -0.304643  -0.006048
     3  C    1.604203   0.004876
     4  C   -1.209842  -0.002174
     5  O   -0.234310   0.000188
     6  O   -0.036118   0.000047
     7  C    0.256915   0.000009
     8  C   -0.096790  -0.000009
    14  O    0.020586   1.003111
 APT charges:
               1
     1  C   -0.087821
     2  H    1.012895
     3  C   -0.460314
     4  C   -0.509726
     5  O   -0.076838
     6  O    0.052513
     7  C   -0.730246
     8  C   -1.441920
     9  H    0.432073
    10  H    0.430704
    11  H    0.297875
    12  H    0.299007
    13  H    0.780154
    14  O   -1.233738
    15  H    1.235381
 Sum of APT charges =  -0.00000
 APT charges with hydrogens summed into heavy atoms:
               1
     1  C    0.925075
     3  C   -0.460314
     4  C   -0.509726
     5  O   -0.076838
     6  O    0.052513
     7  C    0.132531
     8  C   -0.064885
    14  O    0.001644
 Electronic spatial extent (au):  <R**2>=           2060.1401
 Charge=             -0.0000 electrons
 Dipole moment (field-independent basis, Debye):
    X=             -2.0420    Y=             -1.5580    Z=              0.2933  Tot=              2.5852
 Quadrupole moment (field-independent basis, Debye-Ang):
   XX=            -10.8318   YY=            -56.3436   ZZ=            -46.7701
   XY=             -4.1067   XZ=             -1.8590   YZ=             -0.4311
 Traceless Quadrupole moment (field-independent basis, Debye-Ang):
   XX=             27.1500   YY=            -18.3617   ZZ=             -8.7883
   XY=             -4.1067   XZ=             -1.8590   YZ=             -0.4311
 Octapole moment (field-independent basis, Debye-Ang**2):
  XXX=           -193.0234  YYY=            -12.7737  ZZZ=              0.2297  XYY=              0.5378
  XXY=              8.0113  XXZ=             11.8879  XZZ=             -3.3391  YZZ=              0.2324
  YYZ=              0.5129  XYZ=              2.2742
 Hexadecapole moment (field-independent basis, Debye-Ang**3):
 XXXX=           -652.0564 YYYY=           -346.3534 ZZZZ=            -60.0191 XXXY=            -43.9308
 XXXZ=            -75.1010 YYYX=             -3.9853 YYYZ=             -0.8340 ZZZX=             -1.1288
 ZZZY=             -0.2387 XXYY=           -463.2433 XXZZ=           -362.5010 YYZZ=            -59.5404
 XXYZ=            -13.0826 YYXZ=             -3.0132 ZZXY=              8.1343
 N-N= 3.178928183380D+02 E-N=-1.620506078297D+03  KE= 4.185368191990D+02
  Exact polarizability:   0.000   0.000   0.000   0.000   0.000   0.000
 Approx polarizability: 104.740  10.501  76.995  -0.327   0.547  54.425
                          Isotropic Fermi Contact Couplings
        Atom                 a.u.       MegaHertz       Gauss      10(-4) cm-1
     1  C(13)             -0.00249      -2.79997      -0.99910      -0.93397
     2  H(1)               0.00017       0.74954       0.26745       0.25002
     3  C(13)             -0.00021      -0.23454      -0.08369      -0.07823
     4  C(13)             -0.00008      -0.08522      -0.03041      -0.02843
     5  O(17)              0.00004      -0.02483      -0.00886      -0.00828
     6  O(17)              0.00001      -0.00818      -0.00292      -0.00273
     7  C(13)              0.00000       0.00061       0.00022       0.00020
     8  C(13)              0.00000       0.00015       0.00006       0.00005
     9  H(1)               0.00000       0.00519       0.00185       0.00173
    10  H(1)               0.00000       0.00503       0.00180       0.00168
    11  H(1)               0.00000       0.00006       0.00002       0.00002
    12  H(1)              -0.00000      -0.00006      -0.00002      -0.00002
    13  H(1)              -0.00000      -0.00012      -0.00004      -0.00004
    14  O(17)              0.15392     -93.30709     -33.29429     -31.12389
    15  H(1)              -0.01598     -71.43829     -25.49096     -23.82925
 --------------------------------------------------------
       Center         ----  Spin Dipole Couplings  ----
                      3XX-RR        3YY-RR        3ZZ-RR
 --------------------------------------------------------
     1   Atom        0.007045     -0.003269     -0.003776
     2   Atom        0.023717     -0.012039     -0.011678
     3   Atom        0.002252     -0.001678     -0.000574
     4   Atom        0.001343     -0.000545     -0.000798
     5   Atom        0.000431     -0.000631      0.000200
     6   Atom        0.001004     -0.000578     -0.000425
     7   Atom        0.000570     -0.000285     -0.000285
     8   Atom        0.000443     -0.000220     -0.000223
     9   Atom        0.000483     -0.000237     -0.000246
    10   Atom        0.000483     -0.000237     -0.000246
    11   Atom        0.000449     -0.000222     -0.000227
    12   Atom        0.000448     -0.000221     -0.000227
    13   Atom        0.000315     -0.000157     -0.000157
    14   Atom       -1.863650     -1.464764      3.328413
    15   Atom        0.119752     -0.078250     -0.041501
 --------------------------------------------------------
                        XY            XZ            YZ
 --------------------------------------------------------
     1   Atom        0.002470      0.000012     -0.000042
     2   Atom        0.007916      0.000005     -0.000654
     3   Atom        0.000875      0.000065     -0.000441
     4   Atom        0.000523      0.000007      0.000002
     5   Atom        0.000548      0.000207      0.000005
     6   Atom        0.000094     -0.000032     -0.000026
     7   Atom        0.000074     -0.000001     -0.000001
     8   Atom       -0.000049      0.000000     -0.000001
     9   Atom        0.000116     -0.000078     -0.000013
    10   Atom        0.000117      0.000082      0.000012
    11   Atom       -0.000099      0.000071     -0.000011
    12   Atom       -0.000099     -0.000071      0.000010
    13   Atom       -0.000023      0.000000     -0.000000
    14   Atom       -0.086785      0.297492     -1.476805
    15   Atom       -0.104696     -0.038952     -0.004129
 --------------------------------------------------------


 ---------------------------------------------------------------------------------
              Anisotropic Spin Dipole Couplings in Principal Axis System
 ---------------------------------------------------------------------------------

       Atom             a.u.   MegaHertz   Gauss  10(-4) cm-1        Axes

              Baa    -0.0039    -0.517    -0.185    -0.173 -0.1938  0.8526  0.4853
     1 C(13)  Bbb    -0.0038    -0.503    -0.180    -0.168  0.1073 -0.4733  0.8743
              Bcc     0.0076     1.021     0.364     0.340  0.9752  0.2215  0.0002
 
              Baa    -0.0139    -7.415    -2.646    -2.474 -0.1979  0.9401  0.2774
     2 H(1)   Bbb    -0.0115    -6.133    -2.188    -2.046  0.0607 -0.2707  0.9607
              Bcc     0.0254    13.548     4.834     4.519  0.9783  0.2070 -0.0035
 
              Baa    -0.0020    -0.269    -0.096    -0.090 -0.1967  0.9343  0.2975
     3 C(13)  Bbb    -0.0004    -0.058    -0.021    -0.020  0.0711 -0.2890  0.9547
              Bcc     0.0024     0.327     0.117     0.109  0.9779  0.2089 -0.0096
 
              Baa    -0.0008    -0.107    -0.038    -0.036 -0.0021 -0.0052  1.0000
     4 C(13)  Bbb    -0.0007    -0.091    -0.033    -0.030 -0.2504  0.9681  0.0045
              Bcc     0.0015     0.198     0.071     0.066  0.9681  0.2504  0.0033
 
              Baa    -0.0009     0.063     0.022     0.021 -0.3972  0.9149  0.0724
     5 O(17)  Bbb     0.0001    -0.010    -0.004    -0.003 -0.2873 -0.1989  0.9370
              Bcc     0.0007    -0.053    -0.019    -0.018  0.8716  0.3514  0.3419
 
              Baa    -0.0006     0.042     0.015     0.014 -0.0553  0.9878  0.1454
     6 O(17)  Bbb    -0.0004     0.031     0.011     0.010  0.0319 -0.1438  0.9891
              Bcc     0.0010    -0.073    -0.026    -0.024  0.9980  0.0593 -0.0235
 
              Baa    -0.0003    -0.039    -0.014    -0.013 -0.0853  0.9934  0.0767
     7 C(13)  Bbb    -0.0003    -0.038    -0.014    -0.013  0.0083 -0.0762  0.9971
              Bcc     0.0006     0.077     0.028     0.026  0.9963  0.0857 -0.0017
 
              Baa    -0.0002    -0.030    -0.011    -0.010  0.0644  0.8788  0.4729
     8 C(13)  Bbb    -0.0002    -0.030    -0.011    -0.010 -0.0349 -0.4716  0.8811
              Bcc     0.0004     0.060     0.021     0.020  0.9973 -0.0733  0.0003
 
              Baa    -0.0003    -0.137    -0.049    -0.046 -0.0946  0.8951  0.4357
     9 H(1)   Bbb    -0.0003    -0.135    -0.048    -0.045  0.1611 -0.4181  0.8940
              Bcc     0.0005     0.272     0.097     0.091  0.9824  0.1548 -0.1047
 
              Baa    -0.0003    -0.137    -0.049    -0.046 -0.1873  0.8825  0.4313
    10 H(1)   Bbb    -0.0003    -0.136    -0.048    -0.045 -0.0287 -0.4438  0.8957
              Bcc     0.0005     0.273     0.097     0.091  0.9819  0.1554  0.1085
 
              Baa    -0.0002    -0.126    -0.045    -0.042  0.0865  0.9032  0.4204
    11 H(1)   Bbb    -0.0002    -0.125    -0.045    -0.042 -0.1524 -0.4050  0.9015
              Bcc     0.0005     0.251     0.090     0.084  0.9845 -0.1421  0.1026
 
              Baa    -0.0002    -0.126    -0.045    -0.042  0.1653  0.9476  0.2733
    12 H(1)   Bbb    -0.0002    -0.125    -0.045    -0.042  0.0586 -0.2860  0.9564
              Bcc     0.0005     0.251     0.089     0.084  0.9845 -0.1420 -0.1028
 
              Baa    -0.0002    -0.084    -0.030    -0.028  0.0447  0.9368  0.3469
    13 H(1)   Bbb    -0.0002    -0.084    -0.030    -0.028 -0.0176 -0.3465  0.9379
              Bcc     0.0003     0.168     0.060     0.056  0.9988 -0.0480  0.0010
 
              Baa    -1.8847   136.374    48.662    45.489  0.5151  0.8319  0.2063
    14 O(17)  Bbb    -1.8793   135.983    48.522    45.359  0.8554 -0.4835 -0.1860
              Bcc     3.7640  -272.357   -97.184   -90.849  0.0550 -0.2722  0.9607
 
              Baa    -0.1278   -68.198   -24.335   -22.748  0.4094  0.8837  0.2270
    15 H(1)   Bbb    -0.0426   -22.707    -8.103    -7.574  0.0549 -0.2723  0.9607
              Bcc     0.1704    90.905    32.437    30.323  0.9107 -0.3808 -0.1600
 

 ---------------------------------------------------------------------------------

 Calling FoFJK, ICntrl=    100147 FMM=F ISym2X=0 I1Cent= 0 IOpClX= 1 NMat=1 NMatS=1 NMatT=0.
 ***** Axes restored to original set *****
 -------------------------------------------------------------------
 Center     Atomic                   Forces (Hartrees/Bohr)
 Number     Number              X              Y              Z
 -------------------------------------------------------------------
      1        6           0.019454569    0.005238168    0.000044164
      2        1           0.002030307    0.000701944    0.000114512
      3        6          -0.022911778   -0.006185598   -0.000113230
      4        6           0.041604970    0.030606976    0.000303772
      5        8          -0.017910239   -0.043841167   -0.000238167
      6        8          -0.003052841    0.014060426    0.000021098
      7        6          -0.015303418   -0.000082352   -0.000055885
      8        6          -0.000551801   -0.000047753   -0.000002948
      9        1          -0.000643065   -0.000903576    0.001135142
     10        1          -0.000634614   -0.000896744   -0.001146588
     11        1           0.000418820    0.000818703   -0.000846731
     12        1           0.000411264    0.000812614    0.000853808
     13        1          -0.001637946    0.000224059   -0.000005268
     14        8          -0.016089164    0.005261006    0.002415332
     15        1           0.014814935   -0.005766704   -0.002479011
 -------------------------------------------------------------------
 Cartesian Forces:  Max     0.043841167 RMS     0.012372177
 FormGI is forming the generalized inverse of G from B-inverse, IUseBI=4.

 GradGradGradGradGradGradGradGradGradGradGradGradGradGradGradGradGradGrad
 Berny optimization.
 Internal  Forces:  Max     0.047233509 RMS     0.008701822
 Search for a local minimum.
 Step number   1 out of a maximum of   63
 All quantities printed in internal units (Hartrees-Bohrs-Radians)
 Mixed Optimization -- RFO/linear search
 Second derivative matrix not updated -- analytic derivatives used.
 ITU=  0
     Eigenvalues ---    0.00028   0.00215   0.00266   0.00331   0.00402
     Eigenvalues ---    0.00837   0.00950   0.02037   0.02095   0.02802
     Eigenvalues ---    0.04335   0.04421   0.04596   0.04933   0.06057
     Eigenvalues ---    0.08639   0.09267   0.11791   0.12475   0.12829
     Eigenvalues ---    0.13414   0.16542   0.17474   0.22403   0.23934
     Eigenvalues ---    0.25818   0.30043   0.32581   0.33702   0.34212
     Eigenvalues ---    0.34283   0.34873   0.35280   0.39241   0.40066
     Eigenvalues ---    0.42855   0.45685   0.75945   1.06908
 RFO step:  Lambda=-7.05374821D-03 EMin= 2.84667930D-04
 Linear search not attempted -- first point.
 Iteration  1 RMS(Cart)=  0.02865497 RMS(Int)=  0.00057678
 Iteration  2 RMS(Cart)=  0.00056833 RMS(Int)=  0.00003613
 Iteration  3 RMS(Cart)=  0.00000048 RMS(Int)=  0.00003613
 Variable       Old X    -DE/DX   Delta X   Delta X   Delta X     New X
                                 (Linear)    (Quad)   (Total)
    R1        2.02376  -0.00078   0.00000  -0.00360  -0.00360   2.02016
    R2        2.28489  -0.02093   0.00000  -0.01972  -0.01972   2.26516
    R3        4.01671   0.00135   0.00000   0.09529   0.09529   4.11200
    R4        2.72255   0.00280   0.00000   0.02547   0.02547   2.74801
    R5        2.32633  -0.04723   0.00000  -0.06457  -0.06457   2.26176
    R6        2.56819  -0.02410   0.00000  -0.04806  -0.04806   2.52014
    R7        2.77677  -0.01754   0.00000  -0.06115  -0.06115   2.71562
    R8        2.85867  -0.00224   0.00000  -0.00284  -0.00284   2.85583
    R9        2.06607  -0.00155   0.00000  -0.00261  -0.00261   2.06346
   R10        2.06607  -0.00155   0.00000  -0.00261  -0.00261   2.06345
   R11        2.06421  -0.00123   0.00000  -0.00321  -0.00321   2.06101
   R12        2.06420  -0.00122   0.00000  -0.00321  -0.00321   2.06100
   R13        2.06683  -0.00159   0.00000  -0.00464  -0.00464   2.06219
   R14        1.87049  -0.01608   0.00000  -0.03458  -0.03458   1.83592
    A1        2.18272  -0.00271   0.00000  -0.01617  -0.01617   2.16656
    A2        1.95627  -0.00259   0.00000  -0.01522  -0.01522   1.94106
    A3        2.14419   0.00531   0.00000   0.03138   0.03138   2.17557
    A4        2.03815  -0.01128   0.00000  -0.02393  -0.02393   2.01422
    A5        1.85582   0.00043   0.00000   0.01372   0.01373   1.86956
    A6        1.88785  -0.00034   0.00000   0.00646   0.00650   1.89435
    A7        1.88794  -0.00034   0.00000   0.00648   0.00652   1.89446
    A8        1.96902   0.00005   0.00000  -0.00927  -0.00938   1.95965
    A9        1.96904   0.00005   0.00000  -0.00927  -0.00938   1.95966
   A10        1.89082   0.00010   0.00000  -0.00633  -0.00648   1.88434
   A11        1.92930   0.00004   0.00000   0.00092   0.00091   1.93022
   A12        1.92926   0.00004   0.00000   0.00094   0.00094   1.93020
   A13        1.91941  -0.00073   0.00000  -0.00351  -0.00351   1.91590
   A14        1.89281   0.00021   0.00000   0.00234   0.00234   1.89515
   A15        1.89613   0.00023   0.00000  -0.00033  -0.00033   1.89580
   A16        1.89614   0.00023   0.00000  -0.00031  -0.00031   1.89582
   A17        2.51852  -0.00078   0.00000  -0.06759  -0.06759   2.45094
   A18        3.14715  -0.00016   0.00000  -0.00331  -0.00331   3.14384
   A19        3.18210  -0.00015   0.00000  -0.00575  -0.00574   3.17636
   A20        3.17699  -0.00007   0.00000   0.00202   0.00202   3.17901
   A21        3.13924   0.00004   0.00000   0.00122   0.00122   3.14046
   A22        3.09496   0.00006   0.00000   0.00588   0.00588   3.10084
   A23        3.12855   0.00002   0.00000  -0.00122  -0.00122   3.12733
    D1       -0.25963  -0.00001   0.00000  -0.00102  -0.00101  -0.26064
    D2        2.87759   0.00000   0.00000  -0.00016  -0.00017   2.87742
    D3        3.14096   0.00000   0.00000  -0.00009  -0.00010   3.14086
    D4       -0.00072   0.00000   0.00000   0.00003   0.00003  -0.00069
    D5       -3.14156  -0.00000   0.00000  -0.00020  -0.00020   3.14142
    D6       -1.02224   0.00012   0.00000   0.00006   0.00010  -1.02214
    D7        1.02224  -0.00012   0.00000  -0.00047  -0.00051   1.02172
    D8       -1.04818  -0.00016   0.00000  -0.00212  -0.00212  -1.05030
    D9        1.04770   0.00015   0.00000   0.00201   0.00201   1.04971
   D10        3.14134  -0.00000   0.00000  -0.00004  -0.00004   3.14131
   D11       -3.11477  -0.00005   0.00000  -0.01354  -0.01349  -3.12826
   D12       -1.01888   0.00026   0.00000  -0.00941  -0.00936  -1.02824
   D13        1.07476   0.00011   0.00000  -0.01146  -0.01141   1.06335
   D14        1.01851  -0.00026   0.00000   0.00933   0.00928   1.02779
   D15        3.11440   0.00005   0.00000   0.01346   0.01341   3.12781
   D16       -1.07514  -0.00011   0.00000   0.01142   0.01136  -1.06378
         Item               Value     Threshold  Converged?
 Maximum Force            0.047234     0.000015     NO 
 RMS     Force            0.008702     0.000010     NO 
 Maximum Displacement     0.071180     0.000060     NO 
 RMS     Displacement     0.028608     0.000040     NO 
 Predicted change in Energy=-3.631370D-03
 GradGradGradGradGradGradGradGradGradGradGradGradGradGradGradGradGradGrad

                          Input orientation:                          
 ---------------------------------------------------------------------
 Center     Atomic      Atomic             Coordinates (Angstroms)
 Number     Number       Type             X           Y           Z
 ---------------------------------------------------------------------
      1          6           0       -2.148252   -0.011569   -0.015702
      2          1           0       -3.183416   -0.278437   -0.021391
      3          6           0       -0.988251    0.290375   -0.009350
      4          6           0        0.403773    0.710926   -0.001326
      5          8           0        0.760158    1.853493    0.004716
      6          8           0        1.225279   -0.339604   -0.001652
      7          6           0        2.627597   -0.025673    0.005053
      8          6           0        3.377196   -1.337905    0.003779
      9          1           0        2.851956    0.580108   -0.875298
     10          1           0        2.844904    0.574384    0.891071
     11          1           0        3.123029   -1.925740    0.886581
     12          1           0        3.129732   -1.920169   -0.884595
     13          1           0        4.451992   -1.149098    0.008454
     14          8           0       -5.310030   -0.739210   -0.013246
     15          1           0       -6.167638   -0.314650    0.154434
 ---------------------------------------------------------------------
                    Distance matrix (angstroms):
                    1          2          3          4          5
     1  C    0.000000
     2  H    1.069025   0.000000
     3  C    1.198672   2.267695   0.000000
     4  C    2.652365   3.721178   1.454186   0.000000
     5  O    3.455101   4.483032   2.345307   1.196873   0.000000
     6  O    3.389471   4.409163   2.301445   1.333599   2.241886
     7  C    4.775915   5.816567   3.629662   2.342650   2.649263
     8  C    5.682440   6.645655   4.659248   3.610952   4.127216
     9  H    5.107941   6.155645   3.947277   2.602794   2.602221
    10  H    5.108540   6.156340   3.947720   2.602717   2.601521
    11  H    5.680192   6.580978   4.755679   3.890339   4.543507
    12  H    5.679335   6.579987   4.755033   3.890203   4.543818
    13  H    6.697595   7.684946   5.627490   4.455093   4.758698
    14  O    3.244427   2.175975   4.442728   5.894962   6.600727
    15  H    4.034386   2.989617   5.217177   6.652783   7.260690
                    6          7          8          9         10
     6  O    0.000000
     7  C    1.437043   0.000000
     8  C    2.372210   1.511242   0.000000
     9  H    2.062815   1.091937   2.174265   0.000000
    10  H    2.062890   1.091933   2.174274   1.766392   0.000000
    11  H    2.627973   2.152394   1.090638   3.075219   2.515550
    12  H    2.627682   2.152378   1.090632   2.515678   3.075209
    13  H    3.326719   2.142548   1.091264   2.516205   2.516373
    14  O    6.547525   7.969654   8.707848   8.312745   8.309408
    15  H    7.394607   8.801249   9.600709   9.122172   9.086195
                   11         12         13         14         15
    11  H    0.000000
    12  H    1.771197   0.000000
    13  H    1.772124   1.772134   0.000000
    14  O    8.563529   8.566416   9.770647   0.000000
    15  H    9.457704   9.492016  10.653364   0.971525   0.000000
 Stoichiometry    C5H7O3(2)
 Framework group  C1[X(C5H7O3)]
 Deg. of freedom    39
 Full point group                 C1      NOp   1
 Largest Abelian subgroup         C1      NOp   1
 Largest concise Abelian subgroup C1      NOp   1
                         Standard orientation:                         
 ---------------------------------------------------------------------
 Center     Atomic      Atomic             Coordinates (Angstroms)
 Number     Number       Type             X           Y           Z
 ---------------------------------------------------------------------
      1          6           0       -2.149674    0.001013   -0.014465
      2          1           0       -3.185425   -0.263576   -0.019562
      3          6           0       -0.989007    0.300405   -0.008780
      4          6           0        0.403943    0.717893   -0.001602
      5          8           0        0.762847    1.859676    0.003387
      6          8           0        1.223131   -0.334446   -0.001380
      7          6           0        2.626140   -0.023600    0.004561
      8          6           0        3.372845   -1.337482    0.004073
      9          1           0        2.851511    0.580974   -0.876361
     10          1           0        2.845093    0.576690    0.890015
     11          1           0        3.117707   -1.924043    0.887442
     12          1           0        3.123773   -1.919916   -0.883740
     13          1           0        4.448056   -1.151041    0.008204
     14          8           0       -5.313046   -0.719655   -0.010270
     15          1           0       -6.169655   -0.293071    0.157380
 ---------------------------------------------------------------------
 Rotational constants (GHZ):           4.7410759           0.5738960           0.5152513
 Standard basis: 6-311++G(d,p) (5D, 7F)
 There are   233 symmetry adapted cartesian basis functions of A   symmetry.
 There are   225 symmetry adapted basis functions of A   symmetry.
   225 basis functions,   351 primitive gaussians,   233 cartesian basis functions
    31 alpha electrons       30 beta electrons
       nuclear repulsion energy       320.8306596976 Hartrees.
 NAtoms=   15 NActive=   15 NUniq=   15 SFac= 1.00D+00 NAtFMM=   60 NAOKFM=F Big=F
 Integral buffers will be    131072 words long.
 Raffenetti 2 integral format.
 Two-electron integral symmetry is turned on.
 One-electron integrals computed using PRISM.
 NBasis=   225 RedAO= T EigKep=  3.90D-06  NBF=   225
 NBsUse=   224 1.00D-06 EigRej=  2.94D-07 NBFU=   224
 Initial guess from the checkpoint file:  "ethyl_propiolate_ts1.chk"
 B after Tr=     0.000000   -0.000000   -0.000000
         Rot=    0.999999    0.000127   -0.000001    0.001088 Ang=   0.13 deg.
 Initial guess <Sx>= 0.0000 <Sy>= 0.0000 <Sz>= 0.5000 <S**2>= 0.7527 S= 0.5014
 ExpMin= 3.60D-02 ExpMax= 8.59D+03 ExpMxC= 1.30D+03 IAcc=3 IRadAn=         5 AccDes= 0.00D+00
 Harris functional with IExCor= 1009 and IRadAn=       5 diagonalized for initial guess.
 HarFok:  IExCor= 1009 AccDes= 0.00D+00 IRadAn=         5 IDoV= 1 UseB2=F ITyADJ=14
 ICtDFT=  3500011 ScaDFX=  1.000000  1.000000  1.000000  1.000000
 FoFCou: FMM=F IPFlag=           0 FMFlag=      100000 FMFlg1=           0
         NFxFlg=           0 DoJE=T BraDBF=F KetDBF=T FulRan=T
         wScrn=  0.000000 ICntrl=       500 IOpCl=  0 I1Cent=   200000004 NGrid=           0
         NMat0=    1 NMatS0=      1 NMatT0=    0 NMatD0=    1 NMtDS0=    0 NMtDT0=    0
 Petite list used in FoFCou.
 Requested convergence on RMS density matrix=1.00D-08 within 128 cycles.
 Requested convergence on MAX density matrix=1.00D-06.
 Requested convergence on             energy=1.00D-06.
 No special actions if energy rises.
 Restarting incremental Fock formation.
 SCF Done:  E(UM062X) =  -420.208689025     A.U. after   23 cycles
            NFock= 23  Conv=0.60D-08     -V/T= 2.0032
 <Sx>= 0.0000 <Sy>= 0.0000 <Sz>= 0.5000 <S**2>= 0.7527 S= 0.5013
 <L.S>=  0.00000000000    
 Annihilation of the first spin contaminant:
 S**2 before annihilation     0.7527,   after     0.7500
 Calling FoFJK, ICntrl=      2127 FMM=F ISym2X=0 I1Cent= 0 IOpClX= 1 NMat=1 NMatS=1 NMatT=0.
 ***** Axes restored to original set *****
 -------------------------------------------------------------------
 Center     Atomic                   Forces (Hartrees/Bohr)
 Number     Number              X              Y              Z
 -------------------------------------------------------------------
      1        6          -0.000612080   -0.000157445   -0.000044764
      2        1           0.000686100    0.000301923    0.000069986
      3        6          -0.000041888   -0.000099176    0.000010893
      4        6          -0.002207000   -0.004011723   -0.000026130
      5        8           0.001632038    0.005515440    0.000029088
      6        8          -0.000263532   -0.001341661   -0.000007618
      7        6           0.001069203   -0.000049922    0.000005183
      8        6           0.000043504   -0.000008854    0.000000551
      9        1           0.000179782    0.000042101    0.000055685
     10        1           0.000179017    0.000042813   -0.000052924
     11        1           0.000026863    0.000018726    0.000002574
     12        1           0.000026655    0.000019333   -0.000003084
     13        1          -0.000015912    0.000011730   -0.000000238
     14        8          -0.000166675   -0.000867624   -0.000225578
     15        1          -0.000536076    0.000584341    0.000186376
 -------------------------------------------------------------------
 Cartesian Forces:  Max     0.005515440 RMS     0.001151024

 GradGradGradGradGradGradGradGradGradGradGradGradGradGradGradGradGradGrad
 Berny optimization.
 Using GEDIIS/GDIIS optimizer.
 FormGI is forming the generalized inverse of G from B-inverse, IUseBI=4.
 Internal  Forces:  Max     0.005751253 RMS     0.000883762
 Search for a local minimum.
 Step number   2 out of a maximum of   63
 All quantities printed in internal units (Hartrees-Bohrs-Radians)
 Mixed Optimization -- En-DIIS/RFO-DIIS
 Update second derivatives using D2CorX and points    1    2
 DE= -3.41D-03 DEPred=-3.63D-03 R= 9.39D-01
 TightC=F SS=  1.41D+00  RLast= 1.72D-01 DXNew= 5.0454D-01 5.1638D-01
 Trust test= 9.39D-01 RLast= 1.72D-01 DXMaxT set to 5.05D-01
 ITU=  1  0
 Use linear search instead of GDIIS.
     Eigenvalues ---    0.00028   0.00215   0.00266   0.00331   0.00401
     Eigenvalues ---    0.00837   0.00949   0.02037   0.02095   0.02802
     Eigenvalues ---    0.04336   0.04421   0.04604   0.04933   0.06056
     Eigenvalues ---    0.08638   0.09275   0.11791   0.12475   0.12828
     Eigenvalues ---    0.13415   0.16541   0.17463   0.22437   0.23963
     Eigenvalues ---    0.25772   0.30362   0.32637   0.33702   0.34212
     Eigenvalues ---    0.34283   0.34880   0.35335   0.39235   0.40066
     Eigenvalues ---    0.42979   0.45770   0.81969   1.06811
 RFO step:  Lambda=-2.08808740D-04 EMin= 2.84666805D-04
 Quartic linear search produced a step of -0.05648.
 Iteration  1 RMS(Cart)=  0.03433582 RMS(Int)=  0.00313601
 Iteration  2 RMS(Cart)=  0.00294726 RMS(Int)=  0.00000937
 Iteration  3 RMS(Cart)=  0.00000975 RMS(Int)=  0.00000213
 Iteration  4 RMS(Cart)=  0.00000000 RMS(Int)=  0.00000213
 Variable       Old X    -DE/DX   Delta X   Delta X   Delta X     New X
                                 (Linear)    (Quad)   (Total)
    R1        2.02016   0.00001   0.00020  -0.00076  -0.00055   2.01961
    R2        2.26516   0.00064   0.00111  -0.00077   0.00034   2.26550
    R3        4.11200   0.00075  -0.00538   0.10408   0.09870   4.21069
    R4        2.74801   0.00071  -0.00144   0.00240   0.00096   2.74898
    R5        2.26176   0.00575   0.00365   0.00317   0.00681   2.26858
    R6        2.52014   0.00176   0.00271  -0.00132   0.00140   2.52154
    R7        2.71562   0.00149   0.00345   0.00095   0.00441   2.72003
    R8        2.85583   0.00000   0.00016  -0.00052  -0.00036   2.85548
    R9        2.06346   0.00002   0.00015  -0.00024  -0.00009   2.06337
   R10        2.06345   0.00002   0.00015  -0.00025  -0.00010   2.06335
   R11        2.06101  -0.00001   0.00018  -0.00029  -0.00011   2.06090
   R12        2.06100  -0.00001   0.00018  -0.00029  -0.00011   2.06089
   R13        2.06219  -0.00001   0.00026  -0.00030  -0.00004   2.06215
   R14        1.83592   0.00076   0.00195  -0.00030   0.00166   1.83757
    A1        2.16656  -0.00006   0.00091  -0.00159  -0.00068   2.16588
    A2        1.94106  -0.00008   0.00086  -0.00052   0.00034   1.94139
    A3        2.17557   0.00014  -0.00177   0.00211   0.00034   2.17591
    A4        2.01422   0.00073   0.00135   0.00001   0.00136   2.01558
    A5        1.86956   0.00006  -0.00078   0.00100   0.00022   1.86978
    A6        1.89435   0.00008  -0.00037   0.00073   0.00036   1.89471
    A7        1.89446   0.00008  -0.00037   0.00078   0.00041   1.89487
    A8        1.95965  -0.00009   0.00053  -0.00061  -0.00007   1.95957
    A9        1.95966  -0.00009   0.00053  -0.00057  -0.00003   1.95963
   A10        1.88434  -0.00004   0.00037  -0.00121  -0.00083   1.88351
   A11        1.93022   0.00001  -0.00005   0.00046   0.00040   1.93062
   A12        1.93020   0.00001  -0.00005   0.00047   0.00041   1.93061
   A13        1.91590  -0.00003   0.00020  -0.00121  -0.00101   1.91489
   A14        1.89515   0.00001  -0.00013   0.00071   0.00057   1.89572
   A15        1.89580  -0.00000   0.00002  -0.00021  -0.00019   1.89561
   A16        1.89582  -0.00000   0.00002  -0.00021  -0.00019   1.89563
   A17        2.45094  -0.00053   0.00382  -0.15939  -0.15557   2.29537
   A18        3.14384   0.00003   0.00019  -0.00101  -0.00082   3.14301
   A19        3.17636  -0.00001   0.00032   0.01334   0.01366   3.19002
   A20        3.17901   0.00007  -0.00011  -0.00055  -0.00066   3.17835
   A21        3.14046   0.00001  -0.00007  -0.00029  -0.00036   3.14011
   A22        3.10084   0.00002  -0.00033   0.02247   0.02214   3.12298
   A23        3.12733  -0.00001   0.00007  -0.00083  -0.00076   3.12657
    D1       -0.26064   0.00001   0.00006   0.02384   0.02390  -0.23674
    D2        2.87742  -0.00000   0.00001   0.03033   0.03033   2.90776
    D3        3.14086   0.00000   0.00001  -0.00057  -0.00057   3.14029
    D4       -0.00069   0.00001  -0.00000  -0.00031  -0.00031  -0.00099
    D5        3.14142   0.00000   0.00001  -0.00046  -0.00045   3.14098
    D6       -1.02214  -0.00002  -0.00001  -0.00019  -0.00020  -1.02234
    D7        1.02172   0.00002   0.00003  -0.00080  -0.00077   1.02095
    D8       -1.05030  -0.00001   0.00012  -0.00085  -0.00073  -1.05104
    D9        1.04971   0.00002  -0.00011   0.00064   0.00052   1.05024
   D10        3.14131  -0.00000   0.00000  -0.00011  -0.00011   3.14120
   D11       -3.12826  -0.00010   0.00076  -0.00203  -0.00127  -3.12953
   D12       -1.02824  -0.00007   0.00053  -0.00054  -0.00002  -1.02826
   D13        1.06335  -0.00009   0.00064  -0.00129  -0.00065   1.06270
   D14        1.02779   0.00007  -0.00052   0.00042  -0.00011   1.02769
   D15        3.12781   0.00010  -0.00076   0.00190   0.00115   3.12896
   D16       -1.06378   0.00009  -0.00064   0.00116   0.00052  -1.06326
         Item               Value     Threshold  Converged?
 Maximum Force            0.005751     0.000015     NO 
 RMS     Force            0.000884     0.000010     NO 
 Maximum Displacement     0.175604     0.000060     NO 
 RMS     Displacement     0.034187     0.000040     NO 
 Predicted change in Energy=-9.638296D-05
 GradGradGradGradGradGradGradGradGradGradGradGradGradGradGradGradGradGrad

                          Input orientation:                          
 ---------------------------------------------------------------------
 Center     Atomic      Atomic             Coordinates (Angstroms)
 Number     Number       Type             X           Y           Z
 ---------------------------------------------------------------------
      1          6           0       -2.149796   -0.037173   -0.005296
      2          1           0       -3.182739   -0.311403   -0.009276
      3          6           0       -0.991584    0.272302   -0.001366
      4          6           0        0.398412    0.701301    0.002690
      5          8           0        0.748264    1.849664    0.006536
      6          8           0        1.226976   -0.344615    0.001192
      7          6           0        2.630014   -0.023239    0.003262
      8          6           0        3.386271   -1.331426    0.002003
      9          1           0        2.849125    0.582349   -0.878484
     10          1           0        2.847302    0.579658    0.887288
     11          1           0        3.138568   -1.919024    0.886727
     12          1           0        3.139912   -1.916531   -0.884739
     13          1           0        4.459873   -1.135992    0.003103
     14          8           0       -5.361692   -0.776913   -0.027941
     15          1           0       -6.140879   -0.221724    0.145833
 ---------------------------------------------------------------------
                    Distance matrix (angstroms):
                    1          2          3          4          5
     1  C    0.000000
     2  H    1.068733   0.000000
     3  C    1.198852   2.267584   0.000000
     4  C    2.653068   3.721606   1.454697   0.000000
     5  O    3.458185   4.485894   2.348447   1.200479   0.000000
     6  O    3.390745   4.409852   2.302738   1.334339   2.245897
     7  C    4.779838   5.819905   3.633639   2.346275   2.654950
     8  C    5.685348   6.647741   4.662356   3.613763   4.132606
     9  H    5.112286   6.159358   3.951773   2.607032   2.608249
    10  H    5.113528   6.161104   3.952369   2.606602   2.606645
    11  H    5.683649   6.583782   4.759073   3.893081   4.548769
    12  H    5.682113   6.581700   4.758213   3.893122   4.549568
    13  H    6.700387   7.686977   5.630425   4.457703   4.763422
    14  O    3.296059   2.228202   4.494375   5.946835   6.650689
    15  H    3.998205   2.963561   5.175033   6.605663   7.195161
                    6          7          8          9         10
     6  O    0.000000
     7  C    1.439376   0.000000
     8  C    2.374100   1.511053   0.000000
     9  H    2.065057   1.091890   2.174011   0.000000
    10  H    2.065164   1.091880   2.174042   1.765776   0.000000
    11  H    2.630042   2.152473   1.090579   3.075161   2.515601
    12  H    2.629661   2.152463   1.090575   2.515750   3.075169
    13  H    3.328348   2.141636   1.091245   2.514837   2.515079
    14  O    6.602899   8.027226   8.765571   8.365915   8.370514
    15  H    7.370299   8.774297   9.592638   9.083828   9.054246
                   11         12         13         14         15
    11  H    0.000000
    12  H    1.771468   0.000000
    13  H    1.771941   1.771949   0.000000
    14  O    8.625280   8.620331   9.828175   0.000000
    15  H    9.462446   9.490391  10.641061   0.972401   0.000000
 Stoichiometry    C5H7O3(2)
 Framework group  C1[X(C5H7O3)]
 Deg. of freedom    39
 Full point group                 C1      NOp   1
 Largest Abelian subgroup         C1      NOp   1
 Largest concise Abelian subgroup C1      NOp   1
                         Standard orientation:                         
 ---------------------------------------------------------------------
 Center     Atomic      Atomic             Coordinates (Angstroms)
 Number     Number       Type             X           Y           Z
 ---------------------------------------------------------------------
      1          6           0       -2.144302   -0.007232   -0.002585
      2          1           0       -3.178907   -0.275148   -0.004191
      3          6           0       -0.984215    0.295161   -0.001324
      4          6           0        0.408382    0.715655   -0.000709
      5          8           0        0.765257    1.861861   -0.002035
      6          8           0        1.230532   -0.335310    0.001129
      7          6           0        2.635510   -0.022523    0.000187
      8          6           0        3.383750   -1.335309    0.003436
      9          1           0        2.857242    0.578065   -0.884320
     10          1           0        2.857564    0.582679    0.881449
     11          1           0        3.133540   -1.917720    0.890880
     12          1           0        3.132731   -1.922553   -0.880582
     13          1           0        4.458527   -1.146448    0.002440
     14          8           0       -5.360688   -0.727384   -0.018318
     15          1           0       -6.136251   -0.166723    0.154090
 ---------------------------------------------------------------------
 Rotational constants (GHZ):           4.7372654           0.5677596           0.5102530
 Standard basis: 6-311++G(d,p) (5D, 7F)
 There are   233 symmetry adapted cartesian basis functions of A   symmetry.
 There are   225 symmetry adapted basis functions of A   symmetry.
   225 basis functions,   351 primitive gaussians,   233 cartesian basis functions
    31 alpha electrons       30 beta electrons
       nuclear repulsion energy       320.1797760888 Hartrees.
 NAtoms=   15 NActive=   15 NUniq=   15 SFac= 1.00D+00 NAtFMM=   60 NAOKFM=F Big=F
 Integral buffers will be    131072 words long.
 Raffenetti 2 integral format.
 Two-electron integral symmetry is turned on.
 One-electron integrals computed using PRISM.
 NBasis=   225 RedAO= T EigKep=  3.95D-06  NBF=   225
 NBsUse=   224 1.00D-06 EigRej=  2.96D-07 NBFU=   224
 Initial guess from the checkpoint file:  "ethyl_propiolate_ts1.chk"
 B after Tr=    -0.000000    0.000000   -0.000000
         Rot=    1.000000    0.000623   -0.000046    0.000313 Ang=   0.08 deg.
 Initial guess <Sx>= 0.0000 <Sy>= 0.0000 <Sz>= 0.5000 <S**2>= 0.7527 S= 0.5013
 ExpMin= 3.60D-02 ExpMax= 8.59D+03 ExpMxC= 1.30D+03 IAcc=3 IRadAn=         5 AccDes= 0.00D+00
 Harris functional with IExCor= 1009 and IRadAn=       5 diagonalized for initial guess.
 HarFok:  IExCor= 1009 AccDes= 0.00D+00 IRadAn=         5 IDoV= 1 UseB2=F ITyADJ=14
 ICtDFT=  3500011 ScaDFX=  1.000000  1.000000  1.000000  1.000000
 FoFCou: FMM=F IPFlag=           0 FMFlag=      100000 FMFlg1=           0
         NFxFlg=           0 DoJE=T BraDBF=F KetDBF=T FulRan=T
         wScrn=  0.000000 ICntrl=       500 IOpCl=  0 I1Cent=   200000004 NGrid=           0
         NMat0=    1 NMatS0=      1 NMatT0=    0 NMatD0=    1 NMtDS0=    0 NMtDT0=    0
 Petite list used in FoFCou.
 Requested convergence on RMS density matrix=1.00D-08 within 128 cycles.
 Requested convergence on MAX density matrix=1.00D-06.
 Requested convergence on             energy=1.00D-06.
 No special actions if energy rises.
 Restarting incremental Fock formation.
 SCF Done:  E(UM062X) =  -420.208802095     A.U. after   22 cycles
            NFock= 22  Conv=0.32D-08     -V/T= 2.0033
 <Sx>= 0.0000 <Sy>= 0.0000 <Sz>= 0.5000 <S**2>= 0.7527 S= 0.5014
 <L.S>=  0.00000000000    
 Annihilation of the first spin contaminant:
 S**2 before annihilation     0.7527,   after     0.7500
 Calling FoFJK, ICntrl=      2127 FMM=F ISym2X=0 I1Cent= 0 IOpClX= 1 NMat=1 NMatS=1 NMatT=0.
 ***** Axes restored to original set *****
 -------------------------------------------------------------------
 Center     Atomic                   Forces (Hartrees/Bohr)
 Number     Number              X              Y              Z
 -------------------------------------------------------------------
      1        6          -0.000102004   -0.000001083    0.000009117
      2        1           0.000134432   -0.000063720   -0.000049220
      3        6           0.000156985    0.000053942    0.000005796
      4        6           0.000001320    0.000615744   -0.000009430
      5        8          -0.000133039   -0.000567969    0.000006826
      6        8           0.000099458   -0.000059480    0.000000783
      7        6           0.000083603    0.000030564   -0.000000247
      8        6          -0.000010899   -0.000003834    0.000002050
      9        1          -0.000031130   -0.000001310   -0.000015565
     10        1          -0.000032822   -0.000002628    0.000020985
     11        1          -0.000005755   -0.000009285    0.000004016
     12        1          -0.000004210   -0.000007368   -0.000006104
     13        1           0.000015806    0.000000099    0.000000615
     14        8          -0.000113552   -0.000043123    0.000025210
     15        1          -0.000058192    0.000059450    0.000005167
 -------------------------------------------------------------------
 Cartesian Forces:  Max     0.000615744 RMS     0.000135750

 GradGradGradGradGradGradGradGradGradGradGradGradGradGradGradGradGradGrad
 Berny optimization.
 Using GEDIIS/GDIIS optimizer.
 FormGI is forming the generalized inverse of G from B-inverse, IUseBI=4.
 Internal  Forces:  Max     0.000582129 RMS     0.000098948
 Search for a local minimum.
 Step number   3 out of a maximum of   63
 All quantities printed in internal units (Hartrees-Bohrs-Radians)
 Mixed Optimization -- En-DIIS/RFO-DIIS
 Swapping is turned off.
 Update second derivatives using D2CorX and points    1    2    3
 DE= -1.13D-04 DEPred=-9.64D-05 R= 1.17D+00
 TightC=F SS=  1.41D+00  RLast= 1.90D-01 DXNew= 8.4853D-01 5.7076D-01
 Trust test= 1.17D+00 RLast= 1.90D-01 DXMaxT set to 5.71D-01
 ITU=  1  1  0
     Eigenvalues ---    0.00029   0.00214   0.00265   0.00319   0.00361
     Eigenvalues ---    0.00752   0.00946   0.02037   0.02095   0.02802
     Eigenvalues ---    0.04337   0.04421   0.04604   0.04933   0.06056
     Eigenvalues ---    0.08642   0.09275   0.11791   0.12475   0.12827
     Eigenvalues ---    0.13418   0.16541   0.17485   0.22430   0.23970
     Eigenvalues ---    0.25821   0.30464   0.32671   0.33702   0.34212
     Eigenvalues ---    0.34283   0.34885   0.35354   0.39245   0.40067
     Eigenvalues ---    0.42962   0.45796   0.87346   1.06867
 En-DIIS/RFO-DIIS/Sim-DIIS IScMMF=       -3 using points:     3    2
[...]
 Integral buffers will be    131072 words long.
 Raffenetti 2 integral format.
 Two-electron integral symmetry is turned on.
 One-electron integrals computed using PRISM.
 NBasis=   225 RedAO= T EigKep=  4.95D-06  NBF=   225
 NBsUse=   224 1.00D-06 EigRej=  4.41D-07 NBFU=   224
 Lowest energy guess from the checkpoint file:  "ethyl_propiolate_ts1.chk"
 B after Tr=     0.000000    0.000000    0.000000
         Rot=    0.999935   -0.002873   -0.000461   -0.011000 Ang=  -1.30 deg.
 B after Tr=     0.000000    0.000000    0.000000
         Rot=    0.999972    0.000857   -0.000290   -0.007369 Ang=   0.85 deg.
 Initial guess <Sx>= 0.0000 <Sy>= 0.0000 <Sz>= 0.5000 <S**2>= 0.7528 S= 0.5014
 Requested convergence on RMS density matrix=1.00D-08 within 128 cycles.
 Requested convergence on MAX density matrix=1.00D-06.
 Requested convergence on             energy=1.00D-06.
 No special actions if energy rises.
 Restarting incremental Fock formation.
 Restarting incremental Fock formation.
 Restarting incremental Fock formation.
 SCF Done:  E(UM062X) =  -420.205965154     A.U. after   63 cycles
            NFock= 63  Conv=0.20D-08     -V/T= 2.0030
 <Sx>= 0.0000 <Sy>= 0.0000 <Sz>= 0.5000 <S**2>= 0.7527 S= 0.5013
 <L.S>=  0.00000000000    
 Annihilation of the first spin contaminant:
 S**2 before annihilation     0.7527,   after     0.7500
 Calling FoFJK, ICntrl=      2127 FMM=F ISym2X=0 I1Cent= 0 IOpClX= 1 NMat=1 NMatS=1 NMatT=0.
 ***** Axes restored to original set *****
 -------------------------------------------------------------------
 Center     Atomic                   Forces (Hartrees/Bohr)
 Number     Number              X              Y              Z
 -------------------------------------------------------------------
      1        6           0.001887872    0.000889678   -0.004252959
      2        1           0.006148635    0.001240027    0.004277094
      3        6          -0.018277987   -0.007824953    0.004271798
      4        6           0.011759819   -0.016461031   -0.012031001
      5        8           0.002592457    0.026150798    0.003805451
      6        8          -0.002686389   -0.004247716    0.004372295
      7        6           0.001597035    0.000028641    0.000151928
      8        6          -0.000068051   -0.000433580    0.000510923
      9        1           0.000714178   -0.000281481    0.001075002
     10        1           0.000616676   -0.000108400   -0.000919799
     11        1           0.000466916    0.000391254   -0.000982266
     12        1           0.000277665    0.000687241    0.000457985
     13        1          -0.001004829    0.000138744    0.000037718
     14        8          -0.005101491    0.000966124   -0.000904640
     15        1           0.001077494   -0.001135345    0.000130471
 -------------------------------------------------------------------
 Cartesian Forces:  Max     0.026150798 RMS     0.006388307

 GradGradGradGradGradGradGradGradGradGradGradGradGradGradGradGradGradGrad
 Berny optimization.
 Using GEDIIS/GDIIS optimizer.
 FormGI is forming the generalized inverse of G from B-inverse, IUseBI=4.
 Internal  Forces:  Max     0.025727723 RMS     0.004691296
 Search for a local minimum.
 Step number  12 out of a maximum of   63
 All quantities printed in internal units (Hartrees-Bohrs-Radians)
 Mixed Optimization -- RFO/linear search
 Iteration  1 RMS(Cart)=  0.11713424 RMS(Int)=  0.08594341
 Iteration  2 RMS(Cart)=  0.07854710 RMS(Int)=  0.04802712
 Iteration  3 RMS(Cart)=  0.03949974 RMS(Int)=  0.01919412
 Iteration  4 RMS(Cart)=  0.01980006 RMS(Int)=  0.00045209
 Iteration  5 RMS(Cart)=  0.00157121 RMS(Int)=  0.00000120
 Iteration  6 RMS(Cart)=  0.00000192 RMS(Int)=  0.00000000
 Iteration  7 RMS(Cart)=  0.00000000 RMS(Int)=  0.00000000
 Update second derivatives using D2CorX and points    1    2    3    4    5
                                                      6    7    8    9   12
                                                     11   10
 ITU=  0  0  0  0  0  0  0  0  1  1  1  0
 Use linear search instead of GDIIS.
 Energy rises -- skip Quadratic/GDIIS search.
 Quartic linear search produced a step of -0.98731.
 Iteration  1 RMS(Cart)=  0.11070938 RMS(Int)=  0.04163112
 Iteration  2 RMS(Cart)=  0.03478503 RMS(Int)=  0.00493705
 Iteration  3 RMS(Cart)=  0.00453785 RMS(Int)=  0.00082952
 Iteration  4 RMS(Cart)=  0.00007091 RMS(Int)=  0.00082694
 Iteration  5 RMS(Cart)=  0.00000017 RMS(Int)=  0.00082694
 Variable       Old X    -DE/DX   Delta X   Delta X   Delta X     New X
                                 (Linear)    (Quad)   (Total)
    R1        2.01977  -0.00029  -0.00032   0.00000   0.01126   2.03103
    R2        2.26572  -0.00016  -0.00012   0.00000   0.00473   2.27044
    R3        4.33158  -0.00024  -0.08366   0.00000  -0.55057   3.78101
    R4        2.74770   0.00058   0.00133   0.00000  -0.03825   2.70945
    R5        2.26650   0.00134   0.00138   0.00000  -0.02117   2.24533
    R6        2.52191   0.00000  -0.00009   0.00000   0.00724   2.52915
    R7        2.72023   0.00007  -0.00001   0.00000  -0.00980   2.71043
    R8        2.85553  -0.00003  -0.00004   0.00000   0.00353   2.85906
    R9        2.06350  -0.00004  -0.00012   0.00000   0.00328   2.06679
   R10        2.06338  -0.00002  -0.00001   0.00000   0.00164   2.06502
   R11        2.06101  -0.00003  -0.00009   0.00000   0.00322   2.06423
   R12        2.06099  -0.00003  -0.00007   0.00000   0.00228   2.06327
   R13        2.06230  -0.00004  -0.00010   0.00000   0.00210   2.06440
   R14        1.83809  -0.00005  -0.00033   0.00000   0.00231   1.84040
    A1        2.16517  -0.00006   0.00057   0.00000   0.00981   2.17498
    A2        1.94249  -0.00015  -0.00085   0.00000   0.00618   1.94867
    A3        2.17553   0.00021   0.00028   0.00000  -0.02090   2.15462
    A4        2.01507   0.00008   0.00034   0.00000   0.00034   2.01541
    A5        1.86974  -0.00000  -0.00005   0.00000  -0.00474   1.86500
    A6        1.89414   0.00002   0.00035   0.00000  -0.00329   1.89085
    A7        1.89425   0.00003   0.00032   0.00000   0.00076   1.89501
    A8        1.95997  -0.00001  -0.00022   0.00000   0.00380   1.96377
    A9        1.95983  -0.00002  -0.00008   0.00000  -0.00083   1.95901
   A10        1.88405  -0.00001  -0.00029   0.00000   0.00399   1.88805
   A11        1.93037   0.00001   0.00023   0.00000  -0.00746   1.92291
   A12        1.93079  -0.00000  -0.00018   0.00000  -0.00008   1.93071
   A13        1.91490  -0.00001   0.00001   0.00000   0.00879   1.92369
   A14        1.89561   0.00000   0.00006   0.00000  -0.00316   1.89245
   A15        1.89564  -0.00000  -0.00001   0.00000   0.00052   1.89617
   A16        1.89578  -0.00000  -0.00012   0.00000   0.00137   1.89715
   A17        2.13713   0.00025   0.13270   0.00000   0.31633   2.45346
   A18        3.15079  -0.00019  -0.00535   0.00000  -0.00828   3.14251
   A19        3.36959  -0.00019  -0.13703   0.00000   0.07767   3.44727
   A20        3.18162  -0.00004  -0.00199   0.00000  -0.01720   3.16442
   A21        3.13200   0.00015   0.00837   0.00000  -0.11841   3.01359
   A22        2.86588   0.00010   0.18054   0.00000   0.50762   3.37349
   A23        3.12314   0.00010   0.00377   0.00000  -0.07009   3.05305
    D1        0.22257   0.00003  -0.36813   0.00000  -0.83496  -0.61239
    D2        3.36383  -0.00011  -0.37312   0.00000  -0.62860   2.73523
    D3        3.14016   0.00004   0.00109   0.00000  -0.08736   3.05280
    D4       -0.00068   0.00003   0.00030   0.00000   0.01391   0.01323
    D5        3.13954  -0.00000   0.00155   0.00000  -0.03172   3.10782
    D6       -1.02365  -0.00001   0.00147   0.00000  -0.03177  -1.05542
    D7        1.01964   0.00001   0.00149   0.00000  -0.02841   0.99123
    D8       -1.05000  -0.00001  -0.00083   0.00000   0.00035  -1.04965
    D9        1.05108   0.00000  -0.00072   0.00000  -0.00850   1.04257
   D10       -3.14084  -0.00001  -0.00098   0.00000  -0.00118   3.14117
   D11       -3.12800  -0.00003  -0.00111   0.00000   0.00523  -3.12278
   D12       -1.02693  -0.00002  -0.00100   0.00000  -0.00363  -1.03055
   D13        1.06434  -0.00003  -0.00125   0.00000   0.00369   1.06804
   D14        1.02806   0.00001  -0.00051   0.00000  -0.00221   1.02585
   D15        3.12914   0.00003  -0.00040   0.00000  -0.01107   3.11807
   D16       -1.06278   0.00001  -0.00066   0.00000  -0.00375  -1.06652
         Item               Value     Threshold  Converged?
 Maximum Force            0.025728     0.000015     NO 
 RMS     Force            0.004691     0.000010     NO 
 Maximum Displacement     0.635197     0.000060     NO 
 RMS     Displacement     0.138377     0.000040     NO 
 Predicted change in Energy=-4.383108D-03
 GradGradGradGradGradGradGradGradGradGradGradGradGradGradGradGradGradGrad

                          Input orientation:                          
 ---------------------------------------------------------------------
 Center     Atomic      Atomic             Coordinates (Angstroms)
 Number     Number       Type             X           Y           Z
 ---------------------------------------------------------------------
      1          6           0       -2.168037   -0.253048    0.157200
      2          1           0       -3.196811   -0.543893    0.046845
      3          6           0       -1.023153    0.109253    0.195947
      4          6           0        0.324254    0.598382    0.164917
      5          8           0        0.624336    1.745353    0.086353
      6          8           0        1.211499   -0.401957    0.107010
      7          6           0        2.581300   -0.003747   -0.042280
      8          6           0        3.409367   -1.269959   -0.036915
      9          1           0        2.677143    0.555392   -0.977346
     10          1           0        2.841525    0.664180    0.782512
     11          1           0        3.270820   -1.806714    0.904315
     12          1           0        3.111867   -1.927458   -0.856241
     13          1           0        4.468943   -1.028637   -0.148603
     14          8           0       -5.170928   -0.476918   -0.272017
     15          1           0       -5.964098    0.007002    0.019836
 ---------------------------------------------------------------------
                    Distance matrix (angstroms):
                    1          2          3          4          5
     1  C    0.000000
     2  H    1.074777   0.000000
     3  C    1.201466   2.274559   0.000000
     4  C    2.633725   3.703597   1.433777   0.000000
     5  O    3.434526   4.454590   2.324448   1.188177   0.000000
     6  O    3.383187   4.411004   2.294105   1.338370   2.226236
     7  C    4.760057   5.803987   3.614084   2.345153   2.627852
     8  C    5.672673   6.646485   4.647976   3.612389   4.106544
     9  H    5.041481   6.063062   3.907409   2.615855   2.600285
    10  H    5.131085   6.201786   3.948132   2.592760   2.563104
    11  H    5.705542   6.645315   4.755093   3.874718   4.504455
    12  H    5.630994   6.521443   4.727967   3.897873   4.534957
    13  H    6.689137   7.683551   5.619308   4.463623   4.746707
    14  O    3.041661   2.000824   4.215047   5.616423   6.217074
    15  H    3.807437   2.821718   4.945140   6.317765   6.814232
                    6          7          8          9         10
     6  O    0.000000
     7  C    1.434299   0.000000
     8  C    2.367438   1.512950   0.000000
     9  H    2.059237   1.093696   2.180016   0.000000
    10  H    2.061537   1.092760   2.175959   1.770864   0.000000
    11  H    2.617219   2.149923   1.092343   3.077766   2.510865
    12  H    2.620382   2.155156   1.091836   2.523528   3.078178
    13  H    3.327012   2.150558   1.092434   2.531109   2.526082
    14  O    6.394111   7.770052   8.620072   7.947035   8.161712
    15  H    7.187770   8.545630   9.460216   8.715856   8.862988
                   11         12         13         14         15
    11  H    0.000000
    12  H    1.771835   0.000000
    13  H    1.774694   1.774905   0.000000
    14  O    8.626425   8.429120   9.656435   0.000000
    15  H    9.452807   9.321093  10.485669   0.973897   0.000000
 Stoichiometry    C5H7O3(2)
 Framework group  C1[X(C5H7O3)]
 Deg. of freedom    39
 Full point group                 C1      NOp   1
 Largest Abelian subgroup         C1      NOp   1
 Largest concise Abelian subgroup C1      NOp   1
                         Standard orientation:                         
 ---------------------------------------------------------------------
 Center     Atomic      Atomic             Coordinates (Angstroms)
 Number     Number       Type             X           Y           Z
 ---------------------------------------------------------------------
      1          6           0       -2.148663   -0.253773    0.178958
      2          1           0       -3.172578   -0.572181    0.105751
      3          6           0       -1.011317    0.133448    0.173978
      4          6           0        0.324691    0.646594    0.087469
      5          8           0        0.598946    1.791525   -0.072783
      6          8           0        1.232096   -0.337182    0.081665
      7          6           0        2.590595    0.077765   -0.117113
      8          6           0        3.445506   -1.168169   -0.040992
      9          1           0        2.659944    0.574539   -1.089007
     10          1           0        2.849266    0.804819    0.656583
     11          1           0        3.333085   -1.643064    0.936274
     12          1           0        3.149436   -1.885209   -0.809303
     13          1           0        4.497823   -0.913480   -0.186504
     14          8           0       -5.152388   -0.566848   -0.183425
     15          1           0       -5.951088   -0.080564    0.088752
 ---------------------------------------------------------------------
 Rotational constants (GHZ):           5.3793041           0.5918214           0.5388196
 Standard basis: 6-311++G(d,p) (5D, 7F)
 There are   233 symmetry adapted cartesian basis functions of A   symmetry.
 There are   225 symmetry adapted basis functions of A   symmetry.
   225 basis functions,   351 primitive gaussians,   233 cartesian basis functions
    31 alpha electrons       30 beta electrons
       nuclear repulsion energy       323.6297316753 Hartrees.
 NAtoms=   15 NActive=   15 NUniq=   15 SFac= 1.00D+00 NAtFMM=   60 NAOKFM=F Big=F
 Integral buffers will be    131072 words long.
 Raffenetti 2 integral format.
 Two-electron integral symmetry is turned on.
 One-electron integrals computed using PRISM.
 NBasis=   225 RedAO= T EigKep=  4.69D-06  NBF=   225
 NBsUse=   224 1.00D-06 EigRej=  3.96D-07 NBFU=   224
 Lowest energy guess from the checkpoint file:  "ethyl_propiolate_ts1.chk"
 B after Tr=     0.000000    0.000000    0.000000
         Rot=    0.999966    0.001524   -0.000455   -0.008105 Ang=   0.95 deg.
 B after Tr=    -0.000000    0.000000   -0.000000
         Rot=    0.999953    0.009202    0.000112    0.003136 Ang=   1.11 deg.
 Initial guess <Sx>= 0.0000 <Sy>= 0.0000 <Sz>= 0.5000 <S**2>= 0.7528 S= 0.5014
 Requested convergence on RMS density matrix=1.00D-08 within 128 cycles.
 Requested convergence on MAX density matrix=1.00D-06.
 Requested convergence on             energy=1.00D-06.
 No special actions if energy rises.
 Rare condition: small coef for last iteration:  0.000D+00
 Rare condition: small coef for last iteration:  0.000D+00
 Rare condition: small coef for last iteration:  0.000D+00
 Rare condition: small coef for last iteration:  0.000D+00
 Rare condition: small coef for last iteration:  0.000D+00
 Rare condition: small coef for last iteration:  0.000D+00
 Restarting incremental Fock formation.
 Rare condition: small coef for last iteration:  0.000D+00
 Rare condition: small coef for last iteration:  0.000D+00
 Rare condition: small coef for last iteration:  0.000D+00
 Rare condition: small coef for last iteration:  0.000D+00
 Rare condition: small coef for last iteration:  0.000D+00
 Rare condition: small coef for last iteration:  0.000D+00
 Rare condition: small coef for last iteration:  0.000D+00
 Rare condition: small coef for last iteration:  0.000D+00
 Rare condition: small coef for last iteration:  0.000D+00
 Rare condition: small coef for last iteration:  0.000D+00
 Restarting incremental Fock formation.
 Rare condition: small coef for last iteration:  0.000D+00
 Rare condition: small coef for last iteration:  0.000D+00
 Rare condition: small coef for last iteration:  0.000D+00
 Rare condition: small coef for last iteration:  0.000D+00
 Rare condition: small coef for last iteration:  0.000D+00
 Rare condition: small coef for last iteration:  0.000D+00
 Rare condition: small coef for last iteration:  0.000D+00
 Rare condition: small coef for last iteration:  0.000D+00
 Rare condition: small coef for last iteration:  0.000D+00
 Rare condition: small coef for last iteration:  0.000D+00
 Rare condition: small coef for last iteration:  0.000D+00
 Restarting incremental Fock formation.
 Rare condition: small coef for last iteration:  0.000D+00
 Rare condition: small coef for last iteration:  0.000D+00
 Rare condition: small coef for last iteration:  0.000D+00
 Rare condition: small coef for last iteration:  0.000D+00
 Rare condition: small coef for last iteration:  0.000D+00
 Rare condition: small coef for last iteration:  0.000D+00
 Rare condition: small coef for last iteration:  0.000D+00
 Rare condition: small coef for last iteration:  0.000D+00
 Rare condition: small coef for last iteration:  0.000D+00
 Restarting incremental Fock formation.
 Rare condition: small coef for last iteration:  0.000D+00
 Rare condition: small coef for last iteration:  0.000D+00
 Rare condition: small coef for last iteration:  0.000D+00
 Rare condition: small coef for last iteration:  0.000D+00
 Rare condition: small coef for last iteration:  0.000D+00
 Rare condition: small coef for last iteration:  0.000D+00
 Rare condition: small coef for last iteration:  0.000D+00
 Rare condition: small coef for last iteration:  0.000D+00
 Rare condition: small coef for last iteration:  0.000D+00
 Rare condition: small coef for last iteration:  0.000D+00
 Rare condition: small coef for last iteration:  0.000D+00
 Restarting incremental Fock formation.
 Rare condition: small coef for last iteration:  0.000D+00
 Rare condition: small coef for last iteration:  0.000D+00
 Rare condition: small coef for last iteration:  0.000D+00
 Rare condition: small coef for last iteration:  0.000D+00
 Rare condition: small coef for last iteration:  0.000D+00
 Rare condition: small coef for last iteration:  0.000D+00
 Rare condition: small coef for last iteration:  0.000D+00
 Rare condition: small coef for last iteration:  0.000D+00
 Rare condition: small coef for last iteration:  0.000D+00
 Rare condition: small coef for last iteration:  0.000D+00
 Rare condition: small coef for last iteration:  0.000D+00
 Restarting incremental Fock formation.
 Rare condition: small coef for last iteration:  0.000D+00
 Rare condition: small coef for last iteration:  0.000D+00
 Rare condition: small coef for last iteration:  0.000D+00
 Rare condition: small coef for last iteration:  0.000D+00
 Rare condition: small coef for last iteration:  0.000D+00
 >>>>>>>>>> Convergence criterion not met.
 SCF Done:  E(UM062X) =  -420.204064446     A.U. after  129 cycles
            NFock=128  Conv=0.43D-05     -V/T= 2.0028
 <Sx>= 0.0000 <Sy>= 0.0000 <Sz>= 0.5000 <S**2>= 0.7526 S= 0.5013
 <L.S>=  0.00000000000    
 Annihilation of the first spin contaminant:
 S**2 before annihilation     0.7526,   after     0.7500
 Convergence failure -- run terminated.
 Error termination via Lnk1e in /opt/g16/l502.exe at Thu May 29 11:01:17 2025.
 Job cpu time:       0 days  3 hours 22 minutes 47.2 seconds.
 Elapsed time:       0 days  0 hours  8 minutes 27.7 seconds.
 File lengths (MBytes):  RWF=    152 Int=      0 D2E=      0 Chk=      7 Scr=      1
