 Entering Gaussian System, Link 0=g16
 Initial command:
 /opt/g16/l1.exe "/home/aayush/scratches/g16/Gau-8323.inp" -scrdir="/home/aayush/scratches/g16/"
 Entering Link 1 = /opt/g16/l1.exe PID=      8326.
  
 Copyright (c) 1988,1990,1992,1993,1995,1998,2003,2009,2016,
            Gaussian, Inc.  All Rights Reserved.
  
 This is part of the Gaussian(R) 16 program.  It is based on
 the Gaussian(R) 09 system (copyright 2009, Gaussian, Inc.),
 the Gaussian(R) 03 system (copyright 2003, Gaussian, Inc.),
 the Gaussian(R) 98 system (copyright 1998, Gaussian, Inc.),
 the Gaussian(R) 94 system (copyright 1995, Gaussian, Inc.),
 the Gaussian 92(TM) system (copyright 1992, Gaussian, Inc.),
 the Gaussian 90(TM) system (copyright 1990, Gaussian, Inc.),
 the Gaussian 88(TM) system (copyright 1988, Gaussian, Inc.),
 the Gaussian 86(TM) system (copyright 1986, Carnegie Mellon
 University), and the Gaussian 82(TM) system (copyright 1983,
 Carnegie Mellon University). Gaussian is a federally registered
 trademark of Gaussian, Inc.
  
 This software contains proprietary and confidential information,
 including trade secrets, belonging to Gaussian, Inc.
  
 This software is provided under written license and may be
 used, copied, transmitted, or stored only in accord with that
 written license.
  
 The following legend is applicable only to US Government
 contracts under FAR:
  
                    RESTRICTED RIGHTS LEGEND
  
 Use, reproduction and disclosure by the US Government is
 subject to restrictions as set forth in subparagraphs (a)
 and (c) of the Commercial Computer Software - Restricted
 Rights clause in FAR 52.227-19.
  
 Gaussian, Inc.
 340 Quinnipiac St., Bldg. 40, Wallingford CT 06492
  
  
 ---------------------------------------------------------------
 Warning -- This program may not be used in any manner that
 competes with the business of Gaussian, Inc. or will provide
 assistance to any competitor of Gaussian, Inc.  The licensee
 of this program is prohibited from giving any competitor of
 Gaussian, Inc. access to this program.  By using this program,
 the user acknowledges that Gaussian, Inc. is engaged in the
 business of creating and licensing software in the field of
 computational chemistry and represents and warrants to the
 licensee that it is not a competitor of Gaussian, Inc. and that
 it will not use this program in any manner prohibited above.
 ---------------------------------------------------------------
  

 Cite this work as:
 Gaussian 16, Revision A.03,
 M. J. Frisch, G. W. Trucks, H. B. Schlegel, G. E. Scuseria, 
 M. A. Robb, J. R. Cheeseman, G. Scalmani, V. Barone, 
 G. A. Petersson, H. Nakatsuji, X. Li, M. Caricato, A. V. Marenich, 
 J. Bloino, B. G. Janesko, R. Gomperts, B. Mennucci, H. P. Hratchian, 
 J. V. Ortiz, A. F. Izmaylov, J. L. Sonnenberg, D. Williams-Young, 
 F. Ding, F. Lipparini, F. Egidi, J. Goings, B. Peng, A. Petrone, 
 T. Henderson, D. Ranasinghe, V. G. Zakrzewski, J. Gao, N. Rega, 
 G. Zheng, W. Liang, M. Hada, M. Ehara, K. Toyota, R. Fukuda, 
 J. Hasegawa, M. Ishida, T. Nakajima, Y. Honda, O. Kitao, H. Nakai, 
 T. Vreven, K. Throssell, J. A. Montgomery, Jr., J. E. Peralta, 
 F. Ogliaro, M. J. Bearpark, J. J. Heyd, E. N. Brothers, K. N. Kudin, 
 V. N. Staroverov, T. A. Keith, R. Kobayashi, J. Normand, 
 K. Raghavachari, A. P. Rendell, J. C. Burant, S. S. Iyengar, 
 J. Tomasi, M. Cossi, J. M. Millam, M. Klene, C. Adamo, R. Cammi, 
 J. W. Ochterski, R. L. Martin, K. Morokuma, O. Farkas, 
 J. B. Foresman, and D. J. Fox, Gaussian, Inc., Wallingford CT, 2016.
 
 ******************************************
 Gaussian 16:  ES64L-G16RevA.03 25-Dec-2016
                23-May-2025 
 ******************************************
 %chk=ethyl_propiolate_non_planar.chk
 %mem = 12GB
 %nprocshared = 24
 Will use up to   24 processors via shared memory.
 ---------------------------------------------------------
 # opt=(calcfc,tight,noeigentest) freq 6-311++g(d,p) m062x
 ---------------------------------------------------------
 1/7=10,10=4,11=1,18=20,19=15,26=3,38=1/1,3;
 2/9=110,12=2,17=6,18=5,40=1/2;
 3/5=4,6=6,7=1111,11=2,25=1,30=1,71=2,74=-55,140=1/1,2,3;
 4//1;
 5/5=2,38=5/2;
 8/6=4,10=90,11=11/1;
 11/6=1,8=1,9=11,15=111,16=1/1,2,10;
 10/6=1,13=1/2;
 6/7=2,8=2,9=2,10=2,28=1/1;
 7/10=1,18=20,25=1/1,2,3,16;
 1/7=10,10=4,11=1,18=20,19=15,26=3/3(2);
 2/9=110/2;
 99//99;
 2/9=110/2;
 3/5=4,6=6,7=1111,11=2,25=1,30=1,71=1,74=-55/1,2,3;
 4/5=5,16=3,69=1/1;
 5/5=2,38=5/2;
 7//1,2,3,16;
 1/7=10,11=1,18=20,19=15,26=3/3(-5);
 2/9=110/2;
 6/7=2,8=2,9=2,10=2,19=2,28=1/1;
 99/9=1/99;
 -------------------
 Title Card Required
 -------------------
 Symbolic Z-matrix:
 Charge =  0 Multiplicity = 1
 C                    -1.51095   0.78779  -0.35999 
 H                    -2.56455   0.83084  -0.54155 
 C                    -0.32815   0.73945  -0.15616 
 C                     1.18825   0.67749   0.10515 
 O                     1.75353  -0.43478   0.26915 
 O                     1.95397   1.88389   0.16145 
 C                     2.43454   2.20491  -1.14656 
 C                     3.25917   3.50411  -1.08594 
 H                     1.6046    2.3398   -1.80831 
 H                     3.05111   1.40755  -1.50566 
 H                     3.61875   3.74432  -2.06466 
 H                     2.6426    4.30148  -0.72684 
 H                     4.0891    3.36923  -0.42419 
 

 GradGradGradGradGradGradGradGradGradGradGradGradGradGradGradGradGradGrad
 Berny optimization.
 Initialization pass.
                           ----------------------------
                           !    Initial Parameters    !
                           ! (Angstroms and Degrees)  !
 --------------------------                            --------------------------
 ! Name  Definition              Value          Derivative Info.                !
 --------------------------------------------------------------------------------
 ! R1    R(1,2)                  1.07           calculate D2E/DX2 analytically  !
 ! R2    R(1,3)                  1.2012         calculate D2E/DX2 analytically  !
 ! R3    R(3,4)                  1.54           calculate D2E/DX2 analytically  !
 ! R4    R(4,5)                  1.2584         calculate D2E/DX2 analytically  !
 ! R5    R(4,6)                  1.43           calculate D2E/DX2 analytically  !
 ! R6    R(6,7)                  1.43           calculate D2E/DX2 analytically  !
 ! R7    R(7,8)                  1.54           calculate D2E/DX2 analytically  !
 ! R8    R(7,9)                  1.07           calculate D2E/DX2 analytically  !
 ! R9    R(7,10)                 1.07           calculate D2E/DX2 analytically  !
 ! R10   R(8,11)                 1.07           calculate D2E/DX2 analytically  !
 ! R11   R(8,12)                 1.07           calculate D2E/DX2 analytically  !
 ! R12   R(8,13)                 1.07           calculate D2E/DX2 analytically  !
 ! A1    A(3,4,5)              120.0            calculate D2E/DX2 analytically  !
 ! A2    A(3,4,6)              120.0            calculate D2E/DX2 analytically  !
 ! A3    A(5,4,6)              120.0            calculate D2E/DX2 analytically  !
 ! A4    A(4,6,7)              109.4712         calculate D2E/DX2 analytically  !
 ! A5    A(6,7,8)              109.4712         calculate D2E/DX2 analytically  !
 ! A6    A(6,7,9)              109.4712         calculate D2E/DX2 analytically  !
 ! A7    A(6,7,10)             109.4712         calculate D2E/DX2 analytically  !
 ! A8    A(8,7,9)              109.4712         calculate D2E/DX2 analytically  !
 ! A9    A(8,7,10)             109.4712         calculate D2E/DX2 analytically  !
 ! A10   A(9,7,10)             109.4712         calculate D2E/DX2 analytically  !
 ! A11   A(7,8,11)             109.4712         calculate D2E/DX2 analytically  !
 ! A12   A(7,8,12)             109.4712         calculate D2E/DX2 analytically  !
 ! A13   A(7,8,13)             109.4712         calculate D2E/DX2 analytically  !
 ! A14   A(11,8,12)            109.4712         calculate D2E/DX2 analytically  !
 ! A15   A(11,8,13)            109.4712         calculate D2E/DX2 analytically  !
 ! A16   A(12,8,13)            109.4712         calculate D2E/DX2 analytically  !
 ! A17   L(2,1,3,12,-1)        180.0            calculate D2E/DX2 analytically  !
 ! A18   L(1,3,4,9,-1)         180.0            calculate D2E/DX2 analytically  !
 ! A19   L(2,1,3,12,-2)        180.0            calculate D2E/DX2 analytically  !
 ! A20   L(1,3,4,9,-2)         180.0            calculate D2E/DX2 analytically  !
 ! D1    D(3,4,5,6)           -180.0            calculate D2E/DX2 analytically  !
 ! D2    D(3,4,6,7)            -90.0            calculate D2E/DX2 analytically  !
 ! D3    D(5,4,6,7)             90.0            calculate D2E/DX2 analytically  !
 ! D4    D(4,6,7,8)            180.0            calculate D2E/DX2 analytically  !
 ! D5    D(4,6,7,9)             60.0            calculate D2E/DX2 analytically  !
 ! D6    D(4,6,7,10)           -60.0            calculate D2E/DX2 analytically  !
 ! D7    D(6,7,8,11)           180.0            calculate D2E/DX2 analytically  !
 ! D8    D(6,7,8,12)           -60.0            calculate D2E/DX2 analytically  !
 ! D9    D(6,7,8,13)            60.0            calculate D2E/DX2 analytically  !
 ! D10   D(9,7,8,11)           -60.0            calculate D2E/DX2 analytically  !
 ! D11   D(9,7,8,12)            60.0            calculate D2E/DX2 analytically  !
 ! D12   D(9,7,8,13)           180.0            calculate D2E/DX2 analytically  !
 ! D13   D(10,7,8,11)           60.0            calculate D2E/DX2 analytically  !
 ! D14   D(10,7,8,12)          180.0            calculate D2E/DX2 analytically  !
 ! D15   D(10,7,8,13)          -60.0            calculate D2E/DX2 analytically  !
 --------------------------------------------------------------------------------
 Trust Radius=3.00D-01 FncErr=1.00D-07 GrdErr=1.00D-06 EigMax=2.50D+02 EigMin=1.00D-04
 Number of steps in this run=     57 maximum allowed number of steps=    100.
 GradGradGradGradGradGradGradGradGradGradGradGradGradGradGradGradGradGrad

                          Input orientation:                          
 ---------------------------------------------------------------------
 Center     Atomic      Atomic             Coordinates (Angstroms)
 Number     Number       Type             X           Y           Z
 ---------------------------------------------------------------------
      1          6           0       -1.510946    0.787788   -0.359990
      2          1           0       -2.564550    0.830841   -0.541554
      3          6           0       -0.328153    0.739454   -0.156163
      4          6           0        1.188249    0.677488    0.105153
      5          8           0        1.753528   -0.434779    0.269145
      6          8           0        1.953973    1.883886    0.161449
      7          6           0        2.434539    2.204914   -1.146564
      8          6           0        3.259165    3.504113   -1.085937
      9          1           0        1.604600    2.339799   -1.808310
     10          1           0        3.051108    1.407550   -1.505664
     11          1           0        3.618750    3.744323   -2.064660
     12          1           0        2.642597    4.301477   -0.726837
     13          1           0        4.089104    3.369228   -0.424191
 ---------------------------------------------------------------------
                    Distance matrix (angstroms):
                    1          2          3          4          5
     1  C    0.000000
     2  H    1.070000   0.000000
     3  C    1.201200   2.271200   0.000000
     4  C    2.741200   3.811200   1.540000   0.000000
     5  O    3.542213   4.572180   2.427572   1.258400   0.000000
     6  O    3.671375   4.692565   2.572683   1.430000   2.329803
     7  C    4.265419   5.219675   3.280386   2.335180   3.071805
     8  C    5.537092   6.431049   4.623491   3.700973   4.429227
     9  H    3.770013   4.611229   3.004368   2.568651   3.469334
    10  H    4.744366   5.726929   3.699582   2.568651   2.868420
    11  H    6.161232   7.002958   5.315038   4.474472   5.137177
    12  H    5.452752   6.260512   4.673224   3.992572   4.920827
    13  H    6.166727   7.122380   5.147787   3.992572   4.517311
                    6          7          8          9         10
     6  O    0.000000
     7  C    1.430000   0.000000
     8  C    2.425826   1.540000   0.000000
     9  H    2.051796   1.070000   2.148263   0.000000
    10  H    2.051796   1.070000   2.148263   1.747303   0.000000
    11  H    3.344887   2.148263   1.070000   2.468846   2.468846
    12  H    2.666083   2.148263   1.070000   2.468846   3.024610
    13  H    2.666083   2.148263   1.070000   3.024610   2.468846
                   11         12         13
    11  H    0.000000
    12  H    1.747303   0.000000
    13  H    1.747303   1.747303   0.000000
 Stoichiometry    C5H6O2
 Framework group  C1[X(C5H6O2)]
 Deg. of freedom    33
 Full point group                 C1      NOp   1
 Largest Abelian subgroup         C1      NOp   1
 Largest concise Abelian subgroup C1      NOp   1
                         Standard orientation:                         
 ---------------------------------------------------------------------
 Center     Atomic      Atomic             Coordinates (Angstroms)
 Number     Number       Type             X           Y           Z
 ---------------------------------------------------------------------
      1          6           0       -2.688150   -1.274863    0.056517
      2          1           0       -3.466334   -2.004952    0.135883
      3          6           0       -1.814547   -0.455252   -0.032580
      4          6           0       -0.694545    0.595531   -0.146807
      5          8           0       -0.915673    1.789336    0.184105
      6          8           0        0.596739    0.214662   -0.628911
      7          6           0        1.416041   -0.189732    0.471139
      8          6           0        2.806654   -0.599899   -0.048049
      9          1           0        0.961255   -1.021212    0.967838
     10          1           0        1.517664    0.624146    1.158290
     11          1           0        3.419698   -0.902487    0.775065
     12          1           0        2.705030   -1.413776   -0.735200
     13          1           0        3.261440    0.231582   -0.544748
 ---------------------------------------------------------------------
 Rotational constants (GHZ):           4.8257629           1.5415137           1.2466800
 Standard basis: 6-311++G(d,p) (5D, 7F)
 There are   203 symmetry adapted cartesian basis functions of A   symmetry.
 There are   196 symmetry adapted basis functions of A   symmetry.
   196 basis functions,   306 primitive gaussians,   203 cartesian basis functions
    26 alpha electrons       26 beta electrons
       nuclear repulsion energy       266.6422032883 Hartrees.
 NAtoms=   13 NActive=   13 NUniq=   13 SFac= 1.00D+00 NAtFMM=   60 NAOKFM=F Big=F
 Integral buffers will be    131072 words long.
 Raffenetti 2 integral format.
 Two-electron integral symmetry is turned on.
 One-electron integrals computed using PRISM.
 NBasis=   196 RedAO= T EigKep=  1.55D-06  NBF=   196
 NBsUse=   196 1.00D-06 EigRej= -1.00D+00 NBFU=   196
 ExpMin= 3.60D-02 ExpMax= 8.59D+03 ExpMxC= 1.30D+03 IAcc=3 IRadAn=         5 AccDes= 0.00D+00
 Harris functional with IExCor= 1009 and IRadAn=       5 diagonalized for initial guess.
 HarFok:  IExCor= 1009 AccDes= 0.00D+00 IRadAn=         5 IDoV= 1 UseB2=F ITyADJ=14
 ICtDFT=  3500011 ScaDFX=  1.000000  1.000000  1.000000  1.000000
 FoFCou: FMM=F IPFlag=           0 FMFlag=      100000 FMFlg1=           0
         NFxFlg=           0 DoJE=T BraDBF=F KetDBF=T FulRan=T
         wScrn=  0.000000 ICntrl=       500 IOpCl=  0 I1Cent=   200000004 NGrid=           0
         NMat0=    1 NMatS0=      1 NMatT0=    0 NMatD0=    1 NMtDS0=    0 NMtDT0=    0
 Petite list used in FoFCou.
 Requested convergence on RMS density matrix=1.00D-08 within 128 cycles.
 Requested convergence on MAX density matrix=1.00D-06.
 Requested convergence on             energy=1.00D-06.
 No special actions if energy rises.
 SCF Done:  E(RM062X) =  -344.438925060     A.U. after   15 cycles
            NFock= 15  Conv=0.38D-08     -V/T= 2.0047
 DoSCS=F DFT=T ScalE2(SS,OS)=  1.000000  1.000000
 Range of M.O.s used for correlation:     1   196
 NBasis=   196 NAE=    26 NBE=    26 NFC=     0 NFV=     0
 NROrb=    196 NOA=    26 NOB=    26 NVA=   170 NVB=   170

 **** Warning!!: The largest alpha MO coefficient is  0.21367444D+03

 Symmetrizing basis deriv contribution to polar:
 IMax=3 JMax=2 DiffMx= 0.00D+00
 G2DrvN: will do    14 centers at a time, making    1 passes.
 Calling FoFCou, ICntrl=  3107 FMM=F I1Cent=   0 AccDes= 0.00D+00.
 End of G2Drv F.D. properties file   721 does not exist.
 End of G2Drv F.D. properties file   722 does not exist.
 End of G2Drv F.D. properties file   788 does not exist.
          IDoAtm=1111111111111
          Differentiating once with respect to nuclear coordinates.
 Keep R1 ints in memory in canonical form, NReq=211019325.
          There are    42 degrees of freedom in the 1st order CPHF.  IDoFFX=6 NUNeed=     0.
     36 vectors produced by pass  0 Test12= 1.05D-14 2.38D-09 XBig12= 2.26D-01 1.34D-01.
 AX will form    36 AO Fock derivatives at one time.
     36 vectors produced by pass  1 Test12= 1.05D-14 2.38D-09 XBig12= 1.94D-02 2.98D-02.
     36 vectors produced by pass  2 Test12= 1.05D-14 2.38D-09 XBig12= 6.97D-04 5.09D-03.
     36 vectors produced by pass  3 Test12= 1.05D-14 2.38D-09 XBig12= 1.33D-05 5.99D-04.
     36 vectors produced by pass  4 Test12= 1.05D-14 2.38D-09 XBig12= 1.55D-07 5.25D-05.
     36 vectors produced by pass  5 Test12= 1.05D-14 2.38D-09 XBig12= 8.26D-10 3.95D-06.
     25 vectors produced by pass  6 Test12= 1.05D-14 2.38D-09 XBig12= 3.27D-12 2.37D-07.
      7 vectors produced by pass  7 Test12= 1.05D-14 2.38D-09 XBig12= 1.06D-14 1.21D-08.
      1 vectors produced by pass  8 Test12= 1.05D-14 2.38D-09 XBig12= 4.78D-16 3.38D-09.
 InvSVY:  IOpt=1 It=  1 EMax= 1.55D-15
 Solved reduced A of dimension   249 with    36 vectors.
 End of Minotr F.D. properties file   721 does not exist.
 End of Minotr F.D. properties file   722 does not exist.
 End of Minotr F.D. properties file   788 does not exist.

 **********************************************************************

            Population analysis using the SCF density.

 **********************************************************************

 Orbital symmetries:
       Occupied  (A) (A) (A) (A) (A) (A) (A) (A) (A) (A) (A) (A)
                 (A) (A) (A) (A) (A) (A) (A) (A) (A) (A) (A) (A)
                 (A) (A)
       Virtual   (A) (A) (A) (A) (A) (A) (A) (A) (A) (A) (A) (A)
                 (A) (A) (A) (A) (A) (A) (A) (A) (A) (A) (A) (A)
                 (A) (A) (A) (A) (A) (A) (A) (A) (A) (A) (A) (A)
                 (A) (A) (A) (A) (A) (A) (A) (A) (A) (A) (A) (A)
                 (A) (A) (A) (A) (A) (A) (A) (A) (A) (A) (A) (A)
                 (A) (A) (A) (A) (A) (A) (A) (A) (A) (A) (A) (A)
                 (A) (A) (A) (A) (A) (A) (A) (A) (A) (A) (A) (A)
                 (A) (A) (A) (A) (A) (A) (A) (A) (A) (A) (A) (A)
                 (A) (A) (A) (A) (A) (A) (A) (A) (A) (A) (A) (A)
                 (A) (A) (A) (A) (A) (A) (A) (A) (A) (A) (A) (A)
                 (A) (A) (A) (A) (A) (A) (A) (A) (A) (A) (A) (A)
                 (A) (A) (A) (A) (A) (A) (A) (A) (A) (A) (A) (A)
                 (A) (A) (A) (A) (A) (A) (A) (A) (A) (A) (A) (A)
                 (A) (A) (A) (A) (A) (A) (A) (A) (A) (A) (A) (A)
                 (A) (A)
 The electronic state is 1-A.
 Alpha  occ. eigenvalues --  -19.67195 -19.65824 -10.73575 -10.60480 -10.58747
 Alpha  occ. eigenvalues --  -10.58135 -10.53629  -1.22110  -1.14828  -0.89237
 Alpha  occ. eigenvalues --   -0.87204  -0.75630  -0.72266  -0.64547  -0.61139
 Alpha  occ. eigenvalues --   -0.58114  -0.54749  -0.54265  -0.48078  -0.45895
 Alpha  occ. eigenvalues --   -0.45320  -0.43492  -0.39332  -0.38960  -0.37829
 Alpha  occ. eigenvalues --   -0.36423
 Alpha virt. eigenvalues --   -0.04623  -0.00442   0.00504   0.02010   0.02472
 Alpha virt. eigenvalues --    0.03180   0.03462   0.05018   0.05739   0.06378
 Alpha virt. eigenvalues --    0.07420   0.07902   0.08008   0.09165   0.10727
 Alpha virt. eigenvalues --    0.11293   0.12352   0.12598   0.12745   0.13339
 Alpha virt. eigenvalues --    0.13939   0.14573   0.15199   0.15784   0.16250
 Alpha virt. eigenvalues --    0.16662   0.17816   0.19380   0.20719   0.21490
 Alpha virt. eigenvalues --    0.22014   0.23370   0.24480   0.25907   0.26552
 Alpha virt. eigenvalues --    0.28436   0.30004   0.30802   0.31253   0.31764
 Alpha virt. eigenvalues --    0.32666   0.34823   0.36083   0.36555   0.37929
 Alpha virt. eigenvalues --    0.40165   0.40499   0.46032   0.47212   0.48139
 Alpha virt. eigenvalues --    0.51335   0.52782   0.53876   0.57710   0.59525
 Alpha virt. eigenvalues --    0.61591   0.62561   0.65096   0.68450   0.70221
 Alpha virt. eigenvalues --    0.70636   0.71133   0.71465   0.72546   0.74060
 Alpha virt. eigenvalues --    0.75051   0.77460   0.78416   0.83005   0.87066
 Alpha virt. eigenvalues --    0.90059   0.95014   1.01440   1.03530   1.04563
 Alpha virt. eigenvalues --    1.06014   1.13377   1.16628   1.17836   1.18746
 Alpha virt. eigenvalues --    1.19542   1.22784   1.23926   1.27313   1.28293
 Alpha virt. eigenvalues --    1.30169   1.31912   1.36331   1.41470   1.42343
 Alpha virt. eigenvalues --    1.51014   1.52722   1.55153   1.58522   1.59139
 Alpha virt. eigenvalues --    1.60441   1.62155   1.64674   1.65565   1.67361
 Alpha virt. eigenvalues --    1.70776   1.71243   1.74430   1.74925   1.80622
 Alpha virt. eigenvalues --    1.81987   1.85415   1.86738   1.89441   1.97504
 Alpha virt. eigenvalues --    1.97853   2.02483   2.08054   2.11198   2.22555
 Alpha virt. eigenvalues --    2.31143   2.38534   2.39502   2.44063   2.48099
 Alpha virt. eigenvalues --    2.54017   2.54329   2.56903   2.60784   2.61431
 Alpha virt. eigenvalues --    2.64965   2.66071   2.67842   2.70527   2.71999
 Alpha virt. eigenvalues --    2.78224   2.82290   2.85457   2.90359   2.92336
 Alpha virt. eigenvalues --    2.93096   2.95957   2.99816   3.02219   3.04163
 Alpha virt. eigenvalues --    3.13915   3.18216   3.23596   3.24047   3.27302
 Alpha virt. eigenvalues --    3.31683   3.34521   3.50018   3.55811   3.64368
 Alpha virt. eigenvalues --    3.88902   3.89075   3.90858   4.04155   4.07225
 Alpha virt. eigenvalues --    4.12290   4.26580   5.14435   5.18768   5.24963
 Alpha virt. eigenvalues --    5.41754   5.60189   5.85709  23.54508  23.73389
 Alpha virt. eigenvalues --   23.94048  24.09890  25.08966  49.98412  50.02169
          Condensed to atoms (all electrons):
               1          2          3          4          5          6
     1  C   19.118691   0.743863  -6.838168  -5.001686  -0.090001  -0.010622
     2  H    0.743863   0.438279  -0.288669  -0.056805  -0.002625  -0.001746
     3  C   -6.838168  -0.288669  10.355161   0.760948  -0.109175  -0.229733
     4  C   -5.001686  -0.056805   0.760948  10.155792   0.591021   0.317811
     5  O   -0.090001  -0.002625  -0.109175   0.591021   7.872855  -0.079958
     6  O   -0.010622  -0.001746  -0.229733   0.317811  -0.079958   8.086136
     7  C   -0.042026  -0.000271   0.058750  -0.250731  -0.036616   0.216068
     8  C    0.034974  -0.000029   0.120096  -0.228082   0.001762  -0.147364
     9  H   -0.052442  -0.000483  -0.026585   0.131177  -0.006034  -0.067391
    10  H    0.017328  -0.000066   0.010175  -0.023770   0.015317  -0.050121
    11  H   -0.000419   0.000019  -0.002030   0.000220   0.000194   0.018426
    12  H    0.002220  -0.000012   0.005314  -0.005624   0.000185  -0.004525
    13  H   -0.003742  -0.000008  -0.009333   0.013093  -0.001590  -0.003844
               7          8          9         10         11         12
     1  C   -0.042026   0.034974  -0.052442   0.017328  -0.000419   0.002220
     2  H   -0.000271  -0.000029  -0.000483  -0.000066   0.000019  -0.000012
     3  C    0.058750   0.120096  -0.026585   0.010175  -0.002030   0.005314
     4  C   -0.250731  -0.228082   0.131177  -0.023770   0.000220  -0.005624
     5  O   -0.036616   0.001762  -0.006034   0.015317   0.000194   0.000185
     6  O    0.216068  -0.147364  -0.067391  -0.050121   0.018426  -0.004525
     7  C    5.433469   0.199265   0.412689   0.370106  -0.039530  -0.040441
     8  C    0.199265   5.427434  -0.092772  -0.027090   0.402742   0.404740
     9  H    0.412689  -0.092772   0.637231  -0.083950  -0.001219  -0.012168
    10  H    0.370106  -0.027090  -0.083950   0.590367  -0.006473   0.008714
    11  H   -0.039530   0.402742  -0.001219  -0.006473   0.536555  -0.035751
    12  H   -0.040441   0.404740  -0.012168   0.008714  -0.035751   0.542050
    13  H   -0.028201   0.388330   0.009459  -0.009148  -0.031503  -0.037150
              13
     1  C   -0.003742
     2  H   -0.000008
     3  C   -0.009333
     4  C    0.013093
     5  O   -0.001590
     6  O   -0.003844
     7  C   -0.028201
     8  C    0.388330
     9  H    0.009459
    10  H   -0.009148
    11  H   -0.031503
    12  H   -0.037150
    13  H    0.531411
 Mulliken charges:
               1
     1  C   -1.877969
     2  H    0.168553
     3  C    2.193250
     4  C   -0.403363
     5  O   -0.155336
     6  O   -0.043138
     7  C   -0.252532
     8  C   -0.484006
     9  H    0.152486
    10  H    0.188612
    11  H    0.158770
    12  H    0.172447
    13  H    0.182226
 Sum of Mulliken charges =  -0.00000
 Mulliken charges with hydrogens summed into heavy atoms:
               1
     1  C   -1.709416
     3  C    2.193250
     4  C   -0.403363
     5  O   -0.155336
     6  O   -0.043138
     7  C    0.088566
     8  C    0.029437
 APT charges:
               1
     1  C   -0.535404
     2  H    0.937358
     3  C   -0.517054
     4  C   -0.001373
     5  O    0.041776
     6  O   -0.041722
     7  C   -0.571011
     8  C   -1.301436
     9  H    0.294376
    10  H    0.390715
    11  H    0.565567
    12  H    0.328796
    13  H    0.409412
 Sum of APT charges =  -0.00000
 APT charges with hydrogens summed into heavy atoms:
               1
     1  C    0.401954
     3  C   -0.517054
     4  C   -0.001373
     5  O    0.041776
     6  O   -0.041722
     7  C    0.114080
     8  C    0.002338
 Electronic spatial extent (au):  <R**2>=            939.2940
 Charge=              0.0000 electrons
 Dipole moment (field-independent basis, Debye):
    X=              0.4211    Y=             -3.3421    Z=              1.0387  Tot=              3.5250
 Quadrupole moment (field-independent basis, Debye-Ang):
   XX=            -32.8848   YY=            -43.7350   ZZ=            -42.5431
   XY=              6.2280   XZ=              1.8788   YZ=             -1.0864
 Traceless Quadrupole moment (field-independent basis, Debye-Ang):
   XX=              6.8362   YY=             -4.0140   ZZ=             -2.8221
   XY=              6.2280   XZ=              1.8788   YZ=             -1.0864
 Octapole moment (field-independent basis, Debye-Ang**2):
  XXX=            -10.7541  YYY=             -9.5960  ZZZ=             -0.0696  XYY=             -4.5725
  XXY=            -21.7518  XXZ=              2.0254  XZZ=              4.0013  YZZ=              3.2537
  YYZ=             -0.8080  XYZ=              2.3012
 Hexadecapole moment (field-independent basis, Debye-Ang**3):
 XXXX=           -814.5681 YYYY=           -274.1255 ZZZZ=            -83.1989 XXXY=             77.1753
 XXXZ=             -2.2541 YYYX=             28.6025 YYYZ=             -2.4808 ZZZX=              1.6365
 ZZZY=              0.3916 XXYY=           -155.2534 XXZZ=           -171.1541 YYZZ=            -57.8806
 XXYZ=             -7.0114 YYXZ=             -1.6277 ZZXY=             -5.3176
 N-N= 2.666422032883D+02 E-N=-1.338037307288D+03  KE= 3.428146368340D+02
  Exact polarizability:   0.000   0.000   0.000   0.000   0.000   0.000
 Approx polarizability:  79.992  14.992  86.641  -3.171   2.147  54.304
 Calling FoFJK, ICntrl=    100147 FMM=F ISym2X=0 I1Cent= 0 IOpClX= 0 NMat=1 NMatS=1 NMatT=0.
 ***** Axes restored to original set *****
 -------------------------------------------------------------------
 Center     Atomic                   Forces (Hartrees/Bohr)
 Number     Number              X              Y              Z
 -------------------------------------------------------------------
      1        6           0.001443351    0.000308238   -0.000044276
      2        1           0.003668909   -0.000863862    0.000749032
      3        6           0.049847493    0.009689104    0.008220248
      4        6           0.033614801   -0.060192367    0.011217398
      5        8          -0.048444976    0.091485353   -0.013326480
      6        8          -0.040494080   -0.041374177   -0.001136299
      7        6           0.014489247    0.023662966    0.003824296
      8        6          -0.016926578   -0.023540537    0.005401689
      9        1          -0.013984881    0.001044861   -0.010663902
     10        1           0.007916143   -0.013894397   -0.004341845
     11        1           0.004678341    0.002827807   -0.013286480
     12        1          -0.007099886    0.011567107    0.004759772
     13        1           0.011292116   -0.000720096    0.008626849
 -------------------------------------------------------------------
 Cartesian Forces:  Max     0.091485353 RMS     0.025137608
 FormGI is forming the generalized inverse of G from B-inverse, IUseBI=4.

 GradGradGradGradGradGradGradGradGradGradGradGradGradGradGradGradGradGrad
 Berny optimization.
 Internal  Forces:  Max     0.104360388 RMS     0.020316649
 Search for a local minimum.
 Step number   1 out of a maximum of   57
 All quantities printed in internal units (Hartrees-Bohrs-Radians)
 Mixed Optimization -- RFO/linear search
 Second derivative matrix not updated -- analytic derivatives used.
 ITU=  0
     Eigenvalues ---   -0.01111   0.00226   0.00472   0.02577   0.04034
     Eigenvalues ---    0.04422   0.04479   0.04641   0.04957   0.05639
     Eigenvalues ---    0.06043   0.08024   0.10064   0.12431   0.12543
     Eigenvalues ---    0.12894   0.13960   0.15924   0.16909   0.17966
     Eigenvalues ---    0.22855   0.24556   0.28598   0.29402   0.36639
     Eigenvalues ---    0.38394   0.39033   0.39113   0.39579   0.40236
     Eigenvalues ---    0.40450   0.60193   1.11544
 RFO step:  Lambda=-4.28268893D-02 EMin=-1.11133321D-02
 Linear search not attempted -- first point.
 Maximum step size (   0.300) exceeded in Quadratic search.
    -- Step size scaled by   0.870
 Iteration  1 RMS(Cart)=  0.18172146 RMS(Int)=  0.05387159
 Iteration  2 RMS(Cart)=  0.13255962 RMS(Int)=  0.01397160
 Iteration  3 RMS(Cart)=  0.04018918 RMS(Int)=  0.00058624
 Iteration  4 RMS(Cart)=  0.00080160 RMS(Int)=  0.00014520
 Iteration  5 RMS(Cart)=  0.00000034 RMS(Int)=  0.00014520
 Variable       Old X    -DE/DX   Delta X   Delta X   Delta X     New X
                                 (Linear)    (Quad)   (Total)
    R1        2.02201  -0.00377   0.00000  -0.00757  -0.00757   2.01444
    R2        2.26994  -0.00518   0.00000  -0.00309  -0.00309   2.26685
    R3        2.91018  -0.05527   0.00000  -0.13902  -0.13902   2.77116
    R4        2.37803  -0.10436   0.00000  -0.13537  -0.13537   2.24266
    R5        2.70231  -0.05586   0.00000  -0.14455  -0.14455   2.55776
    R6        2.70231   0.00553   0.00000   0.01019   0.01019   2.71250
    R7        2.91018  -0.01242   0.00000  -0.04240  -0.04240   2.86778
    R8        2.02201   0.01757   0.00000   0.03663   0.03663   2.05863
    R9        2.02201   0.01637   0.00000   0.03490   0.03490   2.05691
   R10        2.02201   0.01436   0.00000   0.02936   0.02936   2.05136
   R11        2.02201   0.01431   0.00000   0.02862   0.02862   2.05063
   R12        2.02201   0.01418   0.00000   0.02823   0.02823   2.05024
    A1        2.09440   0.00895   0.00000   0.04726   0.04721   2.14160
    A2        2.09440  -0.02192   0.00000  -0.09932  -0.09936   1.99504
    A3        2.09440   0.01297   0.00000   0.05206   0.05201   2.14641
    A4        1.91063   0.00723   0.00000   0.05732   0.05732   1.96795
    A5        1.91063  -0.00873   0.00000  -0.02100  -0.02090   1.88973
    A6        1.91063   0.00232   0.00000   0.00079   0.00091   1.91154
    A7        1.91063   0.00086   0.00000  -0.01028  -0.01015   1.90048
    A8        1.91063   0.00297   0.00000   0.01833   0.01821   1.92885
    A9        1.91063   0.00419   0.00000   0.02082   0.02065   1.93128
   A10        1.91063  -0.00162   0.00000  -0.00865  -0.00896   1.90167
   A11        1.91063  -0.00129   0.00000   0.00494   0.00492   1.91555
   A12        1.91063   0.00203   0.00000   0.00786   0.00784   1.91847
   A13        1.91063   0.00141   0.00000   0.00913   0.00909   1.91973
   A14        1.91063  -0.00047   0.00000  -0.00742  -0.00743   1.90320
   A15        1.91063  -0.00032   0.00000  -0.00608  -0.00611   1.90452
   A16        1.91063  -0.00136   0.00000  -0.00843  -0.00847   1.90216
   A17        3.14159   0.00145   0.00000   0.00759   0.00759   3.14919
   A18        3.14159   0.00133   0.00000   0.01404   0.01404   3.15563
   A19        3.14159   0.00013   0.00000  -0.00159  -0.00159   3.14000
   A20        3.14159   0.00155   0.00000  -0.00897  -0.00897   3.13262
    D1       -3.14159   0.00037   0.00000   0.01845   0.01891  -3.12268
    D2       -1.57080   0.00026   0.00000   0.45210   0.45260  -1.11820
    D3        1.57080   0.00064   0.00000   0.47055   0.47006   2.04085
    D4       -3.14159  -0.00017   0.00000  -0.02826  -0.02832   3.11327
    D5        1.04720   0.00012   0.00000  -0.03833  -0.03835   1.00885
    D6       -1.04720   0.00015   0.00000  -0.02192  -0.02184  -1.06904
    D7        3.14159  -0.00043   0.00000  -0.00350  -0.00351   3.13808
    D8       -1.04720  -0.00054   0.00000  -0.00475  -0.00477  -1.05196
    D9        1.04720  -0.00011   0.00000  -0.00467  -0.00468   1.04252
   D10       -1.04720  -0.00111   0.00000  -0.00418  -0.00429  -1.05149
   D11        1.04720  -0.00123   0.00000  -0.00542  -0.00554   1.04165
   D12        3.14159  -0.00079   0.00000  -0.00534  -0.00546   3.13613
   D13        1.04720   0.00129   0.00000   0.00920   0.00933   1.05653
   D14        3.14159   0.00117   0.00000   0.00796   0.00808  -3.13351
   D15       -1.04720   0.00161   0.00000   0.00803   0.00816  -1.03903
         Item               Value     Threshold  Converged?
 Maximum Force            0.104360     0.000015     NO 
 RMS     Force            0.020317     0.000010     NO 
 Maximum Displacement     0.773545     0.000060     NO 
 RMS     Displacement     0.315862     0.000040     NO 
 Predicted change in Energy=-2.557759D-02
 GradGradGradGradGradGradGradGradGradGradGradGradGradGradGradGradGradGrad

                          Input orientation:                          
 ---------------------------------------------------------------------
 Center     Atomic      Atomic             Coordinates (Angstroms)
 Number     Number       Type             X           Y           Z
 ---------------------------------------------------------------------
      1          6           0       -1.190926    0.944990   -0.572215
      2          1           0       -2.199035    1.072294   -0.894487
      3          6           0       -0.058705    0.793495   -0.206045
      4          6           0        1.317330    0.603339    0.263845
      5          8           0        1.715614   -0.434857    0.678488
      6          8           0        2.085348    1.716231    0.203863
      7          6           0        2.289371    2.178256   -1.139737
      8          6           0        3.124044    3.444517   -1.085916
      9          1           0        1.325385    2.376004   -1.607048
     10          1           0        2.803815    1.403032   -1.704658
     11          1           0        3.296199    3.813491   -2.092200
     12          1           0        2.604176    4.205968   -0.513666
     13          1           0        4.079347    3.239321   -0.614344
 ---------------------------------------------------------------------
                    Distance matrix (angstroms):
                    1          2          3          4          5
     1  C    0.000000
     2  H    1.065997   0.000000
     3  C    1.199564   2.265544   0.000000
     4  C    2.665908   3.731818   1.466434   0.000000
     5  O    3.451987   4.479981   2.332265   1.186765   0.000000
     6  O    3.454140   4.469559   2.369901   1.353506   2.233641
     7  C    3.735705   4.629156   2.881459   2.322772   3.234733
     8  C    5.013032   5.830888   4.234617   3.627446   4.488467
     9  H    3.074167   3.824780   2.526430   2.577334   3.643747
    10  H    4.177342   5.078806   3.288069   2.593097   3.200219
    11  H    5.538316   6.256698   4.892171   4.446566   5.312572
    12  H    5.004018   5.747675   4.339416   3.903771   4.873195
    13  H    5.748174   6.647749   4.824132   3.917698   4.556120
                    6          7          8          9         10
     6  O    0.000000
     7  C    1.435393   0.000000
     8  C    2.393615   1.517561   0.000000
     9  H    2.071773   1.089382   2.156032   0.000000
    10  H    2.063187   1.088467   2.157093   1.772557   0.000000
    11  H    3.337149   2.143568   1.085535   2.487136   2.490571
    12  H    2.642502   2.145386   1.085145   2.485871   3.052010
    13  H    2.639185   2.146139   1.084938   3.052062   2.487514
                   11         12         13
    11  H    0.000000
    12  H    1.767683   0.000000
    13  H    1.768348   1.766543   0.000000
 Stoichiometry    C5H6O2
 Framework group  C1[X(C5H6O2)]
 Deg. of freedom    33
 Full point group                 C1      NOp   1
 Largest Abelian subgroup         C1      NOp   1
 Largest concise Abelian subgroup C1      NOp   1
                         Standard orientation:                         
 ---------------------------------------------------------------------
 Center     Atomic      Atomic             Coordinates (Angstroms)
 Number     Number       Type             X           Y           Z
 ---------------------------------------------------------------------
      1          6           0       -2.195372   -1.558028   -0.028568
      2          1           0       -2.785181   -2.445819   -0.011240
      3          6           0       -1.539317   -0.553936   -0.047138
      4          6           0       -0.751540    0.682276   -0.087339
      5          8           0       -1.210471    1.744004    0.178227
      6          8           0        0.534549    0.511077   -0.472886
      7          6           0        1.287497   -0.293506    0.446933
      8          6           0        2.693749   -0.452697   -0.100886
      9          1           0        0.808320   -1.265636    0.556959
     10          1           0        1.306647    0.202933    1.415408
     11          1           0        3.286495   -1.055916    0.579676
     12          1           0        2.660179   -0.941079   -1.069337
     13          1           0        3.160812    0.520211   -0.212208
 ---------------------------------------------------------------------
 Rotational constants (GHZ):           4.3940411           1.8298555           1.3657531
 Standard basis: 6-311++G(d,p) (5D, 7F)
 There are   203 symmetry adapted cartesian basis functions of A   symmetry.
 There are   196 symmetry adapted basis functions of A   symmetry.
   196 basis functions,   306 primitive gaussians,   203 cartesian basis functions
    26 alpha electrons       26 beta electrons
       nuclear repulsion energy       275.0044643972 Hartrees.
 NAtoms=   13 NActive=   13 NUniq=   13 SFac= 1.00D+00 NAtFMM=   60 NAOKFM=F Big=F
 Integral buffers will be    131072 words long.
 Raffenetti 2 integral format.
 Two-electron integral symmetry is turned on.
 One-electron integrals computed using PRISM.
 NBasis=   196 RedAO= T EigKep=  1.62D-06  NBF=   196
 NBsUse=   196 1.00D-06 EigRej= -1.00D+00 NBFU=   196
 Initial guess from the checkpoint file:  "ethyl_propiolate_non_planar.chk"
 B after Tr=    -0.000000   -0.000000   -0.000000
         Rot=    0.997485   -0.052450    0.004500   -0.047469 Ang=  -8.13 deg.
 ExpMin= 3.60D-02 ExpMax= 8.59D+03 ExpMxC= 1.30D+03 IAcc=3 IRadAn=         5 AccDes= 0.00D+00
 Harris functional with IExCor= 1009 and IRadAn=       5 diagonalized for initial guess.
 HarFok:  IExCor= 1009 AccDes= 0.00D+00 IRadAn=         5 IDoV= 1 UseB2=F ITyADJ=14
 ICtDFT=  3500011 ScaDFX=  1.000000  1.000000  1.000000  1.000000
 FoFCou: FMM=F IPFlag=           0 FMFlag=      100000 FMFlg1=           0
         NFxFlg=           0 DoJE=T BraDBF=F KetDBF=T FulRan=T
         wScrn=  0.000000 ICntrl=       500 IOpCl=  0 I1Cent=   200000004 NGrid=           0
         NMat0=    1 NMatS0=      1 NMatT0=    0 NMatD0=    1 NMtDS0=    0 NMtDT0=    0
 Petite list used in FoFCou.
 Requested convergence on RMS density matrix=1.00D-08 within 128 cycles.
 Requested convergence on MAX density matrix=1.00D-06.
 Requested convergence on             energy=1.00D-06.
 No special actions if energy rises.
 SCF Done:  E(RM062X) =  -344.461479781     A.U. after   15 cycles
            NFock= 15  Conv=0.94D-08     -V/T= 2.0033
 Calling FoFJK, ICntrl=      2127 FMM=F ISym2X=0 I1Cent= 0 IOpClX= 0 NMat=1 NMatS=1 NMatT=0.
 ***** Axes restored to original set *****
 -------------------------------------------------------------------
 Center     Atomic                   Forces (Hartrees/Bohr)
 Number     Number              X              Y              Z
 -------------------------------------------------------------------
      1        6           0.000072854   -0.000114343    0.000076900
      2        1           0.000639226   -0.000269210    0.000253676
      3        6           0.001026004    0.000232835    0.000013959
      4        6          -0.004561555    0.005446072   -0.002557692
      5        8           0.001754163   -0.006339189    0.005933965
      6        8           0.001244486   -0.004589218   -0.002409021
      7        6           0.002750942    0.011484838   -0.001305095
      8        6          -0.003999866   -0.006544090    0.002295972
      9        1          -0.002997454   -0.000065122   -0.001176574
     10        1           0.001235731   -0.003552481   -0.001041712
     11        1           0.000671200    0.001243610   -0.003327836
     12        1          -0.001213288    0.002992111    0.001797617
     13        1           0.003377556    0.000074188    0.001445842
 -------------------------------------------------------------------
 Cartesian Forces:  Max     0.011484838 RMS     0.003346176

 GradGradGradGradGradGradGradGradGradGradGradGradGradGradGradGradGradGrad
 Berny optimization.
 Using GEDIIS/GDIIS optimizer.
 FormGI is forming the generalized inverse of G from B-inverse, IUseBI=4.
 Internal  Forces:  Max     0.012959344 RMS     0.002792628
 Search for a local minimum.
 Step number   2 out of a maximum of   57
 All quantities printed in internal units (Hartrees-Bohrs-Radians)
 Mixed Optimization -- RFO/linear search
 Update second derivatives using D2CorX and points    1    2
 DE= -2.26D-02 DEPred=-2.56D-02 R= 8.82D-01
 TightC=F SS=  1.41D+00  RLast= 7.18D-01 DXNew= 5.0454D-01 2.1528D+00
 Trust test= 8.82D-01 RLast= 7.18D-01 DXMaxT set to 5.05D-01
 ITU=  1  0
 Use linear search instead of GDIIS.
     Eigenvalues ---   -0.01327   0.00226   0.00472   0.02577   0.04035
     Eigenvalues ---    0.04422   0.04479   0.04635   0.04953   0.05621
     Eigenvalues ---    0.06043   0.08032   0.10023   0.12428   0.12529
     Eigenvalues ---    0.12891   0.13976   0.16088   0.16915   0.17151
     Eigenvalues ---    0.23317   0.26380   0.28477   0.29442   0.37036
     Eigenvalues ---    0.38391   0.38833   0.39033   0.39123   0.40109
     Eigenvalues ---    0.40267   0.69431   1.11521
 RFO step:  Lambda=-1.43694753D-02 EMin=-1.32656301D-02
 I=     1 Eig=   -1.33D-02 Dot1= -2.25D-03
 I=     1 Stepn= -6.00D-01 RXN=   6.00D-01 EDone=F
 Mixed    1 eigenvectors in step.  Raw Step.Grad=  2.25D-03.
 RFO eigenvector is Hessian eigenvector with negative curvature.
 Taking step of  6.00D-01 in eigenvector direction(s).  Step.Grad= -3.46D-04.
 Quartic linear search produced a step of  0.07623.
 Iteration  1 RMS(Cart)=  0.11182576 RMS(Int)=  0.05363426
 Iteration  2 RMS(Cart)=  0.12525872 RMS(Int)=  0.01377845
 Iteration  3 RMS(Cart)=  0.03856783 RMS(Int)=  0.00059162
 Iteration  4 RMS(Cart)=  0.00089208 RMS(Int)=  0.00001228
 Iteration  5 RMS(Cart)=  0.00000038 RMS(Int)=  0.00001228
 Variable       Old X    -DE/DX   Delta X   Delta X   Delta X     New X
                                 (Linear)    (Quad)   (Total)
    R1        2.01444  -0.00071  -0.00058   0.00084   0.00027   2.01471
    R2        2.26685  -0.00082  -0.00024   0.00050   0.00026   2.26711
    R3        2.77116  -0.00176  -0.01060   0.01925   0.00866   2.77982
    R4        2.24266   0.00821  -0.01032   0.00445  -0.00587   2.23679
    R5        2.55776   0.00163  -0.01102   0.00812  -0.00290   2.55485
    R6        2.71250   0.00301   0.00078  -0.00403  -0.00325   2.70925
    R7        2.86778  -0.00243  -0.00323   0.00506   0.00183   2.86960
    R8        2.05863   0.00314   0.00279  -0.00290  -0.00011   2.05853
    R9        2.05691   0.00366   0.00266  -0.00223   0.00043   2.05733
   R10        2.05136   0.00361   0.00224  -0.00379  -0.00155   2.04982
   R11        2.05063   0.00363   0.00218  -0.00354  -0.00136   2.04927
   R12        2.05024   0.00359   0.00215  -0.00369  -0.00154   2.04870
    A1        2.14160  -0.00027   0.00360  -0.00289   0.00070   2.14230
    A2        1.99504   0.00045  -0.00757   0.01001   0.00243   1.99747
    A3        2.14641  -0.00021   0.00396  -0.00719  -0.00324   2.14317
    A4        1.96795   0.01296   0.00437  -0.00947  -0.00510   1.96285
    A5        1.88973  -0.00273  -0.00159   0.00542   0.00383   1.89357
    A6        1.91154   0.00066   0.00007   0.00435   0.00443   1.91597
    A7        1.90048  -0.00018  -0.00077  -0.00010  -0.00086   1.89963
    A8        1.92885   0.00126   0.00139  -0.00392  -0.00255   1.92629
    A9        1.93128   0.00159   0.00157  -0.00473  -0.00317   1.92811
   A10        1.90167  -0.00061  -0.00068  -0.00085  -0.00157   1.90011
   A11        1.91555  -0.00027   0.00037   0.00090   0.00127   1.91682
   A12        1.91847   0.00085   0.00060  -0.00355  -0.00296   1.91551
   A13        1.91973   0.00100   0.00069  -0.00075  -0.00006   1.91967
   A14        1.90320  -0.00037  -0.00057   0.00068   0.00011   1.90331
   A15        1.90452  -0.00046  -0.00047   0.00175   0.00128   1.90580
   A16        1.90216  -0.00077  -0.00065   0.00103   0.00038   1.90254
   A17        3.14919   0.00038   0.00058   0.00182   0.00240   3.15158
   A18        3.15563   0.00091   0.00107   0.01033   0.01140   3.16703
   A19        3.14000   0.00002  -0.00012  -0.00060  -0.00072   3.13929
   A20        3.13262   0.00050  -0.00068  -0.01773  -0.01841   3.11421
    D1       -3.12268   0.00186   0.00144   0.00466   0.00613  -3.11655
    D2       -1.11820   0.00252   0.03450   0.41959   0.45412  -0.66408
    D3        2.04085   0.00425   0.03583   0.42400   0.45980   2.50065
    D4        3.11327   0.00010  -0.00216  -0.02887  -0.03103   3.08225
    D5        1.00885  -0.00016  -0.00292  -0.02997  -0.03291   0.97594
    D6       -1.06904   0.00030  -0.00167  -0.03144  -0.03310  -1.10214
    D7        3.13808  -0.00030  -0.00027  -0.00103  -0.00129   3.13678
    D8       -1.05196  -0.00039  -0.00036  -0.00184  -0.00221  -1.05417
    D9        1.04252  -0.00018  -0.00036  -0.00328  -0.00364   1.03888
   D10       -1.05149  -0.00044  -0.00033   0.00532   0.00499  -1.04650
   D11        1.04165  -0.00053  -0.00042   0.00451   0.00407   1.04573
   D12        3.13613  -0.00032  -0.00042   0.00307   0.00264   3.13878
   D13        1.05653   0.00067   0.00071  -0.00146  -0.00073   1.05579
   D14       -3.13351   0.00058   0.00062  -0.00228  -0.00165  -3.13516
   D15       -1.03903   0.00079   0.00062  -0.00371  -0.00307  -1.04211
         Item               Value     Threshold  Converged?
 Maximum Force            0.012959     0.000015     NO 
 RMS     Force            0.002793     0.000010     NO 
 Maximum Displacement     0.643093     0.000060     NO 
 RMS     Displacement     0.269098     0.000040     NO 
 Predicted change in Energy=-5.596813D-03
 GradGradGradGradGradGradGradGradGradGradGradGradGradGradGradGradGradGrad

                          Input orientation:                          
 ---------------------------------------------------------------------
 Center     Atomic      Atomic             Coordinates (Angstroms)
 Number     Number       Type             X           Y           Z
 ---------------------------------------------------------------------
      1          6           0       -1.008560    0.940718   -0.771614
      2          1           0       -1.972947    1.067836   -1.208020
      3          6           0        0.073029    0.787068   -0.275791
      4          6           0        1.374969    0.593239    0.380919
      5          8           0        1.637689   -0.375499    1.008273
      6          8           0        2.235806    1.625055    0.232117
      7          6           0        2.164851    2.213769   -1.073179
      8          6           0        3.100879    3.408803   -1.114119
      9          1           0        1.142220    2.525835   -1.281675
     10          1           0        2.463505    1.470719   -1.810698
     11          1           0        3.067674    3.868657   -2.095974
     12          1           0        2.796904    4.138002   -0.371254
     13          1           0        4.115947    3.091882   -0.903107
 ---------------------------------------------------------------------
                    Distance matrix (angstroms):
                    1          2          3          4          5
     1  C    0.000000
     2  H    1.066138   0.000000
     3  C    1.199702   2.265811   0.000000
     4  C    2.670260   3.736109   1.471015   0.000000
     5  O    3.450082   4.475697   2.334212   1.183659   0.000000
     6  O    3.464347   4.483089   2.374404   1.351971   2.227640
     7  C    3.432512   4.295662   2.654622   2.316124   3.363725
     8  C    4.805855   5.588618   4.091963   3.625093   4.578909
     9  H    2.720039   3.440269   2.275584   2.559946   3.729222
    10  H    3.662763   4.495291   2.921933   2.599628   3.469451
    11  H    5.190610   5.834460   4.666599   4.441690   5.449226
    12  H    4.986428   5.733897   4.319417   3.892686   4.859893
    13  H    5.559260   6.423734   4.695836   3.924907   4.670959
                    6          7          8          9         10
     6  O    0.000000
     7  C    1.433672   0.000000
     8  C    2.396343   1.518529   0.000000
     9  H    2.073380   1.089326   2.155006   0.000000
    10  H    2.061253   1.088693   2.155838   1.771703   0.000000
    11  H    3.338527   2.144727   1.084716   2.484678   2.489279
    12  H    2.644577   2.143563   1.084426   2.483128   3.049189
    13  H    2.641069   2.146342   1.084125   3.050701   2.486454
                   11         12         13
    11  H    0.000000
    12  H    1.766500   0.000000
    13  H    1.767820   1.765534   0.000000
 Stoichiometry    C5H6O2
 Framework group  C1[X(C5H6O2)]
 Deg. of freedom    33
 Full point group                 C1      NOp   1
 Largest Abelian subgroup         C1      NOp   1
 Largest concise Abelian subgroup C1      NOp   1
                         Standard orientation:                         
 ---------------------------------------------------------------------
 Center     Atomic      Atomic             Coordinates (Angstroms)
 Number     Number       Type             X           Y           Z
 ---------------------------------------------------------------------
      1          6           0       -1.916123   -1.723589   -0.060327
      2          1           0       -2.384072   -2.681321   -0.080920
      3          6           0       -1.400425   -0.640665   -0.035514
      4          6           0       -0.801358    0.702802   -0.045640
      5          8           0       -1.434920    1.687640    0.126813
      6          8           0        0.527088    0.721170   -0.296080
      7          6           0        1.216320   -0.373255    0.322473
      8          6           0        2.678146   -0.313496   -0.084251
      9          1           0        0.772384   -1.315661    0.004005
     10          1           0        1.117830   -0.285078    1.403111
     11          1           0        3.221994   -1.131003    0.376749
     12          1           0        2.762242   -0.395780   -1.162276
     13          1           0        3.112922    0.627586    0.233022
 ---------------------------------------------------------------------
 Rotational constants (GHZ):           4.1950448           1.9595383           1.3840700
 Standard basis: 6-311++G(d,p) (5D, 7F)
 There are   203 symmetry adapted cartesian basis functions of A   symmetry.
 There are   196 symmetry adapted basis functions of A   symmetry.
   196 basis functions,   306 primitive gaussians,   203 cartesian basis functions
    26 alpha electrons       26 beta electrons
       nuclear repulsion energy       276.5413279229 Hartrees.
 NAtoms=   13 NActive=   13 NUniq=   13 SFac= 1.00D+00 NAtFMM=   60 NAOKFM=F Big=F
 Integral buffers will be    131072 words long.
 Raffenetti 2 integral format.
 Two-electron integral symmetry is turned on.
 One-electron integrals computed using PRISM.
 NBasis=   196 RedAO= T EigKep=  1.55D-06  NBF=   196
 NBsUse=   196 1.00D-06 EigRej= -1.00D+00 NBFU=   196
 Initial guess from the checkpoint file:  "ethyl_propiolate_non_planar.chk"
 B after Tr=     0.000000    0.000000   -0.000000
         Rot=    0.998747   -0.034494    0.006137   -0.035732 Ang=  -5.74 deg.
 ExpMin= 3.60D-02 ExpMax= 8.59D+03 ExpMxC= 1.30D+03 IAcc=3 IRadAn=         5 AccDes= 0.00D+00
 Harris functional with IExCor= 1009 and IRadAn=       5 diagonalized for initial guess.
 HarFok:  IExCor= 1009 AccDes= 0.00D+00 IRadAn=         5 IDoV= 1 UseB2=F ITyADJ=14
 ICtDFT=  3500011 ScaDFX=  1.000000  1.000000  1.000000  1.000000
 FoFCou: FMM=F IPFlag=           0 FMFlag=      100000 FMFlg1=           0
         NFxFlg=           0 DoJE=T BraDBF=F KetDBF=T FulRan=T
         wScrn=  0.000000 ICntrl=       500 IOpCl=  0 I1Cent=   200000004 NGrid=           0
         NMat0=    1 NMatS0=      1 NMatT0=    0 NMatD0=    1 NMtDS0=    0 NMtDT0=    0
 Petite list used in FoFCou.
 Requested convergence on RMS density matrix=1.00D-08 within 128 cycles.
 Requested convergence on MAX density matrix=1.00D-06.
 Requested convergence on             energy=1.00D-06.
 No special actions if energy rises.
 SCF Done:  E(RM062X) =  -344.463400003     A.U. after   15 cycles
            NFock= 15  Conv=0.63D-08     -V/T= 2.0033
 Calling FoFJK, ICntrl=      2127 FMM=F ISym2X=0 I1Cent= 0 IOpClX= 0 NMat=1 NMatS=1 NMatT=0.
 ***** Axes restored to original set *****
 -------------------------------------------------------------------
 Center     Atomic                   Forces (Hartrees/Bohr)
 Number     Number              X              Y              Z
 -------------------------------------------------------------------
      1        6          -0.000074437   -0.001735871    0.001044439
      2        1           0.000671010   -0.000296388    0.000256106
      3        6          -0.002362011   -0.003515259    0.002677100
      4        6          -0.002687364    0.011579244   -0.005140566
      5        8           0.001887769   -0.009583749    0.009949086
      6        8          -0.005553364   -0.008524915   -0.005844878
      7        6           0.007406632    0.016739637   -0.003915007
      8        6          -0.003945109   -0.007722042    0.003570693
      9        1           0.000587145    0.001043820   -0.000389247
     10        1           0.000132369   -0.003031021   -0.001799911
     11        1          -0.000062857    0.001611362   -0.003700440
     12        1          -0.000389065    0.003438162    0.002635905
     13        1           0.004389282   -0.000002979    0.000656720
 -------------------------------------------------------------------
 Cartesian Forces:  Max     0.016739637 RMS     0.005156279

 GradGradGradGradGradGradGradGradGradGradGradGradGradGradGradGradGradGrad
 Berny optimization.
 Using GEDIIS/GDIIS optimizer.
 FormGI is forming the generalized inverse of G from B-inverse, IUseBI=4.
 Internal  Forces:  Max     0.042807588 RMS     0.007523513
 Search for a local minimum.
 Step number   3 out of a maximum of   57
 All quantities printed in internal units (Hartrees-Bohrs-Radians)
 Mixed Optimization -- RFO/linear search
 Update second derivatives using D2CorX and points    2    3
 ITU=  0  1  0
 Use linear search instead of GDIIS.
     Eigenvalues ---    0.00101   0.00227   0.00575   0.02579   0.04134
     Eigenvalues ---    0.04422   0.04480   0.04749   0.04969   0.05665
     Eigenvalues ---    0.06046   0.08224   0.10044   0.12444   0.12533
     Eigenvalues ---    0.12962   0.15232   0.16253   0.16943   0.22197
     Eigenvalues ---    0.23878   0.28494   0.29335   0.33089   0.38394
     Eigenvalues ---    0.38859   0.39033   0.39125   0.39931   0.40239
     Eigenvalues ---    0.63596   0.91972   1.11551
 RFO step:  Lambda=-6.92561350D-03 EMin= 1.00873707D-03
 Quartic linear search produced a step of  0.19754.
 Iteration  1 RMS(Cart)=  0.15206131 RMS(Int)=  0.05387469
 Iteration  2 RMS(Cart)=  0.13024020 RMS(Int)=  0.01357777
 Iteration  3 RMS(Cart)=  0.03618487 RMS(Int)=  0.00052578
 Iteration  4 RMS(Cart)=  0.00074479 RMS(Int)=  0.00014347
 Iteration  5 RMS(Cart)=  0.00000027 RMS(Int)=  0.00014347
 Variable       Old X    -DE/DX   Delta X   Delta X   Delta X     New X
                                 (Linear)    (Quad)   (Total)
    R1        2.01471  -0.00075   0.00005  -0.00204  -0.00198   2.01273
    R2        2.26711  -0.00133   0.00005  -0.00076  -0.00071   2.26640
    R3        2.77982  -0.00094   0.00171  -0.01432  -0.01261   2.76721
    R4        2.23679   0.01354  -0.00116   0.01029   0.00913   2.24592
    R5        2.55485   0.00532  -0.00057  -0.02405  -0.02462   2.53024
    R6        2.70925   0.00722  -0.00064   0.00257   0.00192   2.71117
    R7        2.86960  -0.00220   0.00036  -0.01542  -0.01506   2.85454
    R8        2.05853  -0.00017  -0.00002   0.00707   0.00704   2.06557
    R9        2.05733   0.00332   0.00008   0.01138   0.01146   2.06880
   R10        2.04982   0.00403  -0.00031   0.01037   0.01006   2.05988
   R11        2.04927   0.00423  -0.00027   0.00996   0.00969   2.05896
   R12        2.04870   0.00424  -0.00030   0.00959   0.00929   2.05799
    A1        2.14230  -0.00796   0.00014  -0.01478  -0.01502   2.12728
    A2        1.99747   0.01613   0.00048   0.02480   0.02486   2.02233
    A3        2.14317  -0.00824  -0.00064  -0.01106  -0.01210   2.13107
    A4        1.96285   0.04281  -0.00101   0.09615   0.09515   2.05800
    A5        1.89357  -0.00535   0.00076  -0.01946  -0.01868   1.87489
    A6        1.91597   0.00254   0.00087   0.00360   0.00456   1.92053
    A7        1.89963   0.00096  -0.00017  -0.00881  -0.00895   1.89067
    A8        1.92629   0.00070  -0.00050   0.01395   0.01340   1.93969
    A9        1.92811   0.00171  -0.00063   0.01075   0.00999   1.93810
   A10        1.90011  -0.00051  -0.00031  -0.00031  -0.00075   1.89936
   A11        1.91682  -0.00066   0.00025   0.00316   0.00340   1.92022
   A12        1.91551   0.00126  -0.00058   0.00464   0.00405   1.91956
   A13        1.91967   0.00173  -0.00001   0.00782   0.00778   1.92745
   A14        1.90331  -0.00045   0.00002  -0.00554  -0.00552   1.89779
   A15        1.90580  -0.00069   0.00025  -0.00516  -0.00492   1.90088
   A16        1.90254  -0.00122   0.00007  -0.00515  -0.00509   1.89745
   A17        3.15158   0.00037   0.00047   0.00061   0.00108   3.15266
   A18        3.16703   0.00495   0.00225   0.03979   0.04204   3.20907
   A19        3.13929   0.00017  -0.00014  -0.00051  -0.00066   3.13863
   A20        3.11421   0.00120  -0.00364   0.00042  -0.00322   3.11098
    D1       -3.11655   0.00310   0.00121   0.05326   0.05410  -3.06245
    D2       -0.66408  -0.00039   0.08971   0.33938   0.42872  -0.23535
    D3        2.50065   0.00276   0.09083   0.38907   0.48027   2.98092
    D4        3.08225   0.00150  -0.00613   0.03943   0.03323   3.11548
    D5        0.97594   0.00241  -0.00650   0.03223   0.02571   1.00165
    D6       -1.10214   0.00096  -0.00654   0.03578   0.02933  -1.07281
    D7        3.13678  -0.00045  -0.00026  -0.00564  -0.00588   3.13090
    D8       -1.05417  -0.00062  -0.00044  -0.00761  -0.00804  -1.06221
    D9        1.03888  -0.00027  -0.00072  -0.00617  -0.00688   1.03200
   D10       -1.04650  -0.00026   0.00098  -0.00497  -0.00404  -1.05055
   D11        1.04573  -0.00043   0.00080  -0.00694  -0.00620   1.03952
   D12        3.13878  -0.00008   0.00052  -0.00551  -0.00504   3.13373
   D13        1.05579   0.00067  -0.00014   0.01072   0.01063   1.06643
   D14       -3.13516   0.00049  -0.00033   0.00875   0.00847  -3.12669
   D15       -1.04211   0.00085  -0.00061   0.01018   0.00963  -1.03248
         Item               Value     Threshold  Converged?
 Maximum Force            0.042808     0.000015     NO 
 RMS     Force            0.007524     0.000010     NO 
 Maximum Displacement     0.724339     0.000060     NO 
 RMS     Displacement     0.296054     0.000040     NO 
 Predicted change in Energy=-4.706737D-03
 GradGradGradGradGradGradGradGradGradGradGradGradGradGradGradGradGradGrad

                          Input orientation:                          
 ---------------------------------------------------------------------
 Center     Atomic      Atomic             Coordinates (Angstroms)
 Number     Number       Type             X           Y           Z
 ---------------------------------------------------------------------
      1          6           0       -0.965761    0.718440   -0.888040
      2          1           0       -1.910270    0.708464   -1.380195
      3          6           0        0.094445    0.718330   -0.327375
      4          6           0        1.346231    0.649951    0.429364
      5          8           0        1.510001   -0.140300    1.301830
      6          8           0        2.256910    1.587314    0.138188
      7          6           0        2.064644    2.363487   -1.052998
      8          6           0        3.195542    3.361975   -1.129683
      9          1           0        1.095380    2.867618   -1.019151
     10          1           0        2.080201    1.685145   -1.912132
     11          1           0        3.096458    3.969690   -2.029157
     12          1           0        3.172778    4.017842   -0.259944
     13          1           0        4.155404    2.848126   -1.154829
 ---------------------------------------------------------------------
                    Distance matrix (angstroms):
                    1          2          3          4          5
     1  C    0.000000
     2  H    1.065088   0.000000
     3  C    1.199326   2.264379   0.000000
     4  C    2.661870   3.725953   1.464342   0.000000
     5  O    3.415020   4.428534   2.322789   1.188492   0.000000
     6  O    3.491947   4.521422   2.376581   1.338943   2.212823
     7  C    3.452064   4.318112   2.667349   2.376914   3.481636
     8  C    4.935901   5.759617   4.153235   3.633958   4.584674
     9  H    2.980681   3.718364   2.469790   2.660671   3.821836
    10  H    3.355766   4.142550   2.718347   2.663258   3.739910
    11  H    5.326762   6.010330   4.741253   4.486455   5.523073
    12  H    5.329922   6.168008   4.513032   3.892827   4.742795
    13  H    5.552753   6.435941   4.659624   3.902959   4.686579
                    6          7          8          9         10
     6  O    0.000000
     7  C    1.434690   0.000000
     8  C    2.374437   1.510560   0.000000
     9  H    2.080328   1.093053   2.160391   0.000000
    10  H    2.060245   1.094760   2.160548   1.779193   0.000000
    11  H    3.328354   2.144158   1.090041   2.497796   2.503121
    12  H    2.627696   2.143312   1.089553   2.492989   3.060216
    13  H    2.620271   2.148610   1.089039   3.063092   2.496497
                   11         12         13
    11  H    0.000000
    12  H    1.771513   0.000000
    13  H    1.773054   1.770482   0.000000
 Stoichiometry    C5H6O2
 Framework group  C1[X(C5H6O2)]
 Deg. of freedom    33
 Full point group                 C1      NOp   1
 Largest Abelian subgroup         C1      NOp   1
 Largest concise Abelian subgroup C1      NOp   1
                         Standard orientation:                         
 ---------------------------------------------------------------------
 Center     Atomic      Atomic             Coordinates (Angstroms)
 Number     Number       Type             X           Y           Z
 ---------------------------------------------------------------------
      1          6           0       -2.016910   -1.654605   -0.037308
      2          1           0       -2.556542   -2.572524   -0.062502
      3          6           0       -1.420830   -0.614339   -0.006991
      4          6           0       -0.787174    0.705673    0.011572
      5          8           0       -1.425301    1.708283    0.020543
      6          8           0        0.549142    0.713490   -0.071895
      7          6           0        1.241758   -0.527202    0.126356
      8          6           0        2.716626   -0.255882   -0.055136
      9          1           0        0.887088   -1.272750   -0.589976
     10          1           0        1.029121   -0.882015    1.139961
     11          1           0        3.286281   -1.172582    0.097646
     12          1           0        2.906529    0.110183   -1.063629
     13          1           0        3.055976    0.493636    0.658357
 ---------------------------------------------------------------------
 Rotational constants (GHZ):           4.3452367           1.9071901           1.3508528
 Standard basis: 6-311++G(d,p) (5D, 7F)
 There are   203 symmetry adapted cartesian basis functions of A   symmetry.
 There are   196 symmetry adapted basis functions of A   symmetry.
   196 basis functions,   306 primitive gaussians,   203 cartesian basis functions
    26 alpha electrons       26 beta electrons
       nuclear repulsion energy       275.8960796184 Hartrees.
 NAtoms=   13 NActive=   13 NUniq=   13 SFac= 1.00D+00 NAtFMM=   60 NAOKFM=F Big=F
 Integral buffers will be    131072 words long.
 Raffenetti 2 integral format.
 Two-electron integral symmetry is turned on.
 One-electron integrals computed using PRISM.
 NBasis=   196 RedAO= T EigKep=  1.65D-06  NBF=   196
 NBsUse=   196 1.00D-06 EigRej= -1.00D+00 NBFU=   196
 Initial guess from the checkpoint file:  "ethyl_propiolate_non_planar.chk"
 B after Tr=     0.000000   -0.000000   -0.000000
         Rot=    0.999655   -0.025176    0.001883    0.007250 Ang=  -3.01 deg.
 ExpMin= 3.60D-02 ExpMax= 8.59D+03 ExpMxC= 1.30D+03 IAcc=3 IRadAn=         5 AccDes= 0.00D+00
 Harris functional with IExCor= 1009 and IRadAn=       5 diagonalized for initial guess.
 HarFok:  IExCor= 1009 AccDes= 0.00D+00 IRadAn=         5 IDoV= 1 UseB2=F ITyADJ=14
 ICtDFT=  3500011 ScaDFX=  1.000000  1.000000  1.000000  1.000000
 FoFCou: FMM=F IPFlag=           0 FMFlag=      100000 FMFlg1=           0
         NFxFlg=           0 DoJE=T BraDBF=F KetDBF=T FulRan=T
         wScrn=  0.000000 ICntrl=       500 IOpCl=  0 I1Cent=   200000004 NGrid=           0
         NMat0=    1 NMatS0=      1 NMatT0=    0 NMatD0=    1 NMtDS0=    0 NMtDT0=    0
 Petite list used in FoFCou.
 Requested convergence on RMS density matrix=1.00D-08 within 128 cycles.
 Requested convergence on MAX density matrix=1.00D-06.
 Requested convergence on             energy=1.00D-06.
 No special actions if energy rises.
 SCF Done:  E(RM062X) =  -344.468702841     A.U. after   15 cycles
            NFock= 15  Conv=0.84D-08     -V/T= 2.0034
 Calling FoFJK, ICntrl=      2127 FMM=F ISym2X=0 I1Cent= 0 IOpClX= 0 NMat=1 NMatS=1 NMatT=0.
 ***** Axes restored to original set *****
 -------------------------------------------------------------------
 Center     Atomic                   Forces (Hartrees/Bohr)
 Number     Number              X              Y              Z
 -------------------------------------------------------------------
      1        6           0.000552752   -0.000576013    0.000227465
      2        1          -0.000006577    0.000278566   -0.000109102
      3        6          -0.002384253   -0.003774336   -0.001382638
      4        6          -0.004241231    0.010235870    0.000384144
      5        8           0.003060906   -0.007451167    0.005484656
      6        8          -0.000814878   -0.002348986   -0.002109704
      7        6           0.002682691    0.002340370   -0.004825310
      8        6          -0.000078171   -0.000434078    0.001815729
      9        1           0.000934993   -0.000651801    0.000647302
     10        1          -0.001018748    0.001511099    0.000139151
     11        1          -0.000234621    0.000169374   -0.000610426
     12        1           0.000625623    0.000776216    0.000431721
     13        1           0.000921516   -0.000075114   -0.000092988
 -------------------------------------------------------------------
 Cartesian Forces:  Max     0.010235870 RMS     0.002764891

 GradGradGradGradGradGradGradGradGradGradGradGradGradGradGradGradGradGrad
 Berny optimization.
 Using GEDIIS/GDIIS optimizer.
 FormGI is forming the generalized inverse of G from B-inverse, IUseBI=4.
 Internal  Forces:  Max     0.015517257 RMS     0.003156899
 Search for a local minimum.
 Step number   4 out of a maximum of   57
 All quantities printed in internal units (Hartrees-Bohrs-Radians)
 Mixed Optimization -- RFO/linear search
 Update second derivatives using D2CorX and points    3    4
 DE= -5.30D-03 DEPred=-4.71D-03 R= 1.13D+00
 TightC=F SS=  1.41D+00  RLast= 6.59D-01 DXNew= 8.4853D-01 1.9781D+00
 Trust test= 1.13D+00 RLast= 6.59D-01 DXMaxT set to 8.49D-01
 ITU=  1  0  1  0
 Use linear search instead of GDIIS.
     Eigenvalues ---    0.00165   0.00228   0.00576   0.02572   0.04136
     Eigenvalues ---    0.04422   0.04479   0.04808   0.05052   0.05997
     Eigenvalues ---    0.06463   0.08239   0.09879   0.12371   0.12614
     Eigenvalues ---    0.12958   0.15150   0.15801   0.16928   0.21559
     Eigenvalues ---    0.23222   0.28671   0.29313   0.32539   0.37962
     Eigenvalues ---    0.38520   0.39036   0.39124   0.39956   0.40239
     Eigenvalues ---    0.53296   0.68178   1.11509
 RFO step:  Lambda=-1.62045573D-03 EMin= 1.64987727D-03
 Quartic linear search produced a step of  0.23601.
 Iteration  1 RMS(Cart)=  0.08899499 RMS(Int)=  0.00287177
 Iteration  2 RMS(Cart)=  0.00521040 RMS(Int)=  0.00027971
 Iteration  3 RMS(Cart)=  0.00001606 RMS(Int)=  0.00027958
 Iteration  4 RMS(Cart)=  0.00000000 RMS(Int)=  0.00027958
 Variable       Old X    -DE/DX   Delta X   Delta X   Delta X     New X
                                 (Linear)    (Quad)   (Total)
    R1        2.01273   0.00005  -0.00047  -0.00021  -0.00068   2.01205
    R2        2.26640  -0.00054  -0.00017  -0.00060  -0.00076   2.26563
    R3        2.76721   0.00204  -0.00298  -0.00148  -0.00445   2.76275
    R4        2.24592   0.00940   0.00216   0.01767   0.01983   2.26575
    R5        2.53024   0.00395  -0.00581  -0.00062  -0.00643   2.52381
    R6        2.71117   0.00352   0.00045   0.00669   0.00715   2.71832
    R7        2.85454   0.00113  -0.00355  -0.00019  -0.00374   2.85080
    R8        2.06557  -0.00111   0.00166   0.00141   0.00307   2.06865
    R9        2.06880  -0.00106   0.00271  -0.00200   0.00071   2.06950
   R10        2.05988   0.00062   0.00237   0.00386   0.00624   2.06612
   R11        2.05896   0.00080   0.00229   0.00322   0.00550   2.06446
   R12        2.05799   0.00085   0.00219   0.00389   0.00608   2.06407
    A1        2.12728  -0.00209  -0.00354   0.00126  -0.00336   2.12393
    A2        2.02233   0.00637   0.00587   0.01045   0.01524   2.03758
    A3        2.13107  -0.00405  -0.00286  -0.00547  -0.00940   2.12166
    A4        2.05800   0.01552   0.02246   0.03942   0.06187   2.11987
    A5        1.87489  -0.00227  -0.00441  -0.01343  -0.01782   1.85707
    A6        1.92053  -0.00012   0.00108  -0.01471  -0.01359   1.90694
    A7        1.89067   0.00175  -0.00211   0.01240   0.01039   1.90106
    A8        1.93969   0.00079   0.00316   0.00761   0.01059   1.95028
    A9        1.93810   0.00041   0.00236   0.01170   0.01399   1.95209
   A10        1.89936  -0.00053  -0.00018  -0.00370  -0.00401   1.89535
   A11        1.92022  -0.00067   0.00080  -0.00400  -0.00320   1.91703
   A12        1.91956   0.00110   0.00096   0.00817   0.00910   1.92866
   A13        1.92745   0.00042   0.00184   0.00199   0.00381   1.93127
   A14        1.89779  -0.00019  -0.00130  -0.00073  -0.00203   1.89576
   A15        1.90088  -0.00007  -0.00116  -0.00329  -0.00446   1.89642
   A16        1.89745  -0.00060  -0.00120  -0.00227  -0.00350   1.89394
   A17        3.15266  -0.00059   0.00025  -0.00430  -0.00404   3.14862
   A18        3.20907  -0.00014   0.00992  -0.04433  -0.03441   3.17466
   A19        3.13863  -0.00002  -0.00015  -0.01047  -0.01062   3.12801
   A20        3.11098   0.00053  -0.00076   0.02907   0.02831   3.13929
    D1       -3.06245  -0.00399   0.01277  -0.09888  -0.08594   3.13480
    D2       -0.23535   0.00288   0.10118   0.01431   0.11567  -0.11968
    D3        2.98092  -0.00056   0.11335  -0.07865   0.03452   3.01544
    D4        3.11548   0.00031   0.00784  -0.00910  -0.00116   3.11432
    D5        1.00165   0.00082   0.00607  -0.00146   0.00448   1.00613
    D6       -1.07281   0.00049   0.00692   0.00411   0.01107  -1.06175
    D7        3.13090   0.00062  -0.00139   0.01214   0.01076  -3.14153
    D8       -1.06221   0.00065  -0.00190   0.01386   0.01195  -1.05026
    D9        1.03200   0.00088  -0.00162   0.01754   0.01593   1.04792
   D10       -1.05055  -0.00050  -0.00095  -0.00986  -0.01088  -1.06143
   D11        1.03952  -0.00048  -0.00146  -0.00814  -0.00968   1.02984
   D12        3.13373  -0.00025  -0.00119  -0.00446  -0.00571   3.12802
   D13        1.06643  -0.00035   0.00251  -0.00132   0.00125   1.06768
   D14       -3.12669  -0.00032   0.00200   0.00039   0.00245  -3.12424
   D15       -1.03248  -0.00010   0.00227   0.00407   0.00642  -1.02605
         Item               Value     Threshold  Converged?
 Maximum Force            0.015517     0.000015     NO 
 RMS     Force            0.003157     0.000010     NO 
 Maximum Displacement     0.233061     0.000060     NO 
 RMS     Displacement     0.092290     0.000040     NO 
 Predicted change in Energy=-1.179221D-03
 GradGradGradGradGradGradGradGradGradGradGradGradGradGradGradGradGradGrad

                          Input orientation:                          
 ---------------------------------------------------------------------
 Center     Atomic      Atomic             Coordinates (Angstroms)
 Number     Number       Type             X           Y           Z
 ---------------------------------------------------------------------
      1          6           0       -0.973222    0.628379   -0.901772
      2          1           0       -1.898896    0.585134   -1.426090
      3          6           0        0.062674    0.674081   -0.299904
      4          6           0        1.314495    0.687734    0.455185
      5          8           0        1.520172   -0.085923    1.347773
      6          8           0        2.222266    1.599670    0.097416
      7          6           0        2.039991    2.423514   -1.067598
      8          6           0        3.232410    3.345626   -1.128064
      9          1           0        1.101753    2.979542   -0.973438
     10          1           0        1.977315    1.779904   -1.951428
     11          1           0        3.150509    4.001427   -1.999048
     12          1           0        3.283637    3.964362   -0.229163
     13          1           0        4.158861    2.772632   -1.207992
 ---------------------------------------------------------------------
                    Distance matrix (angstroms):
                    1          2          3          4          5
     1  C    0.000000
     2  H    1.064731   0.000000
     3  C    1.198922   2.263617   0.000000
     4  C    2.660546   3.724997   1.461986   0.000000
     5  O    3.433321   4.453612   2.327390   1.198983   0.000000
     6  O    3.486105   4.509360   2.382942   1.335542   2.213041
     7  C    3.511334   4.361536   2.749483   2.420361   3.521577
     8  C    5.012184   5.834333   4.227319   3.639981   4.564762
     9  H    3.136659   3.865486   2.616961   2.708986   3.867838
    10  H    3.336684   4.090046   2.759751   2.724693   3.817724
    11  H    5.439360   6.123385   4.846963   4.513842   5.528620
    12  H    5.449958   6.301624   4.604949   3.883573   4.690559
    13  H    5.570446   6.444311   4.691193   3.899150   4.654669
                    6          7          8          9         10
     6  O    0.000000
     7  C    1.438472   0.000000
     8  C    2.360203   1.508578   0.000000
     9  H    2.075168   1.094680   2.167400   0.000000
    10  H    2.071291   1.095134   2.169027   1.778259   0.000000
    11  H    3.320427   2.142582   1.093341   2.508690   2.512731
    12  H    2.612457   2.150311   1.092465   2.506877   3.073195
    13  H    2.613490   2.152023   1.092256   3.073066   2.509452
                   11         12         13
    11  H    0.000000
    12  H    1.775272   0.000000
    13  H    1.775523   1.773230   0.000000
 Stoichiometry    C5H6O2
 Framework group  C1[X(C5H6O2)]
 Deg. of freedom    33
 Full point group                 C1      NOp   1
 Largest Abelian subgroup         C1      NOp   1
 Largest concise Abelian subgroup C1      NOp   1
                         Standard orientation:                         
 ---------------------------------------------------------------------
 Center     Atomic      Atomic             Coordinates (Angstroms)
 Number     Number       Type             X           Y           Z
 ---------------------------------------------------------------------
      1          6           0       -2.086478   -1.615769   -0.015030
      2          1           0       -2.633709   -2.529099   -0.019422
      3          6           0       -1.479757   -0.581701   -0.017861
      4          6           0       -0.781137    0.702544   -0.011030
      5          8           0       -1.375959    1.743008    0.023352
      6          8           0        0.553496    0.660844   -0.037251
      7          6           0        1.268122   -0.582409    0.076037
      8          6           0        2.733917   -0.242649   -0.032657
      9          1           0        0.947845   -1.257200   -0.724215
     10          1           0        1.027151   -1.044042    1.039440
     11          1           0        3.332882   -1.153871    0.046788
     12          1           0        2.946518    0.231841   -0.993460
     13          1           0        3.031016    0.441463    0.765308
 ---------------------------------------------------------------------
 Rotational constants (GHZ):           4.3788275           1.8664013           1.3315581
 Standard basis: 6-311++G(d,p) (5D, 7F)
 There are   203 symmetry adapted cartesian basis functions of A   symmetry.
 There are   196 symmetry adapted basis functions of A   symmetry.
[...]
                           ! (Angstroms and Degrees)  !
 --------------------------                            --------------------------
 ! Name  Definition              Value          Derivative Info.                !
 --------------------------------------------------------------------------------
 ! R1    R(1,2)                  1.0652         -DE/DX =    0.0                 !
 ! R2    R(1,3)                  1.1991         -DE/DX =    0.0                 !
 ! R3    R(3,4)                  1.4646         -DE/DX =    0.0                 !
 ! R4    R(4,5)                  1.1943         -DE/DX =    0.0                 !
 ! R5    R(4,6)                  1.3374         -DE/DX =    0.0                 !
 ! R6    R(6,7)                  1.4383         -DE/DX =    0.0                 !
 ! R7    R(7,8)                  1.5115         -DE/DX =    0.0                 !
 ! R8    R(7,9)                  1.0925         -DE/DX =    0.0                 !
 ! R9    R(7,10)                 1.0925         -DE/DX =    0.0                 !
 ! R10   R(8,11)                 1.0913         -DE/DX =    0.0                 !
 ! R11   R(8,12)                 1.0903         -DE/DX =    0.0                 !
 ! R12   R(8,13)                 1.0903         -DE/DX =    0.0                 !
 ! A1    A(3,4,5)              121.9631         -DE/DX =    0.0                 !
 ! A2    A(3,4,6)              116.4723         -DE/DX =    0.0                 !
 ! A3    A(5,4,6)              121.5647         -DE/DX =    0.0                 !
 ! A4    A(4,6,7)              120.4511         -DE/DX =    0.0                 !
 ! A5    A(6,7,8)              106.7971         -DE/DX =    0.0                 !
 ! A6    A(6,7,9)              109.1972         -DE/DX =    0.0                 !
 ! A7    A(6,7,10)             109.1972         -DE/DX =    0.0                 !
 ! A8    A(8,7,9)              111.4967         -DE/DX =    0.0                 !
 ! A9    A(8,7,10)             111.4967         -DE/DX =    0.0                 !
 ! A10   A(9,7,10)             108.6045         -DE/DX =    0.0                 !
 ! A11   A(7,8,11)             109.7878         -DE/DX =    0.0                 !
 ! A12   A(7,8,12)             110.4491         -DE/DX =    0.0                 !
 ! A13   A(7,8,13)             110.4491         -DE/DX =    0.0                 !
 ! A14   A(11,8,12)            108.7406         -DE/DX =    0.0                 !
 ! A15   A(11,8,13)            108.7406         -DE/DX =    0.0                 !
 ! A16   A(12,8,13)            108.6283         -DE/DX =    0.0                 !
 ! A17   L(2,1,3,12,-1)        180.514          -DE/DX =    0.0                 !
 ! A18   L(1,3,4,9,-1)         182.7362         -DE/DX =    0.0                 !
 ! A19   L(2,1,3,12,-2)        179.7853         -DE/DX =    0.0                 !
 ! A20   L(1,3,4,9,-2)         178.9502         -DE/DX =    0.0                 !
 ! D1    D(3,4,5,6)           -180.0            -DE/DX =    0.0                 !
 ! D2    D(3,4,6,7)              0.0            -DE/DX =    0.0                 !
 ! D3    D(5,4,6,7)           -180.0            -DE/DX =    0.0                 !
 ! D4    D(4,6,7,8)           -179.9998         -DE/DX =    0.0                 !
 ! D5    D(4,6,7,9)             59.3084         -DE/DX =    0.0                 !
 ! D6    D(4,6,7,10)           -59.3079         -DE/DX =    0.0                 !
 ! D7    D(6,7,8,11)          -179.9998         -DE/DX =    0.0                 !
 ! D8    D(6,7,8,12)           -60.0949         -DE/DX =    0.0                 !
 ! D9    D(6,7,8,13)            60.0953         -DE/DX =    0.0                 !
 ! D10   D(9,7,8,11)           -60.7879         -DE/DX =    0.0                 !
 ! D11   D(9,7,8,12)            59.117          -DE/DX =    0.0                 !
 ! D12   D(9,7,8,13)           179.3072         -DE/DX =    0.0                 !
 ! D13   D(10,7,8,11)           60.7883         -DE/DX =    0.0                 !
 ! D14   D(10,7,8,12)         -179.3068         -DE/DX =    0.0                 !
 ! D15   D(10,7,8,13)          -59.1166         -DE/DX =    0.0                 !
 --------------------------------------------------------------------------------
 GradGradGradGradGradGradGradGradGradGradGradGradGradGradGradGradGradGrad


 ----------------------------------------------------------------------

 Electric dipole moment (input orientation):
 (Debye = 10**-18 statcoulomb cm , SI units = C m)
                  (au)            (Debye)         (10**-30 SI)
   Tot        0.192447D+01      0.489152D+01      0.163163D+02
   x         -0.582808D+00     -0.148135D+01     -0.494125D+01
   y          0.995620D+00      0.253061D+01      0.844122D+01
   z         -0.154035D+01     -0.391517D+01     -0.130596D+02

 Dipole polarizability, Alpha (input orientation).
 (esu units = cm**3 , SI units = C**2 m**2 J**-1)
 Alpha(0;0):
               (au)            (10**-24 esu)      (10**-40 SI)
   iso        0.619263D+02      0.917654D+01      0.102103D+02
   aniso      0.301589D+02      0.446909D+01      0.497253D+01
   xx         0.706245D+02      0.104655D+02      0.116444D+02
   yx         0.880774D+01      0.130517D+01      0.145220D+01
   yy         0.558438D+02      0.827520D+01      0.920740D+01
   zx         0.946288D+01      0.140225D+01      0.156022D+01
   zy        -0.873589D+01     -0.129453D+01     -0.144035D+01
   zz         0.593106D+02      0.878893D+01      0.977900D+01

 ----------------------------------------------------------------------

 Dipole orientation:
     6         -1.03175335          0.14326948          2.55775582
     1         -2.36002008          0.95163343          3.83596523
     6          0.45204804         -0.75971870          1.10267769
     6          2.18482278         -1.81424326         -0.78033410
     8          1.82000060         -1.59221885         -2.99646837
     8          4.20501219         -3.04368452          0.11124944
     6          4.59998190         -3.28405612          2.78966557
     6          7.02176467         -4.75788608          3.13790751
     1          2.98922579         -4.26653791          3.62793920
     1          4.73251782         -1.40197656          3.62794606
     1          7.41158858         -4.99513464          5.14896623
     1          6.86234365         -6.61994345          2.27032839
     1          8.60238599         -3.76071996          2.27034616

 Electric dipole moment (dipole orientation):
 (Debye = 10**-18 statcoulomb cm , SI units = C m)
                  (au)            (Debye)         (10**-30 SI)
   Tot        0.192447D+01      0.489152D+01      0.163163D+02
   x          0.000000D+00      0.000000D+00      0.000000D+00
   y          0.000000D+00      0.000000D+00      0.000000D+00
   z          0.192447D+01      0.489152D+01      0.163163D+02

 Dipole polarizability, Alpha (dipole orientation).
 (esu units = cm**3 , SI units = C**2 m**2 J**-1)
 Alpha(0;0):
               (au)            (10**-24 esu)      (10**-40 SI)
   iso        0.619263D+02      0.917654D+01      0.102103D+02
   aniso      0.301589D+02      0.446909D+01      0.497253D+01
   xx         0.659507D+02      0.977289D+01      0.108738D+02
   yx        -0.141165D+02     -0.209185D+01     -0.232750D+01
   yy         0.513455D+02      0.760862D+01      0.846573D+01
   zx        -0.365865D+01     -0.542157D+00     -0.603231D+00
   zy         0.222646D+01      0.329927D+00      0.367094D+00
   zz         0.684828D+02      0.101481D+02      0.112913D+02

 ----------------------------------------------------------------------
 1\1\GINC-AJ\Freq\RM062X\6-311++G(d,p)\C5H6O2\AAYUSH\23-May-2025\0\\#N 
 Geom=AllCheck Guess=TCheck SCRF=Check GenChk RM062X/6-311++G(d,p) Freq
 \\Title Card Required\\0,1\C,-0.9346622216,0.588176231,-0.9572233026\H
 ,-1.8438117572,0.5127673615,-1.5070542947\C,0.0853018389,0.664955511,-
 0.331499287\C,1.3058628278,0.7043138653,0.4770637032\O,1.4675668703,-0
 .0192176922,1.4133962737\O,2.2341778758,1.5953056706,0.1122645947\C,2.
 0143758413,2.4550492466,-1.0196773921\C,3.2427074788,3.3258840695,-1.1
 517944129\H,1.1163249527,3.0529843108,-0.8476245691\H,1.8599288676,1.8
 427524411,-1.9112273243\H,3.1271255562,4.0012823831,-2.0011053744\H,3.
 3874254693,3.9199015934,-0.249007885\H,4.1296413801,2.7119278183,-1.31
 06331393\\Version=ES64L-G16RevA.03\State=1-A\HF=-344.4697222\RMSD=2.12
 7e-09\RMSF=4.768e-07\ZeroPoint=0.1006062\Thermal=0.1082544\Dipole=-0.5
 82808,0.9956198,-1.5403459\DipoleDeriv=-0.2266235,-0.0221654,-0.043259
 ,-0.0117551,-0.1477294,0.0134618,-0.0550957,0.0061837,-0.1742324,0.257
 6759,0.0172064,0.0201968,0.0082637,0.2154576,-0.0109175,0.0303674,-0.0
 046655,0.2273255,-0.4964746,-0.0867339,-0.1709324,-0.0799585,-0.148182
 7,-0.0133928,-0.1786456,-0.0181299,-0.2150927,1.7654179,0.7671804,0.05
 61299,0.5883461,1.5119032,-0.8122799,0.2596199,-0.6872487,1.4000402,-0
 .6730122,-0.0127667,-0.1938235,-0.0752373,-0.8428711,0.4797673,-0.1227
 412,0.5234436,-1.0564213,-0.9299024,-0.6841957,0.3559763,-0.5530198,-1
 .1963598,0.6042472,0.2067156,0.512536,-0.7641985,0.3022987,0.0097876,-
 0.0303977,0.1545757,0.6513686,-0.257777,-0.1951456,-0.3590039,0.601909
 ,-0.0173404,-0.0701798,0.026441,-0.0524596,0.0102492,0.0188617,0.00627
 71,0.0064724,0.0560823,-0.0703598,0.074415,0.0036985,0.037061,-0.01485
 92,0.0353429,0.081882,0.0313178,-0.0094402,0.0515192,-0.0012032,-0.031
 9906,-0.0525873,-0.0687207,-0.0620671,-0.0092031,0.0039978,-0.0774573,
 0.0472721,0.0061051,-0.0359134,-0.0202986,0.0020042,0.0844613,-0.00586
 99,0.1029209,-0.032508,0.040203,-0.0251448,0.0169857,-0.0268496,0.0266
 5,-0.0583534,-0.0284193,-0.0954248,-0.0362214,-0.050674,0.027695,0.026
 8885,0.0839193,0.0010901,-0.0213544,0.0102586,-0.0223993,0.0802149\Pol
 ar=70.624515,8.8077403,55.8438343,9.4628816,-8.7358943,59.3106416\Quad
 rupole=4.0441411,-1.4733433,-2.5707978,1.7486023,0.9645857,2.6925977\P
 G=C01 [X(C5H6O2)]\NImag=0\\1.14895985,0.08271070,0.06433241,0.66665801
 ,0.05381156,0.46566028,-0.31607422,-0.02259824,-0.17457659,0.30608135,
 -0.02321117,-0.02971603,-0.01609386,0.02342227,0.01875938,-0.17388053,
 -0.01566542,-0.13334178,0.17503958,0.01505925,0.12284645,-0.83431564,-
 0.06061640,-0.49013500,0.00891659,-0.00066235,0.00139606,1.07612195,-0
 .05933993,-0.03757993,-0.03809518,-0.00076380,0.00602480,0.00171244,0.
 08789533,0.09542716,-0.49158697,-0.03898766,-0.33392193,0.00151020,0.0
 0178331,0.00702635,0.61035384,0.02120442,0.46264888,0.00850481,0.00182
 398,0.00155829,0.00088443,0.00040481,-0.00398977,-0.19998531,-0.009260
 15,-0.07620714,0.50764399,0.00232736,0.00354021,0.00136159,-0.00072528
 ,0.00604997,-0.00064086,-0.01786457,-0.07189774,-0.01705875,0.05586695
 ,0.56847103,0.00098674,0.00100982,0.00284757,-0.00270396,0.00014920,0.
 00387212,-0.06641765,-0.01104317,-0.10978262,0.14825050,-0.37489104,0.
 73489639,-0.00339212,-0.00052302,-0.00182595,-0.00018797,-0.00075204,0
 .00152286,-0.00523465,0.01920312,-0.04201090,-0.11199878,0.06688316,-0
 .10043865,0.10459739,-0.00139570,0.00054888,-0.00151970,0.00037718,-0.
 00055028,-0.00040985,0.01686977,0.00855256,0.02891767,0.06053316,-0.32
 956867,0.32949082,-0.04621930,0.37263464,-0.00083314,-0.00090957,0.000
 52335,0.00023797,-0.00119935,0.00038886,-0.03935571,0.03054903,-0.0386
 7464,-0.09321323,0.33393035,-0.52232785,0.10335054,-0.41991427,0.58205
 607,-0.00324838,0.00072376,-0.00323677,0.00044779,0.00096284,-0.000135
 37,-0.03965785,-0.03160950,-0.00460364,-0.21037516,-0.09304456,-0.0043
 5211,0.01800451,-0.02501571,0.02914104,0.32004361,-0.00179364,0.000171
 30,-0.00121748,0.00054734,-0.00055160,-0.00004293,-0.02339792,0.001824
 01,0.00247015,-0.11151248,-0.15133840,0.03425100,-0.03497903,-0.054459
 58,0.05689749,0.14674161,0.34271009,-0.00037251,0.00054246,-0.00067429
 ,0.00033742,0.00024760,-0.00097142,-0.01394707,-0.00327087,0.01234213,
 0.01666182,0.04716276,-0.09473540,0.04047791,0.06386328,-0.02733092,0.
 01268246,-0.21558570,0.31725403,-0.00047365,-0.00073990,0.00113717,-0.
 00001639,-0.00010696,-0.00000238,-0.00512202,-0.00465418,0.00098842,0.
 00607940,-0.01222390,0.02470992,-0.00204459,-0.00558662,0.00082604,-0.
 09027815,0.02279752,-0.04581728,0.58472858,0.00152853,-0.00165964,0.00
 193752,-0.00020767,0.00003569,-0.00000246,-0.00031186,-0.00030920,0.00
 131605,-0.01046315,-0.03335255,0.01997451,-0.00096625,0.00773927,-0.00
 280692,0.01126032,-0.10319696,0.05492201,-0.02076371,0.53350077,-0.001
 44394,0.00035164,-0.00230564,0.00011220,0.00006793,0.00016225,-0.00395
 258,-0.00171990,0.00023260,0.02270643,0.01874349,-0.01482164,-0.004431
 28,-0.00603723,0.00963756,-0.03268958,0.06298818,-0.15637428,-0.002430
 86,0.08618394,0.52223656,0.00038843,-0.00014361,0.00021769,0.00001597,
 0.00001621,0.00000439,-0.00013530,-0.00035903,0.00027635,-0.00208791,0
 .00029200,-0.00153772,0.00064844,0.00117792,-0.00092797,0.00760821,0.0
 0230514,0.00091998,-0.18514544,-0.06964249,0.00932902,0.53309702,-0.00
 016510,0.00034800,-0.00015776,-0.00001413,-0.00001037,-0.00001707,-0.0
 0027277,-0.00014033,0.00003019,0.00269318,-0.00003670,0.00151083,-0.00
 088378,-0.00145276,0.00110190,-0.02339846,-0.02421445,0.01408480,-0.05
 992184,-0.12045300,-0.00171721,-0.04161098,0.56052380,0.00024213,-0.00
 014274,0.00064250,0.00003892,0.00000414,0.00000581,0.00017817,-0.00003
 014,0.00021265,-0.00426991,-0.00016796,-0.00315792,0.00141795,0.002543
 31,-0.00184391,0.03016707,0.03205513,-0.01284269,-0.00173163,-0.008513
 24,-0.07666817,0.00858562,0.00278623,0.59137181,-0.00008217,-0.0005141
 1,0.00015362,-0.00001083,-0.00004302,-0.00001211,-0.00018606,-0.000685
 52,0.00063235,-0.00086644,-0.00147777,0.00008326,0.00028405,0.00014029
 ,-0.00005879,-0.00008053,0.00438702,-0.00492946,-0.22735843,0.11925037
 ,0.03984548,-0.02092638,0.01338694,0.00567246,0.24637243,-0.00029722,0
 .00034676,-0.00038394,-0.00007841,-0.00005752,-0.00002838,-0.00085049,
 -0.00088393,0.00015668,0.00740315,0.00341797,-0.00125381,-0.00154807,-
 0.00128926,0.00136991,0.01343456,-0.02008370,0.00953982,0.11490092,-0.
 12791482,-0.02930742,-0.01825202,0.01346994,0.00349526,-0.12775647,0.1
 4242642,0.00017321,0.00016022,-0.00002114,-0.00003747,-0.00004421,-0.0
 0000376,0.00082969,0.00042337,-0.00004702,-0.00517652,-0.00247340,0.00
 271580,0.00108602,0.00090478,-0.00183984,-0.02493397,0.02822321,-0.005
 33352,0.04553097,-0.03361008,-0.06268324,0.00217207,-0.00240335,0.0000
 8756,-0.04109708,0.02122257,0.06800435,-0.00018523,0.00002495,-0.00006
 026,-0.00010633,-0.00002495,0.00002505,-0.00030557,-0.00054940,0.00064
 140,0.00090456,0.00002021,0.00093694,-0.00030008,0.00004466,0.00002813
 ,-0.00022239,-0.00206633,-0.00711299,-0.05671899,-0.01627781,-0.025594
 78,-0.00331973,-0.01672015,-0.02231082,0.00427589,0.01527687,0.0215007
 2,0.05804366,-0.00032548,-0.00021161,0.00024450,0.00001370,0.00001613,
 0.00000172,-0.00079826,-0.00087405,0.00034540,0.00243323,0.00437760,0.
 00034278,-0.00018240,-0.00180904,0.00063485,0.00235663,0.00882446,0.02
 926881,-0.01754042,-0.14378353,-0.13059925,-0.00198935,-0.01063500,-0.
 01520908,-0.00323279,-0.00849349,-0.01416758,0.02241852,0.15245150,0.0
 0007207,-0.00020633,0.00064029,0.00004670,0.00001528,0.00001809,0.0009
 1495,0.00036807,0.00006257,-0.00665422,-0.00633369,-0.00001481,0.00106
 280,0.00243911,-0.00073592,-0.00243600,0.00116771,-0.03409975,-0.02489
 458,-0.12237297,-0.21745504,0.00042870,0.00251065,0.00658591,-0.000452
 76,-0.00491279,-0.00236480,0.03126030,0.12707085,0.24630901,-0.0001020
 6,0.00003411,-0.00011101,0.00000070,-0.00001854,0.00001180,-0.00012873
 ,0.00007821,-0.00006873,0.00184537,0.00012325,0.00077129,-0.00052528,-
 0.00088179,0.00068213,-0.00600592,-0.00602196,0.00196054,0.00621089,-0
 .01327625,0.02118662,-0.05184989,0.01849397,-0.02496475,0.00045058,0.0
 0113427,0.00006718,0.00087606,0.00025044,-0.00063659,0.05250392,-0.000
 13167,0.00001594,-0.00010880,0.00000665,-0.00000567,0.00002703,-0.0001
 4880,-0.00010120,-0.00016835,0.00137184,0.00106556,0.00036292,-0.00031
 604,-0.00071419,0.00051680,-0.00506022,-0.00319415,0.00122398,0.006358
 85,-0.01046681,0.01352684,0.01672906,-0.15097271,0.13086504,-0.0001548
 4,0.00053869,-0.00005166,0.00034155,0.00004218,-0.00060682,-0.01774967
 ,0.16184930,0.00007761,0.00000709,0.00004741,-0.00001686,0.00000941,-0
 .00000850,0.00018959,-0.00000962,-0.00001422,-0.00064944,-0.00051003,0
 .00066789,0.00003839,0.00012127,-0.00017696,0.00086623,0.00055164,0.00
 096864,-0.00115528,-0.00020069,-0.00306518,-0.02295654,0.13209891,-0.2
 1259985,0.00037411,-0.00001026,0.00008380,0.00041963,0.00018934,0.0001
 5480,0.02526477,-0.14507705,0.22799431,-0.00003388,-0.00005254,0.00012
 899,0.00002580,0.00000111,0.00000663,-0.00001285,0.00000855,0.00005699
 ,-0.00029317,-0.00006182,-0.00018983,0.00005860,0.00000541,0.00004662,
 0.00137325,0.00237170,0.00007371,-0.00469222,-0.01720974,-0.02669378,-
 0.05247346,-0.01695843,-0.02581932,0.00102070,0.00085355,-0.00042890,-
 0.00400538,-0.00352668,0.00164055,-0.00187836,-0.00157631,-0.00235548,
 0.05643627,0.00006099,-0.00003753,0.00016263,0.00001253,0.00000410,0.0
 0000263,0.00011434,0.00002147,-0.00001887,-0.00060096,-0.00043329,0.00
 009948,0.00013793,0.00018831,-0.00001819,0.00129190,0.00173069,-0.0005
 8887,-0.00313011,-0.01251733,-0.01667912,-0.01738487,-0.12796333,-0.12
 332234,0.00039097,0.00076196,0.00074286,-0.00334076,-0.00099154,0.0010
 0335,0.00295315,0.01286590,0.01734337,0.02280264,0.13613842,-0.0000112
 8,0.00000483,-0.00003487,0.00000949,-0.00000059,0.00000008,0.00000434,
 -0.00000775,-0.00005578,0.00050246,0.00042654,0.00000808,-0.00009545,-
 0.00024943,0.00017395,-0.00038335,-0.00070461,0.00143144,0.00060617,0.
 00359905,0.00276144,-0.02865545,-0.12541597,-0.23782001,-0.00060169,-0
 .00016944,0.00037502,0.00074984,0.00129458,0.00089186,-0.00246064,-0.0
 1399034,-0.01867990,0.03075307,0.13601936,0.25396785,0.00005426,-0.000
 12968,0.00009183,0.00002312,0.00001180,0.00001378,0.00004545,0.0000363
 0,0.00001784,-0.00025579,-0.00011503,-0.00009873,0.00009048,-0.0000492
 7,0.00007638,0.00239101,0.00062102,-0.00093452,-0.02516900,0.01707971,
 0.00405707,-0.22581996,0.12537155,0.03279412,-0.00289280,-0.00422064,0
 .00031407,0.00106353,0.00012287,-0.00035193,-0.00139729,0.00032960,-0.
 00009674,0.00447471,-0.00330774,-0.00041752,0.24739227,0.00003231,-0.0
 0009877,0.00005893,0.00000787,0.00000140,0.00000390,0.00004398,-0.0000
 6362,0.00000976,-0.00069356,-0.00029499,-0.00000334,0.00014574,0.00018
 012,-0.00015202,0.00135683,0.00177831,-0.00141009,-0.01938965,0.012378
 11,0.00419811,0.12886203,-0.13846309,-0.02436359,-0.00369106,-0.002239
 03,0.00107327,0.00085262,0.00108638,-0.00014241,0.01488081,-0.01092284
 ,-0.00451338,0.01334258,-0.00976783,-0.00080624,-0.13575050,0.14642586
 ,-0.00008139,0.00002410,-0.00006176,0.00000241,0.00000190,0.00000547,-
 0.00005863,-0.00008068,-0.00002898,0.00048073,0.00045100,-0.00016760,-
 0.00015424,-0.00014977,0.00015026,-0.00008602,-0.00105381,0.00036603,0
 .00223333,-0.00042671,-0.00165722,0.03214384,-0.02441214,-0.05397368,0
 .00039061,0.00028180,0.00102679,-0.00048316,0.00058309,0.00000779,-0.0
 2170259,0.01348042,0.00462777,0.02278076,-0.01474628,-0.00301916,-0.03
 546563,0.02604709,0.05272431\\-0.00000037,0.00000064,0.00000033,0.0000
 0017,0.00000034,-0.00000089,-0.00000110,-0.00000013,-0.00000142,0.0000
 0092,-0.00000020,0.00000098,-0.00000055,-0.00000025,-0.00000012,-0.000
 00042,0.00000023,-0.00000036,0.00000049,-0.00000027,-0.00000010,0.0000
 0011,-0.00000024,0.00000040,-0.00000023,0.00000024,0.00000017,0.000000
 11,0.00000005,0.,0.00000036,0.00000005,0.00000023,0.00000020,-0.000000
 15,0.00000046,0.00000030,-0.00000031,0.00000033\\\@


 Everything starts as somebody's daydream.
                           -- Larry Niven
 Job cpu time:       0 days  0 hours 20 minutes 29.1 seconds.
 Elapsed time:       0 days  0 hours  0 minutes 51.3 seconds.
 File lengths (MBytes):  RWF=     57 Int=      0 D2E=      0 Chk=      4 Scr=      1
 Normal termination of Gaussian 16 at Fri May 23 10:48:03 2025.
