 Entering Gaussian System, Link 0=g16
 Initial command:
 /opt/g16/l1.exe "/home/aayush/scratches/g16/Gau-3932.inp" -scrdir="/home/aayush/scratches/g16/"
 Entering Link 1 = /opt/g16/l1.exe PID=      3936.
  
 Copyright (c) 1988,1990,1992,1993,1995,1998,2003,2009,2016,
            Gaussian, Inc.  All Rights Reserved.
  
 This is part of the Gaussian(R) 16 program.  It is based on
 the Gaussian(R) 09 system (copyright 2009, Gaussian, Inc.),
 the Gaussian(R) 03 system (copyright 2003, Gaussian, Inc.),
 the Gaussian(R) 98 system (copyright 1998, Gaussian, Inc.),
 the Gaussian(R) 94 system (copyright 1995, Gaussian, Inc.),
 the Gaussian 92(TM) system (copyright 1992, Gaussian, Inc.),
 the Gaussian 90(TM) system (copyright 1990, Gaussian, Inc.),
 the Gaussian 88(TM) system (copyright 1988, Gaussian, Inc.),
 the Gaussian 86(TM) system (copyright 1986, Carnegie Mellon
 University), and the Gaussian 82(TM) system (copyright 1983,
 Carnegie Mellon University). Gaussian is a federally registered
 trademark of Gaussian, Inc.
  
 This software contains proprietary and confidential information,
 including trade secrets, belonging to Gaussian, Inc.
  
 This software is provided under written license and may be
 used, copied, transmitted, or stored only in accord with that
 written license.
  
 The following legend is applicable only to US Government
 contracts under FAR:
  
                    RESTRICTED RIGHTS LEGEND
  
 Use, reproduction and disclosure by the US Government is
 subject to restrictions as set forth in subparagraphs (a)
 and (c) of the Commercial Computer Software - Restricted
 Rights clause in FAR 52.227-19.
  
 Gaussian, Inc.
 340 Quinnipiac St., Bldg. 40, Wallingford CT 06492
  
  
 ---------------------------------------------------------------
 Warning -- This program may not be used in any manner that
 competes with the business of Gaussian, Inc. or will provide
 assistance to any competitor of Gaussian, Inc.  The licensee
 of this program is prohibited from giving any competitor of
 Gaussian, Inc. access to this program.  By using this program,
 the user acknowledges that Gaussian, Inc. is engaged in the
 business of creating and licensing software in the field of
 computational chemistry and represents and warrants to the
 licensee that it is not a competitor of Gaussian, Inc. and that
 it will not use this program in any manner prohibited above.
 ---------------------------------------------------------------
  

 Cite this work as:
 Gaussian 16, Revision A.03,
 M. J. Frisch, G. W. Trucks, H. B. Schlegel, G. E. Scuseria, 
 M. A. Robb, J. R. Cheeseman, G. Scalmani, V. Barone, 
 G. A. Petersson, H. Nakatsuji, X. Li, M. Caricato, A. V. Marenich, 
 J. Bloino, B. G. Janesko, R. Gomperts, B. Mennucci, H. P. Hratchian, 
 J. V. Ortiz, A. F. Izmaylov, J. L. Sonnenberg, D. Williams-Young, 
 F. Ding, F. Lipparini, F. Egidi, J. Goings, B. Peng, A. Petrone, 
 T. Henderson, D. Ranasinghe, V. G. Zakrzewski, J. Gao, N. Rega, 
 G. Zheng, W. Liang, M. Hada, M. Ehara, K. Toyota, R. Fukuda, 
 J. Hasegawa, M. Ishida, T. Nakajima, Y. Honda, O. Kitao, H. Nakai, 
 T. Vreven, K. Throssell, J. A. Montgomery, Jr., J. E. Peralta, 
 F. Ogliaro, M. J. Bearpark, J. J. Heyd, E. N. Brothers, K. N. Kudin, 
 V. N. Staroverov, T. A. Keith, R. Kobayashi, J. Normand, 
 K. Raghavachari, A. P. Rendell, J. C. Burant, S. S. Iyengar, 
 J. Tomasi, M. Cossi, J. M. Millam, M. Klene, C. Adamo, R. Cammi, 
 J. W. Ochterski, R. L. Martin, K. Morokuma, O. Farkas, 
 J. B. Foresman, and D. J. Fox, Gaussian, Inc., Wallingford CT, 2016.
 
 ******************************************
 Gaussian 16:  ES64L-G16RevA.03 25-Dec-2016
                23-May-2025 
 ******************************************
 %chk=ethyl_propiolate_non_planar.chk
 %mem=12GB
 %nprocshared=24
 Will use up to   24 processors via shared memory.
 --------------------------------------------
 # ccsd(t)/6-311++g(d,p) sp geom=connectivity
 --------------------------------------------
 1/38=1,57=2,172=1/1;
 2/12=2,17=6,18=5,40=1/2;
 3/5=4,6=6,7=1111,11=9,25=1,30=1/1,2,3;
 4//1;
 5/5=2,38=5/2;
 8/6=4,9=120000,10=2/1,4;
 9/5=7,14=2/13;
 6/7=2,8=2,9=2,10=2/1;
 99/5=1,9=1/99;
 -------------------
 Title Card Required
 -------------------
 Symbolic Z-matrix:
 Charge =  0 Multiplicity = 1
 C                    -2.07021  -1.62608  0. 
 H                    -2.61909  -2.53893   0.00001 
 C                    -1.46189  -0.59279   0. 
 C                    -0.78405   0.70553   0. 
 O                    -1.38963   1.73492   0. 
 O                     0.55314   0.67994  0. 
 C                     1.25822  -0.57371  0. 
 C                     2.73355  -0.24508   0. 
 H                     0.97531  -1.14499  -0.88725 
 H                     0.97531  -1.14499   0.88725 
 H                     3.3174   -1.16702  0. 
 H                     2.99464   0.33491  -0.88559 
 H                     2.99464   0.3349    0.8856 
 
                          Input orientation:                          
 ---------------------------------------------------------------------
 Center     Atomic      Atomic             Coordinates (Angstroms)
 Number     Number       Type             X           Y           Z
 ---------------------------------------------------------------------
      1          6           0       -2.070211   -1.626079   -0.000003
      2          1           0       -2.619088   -2.538925    0.000005
      3          6           0       -1.461888   -0.592785    0.000003
      4          6           0       -0.784047    0.705531    0.000000
      5          8           0       -1.389632    1.734915    0.000000
      6          8           0        0.553136    0.679938   -0.000002
      7          6           0        1.258220   -0.573705   -0.000001
      8          6           0        2.733554   -0.245078    0.000001
      9          1           0        0.975307   -1.144991   -0.887254
     10          1           0        0.975305   -1.144993    0.887249
     11          1           0        3.317402   -1.167018   -0.000003
     12          1           0        2.994636    0.334906   -0.885594
     13          1           0        2.994635    0.334898    0.885602
 ---------------------------------------------------------------------
                    Distance matrix (angstroms):
                    1          2          3          4          5
     1  C    0.000000
     2  H    1.065154   0.000000
     3  C    1.199064   2.264194   0.000000
     4  C    2.662822   3.727448   1.464614   0.000000
     5  O    3.429208   4.447164   2.328821   1.194305   0.000000
     6  O    3.492802   4.519301   2.383306   1.337428   2.210729
     7  C    3.490837   4.346908   2.720175   2.409834   3.512954
     8  C    4.998332   5.823445   4.209826   3.643786   4.573952
     9  H    3.208401   3.956003   2.651806   2.703142   3.830668
    10  H    3.208400   3.955997   2.651801   2.703141   3.830667
    11  H    5.407135   6.092950   4.813664   4.508694   5.529682
    12  H    5.502945   6.368445   4.637402   3.898729   4.686801
    13  H    5.502944   6.368440   4.637400   3.898730   4.686804
                    6          7          8          9         10
     6  O    0.000000
     7  C    1.438320   0.000000
     8  C    2.368518   1.511491   0.000000
     9  H    2.072634   1.092532   2.165294   0.000000
    10  H    2.072635   1.092531   2.165293   1.774503   0.000000
    11  H    3.324517   2.142954   1.091262   2.504617   2.504620
    12  H    2.619970   2.150579   1.090332   2.503555   3.067698
    13  H    2.619974   2.150579   1.090332   3.067699   2.503552
                   11         12         13
    11  H    0.000000
    12  H    1.773196   0.000000
    13  H    1.773197   1.771196   0.000000
 Stoichiometry    C5H6O2
 Framework group  C1[X(C5H6O2)]
 Deg. of freedom    33
 Full point group                 C1      NOp   1
 Largest Abelian subgroup         C1      NOp   1
 Largest concise Abelian subgroup C1      NOp   1
                         Standard orientation:                         
 ---------------------------------------------------------------------
 Center     Atomic      Atomic             Coordinates (Angstroms)
 Number     Number       Type             X           Y           Z
 ---------------------------------------------------------------------
      1          6           0        2.070211    1.626079   -0.000003
      2          1           0        2.619088    2.538925    0.000005
      3          6           0        1.461888    0.592785    0.000003
      4          6           0        0.784047   -0.705531    0.000000
      5          8           0        1.389632   -1.734915    0.000000
      6          8           0       -0.553136   -0.679938   -0.000002
      7          6           0       -1.258220    0.573705   -0.000001
      8          6           0       -2.733554    0.245078    0.000001
      9          1           0       -0.975307    1.144991   -0.887254
     10          1           0       -0.975305    1.144993    0.887249
     11          1           0       -3.317402    1.167018   -0.000003
     12          1           0       -2.994636   -0.334906   -0.885594
     13          1           0       -2.994635   -0.334898    0.885602
 ---------------------------------------------------------------------
 Rotational constants (GHZ):           4.3671623           1.8763434           1.3344051
 Standard basis: 6-311++G(d,p) (5D, 7F)
 There are   203 symmetry adapted cartesian basis functions of A   symmetry.
 There are   196 symmetry adapted basis functions of A   symmetry.
   196 basis functions,   306 primitive gaussians,   203 cartesian basis functions
    26 alpha electrons       26 beta electrons
       nuclear repulsion energy       274.9903873573 Hartrees.
 NAtoms=   13 NActive=   13 NUniq=   13 SFac= 1.00D+00 NAtFMM=   60 NAOKFM=F Big=F
 Integral buffers will be    131072 words long.
 Raffenetti 1 integral format.
 Two-electron integral symmetry is turned on.
 One-electron integrals computed using PRISM.
 NBasis=   196 RedAO= T EigKep=  1.66D-06  NBF=   196
 NBsUse=   196 1.00D-06 EigRej= -1.00D+00 NBFU=   196
 ExpMin= 3.60D-02 ExpMax= 8.59D+03 ExpMxC= 1.30D+03 IAcc=3 IRadAn=         5 AccDes= 0.00D+00
 Harris functional with IExCor=  205 and IRadAn=       5 diagonalized for initial guess.
 HarFok:  IExCor=  205 AccDes= 0.00D+00 IRadAn=         5 IDoV= 1 UseB2=F ITyADJ=14
 ICtDFT=  3500011 ScaDFX=  1.000000  1.000000  1.000000  1.000000
 FoFCou: FMM=F IPFlag=           0 FMFlag=      100000 FMFlg1=           0
         NFxFlg=           0 DoJE=T BraDBF=F KetDBF=T FulRan=T
         wScrn=  0.000000 ICntrl=       500 IOpCl=  0 I1Cent=   200000004 NGrid=           0
         NMat0=    1 NMatS0=      1 NMatT0=    0 NMatD0=    1 NMtDS0=    0 NMtDT0=    0
 Petite list used in FoFCou.
 Requested convergence on RMS density matrix=1.00D-08 within 128 cycles.
 Requested convergence on MAX density matrix=1.00D-06.
 Requested convergence on             energy=1.00D-06.
 No special actions if energy rises.
 Initial convergence to 1.0D-05 achieved.  Increase integral accuracy.
 SCF Done:  E(RHF) =  -342.578472852     A.U. after   17 cycles
            NFock= 17  Conv=0.55D-08     -V/T= 2.0010
 ExpMin= 3.60D-02 ExpMax= 8.59D+03 ExpMxC= 1.30D+03 IAcc=3 IRadAn=         5 AccDes= 0.00D+00
 HarFok:  IExCor=  205 AccDes= 0.00D+00 IRadAn=         5 IDoV=-2 UseB2=F ITyADJ=14
 ICtDFT= 12500011 ScaDFX=  1.000000  1.000000  1.000000  1.000000
 Range of M.O.s used for correlation:     8   196
 NBasis=   196 NAE=    26 NBE=    26 NFC=     7 NFV=     0
 NROrb=    189 NOA=    19 NOB=    19 NVA=   170 NVB=   170

 **** Warning!!: The largest alpha MO coefficient is  0.24973135D+03

 Semi-Direct transformation.
 ModeAB=           4 MOrb=            19 LenV=    1609623389
 LASXX=     59855301 LTotXX=    59855301 LenRXX=   120647701
 LTotAB=    60792400 MaxLAS=    71841546 LenRXY=           0
 NonZer=   180503002 LenScr=   271816704 LnRSAI=    71841546
 LnScr1=   108531200 LExtra=           0 Total=    572837151
 MaxDsk=          -1 SrtSym=           T ITran=            4
 JobTyp=0 Pass  1:  I=   1 to  19.
 (rs|ai) integrals will be sorted in core.
 SymMOI:  orbitals are not symmetric.
 Spin components of T(2) and E(2):
     alpha-alpha T2 =       0.4592152349D-01 E2=     -0.1405919546D+00
     alpha-beta  T2 =       0.2587866616D+00 E2=     -0.8103825620D+00
     beta-beta   T2 =       0.4592152349D-01 E2=     -0.1405919546D+00
 ANorm=    0.1162165956D+01
 E2 =    -0.1091566471D+01 EUMP2 =    -0.34367003932318D+03
 Keep R2 and R3 ints in memory in canonical form, NReq=377995969.
 CIDS: In Core Option IDoMem=           1.
 Iterations=  50 Convergence= 0.100D-06
 Produce multiple copies of IABC intergrals
 Iteration Nr.   1
 **********************
 DD1Dir will call FoFMem   1 times, MxPair=       380
 NAB=   190 NAA=     0 NBB=     0.
 MP4(R+Q)=  0.23210152D-01
 E3=       -0.16755945D-01        EUMP3=      -0.34368679527D+03
 E4(DQ)=   -0.49112086D-02        UMP4(DQ)=   -0.34369170648D+03
 E4(SDQ)=  -0.21052997D-01        UMP4(SDQ)=  -0.34370784827D+03
 DE(Corr)=  -1.0843115     E(Corr)=     -343.66278437    
 NORM(A)=   0.11651917D+01
 Iteration Nr.   2
 **********************
 DD1Dir will call FoFMem   1 times, MxPair=       380
 NAB=   190 NAA=     0 NBB=     0.
 DE(Corr)=  -1.1217736     E(CORR)=     -343.70024648     Delta=-3.75D-02
 NORM(A)=   0.11802328D+01
 Iteration Nr.   3
 **********************
 DD1Dir will call FoFMem   1 times, MxPair=       380
 NAB=   190 NAA=     0 NBB=     0.
 DE(Corr)=  -1.1221066     E(CORR)=     -343.70057941     Delta=-3.33D-04
 NORM(A)=   0.11845067D+01
 Iteration Nr.   4
 **********************
 DD1Dir will call FoFMem   1 times, MxPair=       380
 NAB=   190 NAA=     0 NBB=     0.
 DE(Corr)=  -1.1258019     E(CORR)=     -343.70427476     Delta=-3.70D-03
 NORM(A)=   0.11857994D+01
 Iteration Nr.   5
 **********************
 DD1Dir will call FoFMem   1 times, MxPair=       380
 NAB=   190 NAA=     0 NBB=     0.
 DE(Corr)=  -1.1262751     E(CORR)=     -343.70474797     Delta=-4.73D-04
 NORM(A)=   0.11862961D+01
 Iteration Nr.   6
 **********************
 DD1Dir will call FoFMem   1 times, MxPair=       380
 NAB=   190 NAA=     0 NBB=     0.
 DE(Corr)=  -1.1263508     E(CORR)=     -343.70482369     Delta=-7.57D-05
 NORM(A)=   0.11863800D+01
 Iteration Nr.   7
 **********************
 DD1Dir will call FoFMem   1 times, MxPair=       380
 NAB=   190 NAA=     0 NBB=     0.
 DE(Corr)=  -1.1263581     E(CORR)=     -343.70483093     Delta=-7.24D-06
 NORM(A)=   0.11863713D+01
 Iteration Nr.   8
 **********************
 DD1Dir will call FoFMem   1 times, MxPair=       380
 NAB=   190 NAA=     0 NBB=     0.
 DE(Corr)=  -1.1263586     E(CORR)=     -343.70483142     Delta=-4.88D-07
 NORM(A)=   0.11863826D+01
 Iteration Nr.   9
 **********************
 DD1Dir will call FoFMem   1 times, MxPair=       380
 NAB=   190 NAA=     0 NBB=     0.
 DE(Corr)=  -1.1263551     E(CORR)=     -343.70482795     Delta= 3.47D-06
 NORM(A)=   0.11863823D+01
 Iteration Nr.  10
 **********************
 DD1Dir will call FoFMem   1 times, MxPair=       380
 NAB=   190 NAA=     0 NBB=     0.
 DE(Corr)=  -1.1263572     E(CORR)=     -343.70483008     Delta=-2.13D-06
 NORM(A)=   0.11863834D+01
 Iteration Nr.  11
 **********************
 DD1Dir will call FoFMem   1 times, MxPair=       380
 NAB=   190 NAA=     0 NBB=     0.
 DE(Corr)=  -1.1263571     E(CORR)=     -343.70482997     Delta= 1.18D-07
 NORM(A)=   0.11863845D+01
 Iteration Nr.  12
 **********************
 DD1Dir will call FoFMem   1 times, MxPair=       380
 NAB=   190 NAA=     0 NBB=     0.
 DE(Corr)=  -1.1263578     E(CORR)=     -343.70483067     Delta=-7.08D-07
 NORM(A)=   0.11863849D+01
 Iteration Nr.  13
 **********************
 DD1Dir will call FoFMem   1 times, MxPair=       380
 NAB=   190 NAA=     0 NBB=     0.
 DE(Corr)=  -1.1263579     E(CORR)=     -343.70483074     Delta=-6.29D-08
 NORM(A)=   0.11863853D+01
 Wavefunction amplitudes converged. E(Corr)=     -343.70483074    
 Largest amplitude= 4.69D-02
 T4(AAA)= -0.13723323D-02
 T4(AAB)= -0.23970668D-01
 T5(AAA)=  0.11019470D-03
 T5(AAB)=  0.13811385D-02
 Time for triples=     8129.87 seconds.
 T4(CCSD)= -0.50686001D-01
 T5(CCSD)=  0.29826665D-02
 CCSD(T)= -0.34375253407D+03
 Discarding MO integrals.

 **********************************************************************

            Population analysis using the SCF density.

 **********************************************************************

 Orbital symmetries:
       Occupied  (A) (A) (A) (A) (A) (A) (A) (A) (A) (A) (A) (A)
                 (A) (A) (A) (A) (A) (A) (A) (A) (A) (A) (A) (A)
                 (A) (A)
       Virtual   (A) (A) (A) (A) (A) (A) (A) (A) (A) (A) (A) (A)
                 (A) (A) (A) (A) (A) (A) (A) (A) (A) (A) (A) (A)
                 (A) (A) (A) (A) (A) (A) (A) (A) (A) (A) (A) (A)
                 (A) (A) (A) (A) (A) (A) (A) (A) (A) (A) (A) (A)
                 (A) (A) (A) (A) (A) (A) (A) (A) (A) (A) (A) (A)
                 (A) (A) (A) (A) (A) (A) (A) (A) (A) (A) (A) (A)
                 (A) (A) (A) (A) (A) (A) (A) (A) (A) (A) (A) (A)
                 (A) (A) (A) (A) (A) (A) (A) (A) (A) (A) (A) (A)
                 (A) (A) (A) (A) (A) (A) (A) (A) (A) (A) (A) (A)
                 (A) (A) (A) (A) (A) (A) (A) (A) (A) (A) (A) (A)
                 (A) (A) (A) (A) (A) (A) (A) (A) (A) (A) (A) (A)
                 (A) (A) (A) (A) (A) (A) (A) (A) (A) (A) (A) (A)
                 (A) (A) (A) (A) (A) (A) (A) (A) (A) (A) (A) (A)
                 (A) (A) (A) (A) (A) (A) (A) (A) (A) (A) (A) (A)
                 (A) (A)
 The electronic state is 1-A.
 Alpha  occ. eigenvalues --  -20.61358 -20.55778 -11.41696 -11.30833 -11.27640
 Alpha  occ. eigenvalues --  -11.26895 -11.23486  -1.47829  -1.38403  -1.07767
 Alpha  occ. eigenvalues --   -1.05493  -0.90383  -0.88072  -0.76820  -0.73548
 Alpha  occ. eigenvalues --   -0.69888  -0.67984  -0.60656  -0.58990  -0.56638
 Alpha  occ. eigenvalues --   -0.53110  -0.52605  -0.48139  -0.47072  -0.43243
 Alpha  occ. eigenvalues --   -0.43119
 Alpha virt. eigenvalues --    0.03074   0.04239   0.06024   0.06341   0.07393
 Alpha virt. eigenvalues --    0.07750   0.09515   0.09673   0.11639   0.12500
 Alpha virt. eigenvalues --    0.12569   0.13558   0.15426   0.15583   0.16301
 Alpha virt. eigenvalues --    0.16887   0.17339   0.18243   0.18645   0.20256
 Alpha virt. eigenvalues --    0.20386   0.20977   0.21201   0.22210   0.23331
 Alpha virt. eigenvalues --    0.25912   0.26852   0.29362   0.29391   0.30529
 Alpha virt. eigenvalues --    0.30709   0.32178   0.33894   0.35481   0.37592
 Alpha virt. eigenvalues --    0.38425   0.39893   0.40372   0.40510   0.40726
 Alpha virt. eigenvalues --    0.42697   0.43835   0.45750   0.46659   0.50065
 Alpha virt. eigenvalues --    0.52712   0.57180   0.57951   0.62496   0.64655
 Alpha virt. eigenvalues --    0.64946   0.66123   0.70877   0.71311   0.77043
 Alpha virt. eigenvalues --    0.78231   0.78758   0.83735   0.84206   0.84365
 Alpha virt. eigenvalues --    0.85581   0.86048   0.86350   0.89110   0.89347
 Alpha virt. eigenvalues --    0.91657   0.95553   0.98507   1.01623   1.06339
 Alpha virt. eigenvalues --    1.07664   1.13703   1.19101   1.20732   1.22298
 Alpha virt. eigenvalues --    1.28905   1.29632   1.36523   1.36647   1.38615
 Alpha virt. eigenvalues --    1.42061   1.43844   1.46526   1.47378   1.49279
 Alpha virt. eigenvalues --    1.50717   1.53483   1.55113   1.58373   1.64791
 Alpha virt. eigenvalues --    1.71182   1.75180   1.79818   1.80714   1.80936
 Alpha virt. eigenvalues --    1.84546   1.85591   1.87894   1.90418   1.92241
 Alpha virt. eigenvalues --    1.95043   1.95649   1.99440   2.00128   2.05838
 Alpha virt. eigenvalues --    2.08157   2.13109   2.17436   2.19967   2.27748
 Alpha virt. eigenvalues --    2.28141   2.30285   2.40308   2.40956   2.47942
 Alpha virt. eigenvalues --    2.55825   2.64417   2.71213   2.76502   2.78172
 Alpha virt. eigenvalues --    2.81721   2.87357   2.88868   2.90639   2.93371
 Alpha virt. eigenvalues --    2.93891   2.94912   2.96532   2.98090   3.04403
 Alpha virt. eigenvalues --    3.12461   3.12519   3.17075   3.24183   3.29644
 Alpha virt. eigenvalues --    3.29667   3.34023   3.35987   3.42003   3.42514
 Alpha virt. eigenvalues --    3.42923   3.59085   3.63195   3.64927   3.68021
 Alpha virt. eigenvalues --    3.76957   3.77575   3.91016   4.00364   4.13450
 Alpha virt. eigenvalues --    4.19130   4.21116   4.21196   4.40040   4.51657
 Alpha virt. eigenvalues --    4.60187   4.67981   5.57203   5.61654   5.72755
 Alpha virt. eigenvalues --    5.89616   6.17665   6.47091  24.68587  24.99425
 Alpha virt. eigenvalues --   25.00969  25.13152  26.27220  51.60130  51.73270
          Condensed to atoms (all electrons):
               1          2          3          4          5          6
     1  C   28.977430   0.957769 -13.078092  -8.656329  -0.117024  -0.013372
     2  H    0.957769   0.410540  -0.453027  -0.111657  -0.004152  -0.003219
     3  C  -13.078092  -0.453027  15.280240   2.272053  -0.017110  -0.154910
     4  C   -8.656329  -0.111657   2.272053  11.892255   0.472244   0.068775
     5  O   -0.117024  -0.004152  -0.017110   0.472244   8.048720  -0.050032
     6  O   -0.013372  -0.003219  -0.154910   0.068775  -0.050032   8.375586
     7  C    0.196956   0.001233  -0.014796  -0.259912   0.020124   0.140445
     8  C   -0.252186  -0.004998   0.017418   0.198172  -0.017308  -0.095724
     9  H    0.009385  -0.000057   0.005403  -0.006942   0.001728  -0.048006
    10  H    0.009371  -0.000058   0.005409  -0.006933   0.001728  -0.048006
    11  H   -0.007381  -0.000271   0.009371  -0.005178  -0.000046   0.028053
    12  H    0.015096   0.000245  -0.003785  -0.008444   0.000169  -0.012284
    13  H    0.015098   0.000245  -0.003785  -0.008447   0.000169  -0.012284
               7          8          9         10         11         12
     1  C    0.196956  -0.252186   0.009385   0.009371  -0.007381   0.015096
     2  H    0.001233  -0.004998  -0.000057  -0.000058  -0.000271   0.000245
     3  C   -0.014796   0.017418   0.005403   0.005409   0.009371  -0.003785
     4  C   -0.259912   0.198172  -0.006942  -0.006933  -0.005178  -0.008444
     5  O    0.020124  -0.017308   0.001728   0.001728  -0.000046   0.000169
     6  O    0.140445  -0.095724  -0.048006  -0.048006   0.028053  -0.012284
     7  C    5.281610  -0.057554   0.431498   0.431496  -0.093169   0.006739
     8  C   -0.057554   5.758513  -0.056711  -0.056711   0.450511   0.359353
     9  H    0.431498  -0.056711   0.588911  -0.070120  -0.003119  -0.008064
    10  H    0.431496  -0.056711  -0.070120   0.588912  -0.003119   0.005417
    11  H   -0.093169   0.450511  -0.003119  -0.003119   0.550851  -0.033824
    12  H    0.006739   0.359353  -0.008064   0.005417  -0.033824   0.557520
    13  H    0.006740   0.359352   0.005417  -0.008064  -0.033824  -0.037454
              13
     1  C    0.015098
     2  H    0.000245
     3  C   -0.003785
     4  C   -0.008447
     5  O    0.000169
     6  O   -0.012284
     7  C    0.006740
     8  C    0.359352
     9  H    0.005417
    10  H   -0.008064
    11  H   -0.033824
    12  H   -0.037454
    13  H    0.557521
 Mulliken charges:
               1
     1  C   -2.056721
     2  H    0.207408
     3  C    2.135611
     4  C    0.160342
     5  O   -0.339211
     6  O   -0.175022
     7  C   -0.091411
     8  C   -0.602129
     9  H    0.150677
    10  H    0.150677
    11  H    0.141146
    12  H    0.159316
    13  H    0.159316
 Sum of Mulliken charges =  -0.00000
 Mulliken charges with hydrogens summed into heavy atoms:
               1
     1  C   -1.849313
     3  C    2.135611
     4  C    0.160342
     5  O   -0.339211
     6  O   -0.175022
     7  C    0.209943
     8  C   -0.142351
 Electronic spatial extent (au):  <R**2>=            866.5766
 Charge=             -0.0000 electrons
 Dipole moment (field-independent basis, Debye):
    X=             -1.6563    Y=              5.0696    Z=              0.0000  Tot=              5.3333
 Quadrupole moment (field-independent basis, Debye-Ang):
   XX=            -39.0581   YY=            -43.0429   ZZ=            -41.0449
   XY=              6.9505   XZ=              0.0000   YZ=              0.0000
 Traceless Quadrupole moment (field-independent basis, Debye-Ang):
   XX=              1.9905   YY=             -1.9943   ZZ=              0.0037
   XY=              6.9505   XZ=              0.0000   YZ=              0.0000
 Octapole moment (field-independent basis, Debye-Ang**2):
  XXX=             -7.0296  YYY=             19.2850  ZZZ=              0.0000  XYY=              5.7770
  XXY=             19.7436  XXZ=              0.0000  XZZ=             -3.2654  YZZ=             -4.5317
  YYZ=              0.0000  XYZ=              0.0000
 Hexadecapole moment (field-independent basis, Debye-Ang**3):
 XXXX=           -765.7081 YYYY=           -305.6583 ZZZZ=            -54.5988 XXXY=             41.0736
 XXXZ=              0.0002 YYYX=             49.7636 YYYZ=              0.0002 ZZZX=              0.0000
 ZZZY=              0.0000 XXYY=           -149.0798 XXZZ=           -142.1065 YYZZ=            -64.1078
 XXYZ=              0.0001 YYXZ=              0.0002 ZZXY=             -4.0754
 N-N= 2.749903873573D+02 E-N=-1.353412971003D+03  KE= 3.422241403902D+02
 1\1\GINC-AJ\SP\RCCSD(T)-FC\6-311++G(d,p)\C5H6O2\AAYUSH\23-May-2025\0\\
 # ccsd(t)/6-311++g(d,p) sp geom=connectivity\\Title Card Required\\0,1
 \C,0,-2.070211,-1.626079,-0.000003\H,0,-2.619088,-2.538925,0.000005\C,
 0,-1.461888,-0.592785,0.000003\C,0,-0.784047,0.705531,0.\O,0,-1.389632
 ,1.734915,0.\O,0,0.553136,0.679938,-0.000002\C,0,1.25822,-0.573705,-0.
 000001\C,0,2.733554,-0.245078,0.000001\H,0,0.975307,-1.144991,-0.88725
 4\H,0,0.975305,-1.144993,0.887249\H,0,3.317402,-1.167018,-0.000003\H,0
 ,2.994636,0.334906,-0.885594\H,0,2.994635,0.334898,0.885602\\Version=E
 S64L-G16RevA.03\State=1-A\HF=-342.5784729\MP2=-343.6700393\MP3=-343.68
 67953\MP4D=-343.7149166\MP4DQ=-343.6917065\MP4SDQ=-343.7078483\CCSD=-3
 43.7048307\CCSD(T)=-343.7525341\RMSD=5.526e-09\PG=C01 [X(C5H6O2)]\\@


 THIS CURIOUS WORLD WHICH WE INHABIT IS MORE WONDERFUL THAN IT IS CONVENIENT;
 MORE BEAUTIFUL THAN IT IS USEFUL;
 IT IS MORE TO BE ADMIRED THAN IT IS TO BE USED.

                                                                 -- THOREAU
 Job cpu time:       0 days  3 hours 50 minutes 13.2 seconds.
 Elapsed time:       0 days  0 hours  9 minutes 37.6 seconds.
 File lengths (MBytes):  RWF=  16222 Int=      0 D2E=      0 Chk=      4 Scr=      1
 Normal termination of Gaussian 16 at Fri May 23 08:56:17 2025.
