 Entering Gaussian System, Link 0=g16
 Initial command:
 /opt/g16/l1.exe "/home/aayush/scratches/g16/Gau-3616.inp" -scrdir="/home/aayush/scratches/g16/"
 Entering Link 1 = /opt/g16/l1.exe PID=      3619.
  
 Copyright (c) 1988,1990,1992,1993,1995,1998,2003,2009,2016,
            Gaussian, Inc.  All Rights Reserved.
  
 This is part of the Gaussian(R) 16 program.  It is based on
 the Gaussian(R) 09 system (copyright 2009, Gaussian, Inc.),
 the Gaussian(R) 03 system (copyright 2003, Gaussian, Inc.),
 the Gaussian(R) 98 system (copyright 1998, Gaussian, Inc.),
 the Gaussian(R) 94 system (copyright 1995, Gaussian, Inc.),
 the Gaussian 92(TM) system (copyright 1992, Gaussian, Inc.),
 the Gaussian 90(TM) system (copyright 1990, Gaussian, Inc.),
 the Gaussian 88(TM) system (copyright 1988, Gaussian, Inc.),
 the Gaussian 86(TM) system (copyright 1986, Carnegie Mellon
 University), and the Gaussian 82(TM) system (copyright 1983,
 Carnegie Mellon University). Gaussian is a federally registered
 trademark of Gaussian, Inc.
  
 This software contains proprietary and confidential information,
 including trade secrets, belonging to Gaussian, Inc.
  
 This software is provided under written license and may be
 used, copied, transmitted, or stored only in accord with that
 written license.
  
 The following legend is applicable only to US Government
 contracts under FAR:
  
                    RESTRICTED RIGHTS LEGEND
  
 Use, reproduction and disclosure by the US Government is
 subject to restrictions as set forth in subparagraphs (a)
 and (c) of the Commercial Computer Software - Restricted
 Rights clause in FAR 52.227-19.
  
 Gaussian, Inc.
 340 Quinnipiac St., Bldg. 40, Wallingford CT 06492
  
  
 ---------------------------------------------------------------
 Warning -- This program may not be used in any manner that
 competes with the business of Gaussian, Inc. or will provide
 assistance to any competitor of Gaussian, Inc.  The licensee
 of this program is prohibited from giving any competitor of
 Gaussian, Inc. access to this program.  By using this program,
 the user acknowledges that Gaussian, Inc. is engaged in the
 business of creating and licensing software in the field of
 computational chemistry and represents and warrants to the
 licensee that it is not a competitor of Gaussian, Inc. and that
 it will not use this program in any manner prohibited above.
 ---------------------------------------------------------------
  

 Cite this work as:
 Gaussian 16, Revision A.03,
 M. J. Frisch, G. W. Trucks, H. B. Schlegel, G. E. Scuseria, 
 M. A. Robb, J. R. Cheeseman, G. Scalmani, V. Barone, 
 G. A. Petersson, H. Nakatsuji, X. Li, M. Caricato, A. V. Marenich, 
 J. Bloino, B. G. Janesko, R. Gomperts, B. Mennucci, H. P. Hratchian, 
 J. V. Ortiz, A. F. Izmaylov, J. L. Sonnenberg, D. Williams-Young, 
 F. Ding, F. Lipparini, F. Egidi, J. Goings, B. Peng, A. Petrone, 
 T. Henderson, D. Ranasinghe, V. G. Zakrzewski, J. Gao, N. Rega, 
 G. Zheng, W. Liang, M. Hada, M. Ehara, K. Toyota, R. Fukuda, 
 J. Hasegawa, M. Ishida, T. Nakajima, Y. Honda, O. Kitao, H. Nakai, 
 T. Vreven, K. Throssell, J. A. Montgomery, Jr., J. E. Peralta, 
 F. Ogliaro, M. J. Bearpark, J. J. Heyd, E. N. Brothers, K. N. Kudin, 
 V. N. Staroverov, T. A. Keith, R. Kobayashi, J. Normand, 
 K. Raghavachari, A. P. Rendell, J. C. Burant, S. S. Iyengar, 
 J. Tomasi, M. Cossi, J. M. Millam, M. Klene, C. Adamo, R. Cammi, 
 J. W. Ochterski, R. L. Martin, K. Morokuma, O. Farkas, 
 J. B. Foresman, and D. J. Fox, Gaussian, Inc., Wallingford CT, 2016.
 
 ******************************************
 Gaussian 16:  ES64L-G16RevA.03 25-Dec-2016
                23-May-2025 
 ******************************************
 %chk=ethyl_propiolate_non_planar.chk
 %mem = 12GB
 %nprocshared = 24
 Will use up to   24 processors via shared memory.
 ---------------------------------------------------------
 # opt=(calcfc,tight,noeigentest) freq 6-311++g(d,p) m062x
 ---------------------------------------------------------
 1/7=10,10=4,11=1,18=20,19=15,26=3,38=1/1,3;
 2/9=110,12=2,17=6,18=5,40=1/2;
 3/5=4,6=6,7=1111,11=2,25=1,30=1,71=2,74=-55,140=1/1,2,3;
 4//1;
 5/5=2,38=5/2;
 8/6=4,10=90,11=11/1;
 11/6=1,8=1,9=11,15=111,16=1/1,2,10;
 10/6=1,13=1/2;
 6/7=2,8=2,9=2,10=2,28=1/1;
 7/10=1,18=20,25=1/1,2,3,16;
 1/7=10,10=4,11=1,18=20,19=15,26=3/3(2);
 2/9=110/2;
 99//99;
 2/9=110/2;
 3/5=4,6=6,7=1111,11=2,25=1,30=1,71=1,74=-55/1,2,3;
 4/5=5,16=3,69=1/1;
 5/5=2,38=5/2;
 7//1,2,3,16;
 1/7=10,11=1,18=20,19=15,26=3/3(-5);
 2/9=110/2;
 6/7=2,8=2,9=2,10=2,19=2,28=1/1;
 99/9=1/99;
 -------------------
 Title Card Required
 -------------------
 Symbolic Z-matrix:
 Charge =  0 Multiplicity = 1
 C                     0.27761  -1.46533  -0.53092 
 H                    -0.07173  -2.36294  -0.99691 
 C                     0.66979  -0.45765  -0.00778 
 C                     1.17258   0.83424   0.6629 
 O                     1.13814   0.94727   1.91574 
 O                     1.90503   1.73191  -0.07273 
 C                     2.63747   2.62959  -0.80837 
 C                     4.15376   2.44917  -1.00822 
 H                     2.4509    3.56146  -0.31674 
 H                     2.14915   2.62457  -1.76043 
 H                     4.53238   3.25068  -1.60749 
 H                     4.64208   2.45419  -0.05616 
 H                     4.34033   1.5173   -1.49985 
 

 GradGradGradGradGradGradGradGradGradGradGradGradGradGradGradGradGradGrad
 Berny optimization.
 Initialization pass.
                           ----------------------------
                           !    Initial Parameters    !
                           ! (Angstroms and Degrees)  !
 --------------------------                            --------------------------
 ! Name  Definition              Value          Derivative Info.                !
 --------------------------------------------------------------------------------
 ! R1    R(1,2)                  1.07           calculate D2E/DX2 analytically  !
 ! R2    R(1,3)                  1.2012         calculate D2E/DX2 analytically  !
 ! R3    R(3,4)                  1.54           calculate D2E/DX2 analytically  !
 ! R4    R(4,5)                  1.2584         calculate D2E/DX2 analytically  !
 ! R5    R(4,6)                  1.3724         calculate D2E/DX2 analytically  !
 ! R6    R(6,7)                  1.3724         calculate D2E/DX2 analytically  !
 ! R7    R(7,8)                  1.54           calculate D2E/DX2 analytically  !
 ! R8    R(7,9)                  1.07           calculate D2E/DX2 analytically  !
 ! R9    R(7,10)                 1.07           calculate D2E/DX2 analytically  !
 ! R10   R(8,11)                 1.07           calculate D2E/DX2 analytically  !
 ! R11   R(8,12)                 1.07           calculate D2E/DX2 analytically  !
 ! R12   R(8,13)                 1.07           calculate D2E/DX2 analytically  !
 ! A1    A(3,4,5)              120.0            calculate D2E/DX2 analytically  !
 ! A2    A(3,4,6)              119.3087         calculate D2E/DX2 analytically  !
 ! A3    A(5,4,6)              119.3087         calculate D2E/DX2 analytically  !
 ! A4    A(6,7,8)              121.226          calculate D2E/DX2 analytically  !
 ! A5    A(6,7,9)              103.3151         calculate D2E/DX2 analytically  !
 ! A6    A(6,7,10)             103.3151         calculate D2E/DX2 analytically  !
 ! A7    A(8,7,9)              109.4712         calculate D2E/DX2 analytically  !
 ! A8    A(8,7,10)             109.4712         calculate D2E/DX2 analytically  !
 ! A9    A(9,7,10)             109.4712         calculate D2E/DX2 analytically  !
 ! A10   A(7,8,11)             109.4712         calculate D2E/DX2 analytically  !
 ! A11   A(7,8,12)             109.4712         calculate D2E/DX2 analytically  !
 ! A12   A(7,8,13)             109.4712         calculate D2E/DX2 analytically  !
 ! A13   A(11,8,12)            109.4712         calculate D2E/DX2 analytically  !
 ! A14   A(11,8,13)            109.4712         calculate D2E/DX2 analytically  !
 ! A15   A(12,8,13)            109.4712         calculate D2E/DX2 analytically  !
 ! A16   L(2,1,3,13,-1)        180.0            calculate D2E/DX2 analytically  !
 ! A17   L(1,3,4,13,-1)        180.0            calculate D2E/DX2 analytically  !
 ! A18   L(4,6,7,12,-1)        179.9999         calculate D2E/DX2 analytically  !
 ! A19   L(2,1,3,13,-2)        180.0            calculate D2E/DX2 analytically  !
 ! A20   L(1,3,4,13,-2)        180.0            calculate D2E/DX2 analytically  !
 ! A21   L(4,6,7,12,-2)        180.0            calculate D2E/DX2 analytically  !
 ! D1    D(3,4,7,8)            -83.2917         calculate D2E/DX2 analytically  !
 ! D2    D(3,4,7,9)            153.7485         calculate D2E/DX2 analytically  !
 ! D3    D(3,4,7,10)            39.6682         calculate D2E/DX2 analytically  !
 ! D4    D(5,4,7,8)             83.2917         calculate D2E/DX2 analytically  !
 ! D5    D(5,4,7,9)            -39.6682         calculate D2E/DX2 analytically  !
 ! D6    D(5,4,7,10)          -153.7485         calculate D2E/DX2 analytically  !
 ! D7    D(6,7,8,11)          -180.0            calculate D2E/DX2 analytically  !
 ! D8    D(6,7,8,12)           -60.0            calculate D2E/DX2 analytically  !
 ! D9    D(6,7,8,13)            60.0            calculate D2E/DX2 analytically  !
 ! D10   D(9,7,8,11)           -60.0            calculate D2E/DX2 analytically  !
 ! D11   D(9,7,8,12)            60.0            calculate D2E/DX2 analytically  !
 ! D12   D(9,7,8,13)          -180.0            calculate D2E/DX2 analytically  !
 ! D13   D(10,7,8,11)           60.0            calculate D2E/DX2 analytically  !
 ! D14   D(10,7,8,12)          180.0            calculate D2E/DX2 analytically  !
 ! D15   D(10,7,8,13)          -60.0            calculate D2E/DX2 analytically  !
 --------------------------------------------------------------------------------
 Trust Radius=3.00D-01 FncErr=1.00D-07 GrdErr=1.00D-06 EigMax=2.50D+02 EigMin=1.00D-04
 Number of steps in this run=     58 maximum allowed number of steps=    100.
 GradGradGradGradGradGradGradGradGradGradGradGradGradGradGradGradGradGrad

                          Input orientation:                          
 ---------------------------------------------------------------------
 Center     Atomic      Atomic             Coordinates (Angstroms)
 Number     Number       Type             X           Y           Z
 ---------------------------------------------------------------------
      1          6           0        0.277614   -1.465328   -0.530916
      2          1           0       -0.071727   -2.362941   -0.996911
      3          6           0        0.669790   -0.457652   -0.007782
      4          6           0        1.172579    0.834239    0.662904
      5          8           0        1.138138    0.947269    1.915745
      6          8           0        1.905026    1.731913   -0.072734
      7          6           0        2.637474    2.629585   -0.808373
      8          6           0        4.153757    2.449173   -1.008217
      9          1           0        2.450903    3.561457   -0.316737
     10          1           0        2.149151    2.624569   -1.760431
     11          1           0        4.532384    3.250678   -1.607494
     12          1           0        4.642080    2.454190   -0.056159
     13          1           0        4.340328    1.517301   -1.499853
 ---------------------------------------------------------------------
                    Distance matrix (angstroms):
                    1          2          3          4          5
     1  C    0.000000
     2  H    1.070000   0.000000
     3  C    1.201200   2.271200   0.000000
     4  C    2.741200   3.811200   1.540000   0.000000
     5  O    3.542213   4.572180   2.427572   1.258400   0.000000
     6  O    3.616732   4.639987   2.514801   1.372392   2.271086
     7  C    4.734368   5.683365   3.747501   2.744784   3.535394
     8  C    5.529523   6.404006   4.646346   3.779958   4.460855
     9  H    5.480659   6.474936   4.406933   3.167259   3.679852
    10  H    4.662790   5.512759   3.841924   3.167259   4.165303
    11  H    6.442266   7.285833   5.588419   4.720400   5.407385
    12  H    5.885285   6.805126   4.925470   3.895989   4.293812
    13  H    5.132306   5.897072   4.427140   3.895989   4.716489
                    6          7          8          9         10
     6  O    0.000000
     7  C    1.372392   0.000000
     8  C    2.538973   1.540000   0.000000
     9  H    1.924774   1.070000   2.148263   0.000000
    10  H    1.924774   1.070000   2.148263   1.747303   0.000000
    11  H    3.400756   2.148263   1.070000   2.468846   2.468846
    12  H    2.830799   2.148263   1.070000   2.468846   3.024610
    13  H    2.830799   2.148263   1.070000   3.024610   2.468846
                   11         12         13
    11  H    0.000000
    12  H    1.747303   0.000000
    13  H    1.747303   1.747303   0.000000
 Stoichiometry    C5H6O2
 Framework group  C1[X(C5H6O2)]
 Deg. of freedom    33
 Full point group                 C1      NOp   1
 Largest Abelian subgroup         C1      NOp   1
 Largest concise Abelian subgroup C1      NOp   1
                         Standard orientation:                         
 ---------------------------------------------------------------------
 Center     Atomic      Atomic             Coordinates (Angstroms)
 Number     Number       Type             X           Y           Z
 ---------------------------------------------------------------------
      1          6           0        2.731790   -1.317951   -0.072319
      2          1           0        3.490977   -2.069413   -0.134298
      3          6           0        1.879515   -0.474348   -0.002740
      4          6           0        0.786854    0.607195    0.086462
      5          8           0        1.026349    1.777663   -0.308782
      6          8           0       -0.510783    0.232704    0.330091
      7          6           0       -1.808420   -0.141787    0.573719
      8          6           0       -2.730475   -0.613870   -0.565821
      9          1           0       -2.231396    0.723730    1.039414
     10          1           0       -1.707621   -0.923069    1.297831
     11          1           0       -3.693301   -0.857641   -0.167773
     12          1           0       -2.831274    0.167412   -1.289933
     13          1           0       -2.307500   -1.479387   -1.031516
 ---------------------------------------------------------------------
 Rotational constants (GHZ):           4.6192727           1.4339172           1.1798915
 Standard basis: 6-311++G(d,p) (5D, 7F)
 There are   203 symmetry adapted cartesian basis functions of A   symmetry.
 There are   196 symmetry adapted basis functions of A   symmetry.
   196 basis functions,   306 primitive gaussians,   203 cartesian basis functions
    26 alpha electrons       26 beta electrons
       nuclear repulsion energy       263.2547300619 Hartrees.
 NAtoms=   13 NActive=   13 NUniq=   13 SFac= 1.00D+00 NAtFMM=   60 NAOKFM=F Big=F
 Integral buffers will be    131072 words long.
 Raffenetti 2 integral format.
 Two-electron integral symmetry is turned on.
 One-electron integrals computed using PRISM.
 NBasis=   196 RedAO= T EigKep=  1.84D-06  NBF=   196
 NBsUse=   196 1.00D-06 EigRej= -1.00D+00 NBFU=   196
 ExpMin= 3.60D-02 ExpMax= 8.59D+03 ExpMxC= 1.30D+03 IAcc=3 IRadAn=         5 AccDes= 0.00D+00
 Harris functional with IExCor= 1009 and IRadAn=       5 diagonalized for initial guess.
 HarFok:  IExCor= 1009 AccDes= 0.00D+00 IRadAn=         5 IDoV= 1 UseB2=F ITyADJ=14
 ICtDFT=  3500011 ScaDFX=  1.000000  1.000000  1.000000  1.000000
 FoFCou: FMM=F IPFlag=           0 FMFlag=      100000 FMFlg1=           0
         NFxFlg=           0 DoJE=T BraDBF=F KetDBF=T FulRan=T
         wScrn=  0.000000 ICntrl=       500 IOpCl=  0 I1Cent=   200000004 NGrid=           0
         NMat0=    1 NMatS0=      1 NMatT0=    0 NMatD0=    1 NMtDS0=    0 NMtDT0=    0
 Petite list used in FoFCou.
 Requested convergence on RMS density matrix=1.00D-08 within 128 cycles.
 Requested convergence on MAX density matrix=1.00D-06.
 Requested convergence on             energy=1.00D-06.
 No special actions if energy rises.
 SCF Done:  E(RM062X) =  -344.401094011     A.U. after   15 cycles
            NFock= 15  Conv=0.28D-08     -V/T= 2.0045
 DoSCS=F DFT=T ScalE2(SS,OS)=  1.000000  1.000000
 Range of M.O.s used for correlation:     1   196
 NBasis=   196 NAE=    26 NBE=    26 NFC=     0 NFV=     0
 NROrb=    196 NOA=    26 NOB=    26 NVA=   170 NVB=   170

 **** Warning!!: The largest alpha MO coefficient is  0.24814647D+03

 Symmetrizing basis deriv contribution to polar:
 IMax=3 JMax=2 DiffMx= 0.00D+00
 G2DrvN: will do    14 centers at a time, making    1 passes.
 Calling FoFCou, ICntrl=  3107 FMM=F I1Cent=   0 AccDes= 0.00D+00.
 End of G2Drv F.D. properties file   721 does not exist.
 End of G2Drv F.D. properties file   722 does not exist.
 End of G2Drv F.D. properties file   788 does not exist.
          IDoAtm=1111111111111
          Differentiating once with respect to nuclear coordinates.
 Keep R1 ints in memory in canonical form, NReq=211019332.
          There are    42 degrees of freedom in the 1st order CPHF.  IDoFFX=6 NUNeed=     0.
     36 vectors produced by pass  0 Test12= 1.05D-14 2.38D-09 XBig12= 2.22D-01 1.37D-01.
 AX will form    36 AO Fock derivatives at one time.
     36 vectors produced by pass  1 Test12= 1.05D-14 2.38D-09 XBig12= 2.11D-02 3.13D-02.
     36 vectors produced by pass  2 Test12= 1.05D-14 2.38D-09 XBig12= 7.67D-04 4.62D-03.
     36 vectors produced by pass  3 Test12= 1.05D-14 2.38D-09 XBig12= 1.42D-05 7.67D-04.
     36 vectors produced by pass  4 Test12= 1.05D-14 2.38D-09 XBig12= 1.42D-07 4.41D-05.
     36 vectors produced by pass  5 Test12= 1.05D-14 2.38D-09 XBig12= 6.58D-10 3.73D-06.
     26 vectors produced by pass  6 Test12= 1.05D-14 2.38D-09 XBig12= 2.86D-12 1.61D-07.
      7 vectors produced by pass  7 Test12= 1.05D-14 2.38D-09 XBig12= 9.12D-15 1.02D-08.
      1 vectors produced by pass  8 Test12= 1.05D-14 2.38D-09 XBig12= 3.90D-16 4.87D-09.
 InvSVY:  IOpt=1 It=  1 EMax= 1.33D-15
 Solved reduced A of dimension   250 with    36 vectors.
 End of Minotr F.D. properties file   721 does not exist.
 End of Minotr F.D. properties file   722 does not exist.
 End of Minotr F.D. properties file   788 does not exist.

 **********************************************************************

            Population analysis using the SCF density.

 **********************************************************************

 Orbital symmetries:
       Occupied  (A) (A) (A) (A) (A) (A) (A) (A) (A) (A) (A) (A)
                 (A) (A) (A) (A) (A) (A) (A) (A) (A) (A) (A) (A)
                 (A) (A)
       Virtual   (A) (A) (A) (A) (A) (A) (A) (A) (A) (A) (A) (A)
                 (A) (A) (A) (A) (A) (A) (A) (A) (A) (A) (A) (A)
                 (A) (A) (A) (A) (A) (A) (A) (A) (A) (A) (A) (A)
                 (A) (A) (A) (A) (A) (A) (A) (A) (A) (A) (A) (A)
                 (A) (A) (A) (A) (A) (A) (A) (A) (A) (A) (A) (A)
                 (A) (A) (A) (A) (A) (A) (A) (A) (A) (A) (A) (A)
                 (A) (A) (A) (A) (A) (A) (A) (A) (A) (A) (A) (A)
                 (A) (A) (A) (A) (A) (A) (A) (A) (A) (A) (A) (A)
                 (A) (A) (A) (A) (A) (A) (A) (A) (A) (A) (A) (A)
                 (A) (A) (A) (A) (A) (A) (A) (A) (A) (A) (A) (A)
                 (A) (A) (A) (A) (A) (A) (A) (A) (A) (A) (A) (A)
                 (A) (A) (A) (A) (A) (A) (A) (A) (A) (A) (A) (A)
                 (A) (A) (A) (A) (A) (A) (A) (A) (A) (A) (A) (A)
                 (A) (A) (A) (A) (A) (A) (A) (A) (A) (A) (A) (A)
                 (A) (A)
 The electronic state is 1-A.
 Alpha  occ. eigenvalues --  -19.65914 -19.63176 -10.74374 -10.62098 -10.58152
 Alpha  occ. eigenvalues --  -10.57278 -10.54270  -1.22176  -1.13926  -0.90392
 Alpha  occ. eigenvalues --   -0.87677  -0.79843  -0.70886  -0.63614  -0.60824
 Alpha  occ. eigenvalues --   -0.58499  -0.55273  -0.53970  -0.49156  -0.46855
 Alpha  occ. eigenvalues --   -0.46339  -0.39588  -0.38220  -0.37413  -0.36326
 Alpha  occ. eigenvalues --   -0.35055
 Alpha virt. eigenvalues --   -0.02763  -0.00599   0.00575   0.01548   0.02231
 Alpha virt. eigenvalues --    0.02989   0.03723   0.05058   0.05609   0.06306
 Alpha virt. eigenvalues --    0.07291   0.07696   0.08145   0.08640   0.10188
 Alpha virt. eigenvalues --    0.11170   0.11729   0.12237   0.12959   0.13539
 Alpha virt. eigenvalues --    0.14020   0.14091   0.14437   0.15802   0.15962
 Alpha virt. eigenvalues --    0.16423   0.17924   0.19062   0.20355   0.21063
 Alpha virt. eigenvalues --    0.21776   0.23157   0.23883   0.26303   0.27615
 Alpha virt. eigenvalues --    0.29493   0.30239   0.30860   0.31840   0.32121
 Alpha virt. eigenvalues --    0.32531   0.34158   0.34713   0.36138   0.39460
 Alpha virt. eigenvalues --    0.40838   0.45972   0.46200   0.48112   0.49472
 Alpha virt. eigenvalues --    0.51819   0.53652   0.57250   0.57803   0.59942
 Alpha virt. eigenvalues --    0.62898   0.65188   0.66301   0.68064   0.69441
 Alpha virt. eigenvalues --    0.69631   0.70376   0.70718   0.71895   0.74494
 Alpha virt. eigenvalues --    0.75333   0.77779   0.79194   0.84770   0.87254
 Alpha virt. eigenvalues --    0.92472   0.93716   0.99229   1.05384   1.07552
 Alpha virt. eigenvalues --    1.10470   1.13441   1.15694   1.17452   1.18574
 Alpha virt. eigenvalues --    1.21842   1.22968   1.25038   1.28297   1.29447
 Alpha virt. eigenvalues --    1.30526   1.35305   1.39317   1.44557   1.49918
 Alpha virt. eigenvalues --    1.50319   1.54329   1.58167   1.58506   1.61369
 Alpha virt. eigenvalues --    1.62093   1.62780   1.63505   1.66755   1.67356
 Alpha virt. eigenvalues --    1.68839   1.71973   1.73837   1.76116   1.78978
 Alpha virt. eigenvalues --    1.80387   1.83071   1.90268   1.95592   1.97037
 Alpha virt. eigenvalues --    1.98661   2.06313   2.07857   2.11371   2.20359
 Alpha virt. eigenvalues --    2.31154   2.37214   2.40257   2.48167   2.49578
 Alpha virt. eigenvalues --    2.53835   2.54826   2.58363   2.59498   2.60936
 Alpha virt. eigenvalues --    2.63598   2.64750   2.65320   2.67502   2.72886
 Alpha virt. eigenvalues --    2.79731   2.81109   2.82446   2.88332   2.90405
 Alpha virt. eigenvalues --    2.92228   2.97447   2.98131   3.02625   3.03032
 Alpha virt. eigenvalues --    3.05066   3.16912   3.19253   3.26265   3.31844
 Alpha virt. eigenvalues --    3.37193   3.43510   3.48429   3.55362   3.61921
 Alpha virt. eigenvalues --    3.86789   3.88756   3.89753   4.00240   4.09544
 Alpha virt. eigenvalues --    4.17556   4.48089   5.14490   5.17202   5.23748
 Alpha virt. eigenvalues --    5.28762   5.67494   6.06608  23.56088  23.74567
 Alpha virt. eigenvalues --   23.93906  24.09524  25.09542  49.98952  50.05061
          Condensed to atoms (all electrons):
               1          2          3          4          5          6
     1  C   19.071033   0.762293  -6.719813  -5.058897  -0.075082  -0.022251
     2  H    0.762293   0.435466  -0.274740  -0.077521  -0.001782  -0.002735
     3  C   -6.719813  -0.274740  10.033048   1.279484  -0.027385  -0.264936
     4  C   -5.058897  -0.077521   1.279484   9.605423   0.542139  -0.107046
     5  O   -0.075082  -0.001782  -0.027385   0.542139   7.934838  -0.126522
     6  O   -0.022251  -0.002735  -0.264936  -0.107046  -0.126522   8.764036
     7  C   -0.040897  -0.000492  -0.049277   0.058269  -0.001218   0.085506
     8  C   -0.024151  -0.000625   0.034770  -0.148684  -0.009314  -0.071445
     9  H    0.013074   0.000180   0.000760   0.002882   0.005476  -0.087918
    10  H   -0.028779  -0.000636   0.010128   0.002026  -0.004765  -0.080000
    11  H   -0.000205  -0.000015   0.001009  -0.005738  -0.000597   0.019897
    12  H   -0.004138  -0.000032  -0.001593  -0.001185  -0.001854  -0.003595
    13  H    0.011708   0.000082   0.003710  -0.004636   0.001790  -0.007749
               7          8          9         10         11         12
     1  C   -0.040897  -0.024151   0.013074  -0.028779  -0.000205  -0.004138
     2  H   -0.000492  -0.000625   0.000180  -0.000636  -0.000015  -0.000032
     3  C   -0.049277   0.034770   0.000760   0.010128   0.001009  -0.001593
     4  C    0.058269  -0.148684   0.002882   0.002026  -0.005738  -0.001185
     5  O   -0.001218  -0.009314   0.005476  -0.004765  -0.000597  -0.001854
     6  O    0.085506  -0.071445  -0.087918  -0.080000   0.019897  -0.003595
     7  C    5.214421   0.217494   0.452938   0.449102  -0.045696  -0.038363
     8  C    0.217494   5.310674  -0.064146  -0.051656   0.416308   0.409663
     9  H    0.452938  -0.064146   0.570383  -0.057752  -0.001886  -0.013779
    10  H    0.449102  -0.051656  -0.057752   0.596398  -0.002546   0.011305
    11  H   -0.045696   0.416308  -0.001886  -0.002546   0.521967  -0.031170
    12  H   -0.038363   0.409663  -0.013779   0.011305  -0.031170   0.539138
    13  H   -0.033103   0.393211   0.008796  -0.015323  -0.033799  -0.041781
              13
     1  C    0.011708
     2  H    0.000082
     3  C    0.003710
     4  C   -0.004636
     5  O    0.001790
     6  O   -0.007749
     7  C   -0.033103
     8  C    0.393211
     9  H    0.008796
    10  H   -0.015323
    11  H   -0.033799
    12  H   -0.041781
    13  H    0.553671
 Mulliken charges:
               1
     1  C   -1.883897
     2  H    0.160557
     3  C    1.974836
     4  C   -0.086517
     5  O   -0.235724
     6  O   -0.095241
     7  C   -0.268682
     8  C   -0.412098
     9  H    0.170993
    10  H    0.172496
    11  H    0.162470
    12  H    0.177384
    13  H    0.163423
 Sum of Mulliken charges =  -0.00000
 Mulliken charges with hydrogens summed into heavy atoms:
               1
     1  C   -1.723341
     3  C    1.974836
     4  C   -0.086517
     5  O   -0.235724
     6  O   -0.095241
     7  C    0.074808
     8  C    0.091179
 APT charges:
               1
     1  C   -0.504164
     2  H    0.943284
     3  C   -0.689776
     4  C    0.165733
     5  O   -0.029636
     6  O    0.105876
     7  C   -0.864232
     8  C   -1.158794
     9  H    0.428831
    10  H    0.348409
    11  H    0.676823
    12  H    0.328027
    13  H    0.249618
 Sum of APT charges =  -0.00000
 APT charges with hydrogens summed into heavy atoms:
               1
     1  C    0.439120
     3  C   -0.689776
     4  C    0.165733
     5  O   -0.029636
     6  O    0.105876
     7  C   -0.086992
     8  C    0.095674
 Electronic spatial extent (au):  <R**2>=            992.7804
 Charge=              0.0000 electrons
 Dipole moment (field-independent basis, Debye):
    X=             -1.6727    Y=             -3.5919    Z=              0.7716  Tot=              4.0367
 Quadrupole moment (field-independent basis, Debye-Ang):
   XX=            -32.0819   YY=            -44.2184   ZZ=            -41.6286
   XY=             -6.7901   XZ=             -0.0574   YZ=              1.4995
 Traceless Quadrupole moment (field-independent basis, Debye-Ang):
   XX=              7.2277   YY=             -4.9088   ZZ=             -2.3190
   XY=             -6.7901   XZ=             -0.0574   YZ=              1.4995
 Octapole moment (field-independent basis, Debye-Ang**2):
  XXX=              1.4146  YYY=            -11.4067  ZZZ=              1.0795  XYY=              3.0032
  XXY=            -23.1542  XXZ=              0.7560  XZZ=             -4.9320  YZZ=              3.3111
  YYZ=              1.7667  XYZ=              2.6938
 Hexadecapole moment (field-independent basis, Debye-Ang**3):
 XXXX=           -857.5150 YYYY=           -281.2378 ZZZZ=            -95.6381 XXXY=            -73.2337
 XXXZ=            -10.4369 YYYX=            -33.6884 YYYZ=              4.7757 ZZZX=             -1.7366
 ZZZY=             -2.1671 XXYY=           -166.0265 XXZZ=           -186.5370 YYZZ=            -61.5492
 XXYZ=              4.3466 YYXZ=             -1.3319 ZZXY=              3.3273
 N-N= 2.632547300619D+02 E-N=-1.331329171213D+03  KE= 3.428564331692D+02
  Exact polarizability:   0.000   0.000   0.000   0.000   0.000   0.000
 Approx polarizability:  84.568 -11.224  85.597  -4.153  -4.234  52.025
 Calling FoFJK, ICntrl=    100147 FMM=F ISym2X=0 I1Cent= 0 IOpClX= 0 NMat=1 NMatS=1 NMatT=0.
 ***** Axes restored to original set *****
 -------------------------------------------------------------------
 Center     Atomic                   Forces (Hartrees/Bohr)
 Number     Number              X              Y              Z
 -------------------------------------------------------------------
      1        6           0.000693562    0.002137893    0.000974696
      2        1           0.001435927    0.002894231    0.002550928
      3        6           0.012205195    0.048112650    0.008084179
      4        6           0.042509546    0.001673771    0.065602550
      5        8          -0.011527271   -0.009113004   -0.095052938
      6        8          -0.043514682   -0.082796341    0.045081226
      7        6           0.010235874    0.026510403   -0.022931214
      8        6          -0.027675565   -0.015454867    0.016047012
      9        1           0.001605019    0.018795898    0.001147258
     10        1          -0.001459410    0.008094016   -0.018653084
     11        1           0.001129054    0.011725255   -0.007864202
     12        1           0.009031697   -0.000259729    0.011839805
     13        1           0.005331056   -0.012320176   -0.006826217
 -------------------------------------------------------------------
 Cartesian Forces:  Max     0.095052938 RMS     0.028963024
 FormGI is forming the generalized inverse of G from B-inverse, IUseBI=4.

 GradGradGradGradGradGradGradGradGradGradGradGradGradGradGradGradGradGrad
 Berny optimization.
 Internal  Forces:  Max     0.095136725 RMS     0.022173826
 Search for a local minimum.
 Step number   1 out of a maximum of   58
 All quantities printed in internal units (Hartrees-Bohrs-Radians)
 Mixed Optimization -- RFO/linear search
 Second derivative matrix not updated -- analytic derivatives used.
 ITU=  0
     Eigenvalues ---   -0.11075  -0.07108  -0.00030   0.00231   0.02726
     Eigenvalues ---    0.04163   0.04237   0.04286   0.04497   0.04828
     Eigenvalues ---    0.05132   0.06351   0.08313   0.09221   0.12295
     Eigenvalues ---    0.12936   0.13515   0.14631   0.16983   0.17571
     Eigenvalues ---    0.22117   0.27251   0.27764   0.33493   0.37826
     Eigenvalues ---    0.38094   0.38978   0.39147   0.39577   0.40254
     Eigenvalues ---    0.47681   0.62310   1.11635
 RFO step:  Lambda=-1.11020349D-01 EMin=-1.10748110D-01
 I=     1 Eig=   -1.11D-01 Dot1= -2.50D-03
 I=     1 Stepn= -6.00D-01 RXN=   6.00D-01 EDone=F
 I=     2 Eig=   -7.11D-02 Dot1= -7.19D-04
 I=     2 Stepn= -3.00D-01 RXN=   6.71D-01 EDone=F
 I=     3 Eig=   -3.02D-04 Dot1= -5.37D-05
 I=     3 Stepn= -1.50D-01 RXN=   6.87D-01 EDone=F
 Mixed    3 eigenvectors in step.  Raw Step.Grad=  3.27D-03.
 RFO eigenvector is Hessian eigenvector with negative curvature.
 Taking step of  6.00D-01 in eigenvector direction(s).  Step.Grad=  5.87D-04.
 Linear search not attempted -- first point.
 Maximum step size (   0.300) exceeded in Quadratic search.
    -- Step size not scaled.
 Iteration  1 RMS(Cart)=  0.06847095 RMS(Int)=  0.05187604
 Iteration  2 RMS(Cart)=  0.09045715 RMS(Int)=  0.02209474
 Iteration  3 RMS(Cart)=  0.06928304 RMS(Int)=  0.00452479
 Iteration  4 RMS(Cart)=  0.00353308 RMS(Int)=  0.00400527
 Iteration  5 RMS(Cart)=  0.00001916 RMS(Int)=  0.00400526
 Iteration  6 RMS(Cart)=  0.00000024 RMS(Int)=  0.00400526
 Variable       Old X    -DE/DX   Delta X   Delta X   Delta X     New X
                                 (Linear)    (Quad)   (Total)
    R1        2.02201  -0.00401   0.00000  -0.00004  -0.00004   2.02196
    R2        2.26994  -0.00645   0.00000  -0.00023  -0.00023   2.26971
    R3        2.91018  -0.05432   0.00000  -0.00542  -0.00542   2.90476
    R4        2.37803  -0.09514   0.00000   0.00453   0.00453   2.38256
    R5        2.59345  -0.06365   0.00000  -0.01289  -0.01309   2.58035
    R6        2.59345   0.03790   0.00000   0.01167   0.01188   2.60532
    R7        2.91018  -0.01180   0.00000   0.00399   0.00370   2.91388
    R8        2.02201   0.01662   0.00000  -0.00125  -0.00125   2.02075
    R9        2.02201   0.01723   0.00000  -0.00459  -0.00459   2.01741
   R10        2.02201   0.01359   0.00000   0.00018   0.00018   2.02219
   R11        2.02201   0.01466   0.00000  -0.00083  -0.00042   2.02158
   R12        2.02201   0.01480   0.00000   0.00034   0.00034   2.02235
    A1        2.09440   0.00405   0.00000   0.00283  -0.00467   2.08972
    A2        2.08233  -0.02493   0.00000   0.01035   0.00286   2.08519
    A3        2.08233   0.02503   0.00000   0.03342   0.02593   2.10826
    A4        2.11579  -0.04326   0.00000   0.04943   0.05255   2.16834
    A5        1.80319   0.01923   0.00000  -0.02210  -0.02555   1.77764
    A6        1.80319   0.02111   0.00000  -0.04227  -0.04680   1.75639
    A7        1.91063   0.00631   0.00000   0.02360   0.01954   1.93017
    A8        1.91063   0.00529   0.00000  -0.00084   0.00994   1.92057
    A9        1.91063  -0.00671   0.00000  -0.01613  -0.02155   1.88908
   A10        1.91063  -0.00741   0.00000   0.00186   0.00189   1.91253
   A11        1.91063   0.00432   0.00000   0.00712   0.00642   1.91706
   A12        1.91063   0.00457   0.00000  -0.00245  -0.00225   1.90838
   A13        1.91063   0.00073   0.00000  -0.00194  -0.00186   1.90877
   A14        1.91063   0.00062   0.00000  -0.00173  -0.00173   1.90890
   A15        1.91063  -0.00283   0.00000  -0.00287  -0.00249   1.90815
   A16        3.14159   0.00087   0.00000   0.00012   0.00012   3.14172
   A17        3.14159   0.00189   0.00000  -0.00427  -0.00427   3.13733
   A18        3.14159  -0.00912   0.00000  -0.56482  -0.56347   2.57812
   A19        3.14159   0.00126   0.00000  -0.00151  -0.00151   3.14009
   A20        3.14159   0.00279   0.00000   0.00457   0.00457   3.14616
   A21        3.14159  -0.00632   0.00000  -0.05661  -0.05072   3.09087
    D1       -1.45371  -0.00730   0.00000  -0.04415  -0.03572  -1.48943
    D2        2.68342  -0.00258   0.00000   0.03609   0.03667   2.72008
    D3        0.69234  -0.01202   0.00000  -0.02804  -0.03709   0.65525
    D4        1.45371   0.00735   0.00000  -0.11678  -0.10833   1.34539
    D5       -0.69234   0.01206   0.00000  -0.03655  -0.03594  -0.72828
    D6       -2.68342   0.00263   0.00000  -0.10068  -0.10970  -2.79311
    D7       -3.14159   0.00059   0.00000  -0.01703  -0.01386   3.12773
    D8       -1.04720  -0.00041   0.00000  -0.01390  -0.01101  -1.05821
    D9        1.04720   0.00157   0.00000  -0.01456  -0.01151   1.03568
   D10       -1.04720   0.00030   0.00000   0.01098   0.01062  -1.03658
   D11        1.04720  -0.00070   0.00000   0.01411   0.01346   1.06066
   D12        3.14159   0.00128   0.00000   0.01346   0.01296  -3.12863
   D13        1.04720  -0.00082   0.00000   0.00516   0.00242   1.04962
   D14        3.14159  -0.00181   0.00000   0.00829   0.00526  -3.13633
   D15       -1.04720   0.00017   0.00000   0.00763   0.00476  -1.04243
         Item               Value     Threshold  Converged?
 Maximum Force            0.095137     0.000015     NO 
 RMS     Force            0.022174     0.000010     NO 
 Maximum Displacement     0.662508     0.000060     NO 
 RMS     Displacement     0.220668     0.000040     NO 
 Predicted change in Energy=-2.016202D-02
 GradGradGradGradGradGradGradGradGradGradGradGradGradGradGradGradGradGrad

                          Input orientation:                          
 ---------------------------------------------------------------------
 Center     Atomic      Atomic             Coordinates (Angstroms)
 Number     Number       Type             X           Y           Z
 ---------------------------------------------------------------------
      1          6           0        0.353216   -1.479275   -0.486794
      2          1           0       -0.019241   -2.395926   -0.894073
      3          6           0        0.770477   -0.449643   -0.030348
      4          6           0        1.312714    0.864938    0.553291
      5          8           0        1.488722    0.971220    1.797212
      6          8           0        1.604145    1.902527   -0.285142
      7          6           0        2.570538    2.710385   -0.845677
      8          6           0        4.066668    2.345861   -0.925389
      9          1           0        2.434109    3.623143   -0.305548
     10          1           0        2.172928    2.840751   -1.827826
     11          1           0        4.601566    3.131764   -1.416659
     12          1           0        4.460465    2.210865    0.060065
     13          1           0        4.181190    1.437842   -1.480068
 ---------------------------------------------------------------------
                    Distance matrix (angstroms):
                    1          2          3          4          5
     1  C    0.000000
     2  H    1.069976   0.000000
     3  C    1.201080   2.271056   0.000000
     4  C    2.738201   3.808175   1.537132   0.000000
     5  O    3.537087   4.566688   2.423778   1.260799   0.000000
     6  O    3.611381   4.634963   2.508511   1.365465   2.284043
     7  C    4.753795   5.725706   3.727030   2.635319   3.343633
     8  C    5.349183   6.259407   4.413708   3.458886   3.993494
     9  H    5.513405   6.526444   4.408059   3.098843   3.513979
    10  H    4.875689   5.753285   4.003060   3.211468   4.135720
    11  H    6.338360   7.223594   5.424535   4.453735   4.968573
    12  H    5.548484   6.496204   4.549998   3.458776   3.658641
    13  H    4.914219   5.717061   4.158996   3.562432   4.267046
                    6          7          8          9         10
     6  O    0.000000
     7  C    1.378676   0.000000
     8  C    2.582727   1.541958   0.000000
     9  H    1.910438   1.069336   2.163539   0.000000
    10  H    1.893054   1.067570   2.155356   1.731381   0.000000
    11  H    3.431601   2.151432   1.070096   2.484732   2.480329
    12  H    2.893580   2.154464   1.069776   2.496863   3.032114
    13  H    2.878357   2.148492   1.070179   3.034358   2.474309
                   11         12         13
    11  H    0.000000
    12  H    1.746047   0.000000
    13  H    1.746456   1.745729   0.000000
 Stoichiometry    C5H6O2
 Framework group  C1[X(C5H6O2)]
 Deg. of freedom    33
 Full point group                 C1      NOp   1
 Largest Abelian subgroup         C1      NOp   1
 Largest concise Abelian subgroup C1      NOp   1
                         Standard orientation:                         
 ---------------------------------------------------------------------
 Center     Atomic      Atomic             Coordinates (Angstroms)
 Number     Number       Type             X           Y           Z
 ---------------------------------------------------------------------
      1          6           0        2.812284   -1.113786   -0.121816
      2          1           0        3.651426   -1.772491   -0.204251
      3          6           0        1.870188   -0.374696   -0.028032
      4          6           0        0.661624    0.568477    0.084103
      5          8           0        0.728757    1.731026   -0.399205
      6          8           0       -0.475547    0.132790    0.701769
      7          6           0       -1.803141   -0.219535    0.582979
      8          6           0       -2.478067   -0.623968   -0.743122
      9          1           0       -2.294472    0.627876    1.011893
     10          1           0       -1.856341   -1.025361    1.281205
     11          1           0       -3.505648   -0.863067   -0.564190
     12          1           0       -2.418315    0.183733   -1.442027
     13          1           0       -1.979650   -1.480172   -1.147817
 ---------------------------------------------------------------------
 Rotational constants (GHZ):           4.6287247           1.4929922           1.2889259
 Standard basis: 6-311++G(d,p) (5D, 7F)
 There are   203 symmetry adapted cartesian basis functions of A   symmetry.
 There are   196 symmetry adapted basis functions of A   symmetry.
   196 basis functions,   306 primitive gaussians,   203 cartesian basis functions
    26 alpha electrons       26 beta electrons
       nuclear repulsion energy       265.9532416002 Hartrees.
 NAtoms=   13 NActive=   13 NUniq=   13 SFac= 1.00D+00 NAtFMM=   60 NAOKFM=F Big=F
 Integral buffers will be    131072 words long.
 Raffenetti 2 integral format.
 Two-electron integral symmetry is turned on.
 One-electron integrals computed using PRISM.
 NBasis=   196 RedAO= T EigKep=  1.65D-06  NBF=   196
 NBsUse=   196 1.00D-06 EigRej= -1.00D+00 NBFU=   196
 Initial guess from the checkpoint file:  "ethyl_propiolate_non_planar.chk"
 B after Tr=     0.000000    0.000000    0.000000
         Rot=    0.999413   -0.015779    0.006913   -0.029606 Ang=  -3.93 deg.
 ExpMin= 3.60D-02 ExpMax= 8.59D+03 ExpMxC= 1.30D+03 IAcc=3 IRadAn=         5 AccDes= 0.00D+00
 Harris functional with IExCor= 1009 and IRadAn=       5 diagonalized for initial guess.
 HarFok:  IExCor= 1009 AccDes= 0.00D+00 IRadAn=         5 IDoV= 1 UseB2=F ITyADJ=14
 ICtDFT=  3500011 ScaDFX=  1.000000  1.000000  1.000000  1.000000
 FoFCou: FMM=F IPFlag=           0 FMFlag=      100000 FMFlg1=           0
         NFxFlg=           0 DoJE=T BraDBF=F KetDBF=T FulRan=T
         wScrn=  0.000000 ICntrl=       500 IOpCl=  0 I1Cent=   200000004 NGrid=           0
         NMat0=    1 NMatS0=      1 NMatT0=    0 NMatD0=    1 NMtDS0=    0 NMtDT0=    0
 Petite list used in FoFCou.
 Requested convergence on RMS density matrix=1.00D-08 within 128 cycles.
 Requested convergence on MAX density matrix=1.00D-06.
 Requested convergence on             energy=1.00D-06.
 No special actions if energy rises.
 SCF Done:  E(RM062X) =  -344.417442641     A.U. after   16 cycles
            NFock= 16  Conv=0.33D-08     -V/T= 2.0043
 Calling FoFJK, ICntrl=      2127 FMM=F ISym2X=0 I1Cent= 0 IOpClX= 0 NMat=1 NMatS=1 NMatT=0.
 ***** Axes restored to original set *****
 -------------------------------------------------------------------
 Center     Atomic                   Forces (Hartrees/Bohr)
 Number     Number              X              Y              Z
 -------------------------------------------------------------------
      1        6           0.000772883    0.001451048    0.000694589
      2        1           0.001461656    0.003043552    0.002220157
      3        6           0.013595777    0.047240470    0.006583889
      4        6           0.035052299    0.006273150    0.073247468
      5        8          -0.016868277   -0.012982169   -0.092511840
      6        8          -0.054911872   -0.082637567    0.021425575
      7        6           0.027896460    0.025085754   -0.007198100
      8        6          -0.032268420   -0.011980221    0.012131340
      9        1           0.007580205    0.019532711    0.003347304
     10        1           0.001916997    0.007839567   -0.018653555
     11        1           0.003312680    0.011739074   -0.006534769
     12        1           0.007829683   -0.002159335    0.012892008
     13        1           0.004629929   -0.012446032   -0.007644065
 -------------------------------------------------------------------
 Cartesian Forces:  Max     0.092511840 RMS     0.028974082

 GradGradGradGradGradGradGradGradGradGradGradGradGradGradGradGradGradGrad
 Berny optimization.
 Using GEDIIS/GDIIS optimizer.
 FormGI is forming the generalized inverse of G from B-inverse, IUseBI=4.
 Internal  Forces:  Max     0.094723266 RMS     0.022092271
 Search for a local minimum.
 Step number   2 out of a maximum of   58
 All quantities printed in internal units (Hartrees-Bohrs-Radians)
 Mixed Optimization -- RFO/linear search
 Update second derivatives using D2CorX and points    1    2
 ITU=  0  0
 Use linear search instead of GDIIS.
     Eigenvalues ---   -0.10214  -0.04814  -0.00031   0.00231   0.02726
     Eigenvalues ---    0.04143   0.04229   0.04285   0.04494   0.04818
     Eigenvalues ---    0.05093   0.06178   0.08312   0.09173   0.12250
     Eigenvalues ---    0.12876   0.13419   0.14458   0.16915   0.17483
     Eigenvalues ---    0.21819   0.26549   0.27735   0.33332   0.37823
     Eigenvalues ---    0.38094   0.38972   0.39143   0.39573   0.40254
     Eigenvalues ---    0.47614   0.62237   1.11631
 RFO step:  Lambda=-1.15886811D-01 EMin=-1.02144388D-01
 Skip linear search -- no minimum in search direction.
 Maximum step size (   0.300) exceeded in Quadratic search.
    -- Step size scaled by   0.319
 Iteration  1 RMS(Cart)=  0.12109006 RMS(Int)=  0.01224204
 Iteration  2 RMS(Cart)=  0.04180174 RMS(Int)=  0.00116702
 Iteration  3 RMS(Cart)=  0.00085993 RMS(Int)=  0.00102237
 Iteration  4 RMS(Cart)=  0.00000109 RMS(Int)=  0.00102237
 Iteration  5 RMS(Cart)=  0.00000001 RMS(Int)=  0.00102237
 Variable       Old X    -DE/DX   Delta X   Delta X   Delta X     New X
                                 (Linear)    (Quad)   (Total)
    R1        2.02196  -0.00396   0.00000  -0.00249  -0.00249   2.01947
    R2        2.26971  -0.00574   0.00000  -0.00142  -0.00142   2.26829
    R3        2.90476  -0.05344   0.00000  -0.04686  -0.04686   2.85790
    R4        2.38256  -0.09472   0.00000  -0.04012  -0.04012   2.34245
    R5        2.58035  -0.04846   0.00000  -0.00742  -0.00740   2.57296
    R6        2.60532   0.04241   0.00000   0.02823   0.02821   2.63353
    R7        2.91388  -0.01352   0.00000  -0.01474  -0.01484   2.89904
    R8        2.02075   0.01740   0.00000   0.01111   0.01111   2.03186
    R9        2.01741   0.01740   0.00000   0.00790   0.00790   2.02532
   R10        2.02219   0.01328   0.00000   0.00884   0.00884   2.03103
   R11        2.02158   0.01570   0.00000   0.01028   0.01042   2.03201
   R12        2.02235   0.01502   0.00000   0.00950   0.00950   2.03185
    A1        2.08972   0.00434   0.00000   0.01034   0.00908   2.09880
    A2        2.08519  -0.02408   0.00000  -0.03257  -0.03389   2.05130
    A3        2.10826   0.01987   0.00000   0.02268   0.02136   2.12962
    A4        2.16834  -0.04135   0.00000  -0.02619  -0.02531   2.14303
    A5        1.77764   0.01978   0.00000   0.01407   0.01452   1.79216
    A6        1.75639   0.01779   0.00000  -0.00591  -0.00675   1.74964
    A7        1.93017   0.00629   0.00000   0.01334   0.01084   1.94101
    A8        1.92057   0.00891   0.00000   0.01633   0.01871   1.93928
    A9        1.88908  -0.00939   0.00000  -0.01421  -0.01452   1.87456
   A10        1.91253  -0.00725   0.00000  -0.00159  -0.00158   1.91095
   A11        1.91706   0.00291   0.00000   0.00147   0.00123   1.91829
   A12        1.90838   0.00524   0.00000   0.00561   0.00567   1.91405
   A13        1.90877   0.00087   0.00000  -0.00271  -0.00268   1.90609
   A14        1.90890   0.00038   0.00000  -0.00199  -0.00199   1.90691
   A15        1.90815  -0.00214   0.00000  -0.00080  -0.00069   1.90746
   A16        3.14172   0.00082   0.00000   0.00068   0.00068   3.14240
   A17        3.13733   0.00149   0.00000   0.00103   0.00103   3.13836
   A18        2.57812  -0.04281   0.00000  -0.27296  -0.27296   2.30516
   A19        3.14009   0.00099   0.00000   0.00047   0.00047   3.14055
   A20        3.14616   0.00276   0.00000   0.00541   0.00541   3.15158
   A21        3.09087   0.00648   0.00000   0.08202   0.08344   3.17431
    D1       -1.48943  -0.00430   0.00000   0.01895   0.02183  -1.46760
    D2        2.72008   0.00662   0.00000   0.07611   0.07480   2.79488
    D3        0.65525  -0.01114   0.00000   0.02814   0.02666   0.68191
    D4        1.34539  -0.00002   0.00000  -0.01035  -0.00753   1.33786
    D5       -0.72828   0.01090   0.00000   0.04682   0.04543  -0.68285
    D6       -2.79311  -0.00686   0.00000  -0.00116  -0.00271  -2.79582
    D7        3.12773   0.00052   0.00000  -0.00867  -0.00764   3.12009
    D8       -1.05821  -0.00113   0.00000  -0.01209  -0.01116  -1.06937
    D9        1.03568   0.00127   0.00000  -0.00870  -0.00771   1.02798
   D10       -1.03658   0.00092   0.00000   0.00347   0.00305  -1.03353
   D11        1.06066  -0.00073   0.00000   0.00005  -0.00046   1.06020
   D12       -3.12863   0.00166   0.00000   0.00344   0.00299  -3.12564
   D13        1.04962  -0.00108   0.00000   0.00469   0.00411   1.05372
   D14       -3.13633  -0.00272   0.00000   0.00127   0.00059  -3.13574
   D15       -1.04243  -0.00033   0.00000   0.00467   0.00404  -1.03839
         Item               Value     Threshold  Converged?
 Maximum Force            0.094723     0.000015     NO 
 RMS     Force            0.022092     0.000010     NO 
 Maximum Displacement     0.414051     0.000060     NO 
 RMS     Displacement     0.160934     0.000040     NO 
 Predicted change in Energy=-2.656117D-02
 GradGradGradGradGradGradGradGradGradGradGradGradGradGradGradGradGradGrad

                          Input orientation:                          
 ---------------------------------------------------------------------
 Center     Atomic      Atomic             Coordinates (Angstroms)
 Number     Number       Type             X           Y           Z
 ---------------------------------------------------------------------
      1          6           0        0.452106   -1.454276   -0.452042
      2          1           0        0.082902   -2.391304   -0.809382
      3          6           0        0.865582   -0.401340   -0.050600
      4          6           0        1.397383    0.919045    0.460219
      5          8           0        1.667510    1.060734    1.661672
      6          8           0        1.463269    1.954455   -0.421485
      7          6           0        2.525082    2.748015   -0.851536
      8          6           0        3.975667    2.249645   -0.881663
      9          1           0        2.427836    3.625391   -0.237662
     10          1           0        2.184797    3.005337   -1.834715
     11          1           0        4.612927    3.024061   -1.268077
     12          1           0        4.294974    1.991758    0.112214
     13          1           0        4.047460    1.382931   -1.513900
 ---------------------------------------------------------------------
                    Distance matrix (angstroms):
                    1          2          3          4          5
     1  C    0.000000
     2  H    1.068656   0.000000
     3  C    1.200330   2.268985   0.000000
     4  C    2.712641   3.781290   1.512338   0.000000
     5  O    3.502894   4.531408   2.390110   1.239570   0.000000
     6  O    3.555676   4.576188   2.458568   1.361550   2.275961
     7  C    4.702773   5.690222   3.648819   2.517447   3.146198
     8  C    5.130213   6.057826   4.170254   3.196669   3.634508
     9  H    5.454583   6.482761   4.323215   2.978788   3.280706
    10  H    4.980175   5.881581   4.065568   3.199900   4.034079
    11  H    6.167159   7.075147   5.220941   4.214003   4.594950
    12  H    5.192415   6.148344   4.184992   3.109317   3.189231
    13  H    4.701474   5.518960   3.930549   3.336951   3.981486
                    6          7          8          9         10
     6  O    0.000000
     7  C    1.393602   0.000000
     8  C    2.571195   1.534106   0.000000
     9  H    1.938093   1.075214   2.168685   0.000000
    10  H    1.903201   1.071751   2.164855   1.730351   0.000000
    11  H    3.432364   2.146813   1.074773   2.489573   2.493440
    12  H    2.881802   2.152501   1.075292   2.505469   3.044786
    13  H    2.863224   2.149376   1.075208   3.046406   2.490910
                   11         12         13
    11  H    0.000000
    12  H    1.752697   0.000000
    13  H    1.753137   1.753905   0.000000
 Stoichiometry    C5H6O2
 Framework group  C1[X(C5H6O2)]
 Deg. of freedom    33
 Full point group                 C1      NOp   1
 Largest Abelian subgroup         C1      NOp   1
 Largest concise Abelian subgroup C1      NOp   1
                         Standard orientation:                         
 ---------------------------------------------------------------------
 Center     Atomic      Atomic             Coordinates (Angstroms)
 Number     Number       Type             X           Y           Z
 ---------------------------------------------------------------------
      1          6           0        2.814390   -0.967418   -0.139934
      2          1           0        3.698750   -1.560014   -0.233548
      3          6           0        1.821454   -0.301412   -0.033607
      4          6           0        0.569742    0.538739    0.086924
      5          8           0        0.522361    1.665969   -0.426534
      6          8           0       -0.441557    0.054136    0.859099
      7          6           0       -1.775337   -0.234711    0.576740
      8          6           0       -2.259730   -0.639148   -0.821571
      9          1           0       -2.286377    0.644325    0.926337
     10          1           0       -1.956245   -1.015145    1.288671
     11          1           0       -3.316609   -0.832350   -0.792973
     12          1           0       -2.063841    0.154094   -1.520604
     13          1           0       -1.745216   -1.528042   -1.139711
 ---------------------------------------------------------------------
 Rotational constants (GHZ):           4.7413616           1.5792595           1.4083612
 Standard basis: 6-311++G(d,p) (5D, 7F)
 There are   203 symmetry adapted cartesian basis functions of A   symmetry.
 There are   196 symmetry adapted basis functions of A   symmetry.
   196 basis functions,   306 primitive gaussians,   203 cartesian basis functions
    26 alpha electrons       26 beta electrons
       nuclear repulsion energy       270.3984517580 Hartrees.
 NAtoms=   13 NActive=   13 NUniq=   13 SFac= 1.00D+00 NAtFMM=   60 NAOKFM=F Big=F
 Integral buffers will be    131072 words long.
 Raffenetti 2 integral format.
 Two-electron integral symmetry is turned on.
 One-electron integrals computed using PRISM.
 NBasis=   196 RedAO= T EigKep=  1.41D-06  NBF=   196
 NBsUse=   196 1.00D-06 EigRej= -1.00D+00 NBFU=   196
 Initial guess from the checkpoint file:  "ethyl_propiolate_non_planar.chk"
 B after Tr=    -0.000000    0.000000    0.000000
         Rot=    0.999762   -0.005633    0.005957   -0.020195 Ang=  -2.50 deg.
 ExpMin= 3.60D-02 ExpMax= 8.59D+03 ExpMxC= 1.30D+03 IAcc=3 IRadAn=         5 AccDes= 0.00D+00
 Harris functional with IExCor= 1009 and IRadAn=       5 diagonalized for initial guess.
 HarFok:  IExCor= 1009 AccDes= 0.00D+00 IRadAn=         5 IDoV= 1 UseB2=F ITyADJ=14
 ICtDFT=  3500011 ScaDFX=  1.000000  1.000000  1.000000  1.000000
 FoFCou: FMM=F IPFlag=           0 FMFlag=      100000 FMFlg1=           0
         NFxFlg=           0 DoJE=T BraDBF=F KetDBF=T FulRan=T
         wScrn=  0.000000 ICntrl=       500 IOpCl=  0 I1Cent=   200000004 NGrid=           0
         NMat0=    1 NMatS0=      1 NMatT0=    0 NMatD0=    1 NMtDS0=    0 NMtDT0=    0
 Petite list used in FoFCou.
 Requested convergence on RMS density matrix=1.00D-08 within 128 cycles.
 Requested convergence on MAX density matrix=1.00D-06.
 Requested convergence on             energy=1.00D-06.
 No special actions if energy rises.
 SCF Done:  E(RM062X) =  -344.440204656     A.U. after   15 cycles
            NFock= 15  Conv=0.63D-08     -V/T= 2.0040
 Calling FoFJK, ICntrl=      2127 FMM=F ISym2X=0 I1Cent= 0 IOpClX= 0 NMat=1 NMatS=1 NMatT=0.
 ***** Axes restored to original set *****
 -------------------------------------------------------------------
 Center     Atomic                   Forces (Hartrees/Bohr)
 Number     Number              X              Y              Z
 -------------------------------------------------------------------
      1        6           0.000477881    0.000632250    0.000363644
      2        1           0.001056122    0.002361797    0.001563477
      3        6           0.010590026    0.035791192    0.002318697
      4        6           0.014496437    0.008732833    0.057151929
      5        8          -0.009846800   -0.011824020   -0.065764060
      6        8          -0.032467562   -0.070438438    0.004675778
      7        6           0.017976076    0.025817093    0.002610383
      8        6          -0.027870584   -0.009249003    0.007873380
      9        1           0.009490983    0.014720000    0.004372006
     10        1           0.003774765    0.006857018   -0.014397305
     11        1           0.003549254    0.008898171   -0.003853889
     12        1           0.005407270   -0.002974387    0.009606177
     13        1           0.003366132   -0.009324506   -0.006520217
 -------------------------------------------------------------------
 Cartesian Forces:  Max     0.070438438 RMS     0.021752350

 GradGradGradGradGradGradGradGradGradGradGradGradGradGradGradGradGradGrad
 Berny optimization.
 Using GEDIIS/GDIIS optimizer.
 FormGI is forming the generalized inverse of G from B-inverse, IUseBI=4.
 Internal  Forces:  Max     0.067238999 RMS     0.016731393
 Search for a local minimum.
 Step number   3 out of a maximum of   58
 All quantities printed in internal units (Hartrees-Bohrs-Radians)
 Mixed Optimization -- RFO/linear search
 Update second derivatives using D2CorX and points    2    3
 DE= -2.28D-02 DEPred=-2.66D-02 R= 8.57D-01
 TightC=F SS=  1.41D+00  RLast= 3.15D-01 DXNew= 5.0454D-01 9.4565D-01
 Trust test= 8.57D-01 RLast= 3.15D-01 DXMaxT set to 5.05D-01
 ITU=  1  0  0
 Use linear search instead of GDIIS.
     Eigenvalues ---   -0.04382  -0.00033   0.00229   0.02429   0.02739
     Eigenvalues ---    0.04187   0.04283   0.04377   0.04518   0.04827
     Eigenvalues ---    0.05381   0.08310   0.08911   0.09772   0.12303
     Eigenvalues ---    0.13077   0.13474   0.14781   0.16919   0.17687
     Eigenvalues ---    0.22837   0.27820   0.31340   0.35366   0.37976
     Eigenvalues ---    0.38108   0.38981   0.39164   0.40166   0.40456
     Eigenvalues ---    0.49733   1.10965   1.27549
 RFO step:  Lambda=-6.59563964D-02 EMin=-4.38198811D-02
 Quartic linear search produced a step of  1.10225.
 Maximum step size (   0.505) exceeded in Quadratic search.
    -- Step size scaled by   0.479
 Iteration  1 RMS(Cart)=  0.17294121 RMS(Int)=  0.05796265
 Iteration  2 RMS(Cart)=  0.14493552 RMS(Int)=  0.02572929
 Iteration  3 RMS(Cart)=  0.08255792 RMS(Int)=  0.00788239
 Iteration  4 RMS(Cart)=  0.00521281 RMS(Int)=  0.00722072
 Iteration  5 RMS(Cart)=  0.00003146 RMS(Int)=  0.00722071
 Iteration  6 RMS(Cart)=  0.00000058 RMS(Int)=  0.00722071
 Variable       Old X    -DE/DX   Delta X   Delta X   Delta X     New X
                                 (Linear)    (Quad)   (Total)
    R1        2.01947  -0.00296  -0.00275  -0.00410  -0.00685   2.01261
    R2        2.26829  -0.00380  -0.00156  -0.00277  -0.00433   2.26397
    R3        2.85790  -0.03956  -0.05165  -0.07175  -0.12339   2.73451
    R4        2.34245  -0.06724  -0.04422  -0.05854  -0.10276   2.23969
    R5        2.57296  -0.03142  -0.00815  -0.03294  -0.04051   2.53244
    R6        2.63353   0.03246   0.03109   0.02879   0.05905   2.69258
    R7        2.89904  -0.01224  -0.01636  -0.02452  -0.04019   2.85885
    R8        2.03186   0.01365   0.01224   0.02070   0.03294   2.06480
    R9        2.02532   0.01366   0.00871   0.01458   0.02329   2.04861
   R10        2.03103   0.00990   0.00974   0.01411   0.02385   2.05488
   R11        2.03201   0.01335   0.01149   0.01533   0.02623   2.05823
   R12        2.03185   0.01158   0.01047   0.01484   0.02531   2.05716
    A1        2.09880   0.00770   0.01000   0.02628   0.03560   2.13440
    A2        2.05130  -0.01758  -0.03735  -0.06746  -0.10550   1.94580
    A3        2.12962   0.00942   0.02355   0.04994   0.07280   2.20243
    A4        2.14303  -0.03685  -0.02790  -0.09819  -0.12779   2.01524
    A5        1.79216   0.01946   0.01601   0.07409   0.10494   1.89710
    A6        1.74964   0.01509  -0.00744   0.03062   0.02563   1.77527
    A7        1.94101   0.00242   0.01195  -0.00147  -0.01365   1.92736
    A8        1.93928   0.00932   0.02062  -0.00591   0.01075   1.95003
    A9        1.87456  -0.00665  -0.01600   0.01685   0.01575   1.89031
   A10        1.91095  -0.00547  -0.00174  -0.00615  -0.00795   1.90300
   A11        1.91829  -0.00016   0.00136   0.00292   0.00569   1.92398
   A12        1.91405   0.00511   0.00625   0.00592   0.01173   1.92577
   A13        1.90609   0.00085  -0.00295  -0.00213  -0.00526   1.90084
   A14        1.90691   0.00011  -0.00219  -0.00037  -0.00251   1.90440
   A15        1.90746  -0.00044  -0.00076  -0.00023  -0.00189   1.90557
   A16        3.14240   0.00071   0.00075   0.00053   0.00129   3.14369
   A17        3.13836   0.00129   0.00114   0.00781   0.00895   3.14731
   A18        2.30516  -0.02995  -0.30087   0.00198  -0.30349   2.00167
   A19        3.14055   0.00072   0.00051   0.00219   0.00271   3.14326
   A20        3.15158   0.00224   0.00597   0.00908   0.01505   3.16663
   A21        3.17431   0.02286   0.09197   0.46619   0.55356   3.72787
    D1       -1.46760  -0.00334   0.02407  -0.14170  -0.10233  -1.56993
    D2        2.79488   0.00816   0.08245  -0.07658  -0.01481   2.78007
    D3        0.68191  -0.00650   0.02939  -0.04684  -0.01206   0.66985
    D4        1.33786  -0.00705  -0.00830  -0.11078  -0.10379   1.23406
    D5       -0.68285   0.00445   0.05008  -0.04566  -0.01627  -0.69912
    D6       -2.79582  -0.01020  -0.00298  -0.01592  -0.01353  -2.80935
    D7        3.12009   0.00088  -0.00842  -0.02187  -0.02815   3.09195
    D8       -1.06937  -0.00158  -0.01230  -0.02652  -0.03606  -1.10543
    D9        1.02798   0.00098  -0.00850  -0.02127  -0.02730   1.00067
   D10       -1.03353   0.00017   0.00336   0.00094   0.00295  -1.03057
   D11        1.06020  -0.00229  -0.00051  -0.00370  -0.00495   1.05524
   D12       -3.12564   0.00027   0.00329   0.00154   0.00380  -3.12185
   D13        1.05372  -0.00041   0.00453   0.01729   0.02084   1.07456
   D14       -3.13574  -0.00287   0.00065   0.01265   0.01293  -3.12281
   D15       -1.03839  -0.00031   0.00445   0.01789   0.02168  -1.01671
         Item               Value     Threshold  Converged?
 Maximum Force            0.067239     0.000015     NO 
 RMS     Force            0.016731     0.000010     NO 
 Maximum Displacement     0.927635     0.000060     NO 
 RMS     Displacement     0.364576     0.000040     NO 
 Predicted change in Energy=-5.430608D-02
 GradGradGradGradGradGradGradGradGradGradGradGradGradGradGradGradGradGrad

                          Input orientation:                          
 ---------------------------------------------------------------------
 Center     Atomic      Atomic             Coordinates (Angstroms)
 Number     Number       Type             X           Y           Z
 ---------------------------------------------------------------------
      1          6           0        0.467913   -1.408951   -0.258138
      2          1           0        0.035701   -2.370079   -0.412134
      3          6           0        0.953062   -0.327736   -0.082343
      4          6           0        1.549065    0.969471    0.154213
      5          8           0        2.045966    1.258468    1.190671
      6          8           0        1.420518    1.770582   -0.912368
      7          6           0        2.459604    2.743438   -0.848723
      8          6           0        3.866857    2.190057   -0.803011
      9          1           0        2.277726    3.394499    0.009712
     10          1           0        2.282113    3.314563   -1.752900
     11          1           0        4.573295    3.016709   -0.807232
     12          1           0        4.012621    1.605810    0.104569
     13          1           0        4.053054    1.557622   -1.669273
 ---------------------------------------------------------------------
                    Distance matrix (angstroms):
                    1          2          3          4          5
     1  C    0.000000
     2  H    1.065030   0.000000
     3  C    1.198039   2.263067   0.000000
     4  C    2.644960   3.709933   1.447040   0.000000
     5  O    3.421173   4.447078   2.308907   1.185190   0.000000
     6  O    3.383031   4.394658   2.304429   1.340112   2.253047
     7  C    4.643055   5.675735   3.505584   2.232022   2.556435
     8  C    4.980217   5.968700   3.917761   2.788955   2.856268
     9  H    5.140068   6.199596   3.951993   2.536256   2.451735
    10  H    5.276098   6.257728   4.221786   3.110289   3.598319
    11  H    6.061528   7.054313   4.981653   3.776444   3.670206
    12  H    4.667472   5.647173   3.624147   2.544898   2.273323
    13  H    4.862622   5.757287   3.960161   3.152933   3.506732
                    6          7          8          9         10
     6  O    0.000000
     7  C    1.424851   0.000000
     8  C    2.484450   1.512839   0.000000
     9  H    2.054786   1.092644   2.153261   0.000000
    10  H    1.957732   1.084077   2.162919   1.764429   0.000000
    11  H    3.391738   2.131687   1.087393   2.465716   2.496502
    12  H    2.789321   2.148215   1.089170   2.493646   3.060178
    13  H    2.747454   2.149081   1.088602   3.056943   2.496011
                   11         12         13
    11  H    0.000000
    12  H    1.770980   0.000000
    13  H    1.772766   1.774956   0.000000
 Stoichiometry    C5H6O2
 Framework group  C1[X(C5H6O2)]
 Deg. of freedom    33
 Full point group                 C1      NOp   1
 Largest Abelian subgroup         C1      NOp   1
 Largest concise Abelian subgroup C1      NOp   1
                         Standard orientation:                         
 ---------------------------------------------------------------------
 Center     Atomic      Atomic             Coordinates (Angstroms)
 Number     Number       Type             X           Y           Z
 ---------------------------------------------------------------------
      1          6           0        2.895290   -0.368403   -0.429224
      2          1           0        3.889094   -0.619674   -0.718195
      3          6           0        1.778340   -0.083589   -0.102727
      4          6           0        0.434134    0.286666    0.284505
      5          8           0        0.076093    1.415634    0.328249
      6          8           0       -0.295899   -0.788251    0.612382
      7          6           0       -1.667655   -0.451244    0.425541
      8          6           0       -2.041697    0.003820   -0.967905
      9          1           0       -1.945490    0.306820    1.161759
     10          1           0       -2.160491   -1.379810    0.690310
     11          1           0       -3.113350    0.184110   -1.006374
     12          1           0       -1.519346    0.926887   -1.215673
     13          1           0       -1.782446   -0.760891   -1.698015
 ---------------------------------------------------------------------
 Rotational constants (GHZ):           6.0792363           1.7047437           1.6027332
 Standard basis: 6-311++G(d,p) (5D, 7F)
 There are   203 symmetry adapted cartesian basis functions of A   symmetry.
 There are   196 symmetry adapted basis functions of A   symmetry.
   196 basis functions,   306 primitive gaussians,   203 cartesian basis functions
    26 alpha electrons       26 beta electrons
       nuclear repulsion energy       282.7189952644 Hartrees.
 NAtoms=   13 NActive=   13 NUniq=   13 SFac= 1.00D+00 NAtFMM=   60 NAOKFM=F Big=F
 Integral buffers will be    131072 words long.
 Raffenetti 2 integral format.
 Two-electron integral symmetry is turned on.
 One-electron integrals computed using PRISM.
 NBasis=   196 RedAO= T EigKep=  8.83D-06  NBF=   196
 NBsUse=   195 1.00D-06 EigRej=  7.68D-07 NBFU=   195
 Initial guess from the checkpoint file:  "ethyl_propiolate_non_planar.chk"
 B after Tr=    -0.000000    0.000000   -0.000000
         Rot=    0.954809   -0.294872    0.006065   -0.036784 Ang= -34.58 deg.
 ExpMin= 3.60D-02 ExpMax= 8.59D+03 ExpMxC= 1.30D+03 IAcc=3 IRadAn=         5 AccDes= 0.00D+00
 Harris functional with IExCor= 1009 and IRadAn=       5 diagonalized for initial guess.
 HarFok:  IExCor= 1009 AccDes= 0.00D+00 IRadAn=         5 IDoV= 1 UseB2=F ITyADJ=14
 ICtDFT=  3500011 ScaDFX=  1.000000  1.000000  1.000000  1.000000
 FoFCou: FMM=F IPFlag=           0 FMFlag=      100000 FMFlg1=           0
         NFxFlg=           0 DoJE=T BraDBF=F KetDBF=T FulRan=T
         wScrn=  0.000000 ICntrl=       500 IOpCl=  0 I1Cent=   200000004 NGrid=           0
         NMat0=    1 NMatS0=      1 NMatT0=    0 NMatD0=    1 NMtDS0=    0 NMtDT0=    0
 Petite list used in FoFCou.
 Requested convergence on RMS density matrix=1.00D-08 within 128 cycles.
 Requested convergence on MAX density matrix=1.00D-06.
 Requested convergence on             energy=1.00D-06.
 No special actions if energy rises.
 SCF Done:  E(RM062X) =  -344.467167873     A.U. after   15 cycles
            NFock= 15  Conv=0.48D-08     -V/T= 2.0029
 Calling FoFJK, ICntrl=      2127 FMM=F ISym2X=0 I1Cent= 0 IOpClX= 0 NMat=1 NMatS=1 NMatT=0.
 ***** Axes restored to original set *****
 -------------------------------------------------------------------
 Center     Atomic                   Forces (Hartrees/Bohr)
 Number     Number              X              Y              Z
 -------------------------------------------------------------------
      1        6          -0.000303486   -0.001064651    0.000084346
      2        1           0.000184259    0.000096030    0.000117559
      3        6          -0.005570958   -0.006501391   -0.003182100
      4        6          -0.031627887   -0.017010759   -0.011058532
      5        8           0.012013325    0.007263571    0.019517800
      6        8           0.019464571   -0.015188200    0.012001668
      7        6          -0.002294265    0.031801947   -0.009240790
      8        6          -0.003141808   -0.006713106   -0.000910432
      9        1           0.000166564   -0.000232722   -0.000597471
     10        1           0.003849600    0.005188420   -0.002639488
     11        1           0.001165574    0.001550597   -0.000567080
     12        1           0.004356514    0.001691916   -0.001522033
     13        1           0.001737997   -0.000881652   -0.002003447
 -------------------------------------------------------------------
 Cartesian Forces:  Max     0.031801947 RMS     0.010217254

 GradGradGradGradGradGradGradGradGradGradGradGradGradGradGradGradGradGrad
 Berny optimization.
 Using GEDIIS/GDIIS optimizer.
 FormGI is forming the generalized inverse of G from B-inverse, IUseBI=4.
 Internal  Forces:  Max     0.069505937 RMS     0.011857694
 Search for a local minimum.
 Step number   4 out of a maximum of   58
 All quantities printed in internal units (Hartrees-Bohrs-Radians)
 Mixed Optimization -- RFO/linear search
 Update second derivatives using D2CorX and points    3    4
 DE= -2.70D-02 DEPred=-5.43D-02 R= 4.97D-01
 Trust test= 4.97D-01 RLast= 7.12D-01 DXMaxT set to 5.05D-01
 ITU=  0  1  0  0
 Use linear search instead of GDIIS.
     Eigenvalues ---   -0.00038   0.00230   0.02622   0.02739   0.04117
     Eigenvalues ---    0.04259   0.04326   0.04478   0.04777   0.05339
     Eigenvalues ---    0.08280   0.08527   0.09145   0.12245   0.12933
     Eigenvalues ---    0.13323   0.14544   0.16806   0.17614   0.20172
     Eigenvalues ---    0.22485   0.27821   0.31917   0.35526   0.38035
     Eigenvalues ---    0.38257   0.38993   0.39173   0.40200   0.40663
     Eigenvalues ---    0.51638   1.11398   1.92897
 RFO step:  Lambda=-2.44820776D-02 EMin=-3.83645495D-04
 Quartic linear search produced a step of -0.16499.
 Maximum step size (   0.505) exceeded in Quadratic search.
    -- Step size scaled by   0.697
 Iteration  1 RMS(Cart)=  0.13355702 RMS(Int)=  0.03804277
 Iteration  2 RMS(Cart)=  0.08046547 RMS(Int)=  0.00361473
 Iteration  3 RMS(Cart)=  0.00439777 RMS(Int)=  0.00264651
 Iteration  4 RMS(Cart)=  0.00002344 RMS(Int)=  0.00264650
 Iteration  5 RMS(Cart)=  0.00000035 RMS(Int)=  0.00264650
 Variable       Old X    -DE/DX   Delta X   Delta X   Delta X     New X
                                 (Linear)    (Quad)   (Total)
    R1        2.01261  -0.00018   0.00113  -0.00410  -0.00297   2.00964
    R2        2.26397   0.00089   0.00071  -0.00203  -0.00132   2.26265
    R3        2.73451   0.00953   0.02036  -0.05306  -0.03271   2.70180
    R4        2.23969   0.02387   0.01695  -0.03335  -0.01640   2.22329
    R5        2.53244   0.01197   0.00668  -0.03729  -0.03016   2.50228
    R6        2.69258   0.02709  -0.00974   0.04793   0.03793   2.73051
    R7        2.85885   0.00313   0.00663  -0.01596  -0.00980   2.84905
    R8        2.06480  -0.00064  -0.00543   0.01352   0.00809   2.07288
    R9        2.04861   0.00430  -0.00384   0.01687   0.01303   2.06164
   R10        2.05488   0.00194  -0.00393   0.01682   0.01289   2.06776
   R11        2.05823  -0.00025  -0.00433   0.00877   0.00489   2.06312
   R12        2.05716   0.00240  -0.00418   0.01519   0.01101   2.06817
    A1        2.13440   0.00334  -0.00587   0.02416   0.01814   2.15255
    A2        1.94580   0.00039   0.01741  -0.07476  -0.05750   1.88830
    A3        2.20243  -0.00261  -0.01201   0.05205   0.03990   2.24232
    A4        2.01524  -0.00161   0.02108  -0.08603  -0.06300   1.95224
    A5        1.89710   0.00361  -0.01731   0.09314   0.07115   1.96825
    A6        1.77527   0.00456  -0.00423   0.02513   0.01501   1.79028
    A7        1.92736  -0.00206   0.00225  -0.00240   0.00520   1.93256
    A8        1.95003  -0.00718  -0.00177  -0.06206  -0.06005   1.88998
    A9        1.89031   0.00365  -0.00260   0.04365   0.03392   1.92423
   A10        1.90300  -0.00178   0.00131  -0.02168  -0.02020   1.88280
   A11        1.92398   0.00211  -0.00094   0.02920   0.02706   1.95104
   A12        1.92577   0.00209  -0.00193   0.01152   0.00963   1.93540
   A13        1.90084  -0.00208   0.00087  -0.01631  -0.01510   1.88573
   A14        1.90440  -0.00087   0.00041  -0.00673  -0.00633   1.89807
   A15        1.90557   0.00044   0.00031   0.00329   0.00370   1.90927
   A16        3.14369  -0.00006  -0.00021   0.00100   0.00078   3.14447
   A17        3.14731   0.00000  -0.00148   0.01383   0.01236   3.15966
   A18        2.00167   0.06951   0.05007   0.25847   0.31025   2.31192
   A19        3.14326   0.00018  -0.00045   0.00102   0.00057   3.14383
   A20        3.16663   0.00095  -0.00248   0.01516   0.01268   3.17931
   A21        3.72787  -0.01134  -0.09133   0.37594   0.28909   4.01697
    D1       -1.56993  -0.00156   0.01688   0.16346   0.17937  -1.39056
    D2        2.78007  -0.00283   0.00244   0.16449   0.17297   2.95304
    D3        0.66985   0.00217   0.00199   0.25077   0.24770   0.91755
    D4        1.23406  -0.00216   0.01712   0.26304   0.27919   1.51325
    D5       -0.69912  -0.00343   0.00268   0.26407   0.27279  -0.42633
    D6       -2.80935   0.00157   0.00223   0.35034   0.34752  -2.46183
    D7        3.09195  -0.00144   0.00464  -0.06304  -0.05627   3.03568
    D8       -1.10543  -0.00382   0.00595  -0.07878  -0.07129  -1.17672
    D9        1.00067  -0.00054   0.00450  -0.04824  -0.04173   0.95894
   D10       -1.03057   0.00048  -0.00049  -0.00551  -0.00553  -1.03610
   D11        1.05524  -0.00189   0.00082  -0.02125  -0.02055   1.03469
   D12       -3.12185   0.00139  -0.00063   0.00929   0.00900  -3.11284
   D13        1.07456  -0.00110  -0.00344   0.00668   0.00093   1.07549
   D14       -3.12281  -0.00348  -0.00213  -0.00906  -0.01409  -3.13690
   D15       -1.01671  -0.00020  -0.00358   0.02147   0.01547  -1.00125
         Item               Value     Threshold  Converged?
 Maximum Force            0.069506     0.000015     NO 
 RMS     Force            0.011858     0.000010     NO 
 Maximum Displacement     0.778160     0.000060     NO 
 RMS     Displacement     0.188715     0.000040     NO 
 Predicted change in Energy=-1.318800D-02
 GradGradGradGradGradGradGradGradGradGradGradGradGradGradGradGradGradGrad

                          Input orientation:                          
 ---------------------------------------------------------------------
 Center     Atomic      Atomic             Coordinates (Angstroms)
 Number     Number       Type             X           Y           Z
 ---------------------------------------------------------------------
      1          6           0        0.415886   -1.428581   -0.255794
      2          1           0        0.013963   -2.396540   -0.435936
      3          6           0        0.867023   -0.338853   -0.049402
      4          6           0        1.412895    0.949732    0.243355
      5          8           0        1.634182    1.324985    1.336241
      6          8           0        1.596999    1.590362   -0.900794
      7          6           0        2.515718    2.701380   -0.803849
      8          6           0        3.952078    2.250751   -0.886404
      9          1           0        2.351145    3.311414    0.092819
     10          1           0        2.285924    3.278578   -1.700651
     11          1           0        4.583172    3.144121   -0.916629
     12          1           0        4.242436    1.660917   -0.014784
     13          1           0        4.126075    1.666186   -1.795130
 ---------------------------------------------------------------------
                    Distance matrix (angstroms):
                    1          2          3          4          5
     1  C    0.000000
     2  H    1.063456   0.000000
     3  C    1.197342   2.260796   0.000000
     4  C    2.626699   3.689985   1.429733   0.000000
     5  O    3.406016   4.428936   2.297150   1.176513   0.000000
     6  O    3.305309   4.314798   2.231502   1.324152   2.253028
     7  C    4.665429   5.690599   3.539830   2.319725   2.692871
     8  C    5.141965   6.108108   4.113901   3.068624   3.342131
     9  H    5.131697   6.190537   3.943006   2.545686   2.450722
    10  H    5.267068   6.242458   4.222051   3.156718   3.669334
    11  H    6.221943   7.197754   5.166523   4.026358   4.132944
    12  H    4.923979   5.875399   3.923480   2.928946   2.956537
    13  H    5.070764   5.938234   4.205849   3.468440   4.016396
                    6          7          8          9         10
     6  O    0.000000
     7  C    1.444923   0.000000
     8  C    2.445959   1.507651   0.000000
     9  H    2.125564   1.096922   2.155660   0.000000
    10  H    1.991096   1.090971   2.120258   1.794956   0.000000
    11  H    3.366251   2.117335   1.094214   2.455385   2.431074
    12  H    2.790758   2.164889   1.091758   2.512509   3.047445
    13  H    2.683619   2.155810   1.094428   3.069446   2.448447
                   11         12         13
    11  H    0.000000
    12  H    1.768989   0.000000
    13  H    1.779043   1.784152   0.000000
 Stoichiometry    C5H6O2
 Framework group  C1[X(C5H6O2)]
 Deg. of freedom    33
 Full point group                 C1      NOp   1
 Largest Abelian subgroup         C1      NOp   1
 Largest concise Abelian subgroup C1      NOp   1
                         Standard orientation:                         
 ---------------------------------------------------------------------
 Center     Atomic      Atomic             Coordinates (Angstroms)
 Number     Number       Type             X           Y           Z
 ---------------------------------------------------------------------
      1          6           0        2.863938   -0.697980   -0.207214
      2          1           0        3.819234   -1.144438   -0.345144
      3          6           0        1.789965   -0.191841   -0.052189
      4          6           0        0.521472    0.448979    0.104050
[...]
 --------------------------                            --------------------------
 ! Name  Definition              Value          Derivative Info.                !
 --------------------------------------------------------------------------------
 ! R1    R(1,2)                  1.0648         -DE/DX =    0.0                 !
 ! R2    R(1,3)                  1.198          -DE/DX =    0.0                 !
 ! R3    R(3,4)                  1.4568         -DE/DX =    0.0                 !
 ! R4    R(4,5)                  1.1998         -DE/DX =    0.0                 !
 ! R5    R(4,6)                  1.3332         -DE/DX =    0.0                 !
 ! R6    R(6,7)                  1.4421         -DE/DX =    0.0                 !
 ! R7    R(7,8)                  1.5161         -DE/DX =    0.0                 !
 ! R8    R(7,9)                  1.0906         -DE/DX =    0.0                 !
 ! R9    R(7,10)                 1.0885         -DE/DX =    0.0                 !
 ! R10   R(8,11)                 1.0917         -DE/DX =    0.0                 !
 ! R11   R(8,12)                 1.0901         -DE/DX =    0.0                 !
 ! R12   R(8,13)                 1.091          -DE/DX =    0.0                 !
 ! A1    A(3,4,5)              123.7101         -DE/DX =    0.0                 !
 ! A2    A(3,4,6)              111.0174         -DE/DX =    0.0                 !
 ! A3    A(5,4,6)              125.2718         -DE/DX =    0.0                 !
 ! A4    A(6,7,8)              111.0707         -DE/DX =    0.0                 !
 ! A5    A(6,7,9)              108.6905         -DE/DX =    0.0                 !
 ! A6    A(6,7,10)             104.0232         -DE/DX =    0.0                 !
 ! A7    A(8,7,9)              111.5042         -DE/DX =    0.0                 !
 ! A8    A(8,7,10)             111.7187         -DE/DX =    0.0                 !
 ! A9    A(9,7,10)             109.5399         -DE/DX =    0.0                 !
 ! A10   A(7,8,11)             109.5534         -DE/DX =    0.0                 !
 ! A11   A(7,8,12)             110.6988         -DE/DX =    0.0                 !
 ! A12   A(7,8,13)             110.4018         -DE/DX =    0.0                 !
 ! A13   A(11,8,12)            108.3907         -DE/DX =    0.0                 !
 ! A14   A(11,8,13)            108.4715         -DE/DX =    0.0                 !
 ! A15   A(12,8,13)            109.2695         -DE/DX =    0.0                 !
 ! A16   L(2,1,3,13,-1)        179.9989         -DE/DX =    0.0                 !
 ! A17   L(1,3,4,13,-1)        181.4481         -DE/DX =    0.0                 !
 ! A18   L(4,6,7,12,-1)        133.5619         -DE/DX =    0.0                 !
 ! A19   L(2,1,3,13,-2)        179.9211         -DE/DX =    0.0                 !
 ! A20   L(1,3,4,13,-2)        182.8751         -DE/DX =    0.0                 !
 ! A21   L(4,6,7,12,-2)        227.3683         -DE/DX =    0.0                 !
 ! D1    D(3,4,7,8)           -108.4916         -DE/DX =    0.0                 !
 ! D2    D(3,4,7,9)            140.413          -DE/DX =    0.0                 !
 ! D3    D(3,4,7,10)            27.7964         -DE/DX =    0.0                 !
 ! D4    D(5,4,7,8)             71.2481         -DE/DX =    0.0                 !
 ! D5    D(5,4,7,9)            -39.8472         -DE/DX =    0.0                 !
 ! D6    D(5,4,7,10)          -152.4639         -DE/DX =    0.0                 !
 ! D7    D(6,7,8,11)           175.7793         -DE/DX =    0.0                 !
 ! D8    D(6,7,8,12)           -64.7418         -DE/DX =    0.0                 !
 ! D9    D(6,7,8,13)            56.3845         -DE/DX =    0.0                 !
 ! D10   D(9,7,8,11)           -62.8274         -DE/DX =    0.0                 !
 ! D11   D(9,7,8,12)            56.6516         -DE/DX =    0.0                 !
 ! D12   D(9,7,8,13)           177.7779         -DE/DX =    0.0                 !
 ! D13   D(10,7,8,11)           60.1219         -DE/DX =    0.0                 !
 ! D14   D(10,7,8,12)          179.6009         -DE/DX =    0.0                 !
 ! D15   D(10,7,8,13)          -59.2728         -DE/DX =    0.0                 !
 --------------------------------------------------------------------------------
 GradGradGradGradGradGradGradGradGradGradGradGradGradGradGradGradGradGrad


 ----------------------------------------------------------------------

 Electric dipole moment (input orientation):
 (Debye = 10**-18 statcoulomb cm , SI units = C m)
                  (au)            (Debye)         (10**-30 SI)
   Tot        0.724094D+00      0.184046D+01      0.613913D+01
   x          0.127281D-01      0.323516D-01      0.107913D+00
   y          0.653292D-01      0.166050D+00      0.553884D+00
   z         -0.721029D+00     -0.183267D+01     -0.611314D+01

 Dipole polarizability, Alpha (input orientation).
 (esu units = cm**3 , SI units = C**2 m**2 J**-1)
 Alpha(0;0):
               (au)            (10**-24 esu)      (10**-40 SI)
   iso        0.616289D+02      0.913246D+01      0.101612D+02
   aniso      0.392161D+02      0.581122D+01      0.646586D+01
   xx         0.586291D+02      0.868793D+01      0.966663D+01
   yx         0.201030D+02      0.297895D+01      0.331453D+01
   yy         0.731829D+02      0.108446D+02      0.120662D+02
   zx         0.618944D+00      0.917181D-01      0.102050D+00
   zy        -0.534237D+00     -0.791658D-01     -0.880838D-01
   zz         0.530747D+02      0.786485D+01      0.875083D+01

 ----------------------------------------------------------------------

 Dipole orientation:
     6          0.33328240          2.73388234          0.11529315
     1         -0.72280385          4.44575759          0.16881222
     6          1.52057905          0.80720781          0.05617737
     6          2.97627586         -1.52245124         -0.12485378
     8          3.77012090         -2.36176972         -2.07564500
     8          3.28451605         -2.57396270          2.14384917
     6          4.72457188         -4.88663612          2.20737340
     6          7.53740177         -4.35170984          2.10483908
     1          4.12506316         -6.08124989          0.63863946
     1          4.18089739         -5.76361790          3.98681403
     1          8.58385771         -6.11910636          2.29817684
     1          8.04901588         -3.48687485          0.30655343
     1          8.08670272         -3.09555890          3.64462027

 Electric dipole moment (dipole orientation):
 (Debye = 10**-18 statcoulomb cm , SI units = C m)
                  (au)            (Debye)         (10**-30 SI)
   Tot        0.724094D+00      0.184046D+01      0.613913D+01
   x          0.000000D+00      0.000000D+00      0.000000D+00
   y          0.000000D+00      0.000000D+00      0.000000D+00
   z          0.724094D+00      0.184046D+01      0.613913D+01

 Dipole polarizability, Alpha (dipole orientation).
 (esu units = cm**3 , SI units = C**2 m**2 J**-1)
 Alpha(0;0):
               (au)            (10**-24 esu)      (10**-40 SI)
   iso        0.616289D+02      0.913246D+01      0.101612D+02
   aniso      0.392161D+02      0.581122D+01      0.646586D+01
   xx         0.586172D+02      0.868617D+01      0.966467D+01
   yx        -0.200441D+02     -0.297023D+01     -0.330482D+01
   yy         0.728913D+02      0.108014D+02      0.120182D+02
   zx         0.129204D+01      0.191461D+00      0.213029D+00
   zy        -0.268415D+01     -0.397749D+00     -0.442556D+00
   zz         0.533781D+02      0.790983D+01      0.880087D+01

 ----------------------------------------------------------------------
 1\1\GINC-AJ\Freq\RM062X\6-311++G(d,p)\C5H6O2\AAYUSH\23-May-2025\0\\#N 
 Geom=AllCheck Guess=TCheck SCRF=Check GenChk RM062X/6-311++G(d,p) Freq
 \\Title Card Required\\0,1\C,0.178560199,-1.4354432938,-0.1881769597\H
 ,-0.3789923806,-2.3346346134,-0.307932449\C,0.8053931947,-0.4233710766
 ,-0.0539966041\C,1.5729319533,0.7951480758,0.1661619398\O,1.9744527246
 ,1.1440135206,1.2415620942\O,1.7566813355,1.4575004851,-0.9762315543\C
 ,2.5182264832,2.6787503748,-0.8858947212\C,4.0057526931,2.3907559746,-
 0.8312403036\H,2.1859347869,3.2336897822,-0.0078124166\H,2.2467541753,
 3.2261215306,-1.7867348303\H,4.5604827948,3.3309978901,-0.8390016034\H
 ,4.2600816025,1.8489001655,0.0798116542\H,4.3112362576,1.8020241245,-1
 .6974713459\\Version=ES64L-G16RevA.03\State=1-A\HF=-344.4775594\RMSD=3
 .954e-09\RMSF=1.398e-06\ZeroPoint=0.1010665\Thermal=0.1085349\Dipole=0
 .0127281,0.0653292,-0.7210288\DipoleDeriv=-0.1913046,-0.0521996,-0.003
 6776,-0.0614785,-0.2374808,-0.0036963,-0.0041973,-0.00101,-0.1658357,0
 .2263123,0.0260648,0.0034395,0.0285755,0.252403,0.0002091,0.0053029,0.
 0026698,0.2275973,-0.251429,-0.2434964,-0.0253146,-0.2631722,-0.494926
 7,-0.0313323,-0.0252633,-0.0379614,-0.1304852,0.8811263,0.7336926,0.14
 05063,0.8424905,1.7165313,-0.1843164,-0.1505029,-0.4917386,1.872119,-0
 .5394474,-0.2315135,-0.2309608,-0.2647749,-0.7081566,-0.1925362,-0.081
 058,-0.005798,-1.109982,-0.6761226,-0.4661,0.1542483,-0.585099,-1.2130
 434,0.4885017,0.2814754,0.5626542,-1.0072251,0.5992769,0.2926557,-0.07
 30998,0.3153211,0.733945,-0.1829726,-0.0308968,-0.0390781,0.2745355,-0
 .1132617,-0.0242011,-0.0101027,0.0132309,-0.0373864,0.066362,-0.009202
 ,0.0178829,0.0323414,-0.0238114,-0.0007013,0.0580496,-0.0191653,-0.010
 8764,0.0065178,0.0415355,-0.0986035,-0.0010647,-0.0006063,0.0011611,-0
 .0402929,-0.020424,-0.009667,0.0599431,-0.0404999,0.101343,-0.0349391,
 0.0013305,-0.0810827,0.0205867,-0.0900858,-0.069871,0.0024346,0.006506
 6,0.0041017,0.0954255,0.0609903,0.0313634,0.0011619,0.0499349,0.044970
 8,0.0530465,-0.0408745,0.0613638,-0.0179789,0.0269467,0.0143569,0.0054
 559,0.0546468,0.0335582,-0.0821609,0.0476742,-0.0758258,-0.034508\Pola
 r=58.6290631,20.1029846,73.1829322,0.6189442,-0.5342373,53.0746603\Qua
 drupole=0.7862269,5.3214588,-6.1076857,4.4110275,-0.814536,-0.6824312\
 PG=C01 [X(C5H6O2)]\NImag=0\\0.47369680,0.66738097,1.13640286,0.0888995
 1,0.14477184,0.07527055,-0.13768742,-0.17454811,-0.02297956,0.12660417
 ,-0.17448723,-0.31061398,-0.03816353,0.17561947,0.30071973,-0.02294387
 ,-0.03811416,-0.03155367,0.02323353,0.03809205,0.02132397,-0.33845567,
 -0.49138899,-0.06538197,0.00815539,0.00087378,0.00001788,0.45322942,-0
 .49110037,-0.82661623,-0.10519471,0.00098916,0.00887710,0.00092675,0.6
 3001744,1.07963633,-0.06637274,-0.10689314,-0.04845583,-0.00013665,0.0
 0067663,0.00467537,0.08962476,0.12997845,0.12829003,0.00414885,0.00227
 488,-0.00047086,0.00384148,-0.00316681,-0.00071389,-0.12670270,-0.0847
 6434,-0.01107077,0.37928794,0.00218411,0.00671918,-0.00091880,-0.00331
 019,0.00063643,-0.00103008,-0.08665269,-0.21186724,-0.02248321,0.22666
 952,0.56467067,-0.00057147,-0.00110368,0.00270228,-0.00021117,-0.00023
 016,0.00552293,-0.00556636,-0.01252340,-0.06126431,0.17984098,0.092566
 08,0.90627529,-0.00066433,-0.00156590,0.00045649,-0.00049429,0.0005619
 3,0.00101293,0.00024589,-0.02718327,-0.03082765,-0.16624923,-0.0820171
 3,-0.20419326,0.14124900,-0.00170615,-0.00276209,0.00040391,0.00079957
 ,-0.00004356,0.00129376,-0.02821821,-0.01384804,-0.03905629,-0.0836336
 4,-0.16639637,-0.18368241,0.10577556,0.15385342,0.00096167,0.00120456,
 0.00151234,0.00017503,-0.00009516,0.00024230,-0.02725259,-0.03313826,-
 0.01965227,-0.20038161,-0.17387886,-0.61820059,0.24435390,0.19500958,0
 .74614454,-0.00129381,-0.00270821,-0.00067817,-0.00017347,0.00059103,-
 0.00064633,-0.00098998,-0.02677135,0.01931113,-0.08811735,-0.04035429,
 0.02292979,0.03154915,0.00345680,-0.01325148,0.18197697,-0.00264306,-0
 .00366376,-0.00096163,0.00041098,0.00067041,-0.00105007,-0.02276951,-0
 .03863672,0.03522277,-0.03826107,-0.15515829,0.09101741,0.00456838,0.0
 2922398,0.02084646,0.16290000,0.38550281,-0.00039221,-0.00041632,0.000
 09028,-0.00014881,-0.00026913,-0.00041005,0.00840470,0.01713033,0.0002
 0026,0.01158398,0.06881917,-0.23940152,-0.01378047,0.02168920,-0.10854
 018,-0.00361036,-0.11022037,0.43209451,0.00050660,0.00102365,0.0003057
 2,-0.00026737,-0.00006698,0.00009379,0.00518381,0.00021973,-0.00186665
 ,-0.00449307,-0.01552158,0.01835014,-0.00525372,0.00339897,-0.00980350
 ,-0.09653683,-0.05369364,-0.00707089,0.47939894,0.00084594,0.00111559,
 0.00020071,-0.00000768,-0.00037279,-0.00005525,-0.00184887,0.00432864,
 0.00106272,-0.01475712,-0.03902215,0.03633110,-0.00186468,-0.00406828,
 -0.01757801,-0.05034971,-0.15472151,-0.00877360,-0.06392850,0.50865458
 ,0.00042831,0.00046839,0.00041007,0.00007766,0.00000795,0.00020996,0.0
 0013526,0.00336065,-0.00390047,0.02100328,0.03573852,0.00645887,0.0003
 4816,-0.00000373,-0.00168730,-0.01923892,-0.02746060,-0.09444128,-0.00
 693910,-0.01775433,0.65760762,-0.00000281,-0.00005976,-0.00000372,-0.0
 0002244,0.00004519,-0.00000995,0.00017270,-0.00077958,0.00009639,-0.00
 003189,0.00112106,-0.00085315,-0.00193204,0.00009488,0.00065292,-0.026
 21646,-0.01076865,-0.00056895,-0.20236079,0.03588316,-0.00387881,0.492
 59339,-0.00023583,-0.00030368,-0.00004753,-0.00003743,0.00011466,-0.00
 000230,0.00118196,-0.00129806,0.00023232,-0.00303671,0.00267442,-0.008
 63500,0.00102826,0.00138731,0.00322818,-0.04579365,-0.00687152,0.00325
 755,0.04791815,-0.08712972,0.00224537,0.01400768,0.58658782,-0.0000971
 9,0.00000284,0.00000984,0.00000932,-0.00000484,0.00000746,0.00017266,-
 0.00026059,-0.00008471,0.00198197,0.00040968,0.00129653,-0.00132359,-0
 .00012180,0.00042085,-0.00139226,-0.00102964,0.00200822,-0.00408596,0.
 00271521,-0.08587284,-0.00212031,-0.00073893,0.58911988,-0.00004915,-0
 .00013419,-0.00000796,0.00003258,0.00001360,0.00000442,-0.00057024,0.0
 0006595,0.00000854,0.00154392,0.00079873,-0.00251057,-0.00031057,-0.00
 058413,0.00113073,0.00219488,-0.01923263,-0.01606366,-0.07757278,0.044
 94050,0.07122647,-0.01044229,0.01712894,0.02767469,0.08589360,-0.00001
 845,0.00001005,0.00003250,0.00004719,0.00000565,-0.00003121,-0.0005337
 7,0.00008806,0.00040495,-0.00046227,0.00121467,-0.00964984,0.00154365,
 0.00136075,0.00367939,-0.00095397,-0.03206379,-0.02127595,0.04072474,-
 0.11294918,-0.10014369,0.00306969,-0.00088481,-0.00443021,-0.03873589,
 0.13146271,-0.00008544,-0.00000545,0.00004179,-0.00001704,0.00002148,0
 .00000907,0.00041646,-0.00067540,-0.00021593,0.00052858,0.00255986,-0.
 00031125,0.00016771,0.00228469,-0.00075305,-0.00427556,-0.00317419,0.0
 0211695,0.06886532,-0.11130019,-0.23155294,-0.00093632,0.00251653,0.00
 329510,-0.07299051,0.11923958,0.24414828,-0.00017080,-0.00022501,-0.00
 011015,0.00001909,0.00001812,-0.00002991,-0.00031260,-0.00044357,0.000
 77283,-0.00088699,-0.00313281,-0.00151473,0.00039703,0.00001244,0.0006
 9577,0.00029695,-0.01804789,0.01897697,-0.06677789,0.04080278,-0.06192
 786,-0.00847829,0.01655810,-0.02887836,0.00335989,-0.00527299,0.008467
 37,0.07660826,-0.00022970,-0.00033437,-0.00014876,0.00003989,0.0000238
 4,-0.00004289,-0.00074167,-0.00072255,0.00118735,-0.00139886,-0.003645
 65,-0.00643904,0.00101034,0.00209078,0.00119068,-0.00291031,-0.0291734
 2,0.03055179,0.03561985,-0.11054207,0.10376284,0.00308813,-0.00149528,
 0.00479319,-0.00451456,0.01096120,-0.01234686,-0.03074568,0.13158927,0
 .00005379,0.00001444,-0.00003618,-0.00000519,-0.00002344,-0.00001343,-
 0.00025302,0.00014335,0.00024058,-0.00122938,-0.00160078,-0.00107008,0
 .00084646,0.00176164,0.00078735,0.00178513,-0.00297474,0.00462971,-0.0
 5607023,0.11470068,-0.24807192,0.00038679,-0.00166754,0.00178987,-0.00
 707336,0.01259487,-0.01836858,0.06207172,-0.12258572,0.25811513,-0.000
 10533,-0.00013840,-0.00002049,0.00000112,0.00004356,-0.00000216,0.0002
 4338,-0.00051037,0.00014365,-0.00051289,0.00148975,-0.00389570,0.00050
 983,0.00038870,0.00140799,-0.00953688,-0.00165142,0.00182837,-0.010629
 08,-0.02958946,0.00043174,-0.11673927,-0.11666667,0.00104773,0.0009134
 1,0.00034061,0.00082704,0.00103840,0.00020046,-0.00076488,0.12608164,-
 0.00000974,0.00001551,0.00002336,0.00002019,0.00000808,0.00000539,-0.0
 0007525,-0.00000437,-0.00015475,0.00092066,0.00038037,0.00035995,-0.00
 043350,-0.00007351,-0.00015598,0.00250421,0.00213100,0.00011483,0.0031
 3096,0.00510279,-0.00006366,-0.11887819,-0.25032728,0.00178447,-0.0007
 2074,0.00021474,-0.00016734,-0.00069354,0.00031497,0.00010562,0.129741
 61,0.26882422,0.00005846,0.00001098,0.00000119,-0.00000259,-0.00000312
 ,-0.00000312,-0.00016193,0.00009955,0.00008016,-0.00065889,-0.00002013
 ,-0.00113579,0.00089058,0.00006313,0.00020967,-0.00084304,-0.00060725,
 0.00150167,-0.00021968,-0.00095676,-0.00220032,0.00108214,0.00223681,-
 0.04560661,-0.00005370,-0.00003010,-0.00002007,0.00018938,-0.00003821,
 -0.00003856,-0.00081721,-0.00204291,0.04494466,0.00007815,0.00012075,0
 .00003144,-0.00000423,-0.00003795,-0.00002590,-0.00013462,0.00020217,0
 .00025725,-0.00182733,-0.00092091,-0.00297568,0.00101633,0.00041874,0.
 00181356,0.00299474,-0.00127220,0.00191426,-0.00914335,0.01968821,-0.0
 3097466,-0.06045131,0.02926712,-0.05009264,0.00146126,-0.00050521,0.00
 021100,-0.00654269,0.00095978,0.00059103,0.00387821,-0.00738706,0.0152
 1596,0.06758057,-0.00000520,0.00000724,0.00000898,-0.00001028,-0.00001
 343,0.00000514,0.00011141,0.00002358,-0.00014270,-0.00042072,0.0000427
 2,0.00102171,-0.00097477,-0.00054970,-0.00002921,0.00046432,0.00114623
 ,-0.00114235,0.00050961,-0.00496571,0.00533589,0.03204291,-0.11604893,
 0.11317384,-0.00006872,-0.00022290,0.00025401,0.00112851,0.00107133,-0
 .00044030,0.00749155,-0.01282070,0.02305345,-0.03497984,0.12196938,0.0
 0002817,-0.00000238,0.00000258,-0.00000432,-0.00000276,-0.00000376,-0.
 00011468,0.00002264,0.00000230,-0.00040344,0.00020462,0.00014620,0.001
 34698,0.00003827,-0.00086559,-0.00033271,-0.00044454,-0.00008540,-0.00
 059254,-0.00035849,0.00060636,-0.05277557,0.11455573,-0.24317895,-0.00
 031035,-0.00029311,0.00051391,0.00072039,-0.00012509,0.00132331,0.0010
 7959,-0.00140982,0.00130342,0.05691730,-0.12541676,0.25922209,-0.00000
 108,-0.00003169,-0.00004027,-0.00000463,-0.00000772,0.00000946,-0.0000
 6479,0.00005839,0.00005991,-0.00000074,-0.00035358,0.00117119,-0.00006
 306,-0.00020353,-0.00050240,0.00385210,0.00046072,-0.00107293,-0.01205
 448,0.02018542,0.02930846,-0.06608849,0.03868009,0.05710396,-0.0064545
 2,0.00075667,-0.00117862,0.00144963,-0.00037767,-0.00033887,0.00485746
 ,-0.00811961,-0.01467949,0.00109429,-0.00528879,-0.00555881,0.07347833
 ,0.00002471,0.00002367,-0.00000633,-0.00001276,-0.00001214,0.00000288,
 0.00004435,0.00003949,-0.00003511,0.00003648,-0.00024875,0.00096727,-0
 .00044888,-0.00017470,-0.00028337,-0.00007487,0.00161459,0.00053485,0.
 00066504,-0.00543017,-0.00549361,0.04113348,-0.12640493,-0.11629323,0.
 00104314,0.00080284,0.00079328,0.00004155,-0.00013808,-0.00002808,0.00
 886008,-0.01376583,-0.02176544,-0.00555362,0.01036089,0.01323169,-0.04
 575871,0.13333310,0.00003301,0.00006207,0.00000477,0.00000979,-0.00000
 598,-0.00000703,-0.00004117,0.00013065,0.00008482,-0.00000995,-0.00036
 606,-0.00101856,0.00070176,0.00032006,0.00038194,0.00024278,0.00083638
 ,0.00023685,-0.00096642,0.00176620,0.00243420,0.05892853,-0.11718119,-
 0.22320464,-0.00103472,-0.00009717,0.00109673,0.00056657,0.00024071,0.
 00071279,-0.00126567,0.00160084,0.00096370,0.00711709,-0.01568171,-0.0
 1898645,-0.06428159,0.12837521,0.23730090\\0.00000071,-0.00000049,0.00
 000093,0.00000040,-0.00000019,0.00000078,0.00000085,-0.00000047,0.0000
 0070,0.00000077,-0.00000060,0.00000066,0.00000314,-0.00000199,0.000000
 53,-0.00000078,0.00000041,0.00000116,-0.00000070,0.00000057,0.00000080
 ,-0.00000072,0.00000050,-0.00000188,0.00000079,-0.00000050,0.00000220,
 -0.00000246,0.00000140,0.00000210,-0.00000075,0.00000047,-0.00000190,0
 .00000098,-0.00000050,-0.00000298,-0.00000222,0.00000138,-0.00000309\\
 \@


 MUD THROWN IS GROUND LOST -- FROM A TEA BAG
 Job cpu time:       0 days  0 hours 20 minutes 24.1 seconds.
 Elapsed time:       0 days  0 hours  0 minutes 51.1 seconds.
 File lengths (MBytes):  RWF=     56 Int=      0 D2E=      0 Chk=      4 Scr=      1
 Normal termination of Gaussian 16 at Fri May 23 11:12:36 2025.
