 Entering Link 1 = C:\G09W\l1.exe PID=     15628.
  
 Copyright (c) 1988,1990,1992,1993,1995,1998,2003,2009,2013,
            Gaussian, Inc.  All Rights Reserved.
  
 This is part of the Gaussian(R) 09 program.  It is based on
 the Gaussian(R) 03 system (copyright 2003, Gaussian, Inc.),
 the Gaussian(R) 98 system (copyright 1998, Gaussian, Inc.),
 the Gaussian(R) 94 system (copyright 1995, Gaussian, Inc.),
 the Gaussian 92(TM) system (copyright 1992, Gaussian, Inc.),
 the Gaussian 90(TM) system (copyright 1990, Gaussian, Inc.),
 the Gaussian 88(TM) system (copyright 1988, Gaussian, Inc.),
 the Gaussian 86(TM) system (copyright 1986, Carnegie Mellon
 University), and the Gaussian 82(TM) system (copyright 1983,
 Carnegie Mellon University). Gaussian is a federally registered
 trademark of Gaussian, Inc.
  
 This software contains proprietary and confidential information,
 including trade secrets, belonging to Gaussian, Inc.
  
 This software is provided under written license and may be
 used, copied, transmitted, or stored only in accord with that
 written license.
  
 The following legend is applicable only to US Government
 contracts under FAR:
  
                    RESTRICTED RIGHTS LEGEND
  
 Use, reproduction and disclosure by the US Government is
 subject to restrictions as set forth in subparagraphs (a)
 and (c) of the Commercial Computer Software - Restricted
 Rights clause in FAR 52.227-19.
  
 Gaussian, Inc.
 340 Quinnipiac St., Bldg. 40, Wallingford CT 06492
  
  
 ---------------------------------------------------------------
 Warning -- This program may not be used in any manner that
 competes with the business of Gaussian, Inc. or will provide
 assistance to any competitor of Gaussian, Inc.  The licensee
 of this program is prohibited from giving any competitor of
 Gaussian, Inc. access to this program.  By using this program,
 the user acknowledges that Gaussian, Inc. is engaged in the
 business of creating and licensing software in the field of
 computational chemistry and represents and warrants to the
 licensee that it is not a competitor of Gaussian, Inc. and that
 it will not use this program in any manner prohibited above.
 ---------------------------------------------------------------
  

 Cite this work as:
 Gaussian 09, Revision D.01,
 M. J. Frisch, G. W. Trucks, H. B. Schlegel, G. E. Scuseria, 
 M. A. Robb, J. R. Cheeseman, G. Scalmani, V. Barone, B. Mennucci, 
 G. A. Petersson, H. Nakatsuji, M. Caricato, X. Li, H. P. Hratchian, 
 A. F. Izmaylov, J. Bloino, G. Zheng, J. L. Sonnenberg, M. Hada, 
 M. Ehara, K. Toyota, R. Fukuda, J. Hasegawa, M. Ishida, T. Nakajima, 
 Y. Honda, O. Kitao, H. Nakai, T. Vreven, J. A. Montgomery, Jr., 
 J. E. Peralta, F. Ogliaro, M. Bearpark, J. J. Heyd, E. Brothers, 
 K. N. Kudin, V. N. Staroverov, T. Keith, R. Kobayashi, J. Normand, 
 K. Raghavachari, A. Rendell, J. C. Burant, S. S. Iyengar, J. Tomasi, 
 M. Cossi, N. Rega, J. M. Millam, M. Klene, J. E. Knox, J. B. Cross, 
 V. Bakken, C. Adamo, J. Jaramillo, R. Gomperts, R. E. Stratmann, 
 O. Yazyev, A. J. Austin, R. Cammi, C. Pomelli, J. W. Ochterski, 
 R. L. Martin, K. Morokuma, V. G. Zakrzewski, G. A. Voth, 
 P. Salvador, J. J. Dannenberg, S. Dapprich, A. D. Daniels, 
 O. Farkas, J. B. Foresman, J. V. Ortiz, J. Cioslowski, 
 and D. J. Fox, Gaussian, Inc., Wallingford CT, 2013.
 
 ******************************************
 Gaussian 09:  IA32W-G09RevD.01 24-Apr-2013
                21-Nov-2024 
 ******************************************
 %chk=OH-radical.chk
 -------------------------
 # CCSD(T)/6-311++G(d,p) SP
 -------------------------
 1/38=1/1;
 2/12=2,17=6,18=5,40=1/2;
 3/5=4,6=6,7=1111,11=9,16=1,25=1,30=1/1,2,3;
 4//1;
 5/5=2,38=5/2;
 8/6=4,9=120000,10=2/1,4;
 9/5=7,14=2/13;
 6/7=2,8=2,9=2,10=2/1;
 99/5=1,9=1/99;
 -------------------
 Title Card Required
 -------------------
 Symbolic Z-matrix:
 Charge =  0 Multiplicity = 2
 O                     0.        0.        0.108 
 H                     0.        0.       -0.86401 
 
                          Input orientation:                          
 ---------------------------------------------------------------------
 Center     Atomic      Atomic             Coordinates (Angstroms)
 Number     Number       Type             X           Y           Z
 ---------------------------------------------------------------------
      1          8           0        0.000000    0.000000    0.108001
      2          1           0        0.000000    0.000000   -0.864012
 ---------------------------------------------------------------------
 Stoichiometry    HO(2)
 Framework group  C*V[C*(HO)]
 Deg. of freedom     1
 Full point group                 C*V     NOp   4
 Largest Abelian subgroup         C2V     NOp   4
 Largest concise Abelian subgroup C1      NOp   1
                         Standard orientation:                         
 ---------------------------------------------------------------------
 Center     Atomic      Atomic             Coordinates (Angstroms)
 Number     Number       Type             X           Y           Z
 ---------------------------------------------------------------------
      1          8           0        0.000000    0.000000    0.108001
      2          1           0        0.000000    0.000000   -0.864012
 ---------------------------------------------------------------------
 Rotational constants (GHZ):      0.0000000    564.1893514    564.1893514
 Standard basis: 6-311++G(d,p) (5D, 7F)
 There are    17 symmetry adapted cartesian basis functions of A1  symmetry.
 There are     1 symmetry adapted cartesian basis functions of A2  symmetry.
 There are     6 symmetry adapted cartesian basis functions of B1  symmetry.
 There are     6 symmetry adapted cartesian basis functions of B2  symmetry.
 There are    16 symmetry adapted basis functions of A1  symmetry.
 There are     1 symmetry adapted basis functions of A2  symmetry.
 There are     6 symmetry adapted basis functions of B1  symmetry.
 There are     6 symmetry adapted basis functions of B2  symmetry.
    29 basis functions,    45 primitive gaussians,    30 cartesian basis functions
     5 alpha electrons        4 beta electrons
       nuclear repulsion energy         4.3553097219 Hartrees.
 NAtoms=    2 NActive=    2 NUniq=    2 SFac= 1.00D+00 NAtFMM=   60 NAOKFM=F Big=F
 Integral buffers will be    262144 words long.
 Raffenetti 2 integral format.
 Two-electron integral symmetry is turned on.
 One-electron integrals computed using PRISM.
 NBasis=    29 RedAO= T EigKep=  1.40D-02  NBF=    16     1     6     6
 NBsUse=    29 1.00D-06 EigRej= -1.00D+00 NBFU=    16     1     6     6
 ExpMin= 3.60D-02 ExpMax= 8.59D+03 ExpMxC= 1.30D+03 IAcc=3 IRadAn=         5 AccDes= 0.00D+00
 Harris functional with IExCor=  205 and IRadAn=       5 diagonalized for initial guess.
 HarFok:  IExCor=  205 AccDes= 0.00D+00 IRadAn=         5 IDoV= 1 UseB2=F ITyADJ=14
 ICtDFT=  3500011 ScaDFX=  1.000000  1.000000  1.000000  1.000000
 FoFCou: FMM=F IPFlag=           0 FMFlag=      100000 FMFlg1=           0
         NFxFlg=           0 DoJE=T BraDBF=F KetDBF=T FulRan=T
         wScrn=  0.000000 ICntrl=     500 IOpCl=  0 I1Cent=   200000004 NGrid=           0
         NMat0=    1 NMatS0=      1 NMatT0=    0 NMatD0=    1 NMtDS0=    0 NMtDT0=    0
 Petite list used in FoFCou.
 Initial guess orbital symmetries:
 Alpha Orbitals:
       Occupied  (SG) (SG) (SG) (PI) (PI)
       Virtual   (SG) (SG) (PI) (PI) (SG) (SG) (SG) (SG) (PI) (PI)
                 (SG) (PI) (PI) (SG) (SG) (DLTA) (DLTA) (PI) (PI)
                 (SG) (PI) (PI) (SG) (SG)
 Beta  Orbitals:
       Occupied  (SG) (SG) (SG) (PI)
       Virtual   (PI) (SG) (SG) (PI) (PI) (SG) (SG) (SG) (SG) (PI)
                 (PI) (SG) (PI) (PI) (SG) (SG) (DLTA) (DLTA) (PI)
                 (PI) (SG) (PI) (PI) (SG) (SG)
 Initial guess <Sx>= 0.0000 <Sy>= 0.0000 <Sz>= 0.5000 <S**2>= 0.7500 S= 0.5000
 Keep R1 and R2 ints in memory in symmetry-blocked form, NReq=943728.
 Requested convergence on RMS density matrix=1.00D-08 within 128 cycles.
 Requested convergence on MAX density matrix=1.00D-06.
 Requested convergence on             energy=1.00D-06.
 No special actions if energy rises.
 SCF Done:  E(UHF) =  -75.4144277980     A.U. after   12 cycles
            NFock= 12  Conv=0.43D-08     -V/T= 2.0005
 <Sx>= 0.0000 <Sy>= 0.0000 <Sz>= 0.5000 <S**2>= 0.7558 S= 0.5029
 <L.S>= 0.000000000000E+00
 Annihilation of the first spin contaminant:
 S**2 before annihilation     0.7558,   after     0.7500
 ExpMin= 3.60D-02 ExpMax= 8.59D+03 ExpMxC= 1.30D+03 IAcc=3 IRadAn=         5 AccDes= 0.00D+00
 HarFok:  IExCor=  205 AccDes= 0.00D+00 IRadAn=         5 IDoV=-2 UseB2=F ITyADJ=14
 ICtDFT= 12500011 ScaDFX=  1.000000  1.000000  1.000000  1.000000
 Range of M.O.s used for correlation:     2    29
 NBasis=    29 NAE=     5 NBE=     4 NFC=     1 NFV=     0
 NROrb=     28 NOA=     4 NOB=     3 NVA=    24 NVB=    25
 Semi-Direct transformation.
 ModeAB=           2 MOrb=             4 LenV=      33393648
 LASXX=        10504 LTotXX=       10504 LenRXX=       10504
 LTotAB=       12338 MaxLAS=       52080 LenRXY=       52080
 NonZer=       56784 LenScr=     1048064 LnRSAI=           0
 LnScr1=           0 LExtra=           0 Total=      1110648
 MaxDsk=          -1 SrtSym=           F ITran=            4
 JobTyp=1 Pass  1:  I=   1 to   4.
 (rs|ai) integrals will be sorted in core.
 ModeAB=           2 MOrb=             3 LenV=      33393648
 LASXX=         8298 LTotXX=        8298 LenRXX=       39060
 LTotAB=        7234 MaxLAS=       39060 LenRXY=        7234
 NonZer=       42588 LenScr=     1048064 LnRSAI=           0
 LnScr1=           0 LExtra=           0 Total=      1094358
 MaxDsk=          -1 SrtSym=           F ITran=            4
 JobTyp=2 Pass  1:  I=   1 to   3.
 (rs|ai) integrals will be sorted in core.
 Spin components of T(2) and E(2):
     alpha-alpha T2 =       0.6181154014D-02 E2=     -0.2753324089D-01
     alpha-beta  T2 =       0.2937930764D-01 E2=     -0.1250180650D+00
     beta-beta   T2 =       0.3163249808D-02 E2=     -0.1291724941D-01
 ANorm=    0.1019177959D+01
 E2 =    -0.1654685553D+00 EUMP2 =    -0.75579896353345D+02
 (S**2,0)=  0.75580D+00           (S**2,1)=  0.75127D+00
 E(PUHF)=      -0.75417141643D+02        E(PMP2)=      -0.75581553678D+02
 Keep R2 and R3 ints in memory in symmetry-blocked form, NReq=917015.
 Iterations=  50 Convergence= 0.100D-06
 Iteration Nr.   1
 **********************
 DD1Dir will call FoFMem   1 times, MxPair=        34
 NAB=    12 NAA=     6 NBB=     3.
 E(PMP3)=      -0.75591262200D+02
 MP4(R+Q)=  0.17988393D-02
 E3=       -0.10345815D-01        EUMP3=      -0.75590242168D+02
 E4(DQ)=   -0.10638895D-02        UMP4(DQ)=   -0.75591306058D+02
 E4(SDQ)=  -0.22470336D-02        UMP4(SDQ)=  -0.75592489202D+02
 DE(Corr)= -0.17399525     E(Corr)=     -75.588423049    
 NORM(A)=   0.10218878D+01
 Iteration Nr.   2
 **********************
 DD1Dir will call FoFMem   1 times, MxPair=        34
 NAB=    12 NAA=     6 NBB=     3.
 DE(Corr)= -0.17743783     E(CORR)=     -75.591865628     Delta=-3.44D-03
 NORM(A)=   0.10236828D+01
 Iteration Nr.   3
 **********************
 DD1Dir will call FoFMem   1 times, MxPair=        34
 NAB=    12 NAA=     6 NBB=     3.
 DE(Corr)= -0.17829940     E(CORR)=     -75.592727202     Delta=-8.62D-04
 NORM(A)=   0.10242126D+01
 Iteration Nr.   4
 **********************
 DD1Dir will call FoFMem   1 times, MxPair=        34
 NAB=    12 NAA=     6 NBB=     3.
 DE(Corr)= -0.17867214     E(CORR)=     -75.593099943     Delta=-3.73D-04
 NORM(A)=   0.10243830D+01
 Iteration Nr.   5
 **********************
 DD1Dir will call FoFMem   1 times, MxPair=        34
 NAB=    12 NAA=     6 NBB=     3.
 DE(Corr)= -0.17872610     E(CORR)=     -75.593153901     Delta=-5.40D-05
 NORM(A)=   0.10244175D+01
 Iteration Nr.   6
 **********************
 DD1Dir will call FoFMem   1 times, MxPair=        34
 NAB=    12 NAA=     6 NBB=     3.
 DE(Corr)= -0.17873728     E(CORR)=     -75.593165079     Delta=-1.12D-05
 NORM(A)=   0.10244161D+01
 Iteration Nr.   7
 **********************
 DD1Dir will call FoFMem   1 times, MxPair=        34
 NAB=    12 NAA=     6 NBB=     3.
 DE(Corr)= -0.17873808     E(CORR)=     -75.593165875     Delta=-7.96D-07
 NORM(A)=   0.10244174D+01
 Iteration Nr.   8
 **********************
 DD1Dir will call FoFMem   1 times, MxPair=        34
 NAB=    12 NAA=     6 NBB=     3.
 DE(Corr)= -0.17873821     E(CORR)=     -75.593166013     Delta=-1.38D-07
 NORM(A)=   0.10244173D+01
 Iteration Nr.   9
 **********************
 DD1Dir will call FoFMem   1 times, MxPair=        34
 NAB=    12 NAA=     6 NBB=     3.
 DE(Corr)= -0.17873843     E(CORR)=     -75.593166225     Delta=-2.12D-07
 NORM(A)=   0.10244177D+01
 Iteration Nr.  10
 **********************
 DD1Dir will call FoFMem   1 times, MxPair=        34
 NAB=    12 NAA=     6 NBB=     3.
 DE(Corr)= -0.17873842     E(CORR)=     -75.593166218     Delta= 7.18D-09
 NORM(A)=   0.10244177D+01
 Iteration Nr.  11
 **********************
 DD1Dir will call FoFMem   1 times, MxPair=        34
 NAB=    12 NAA=     6 NBB=     3.
 DE(Corr)= -0.17873849     E(CORR)=     -75.593166287     Delta=-6.94D-08
 NORM(A)=   0.10244178D+01
 Largest amplitude= 3.90D-02
 Time for triples=        0.00 seconds.
 T4(CCSD)= -0.34840627D-02
 T5(CCSD)=  0.18393393D-03
 CCSD(T)= -0.75596466416D+02

 S**2, projected HF & approx projected MPn energies after annihilation of
 unwanted spin states (see manual for definitions):

 spins       (S**2,0) (S**2,1)    PUHF        PMP2        PMP3        PMP4
 annihilated
 s+1         0.74999  0.75001  -75.417142  -75.581554  -75.591262
 s+1,s+2     0.75000  0.75000  -75.417138  -75.581550  -75.591258
 s+1 to s+3  0.75000  0.75000  -75.417138  -75.581550  -75.591258

 Discarding MO integrals.

 **********************************************************************

            Population analysis using the SCF density.

 **********************************************************************

 Orbital symmetries:
 Alpha Orbitals:
       Occupied  (SG) (SG) (SG) (PI) (PI)
       Virtual   (SG) (PI) (SG) (PI) (SG) (SG) (SG) (PI) (SG) (PI)
                 (SG) (PI) (PI) (SG) (SG) (DLTA) (DLTA) (PI) (PI)
                 (SG) (PI) (PI) (SG) (SG)
 Beta  Orbitals:
       Occupied  (SG) (SG) (SG) (?A)
       Virtual   (SG) (?A) (SG) (?A) (SG) (?A) (SG) (SG) (SG) (?A)
                 (?A) (PI) (PI) (SG) (SG) (SG) (DLTA) (DLTA) (PI)
                 (PI) (SG) (PI) (PI) (SG) (SG)
 Unable to determine electronic state:  an orbital has unidentified symmetry.
 Alpha  occ. eigenvalues --  -20.64099  -1.39062  -0.68362  -0.65753  -0.56272
 Alpha virt. eigenvalues --    0.04361   0.22355   0.23282   0.23871   0.24610
 Alpha virt. eigenvalues --    0.30138   0.67833   1.16493   1.19039   1.21747
 Alpha virt. eigenvalues --    1.53900   1.55102   1.57159   2.29536   2.75913
 Alpha virt. eigenvalues --    3.09204   3.09289   3.40255   3.46485   4.16696
 Alpha virt. eigenvalues --    5.36432   5.43877   5.92557  51.44347
  Beta  occ. eigenvalues --  -20.60039  -1.23189  -0.63771  -0.51160
  Beta virt. eigenvalues --    0.04554   0.07046   0.23898   0.24304   0.25056
  Beta virt. eigenvalues --    0.30624   0.30860   0.68942   1.20980   1.23710
  Beta virt. eigenvalues --    1.31361   1.56853   1.57955   1.58123   2.31555
  Beta virt. eigenvalues --    2.75863   3.21906   3.22039   3.48514   3.51158
  Beta virt. eigenvalues --    4.20375   5.46383   5.50031   5.95122  51.46690
          Condensed to atoms (all electrons):
               1          2
     1  O    7.956729   0.281087
     2  H    0.281087   0.481098
          Atomic-Atomic Spin Densities.
               1          2
     1  O    1.050761  -0.000714
     2  H   -0.000714  -0.049333
 Mulliken charges and spin densities:
               1          2
     1  O   -0.237815   1.050047
     2  H    0.237815  -0.050047
 Sum of Mulliken charges =   0.00000   1.00000
 Mulliken charges and spin densities with hydrogens summed into heavy atoms:
               1          2
     1  O    0.000000   1.000000
 Electronic spatial extent (au):  <R**2>=             15.4286
 Charge=              0.0000 electrons
 Dipole moment (field-independent basis, Debye):
    X=              0.0000    Y=              0.0000    Z=             -1.9115  Tot=              1.9115
 Quadrupole moment (field-independent basis, Debye-Ang):
   XX=             -5.3890   YY=             -6.7364   ZZ=             -4.5927
   XY=              0.0000   XZ=              0.0000   YZ=              0.0000
 Traceless Quadrupole moment (field-independent basis, Debye-Ang):
   XX=              0.1837   YY=             -1.1637   ZZ=              0.9800
   XY=              0.0000   XZ=              0.0000   YZ=              0.0000
 Octapole moment (field-independent basis, Debye-Ang**2):
  XXX=              0.0000  YYY=              0.0000  ZZZ=             -2.1789  XYY=              0.0000
  XXY=              0.0000  XXZ=             -0.2418  XZZ=              0.0000  YZZ=              0.0000
  YYZ=             -0.3638  XYZ=              0.0000
 Hexadecapole moment (field-independent basis, Debye-Ang**3):
 XXXX=             -3.6966 YYYY=             -5.7399 ZZZZ=             -5.4100 XXXY=              0.0000
 XXXZ=              0.0000 YYYX=              0.0000 YYYZ=              0.0000 ZZZX=              0.0000
 ZZZY=              0.0000 XXYY=             -1.5727 XXZZ=             -1.7647 YYZZ=             -2.1299
 XXYZ=              0.0000 YYXZ=              0.0000 ZZXY=              0.0000
 N-N= 4.355309721907D+00 E-N=-1.879962754802D+02  KE= 7.537386984268D+01
 Symmetry A1   KE= 6.816958974705D+01
 Symmetry A2   KE= 7.103731394467D-35
 Symmetry B1   KE= 2.518561012565D+00
 Symmetry B2   KE= 4.685719083064D+00
 1|1|UNPC-DIT|SP|UCCSD(T)-FC|6-311++G(d,p)|H1O1(2)|NDITM|21-Nov-2024|0|
 |#CCSD(T)/6-311++G(d,p) SP||Title Card Required||0,2|O,0,0.,0.,0.10800
 1|H,0,0.,0.,-0.864012||Version=IA32W-G09RevD.01|HF=-75.4144278|MP2=-75
 .5798964|MP3=-75.5902422|MP4D=-75.5931049|MP4DQ=-75.5913061|PUHF=-75.4
 171416|PMP2-0=-75.5815537|PMP3-0=-75.5912622|MP4SDQ=-75.5924892|CCSD=-
 75.5931663|CCSD(T)=-75.5964664|S2=0.755804|S2-1=0.751275|S2A=0.750022|
 RMSD=4.333e-009|PG=C*V [C*(H1O1)]||@


 10 WHATSOEVER THY HAND FINDETH TO DO, DO IT WITH THY  
 MIGHT. FOR THERE IS NO WORK, NOR DEVICE, NOR KNOWLEDGE, NOR  
 WISDOM, IN THE GRAVE, WHITHER THOU GOEST.                    
 11 I RETURNED AND SAW UNDER THE SUN, THAT THE RACE IS NOT TO 
 THE SWIFT, NOR THE BATTLE TO THE STRONG, NEITHER YET BREAD TO
 THE WISE, NOR YET RICHES TO MEN OF UNDERSTANDING, NOR YET    
 FAVOR TO MEN OF SKILL. BUT TIME AND CHANCE HAPPEN TO THEM ALL.
 12 FOR MAN ALSO KNOWETH NOT HIS TIME. AS THE FISHES   
 THAT ARE TAKEN IN AN EVIL NET, AND AS THE BIRDS THAT ARE     
 CAUGHT IN THE SNARE. SO ARE THE SONS OF MEN SNARED IN AN EVIL
 TIME, WHEN IT FALLETH SUDDENLY UPON THEM.
                                         ECCLESIASTES 9
 Job cpu time:       0 days  0 hours  0 minutes  2.0 seconds.
 File lengths (MBytes):  RWF=     14 Int=      0 D2E=      0 Chk=      1 Scr=      1
 Normal termination of Gaussian 09 at Thu Nov 21 00:52:53 2024.
