 Entering Gaussian System, Link 0=g16
 Initial command:
 /opt/g16/l1.exe "/home/aayush/scratches/g16/Gau-69258.inp" -scrdir="/home/aayush/scratches/g16/"
 Entering Link 1 = /opt/g16/l1.exe PID=     69261.
  
 Copyright (c) 1988,1990,1992,1993,1995,1998,2003,2009,2016,
            Gaussian, Inc.  All Rights Reserved.
  
 This is part of the Gaussian(R) 16 program.  It is based on
 the Gaussian(R) 09 system (copyright 2009, Gaussian, Inc.),
 the Gaussian(R) 03 system (copyright 2003, Gaussian, Inc.),
 the Gaussian(R) 98 system (copyright 1998, Gaussian, Inc.),
 the Gaussian(R) 94 system (copyright 1995, Gaussian, Inc.),
 the Gaussian 92(TM) system (copyright 1992, Gaussian, Inc.),
 the Gaussian 90(TM) system (copyright 1990, Gaussian, Inc.),
 the Gaussian 88(TM) system (copyright 1988, Gaussian, Inc.),
 the Gaussian 86(TM) system (copyright 1986, Carnegie Mellon
 University), and the Gaussian 82(TM) system (copyright 1983,
 Carnegie Mellon University). Gaussian is a federally registered
 trademark of Gaussian, Inc.
  
 This software contains proprietary and confidential information,
 including trade secrets, belonging to Gaussian, Inc.
  
 This software is provided under written license and may be
 used, copied, transmitted, or stored only in accord with that
 written license.
  
 The following legend is applicable only to US Government
 contracts under FAR:
  
                    RESTRICTED RIGHTS LEGEND
  
 Use, reproduction and disclosure by the US Government is
 subject to restrictions as set forth in subparagraphs (a)
 and (c) of the Commercial Computer Software - Restricted
 Rights clause in FAR 52.227-19.
  
 Gaussian, Inc.
 340 Quinnipiac St., Bldg. 40, Wallingford CT 06492
  
  
 ---------------------------------------------------------------
 Warning -- This program may not be used in any manner that
 competes with the business of Gaussian, Inc. or will provide
 assistance to any competitor of Gaussian, Inc.  The licensee
 of this program is prohibited from giving any competitor of
 Gaussian, Inc. access to this program.  By using this program,
 the user acknowledges that Gaussian, Inc. is engaged in the
 business of creating and licensing software in the field of
 computational chemistry and represents and warrants to the
 licensee that it is not a competitor of Gaussian, Inc. and that
 it will not use this program in any manner prohibited above.
 ---------------------------------------------------------------
  

 Cite this work as:
 Gaussian 16, Revision A.03,
 M. J. Frisch, G. W. Trucks, H. B. Schlegel, G. E. Scuseria, 
 M. A. Robb, J. R. Cheeseman, G. Scalmani, V. Barone, 
 G. A. Petersson, H. Nakatsuji, X. Li, M. Caricato, A. V. Marenich, 
 J. Bloino, B. G. Janesko, R. Gomperts, B. Mennucci, H. P. Hratchian, 
 J. V. Ortiz, A. F. Izmaylov, J. L. Sonnenberg, D. Williams-Young, 
 F. Ding, F. Lipparini, F. Egidi, J. Goings, B. Peng, A. Petrone, 
 T. Henderson, D. Ranasinghe, V. G. Zakrzewski, J. Gao, N. Rega, 
 G. Zheng, W. Liang, M. Hada, M. Ehara, K. Toyota, R. Fukuda, 
 J. Hasegawa, M. Ishida, T. Nakajima, Y. Honda, O. Kitao, H. Nakai, 
 T. Vreven, K. Throssell, J. A. Montgomery, Jr., J. E. Peralta, 
 F. Ogliaro, M. J. Bearpark, J. J. Heyd, E. N. Brothers, K. N. Kudin, 
 V. N. Staroverov, T. A. Keith, R. Kobayashi, J. Normand, 
 K. Raghavachari, A. P. Rendell, J. C. Burant, S. S. Iyengar, 
 J. Tomasi, M. Cossi, J. M. Millam, M. Klene, C. Adamo, R. Cammi, 
 J. W. Ochterski, R. L. Martin, K. Morokuma, O. Farkas, 
 J. B. Foresman, and D. J. Fox, Gaussian, Inc., Wallingford CT, 2016.
 
 ******************************************
 Gaussian 16:  ES64L-G16RevA.03 25-Dec-2016
                20-Jun-2025 
 ******************************************
 %nprocshared=24
 Will use up to   24 processors via shared memory.
 %mem=12GB
 %chk=ethyl_propiolate_ts1.chk
 -------------------
 # freq 6-31+g m062x
 -------------------
 1/10=4,30=1,38=1/1,3;
 2/12=2,17=6,18=5,40=1/2;
 3/5=1,6=6,7=10,11=2,25=1,30=1,71=2,74=-55,140=1/1,2,3;
 4//1;
 5/5=2,38=5,98=1/2;
 8/6=4,10=90,11=11/1;
 11/6=1,8=1,9=11,15=111,16=1/1,2,10;
 10/6=1/2;
 6/7=2,8=2,9=2,10=2,28=1/1;
 7/8=1,10=1,25=1/1,2,3,16;
 1/10=4,30=1/3;
 99//99;
 -------------------
 Title Card Required
 -------------------
 Symbolic Z-matrix:
 Charge =  0 Multiplicity = 2
 C                    -2.73957  -0.46755  -0.45268 
 H                    -3.77084  -0.47474  -0.71864 
 C                    -1.57198  -0.44711  -0.17029 
 C                    -0.16806  -0.57068   0.22004 
 O                     0.17486  -0.8812    1.32669 
 O                     0.63675  -0.33819  -0.8096 
 C                     2.05073  -0.42002  -0.53795 
 C                     2.54225   0.8465    0.13316 
 H                     2.50036  -0.55924  -1.5194 
 H                     2.23808  -1.30065   0.0777 
 H                     3.6244    0.79404   0.26807 
 H                     2.30763   1.71613  -0.48196 
 H                     2.07632   0.96719   1.1113 
 O                    -1.33805   1.82537   0.11481 
 H                    -1.97087   1.84777   0.85173 
 

 GradGradGradGradGradGradGradGradGradGradGradGradGradGradGradGradGradGrad
 Berny optimization.
 Initialization pass.
 Trust Radius=3.00D-01 FncErr=1.00D-07 GrdErr=1.00D-07 EigMax=2.50D+02 EigMin=1.00D-04
 Number of steps in this run=      2 maximum allowed number of steps=      2.
 GradGradGradGradGradGradGradGradGradGradGradGradGradGradGradGradGradGrad

                          Input orientation:                          
 ---------------------------------------------------------------------
 Center     Atomic      Atomic             Coordinates (Angstroms)
 Number     Number       Type             X           Y           Z
 ---------------------------------------------------------------------
      1          6           0       -2.739569   -0.467547   -0.452683
      2          1           0       -3.770843   -0.474735   -0.718640
      3          6           0       -1.571975   -0.447109   -0.170289
      4          6           0       -0.168063   -0.570684    0.220035
      5          8           0        0.174861   -0.881197    1.326694
      6          8           0        0.636745   -0.338192   -0.809598
      7          6           0        2.050731   -0.420016   -0.537949
      8          6           0        2.542251    0.846500    0.133160
      9          1           0        2.500361   -0.559240   -1.519401
     10          1           0        2.238084   -1.300652    0.077700
     11          1           0        3.624401    0.794039    0.268072
     12          1           0        2.307625    1.716130   -0.481960
     13          1           0        2.076315    0.967194    1.111303
     14          8           0       -1.338052    1.825369    0.114806
     15          1           0       -1.970870    1.847768    0.851730
 ---------------------------------------------------------------------
                    Distance matrix (angstroms):
                    1          2          3          4          5
     1  C    0.000000
     2  H    1.065040   0.000000
     3  C    1.201432   2.266379   0.000000
     4  C    2.660043   3.724291   1.462393   0.000000
     5  O    3.439650   4.462867   2.341117   1.199462   0.000000
     6  O    3.397590   4.410640   2.301961   1.327371   2.252096
     7  C    4.791295   5.824635   3.641415   2.349529   2.684859
     8  C    5.474263   6.505873   4.323466   3.059699   3.164490
     9  H    5.348192   6.322686   4.291456   3.185319   3.689426
    10  H    5.074682   6.117475   3.912363   2.518463   2.448023
    11  H    6.527726   7.567894   5.360497   4.030826   3.978244
    12  H    5.499406   6.465577   4.452869   3.442578   3.816545
    13  H    5.262820   6.294212   4.117372   2.862981   2.660539
    14  O    2.746590   3.450157   2.302207   2.668523   3.329126
    15  H    2.766419   3.331664   2.543639   3.081893   3.503855
                    6          7          8          9         10
     6  O    0.000000
     7  C    1.442167   0.000000
     8  C    2.433771   1.515270   0.000000
     9  H    2.006426   1.088484   2.169981   0.000000
    10  H    2.068312   1.090708   2.169298   1.780228   0.000000
    11  H    3.371855   2.144770   1.091788   2.507965   2.519096
    12  H    2.668225   2.152266   1.090724   2.508135   3.069044
    13  H    2.732445   2.155235   1.090150   3.070899   2.497525
    14  O    3.071700   4.117243   4.001909   4.805248   4.749961
    15  H    3.786567   4.821548   4.678370   5.604271   5.312905
                   11         12         13         14         15
    11  H    0.000000
    12  H    1.773894   0.000000
    13  H    1.771325   1.775640   0.000000
    14  O    5.070806   3.695812   3.658876   0.000000
    15  H    5.723466   4.483478   4.149999   0.971606   0.000000
 Stoichiometry    C5H7O3(2)
 Framework group  C1[X(C5H7O3)]
 Deg. of freedom    39
 Full point group                 C1      NOp   1
 Largest Abelian subgroup         C1      NOp   1
 Largest concise Abelian subgroup C1      NOp   1
                         Standard orientation:                         
 ---------------------------------------------------------------------
 Center     Atomic      Atomic             Coordinates (Angstroms)
 Number     Number       Type             X           Y           Z
 ---------------------------------------------------------------------
      1          6           0       -2.798543   -0.496365   -0.431477
      2          1           0       -3.830352   -0.507786   -0.695200
      3          6           0       -1.630350   -0.471610   -0.151917
      4          6           0       -0.225967   -0.588667    0.238722
      5          8           0        0.118403   -0.871988    1.352206
      6          8           0        0.577357   -0.384152   -0.797982
      7          6           0        1.991679   -0.462489   -0.527053
      8          6           0        2.487493    0.819370    0.110950
      9          1           0        2.439049   -0.627503   -1.505537
     10          1           0        2.178173   -1.327762    0.110259
     11          1           0        3.569780    0.767734    0.245078
     12          1           0        2.253701    1.673768   -0.525466
     13          1           0        2.023767    0.965816    1.086624
     14          8           0       -1.390528    1.806768    0.075308
     15          1           0       -2.021841    1.849266    0.812638
 ---------------------------------------------------------------------
 Rotational constants (GHZ):           3.4040650           1.3050989           1.1651870
 Standard basis: 6-31+G (6D, 7F)
 There are   118 symmetry adapted cartesian basis functions of A   symmetry.
 There are   118 symmetry adapted basis functions of A   symmetry.
   118 basis functions,   236 primitive gaussians,   118 cartesian basis functions
    31 alpha electrons       30 beta electrons
       nuclear repulsion energy       359.1252399529 Hartrees.
 NAtoms=   15 NActive=   15 NUniq=   15 SFac= 1.00D+00 NAtFMM=   60 NAOKFM=F Big=F
 Integral buffers will be    131072 words long.
 Raffenetti 2 integral format.
 Two-electron integral symmetry is turned on.
 One-electron integrals computed using PRISM.
 NBasis=   118 RedAO= T EigKep=  1.63D-06  NBF=   118
 NBsUse=   118 1.00D-06 EigRej= -1.00D+00 NBFU=   118
 ExpMin= 4.38D-02 ExpMax= 5.48D+03 ExpMxC= 8.25D+02 IAcc=3 IRadAn=         5 AccDes= 0.00D+00
 Harris functional with IExCor= 1009 and IRadAn=       5 diagonalized for initial guess.
 HarFok:  IExCor= 1009 AccDes= 0.00D+00 IRadAn=         5 IDoV= 1 UseB2=F ITyADJ=14
 ICtDFT=  3500011 ScaDFX=  1.000000  1.000000  1.000000  1.000000
 FoFCou: FMM=F IPFlag=           0 FMFlag=      100000 FMFlg1=           0
         NFxFlg=           0 DoJE=T BraDBF=F KetDBF=T FulRan=T
         wScrn=  0.000000 ICntrl=       500 IOpCl=  0 I1Cent=   200000004 NGrid=           0
         NMat0=    1 NMatS0=      1 NMatT0=    0 NMatD0=    1 NMtDS0=    0 NMtDT0=    0
 Petite list used in FoFCou.
 Initial guess <Sx>= 0.0000 <Sy>= 0.0000 <Sz>= 0.5000 <S**2>= 0.7500 S= 0.5000
 Requested convergence on RMS density matrix=1.00D-08 within 128 cycles.
 Requested convergence on MAX density matrix=1.00D-06.
 Requested convergence on             energy=1.00D-06.
 No special actions if energy rises.
 Restarting incremental Fock formation.
 SCF Done:  E(UM062X) =  -419.960485313     A.U. after   24 cycles
            NFock= 24  Conv=0.35D-08     -V/T= 2.0050
 <Sx>= 0.0000 <Sy>= 0.0000 <Sz>= 0.5000 <S**2>= 0.7564 S= 0.5032
 <L.S>=  0.00000000000    
 Annihilation of the first spin contaminant:
 S**2 before annihilation     0.7564,   after     0.7500
 DoSCS=F DFT=T ScalE2(SS,OS)=  1.000000  1.000000
 Range of M.O.s used for correlation:     1   118
 NBasis=   118 NAE=    31 NBE=    30 NFC=     0 NFV=     0
 NROrb=    118 NOA=    31 NOB=    30 NVA=    87 NVB=    88

 **** Warning!!: The largest alpha MO coefficient is  0.20640616D+03


 **** Warning!!: The largest beta MO coefficient is  0.18682301D+03

 Symmetrizing basis deriv contribution to polar:
 IMax=3 JMax=2 DiffMx= 0.00D+00
 G2DrvN: will do    16 centers at a time, making    1 passes.
 Calling FoFCou, ICntrl=  3107 FMM=F I1Cent=   0 AccDes= 0.00D+00.
 End of G2Drv F.D. properties file   721 does not exist.
 End of G2Drv F.D. properties file   722 does not exist.
 End of G2Drv F.D. properties file   788 does not exist.
          IDoAtm=111111111111111
          Differentiating once with respect to electric field.
                with respect to dipole field.
          Differentiating once with respect to nuclear coordinates.
 Keep R1 and R2 ints in memory in canonical form, NReq=71861349.
          There are    48 degrees of freedom in the 1st order CPHF.  IDoFFX=6 NUNeed=     3.
     45 vectors produced by pass  0 Test12= 1.11D-14 2.08D-09 XBig12= 9.11D+01 3.51D+00.
 AX will form    45 AO Fock derivatives at one time.
     45 vectors produced by pass  1 Test12= 1.11D-14 2.08D-09 XBig12= 1.94D+01 6.54D-01.
     45 vectors produced by pass  2 Test12= 1.11D-14 2.08D-09 XBig12= 5.29D-01 1.51D-01.
     45 vectors produced by pass  3 Test12= 1.11D-14 2.08D-09 XBig12= 2.84D-03 8.79D-03.
     45 vectors produced by pass  4 Test12= 1.11D-14 2.08D-09 XBig12= 1.85D-05 7.29D-04.
     45 vectors produced by pass  5 Test12= 1.11D-14 2.08D-09 XBig12= 1.88D-07 5.57D-05.
     32 vectors produced by pass  6 Test12= 1.11D-14 2.08D-09 XBig12= 1.29D-09 3.74D-06.
     11 vectors produced by pass  7 Test12= 1.11D-14 2.08D-09 XBig12= 7.53D-12 2.07D-07.
      3 vectors produced by pass  8 Test12= 1.11D-14 2.08D-09 XBig12= 5.75D-14 1.74D-08.
      3 vectors produced by pass  9 Test12= 1.11D-14 2.08D-09 XBig12= 4.83D-15 1.33D-08.
      1 vectors produced by pass 10 Test12= 1.11D-14 2.08D-09 XBig12= 2.64D-16 2.83D-09.
 InvSVY:  IOpt=1 It=  1 EMax= 2.35D-15
 Solved reduced A of dimension   320 with    48 vectors.
 Isotropic polarizability for W=    0.000000       67.48 Bohr**3.
 End of Minotr F.D. properties file   721 does not exist.
 End of Minotr F.D. properties file   722 does not exist.
 End of Minotr F.D. properties file   788 does not exist.

 **********************************************************************

            Population analysis using the SCF density.

 **********************************************************************

 Orbital symmetries:
 Alpha Orbitals:
       Occupied  (A) (A) (A) (A) (A) (A) (A) (A) (A) (A) (A) (A)
                 (A) (A) (A) (A) (A) (A) (A) (A) (A) (A) (A) (A)
                 (A) (A) (A) (A) (A) (A) (A)
       Virtual   (A) (A) (A) (A) (A) (A) (A) (A) (A) (A) (A) (A)
                 (A) (A) (A) (A) (A) (A) (A) (A) (A) (A) (A) (A)
                 (A) (A) (A) (A) (A) (A) (A) (A) (A) (A) (A) (A)
                 (A) (A) (A) (A) (A) (A) (A) (A) (A) (A) (A) (A)
                 (A) (A) (A) (A) (A) (A) (A) (A) (A) (A) (A) (A)
                 (A) (A) (A) (A) (A) (A) (A) (A) (A) (A) (A) (A)
                 (A) (A) (A) (A) (A) (A) (A) (A) (A) (A) (A) (A)
                 (A) (A) (A)
 Beta  Orbitals:
       Occupied  (A) (A) (A) (A) (A) (A) (A) (A) (A) (A) (A) (A)
                 (A) (A) (A) (A) (A) (A) (A) (A) (A) (A) (A) (A)
                 (A) (A) (A) (A) (A) (A)
       Virtual   (A) (A) (A) (A) (A) (A) (A) (A) (A) (A) (A) (A)
                 (A) (A) (A) (A) (A) (A) (A) (A) (A) (A) (A) (A)
                 (A) (A) (A) (A) (A) (A) (A) (A) (A) (A) (A) (A)
                 (A) (A) (A) (A) (A) (A) (A) (A) (A) (A) (A) (A)
                 (A) (A) (A) (A) (A) (A) (A) (A) (A) (A) (A) (A)
                 (A) (A) (A) (A) (A) (A) (A) (A) (A) (A) (A) (A)
                 (A) (A) (A) (A) (A) (A) (A) (A) (A) (A) (A) (A)
                 (A) (A) (A) (A)
 The electronic state is 2-A.
 Alpha  occ. eigenvalues --  -19.70336 -19.70298 -19.66018 -10.72855 -10.61237
 Alpha  occ. eigenvalues --  -10.59453 -10.59091 -10.54091  -1.27783  -1.18424
 Alpha  occ. eigenvalues --   -1.14648  -0.91244  -0.87784  -0.78350  -0.71028
 Alpha  occ. eigenvalues --   -0.64391  -0.61943  -0.58372  -0.57024  -0.54723
 Alpha  occ. eigenvalues --   -0.53671  -0.50491  -0.48728  -0.46388  -0.44944
 Alpha  occ. eigenvalues --   -0.42512  -0.41658  -0.39411  -0.37974  -0.36699
 Alpha  occ. eigenvalues --   -0.36343
 Alpha virt. eigenvalues --   -0.01186   0.01985   0.02497   0.03653   0.03777
 Alpha virt. eigenvalues --    0.04523   0.05466   0.05911   0.07702   0.08377
 Alpha virt. eigenvalues --    0.08854   0.08907   0.10073   0.11859   0.12287
 Alpha virt. eigenvalues --    0.13469   0.14508   0.15255   0.16374   0.16898
 Alpha virt. eigenvalues --    0.17977   0.18705   0.19159   0.20018   0.21613
 Alpha virt. eigenvalues --    0.22881   0.24210   0.25059   0.25951   0.26454
 Alpha virt. eigenvalues --    0.29303   0.29701   0.30395   0.30679   0.32171
 Alpha virt. eigenvalues --    0.32430   0.33698   0.35000   0.35679   0.36949
 Alpha virt. eigenvalues --    0.38828   0.39857   0.40774   0.43344   0.44355
 Alpha virt. eigenvalues --    0.47836   0.58667   0.60393   0.69320   0.70192
 Alpha virt. eigenvalues --    0.72407   0.73628   0.75121   0.76651   0.77876
 Alpha virt. eigenvalues --    0.81008   0.84758   0.86179   0.88114   0.92315
 Alpha virt. eigenvalues --    0.94995   0.96634   1.00809   1.08683   1.10680
 Alpha virt. eigenvalues --    1.12025   1.12712   1.13509   1.17743   1.21428
 Alpha virt. eigenvalues --    1.22958   1.24091   1.28353   1.28823   1.32594
 Alpha virt. eigenvalues --    1.35635   1.38945   1.39574   1.45514   1.45664
 Alpha virt. eigenvalues --    1.47971   1.61089   1.69499   1.75318   1.83010
 Alpha virt. eigenvalues --    2.03552   2.05761
  Beta  occ. eigenvalues --  -19.70302 -19.68693 -19.66031 -10.72842 -10.61237
  Beta  occ. eigenvalues --  -10.59440 -10.59004 -10.54091  -1.27790  -1.18448
  Beta  occ. eigenvalues --   -1.07356  -0.91013  -0.87602  -0.78271  -0.70944
  Beta  occ. eigenvalues --   -0.64358  -0.61714  -0.58274  -0.56700  -0.53658
  Beta  occ. eigenvalues --   -0.51710  -0.49217  -0.46572  -0.44983  -0.41656
  Beta  occ. eigenvalues --   -0.39386  -0.39037  -0.38379  -0.38000  -0.36415
  Beta virt. eigenvalues --   -0.09196  -0.00721   0.02036   0.02508   0.03766
  Beta virt. eigenvalues --    0.03818   0.04703   0.05535   0.06003   0.07762
  Beta virt. eigenvalues --    0.08327   0.08910   0.09027   0.10147   0.11981
  Beta virt. eigenvalues --    0.12380   0.13639   0.14644   0.15252   0.16455
  Beta virt. eigenvalues --    0.16819   0.18217   0.18936   0.19439   0.20025
  Beta virt. eigenvalues --    0.21540   0.22995   0.24235   0.25147   0.26155
  Beta virt. eigenvalues --    0.26618   0.29377   0.29691   0.30519   0.30831
  Beta virt. eigenvalues --    0.32293   0.32437   0.33708   0.34821   0.35722
  Beta virt. eigenvalues --    0.36986   0.38852   0.40039   0.40582   0.43393
  Beta virt. eigenvalues --    0.44450   0.47870   0.58651   0.60480   0.69427
  Beta virt. eigenvalues --    0.70328   0.72616   0.73846   0.75258   0.77022
  Beta virt. eigenvalues --    0.77968   0.81038   0.85115   0.86095   0.88124
  Beta virt. eigenvalues --    0.92318   0.95330   0.96902   1.01144   1.08671
  Beta virt. eigenvalues --    1.10746   1.12190   1.13589   1.15096   1.18122
  Beta virt. eigenvalues --    1.21460   1.23523   1.26421   1.28627   1.29603
  Beta virt. eigenvalues --    1.33460   1.36474   1.39652   1.40687   1.45760
  Beta virt. eigenvalues --    1.45935   1.47982   1.61522   1.69878   1.75785
  Beta virt. eigenvalues --    1.84436   2.03696   2.05774
          Condensed to atoms (all electrons):
               1          2          3          4          5          6
     1  C   50.848154   0.544704 -15.720866 -28.361234   0.076652  -0.723680
     2  H    0.544704   0.340042  -0.178048  -0.049131  -0.000187  -0.000262
     3  C  -15.720866  -0.178048  27.874922  -4.577740   0.300033  -1.126093
     4  C  -28.361234  -0.049131  -4.577740  37.262346  -0.204865   1.260905
     5  O    0.076652  -0.000187   0.300033  -0.204865   8.484132  -0.245882
     6  O   -0.723680  -0.000262  -1.126093   1.260905  -0.245882   9.051829
     7  C   -0.572452  -0.000068  -0.938482   1.197321  -0.026144   0.046961
     8  C    0.091506  -0.000126   0.036167  -0.250075  -0.041837   0.023182
     9  H   -0.004643   0.000000  -0.021210   0.037927  -0.000456  -0.072751
    10  H    0.002340  -0.000000   0.017073  -0.023860   0.003999  -0.034731
    11  H    0.000368   0.000000   0.003901   0.003323  -0.000169   0.007261
    12  H    0.005969  -0.000000   0.020474  -0.021456  -0.000204  -0.000857
    13  H    0.000761   0.000000  -0.010593   0.006984   0.001166  -0.009443
    14  O   -0.023679   0.000786   0.543897  -0.523625  -0.010854  -0.012087
    15  H    0.102286  -0.000037  -0.052313  -0.038042  -0.000840   0.000324
               7          8          9         10         11         12
     1  C   -0.572452   0.091506  -0.004643   0.002340   0.000368   0.005969
     2  H   -0.000068  -0.000126   0.000000  -0.000000   0.000000  -0.000000
     3  C   -0.938482   0.036167  -0.021210   0.017073   0.003901   0.020474
     4  C    1.197321  -0.250075   0.037927  -0.023860   0.003323  -0.021456
     5  O   -0.026144  -0.041837  -0.000456   0.003999  -0.000169  -0.000204
     6  O    0.046961   0.023182  -0.072751  -0.034731   0.007261  -0.000857
     7  C    6.029402  -0.158221   0.431394   0.421259  -0.071839  -0.055879
     8  C   -0.158221   5.782253  -0.057119  -0.076348   0.396812   0.396029
     9  H    0.431394  -0.057119   0.502378  -0.032814  -0.000850  -0.004485
    10  H    0.421259  -0.076348  -0.032814   0.493429  -0.000672   0.003770
    11  H   -0.071839   0.396812  -0.000850  -0.000672   0.506519  -0.025285
    12  H   -0.055879   0.396029  -0.004485   0.003770  -0.025285   0.480773
    13  H   -0.048091   0.406241   0.003567  -0.004639  -0.023948  -0.026067
    14  O   -0.022812   0.017182  -0.000004  -0.000013   0.000071  -0.000197
    15  H    0.000141  -0.000496   0.000000   0.000002   0.000000   0.000003
              13         14         15
     1  C    0.000761  -0.023679   0.102286
     2  H    0.000000   0.000786  -0.000037
     3  C   -0.010593   0.543897  -0.052313
     4  C    0.006984  -0.523625  -0.038042
     5  O    0.001166  -0.010854  -0.000840
     6  O   -0.009443  -0.012087   0.000324
     7  C   -0.048091  -0.022812   0.000141
     8  C    0.406241   0.017182  -0.000496
     9  H    0.003567  -0.000004   0.000000
    10  H   -0.004639  -0.000013   0.000002
    11  H   -0.023948   0.000071   0.000000
    12  H   -0.026067  -0.000197   0.000003
    13  H    0.467231  -0.000207   0.000016
    14  O   -0.000207   8.304654   0.139775
    15  H    0.000016   0.139775   0.444882
          Atomic-Atomic Spin Densities.
               1          2          3          4          5          6
     1  C   -1.023821  -0.001793   0.409356   0.797728   0.004991   0.009620
     2  H   -0.001793  -0.003961   0.001170  -0.000412  -0.000000   0.000004
     3  C    0.409356   0.001170  -0.527250   0.116544  -0.000178   0.003239
     4  C    0.797728  -0.000412   0.116544  -0.921274  -0.003916  -0.007008
     5  O    0.004991  -0.000000  -0.000178  -0.003916  -0.008256  -0.000255
     6  O    0.009620   0.000004   0.003239  -0.007008  -0.000255  -0.004620
     7  C    0.005627   0.000002   0.000863  -0.009434   0.000698  -0.001184
     8  C   -0.004814   0.000002  -0.004264   0.013005  -0.000343   0.000174
     9  H    0.000091  -0.000000   0.000259  -0.000338   0.000007   0.000086
    10  H    0.000189   0.000000   0.000516  -0.000556  -0.000023   0.000001
    11  H   -0.000033   0.000000  -0.000130   0.000098   0.000004  -0.000019
    12  H    0.000119   0.000000   0.000184  -0.000077  -0.000021  -0.000031
    13  H   -0.000353   0.000000  -0.001607   0.002532  -0.000096  -0.000201
    14  O   -0.098210  -0.000420  -0.038675   0.061384   0.001437  -0.000286
    15  H   -0.003897   0.000018  -0.000429   0.003931   0.000067   0.000113
               7          8          9         10         11         12
     1  C    0.005627  -0.004814   0.000091   0.000189  -0.000033   0.000119
     2  H    0.000002   0.000002  -0.000000   0.000000   0.000000   0.000000
     3  C    0.000863  -0.004264   0.000259   0.000516  -0.000130   0.000184
     4  C   -0.009434   0.013005  -0.000338  -0.000556   0.000098  -0.000077
     5  O    0.000698  -0.000343   0.000007  -0.000023   0.000004  -0.000021
     6  O   -0.001184   0.000174   0.000086   0.000001  -0.000019  -0.000031
     7  C    0.005752  -0.004124  -0.000129  -0.000199   0.000116  -0.000180
     8  C   -0.004124   0.002191   0.000063   0.000065   0.000000   0.000035
     9  H   -0.000129   0.000063  -0.000060  -0.000003   0.000001  -0.000001
    10  H   -0.000199   0.000065  -0.000003  -0.000049   0.000000  -0.000002
    11  H    0.000116   0.000000   0.000001   0.000000  -0.000073   0.000003
    12  H   -0.000180   0.000035  -0.000001  -0.000002   0.000003  -0.000046
    13  H    0.000041  -0.000244   0.000001  -0.000002   0.000010  -0.000028
    14  O    0.000639  -0.001462   0.000011   0.000006  -0.000004  -0.000020
    15  H    0.000272  -0.000093  -0.000000  -0.000000  -0.000000  -0.000000
              13         14         15
     1  C   -0.000353  -0.098210  -0.003897
     2  H    0.000000  -0.000420   0.000018
     3  C   -0.001607  -0.038675  -0.000429
     4  C    0.002532   0.061384   0.003931
     5  O   -0.000096   0.001437   0.000067
     6  O   -0.000201  -0.000286   0.000113
     7  C    0.000041   0.000639   0.000272
     8  C   -0.000244  -0.001462  -0.000093
     9  H    0.000001   0.000011  -0.000000
    10  H   -0.000002   0.000006  -0.000000
    11  H    0.000010  -0.000004  -0.000000
    12  H   -0.000028  -0.000020  -0.000000
    13  H   -0.000101  -0.000034  -0.000002
    14  O   -0.000034   1.015290   0.001375
    15  H   -0.000002   0.001375  -0.036071
 Mulliken charges and spin densities:
               1          2
     1  C   -0.266186   0.094800
     2  H    0.342328  -0.005389
     3  C   -0.171124  -0.040400
     4  C    0.281222   0.052210
     5  O   -0.334543  -0.005883
     6  O   -0.164677  -0.000366
     7  C   -0.232491  -0.001240
     8  C   -0.565151   0.000193
     9  H    0.219067  -0.000014
    10  H    0.231205  -0.000055
    11  H    0.204507  -0.000026
    12  H    0.227411  -0.000062
    13  H    0.237020  -0.000084
    14  O   -0.412888   0.941031
    15  H    0.404299  -0.034715
 Sum of Mulliken charges =  -0.00000   1.00000
 Mulliken charges and spin densities with hydrogens summed into heavy atoms:
               1          2
     1  C    0.076142   0.089411
     3  C   -0.171124  -0.040400
     4  C    0.281222   0.052210
     5  O   -0.334543  -0.005883
     6  O   -0.164677  -0.000366
     7  C    0.217782  -0.001309
     8  C    0.103787   0.000021
    14  O   -0.008589   0.906316
 APT charges:
               1
     1  C   -0.246534
     2  H    0.255926
     3  C   -0.314605
     4  C    1.440312
     5  O   -0.753810
     6  O   -0.933527
     7  C    0.504676
     8  C   -0.057885
     9  H   -0.004261
    10  H   -0.006238
    11  H    0.012984
    12  H    0.025499
    13  H    0.038114
    14  O   -0.226821
    15  H    0.266170
 Sum of APT charges =   0.00000
 APT charges with hydrogens summed into heavy atoms:
               1
     1  C    0.009392
     3  C   -0.314605
     4  C    1.440312
     5  O   -0.753810
     6  O   -0.933527
     7  C    0.494177
     8  C    0.018712
    14  O    0.039350
 Electronic spatial extent (au):  <R**2>=           1081.6454
 Charge=             -0.0000 electrons
 Dipole moment (field-independent basis, Debye):
    X=             -0.7832    Y=              0.2328    Z=             -0.3415  Tot=              0.8856
 Quadrupole moment (field-independent basis, Debye-Ang):
   XX=            -29.9569   YY=            -48.7275   ZZ=            -52.5201
   XY=             -1.0914   XZ=             -2.4244   YZ=              5.6818
 Traceless Quadrupole moment (field-independent basis, Debye-Ang):
   XX=             13.7780   YY=             -4.9927   ZZ=             -8.7853
   XY=             -1.0914   XZ=             -2.4244   YZ=              5.6818
 Octapole moment (field-independent basis, Debye-Ang**2):
  XXX=            -34.4989  YYY=              4.8685  ZZZ=             -2.3708  XYY=              0.3813
  XXY=              1.1803  XXZ=             -5.1720  XZZ=             -0.2706  YZZ=              8.1206
  YYZ=              4.9888  XYZ=             -7.0820
 Hexadecapole moment (field-independent basis, Debye-Ang**3):
 XXXX=           -750.3680 YYYY=           -281.4480 ZZZZ=           -180.0585 XXXY=            -12.5650
 XXXZ=             17.8199 YYYX=            -23.1888 YYYZ=             13.2691 ZZZX=            -10.4467
 ZZZY=              8.6984 XXYY=           -203.9889 XXZZ=           -183.4578 YYZZ=            -76.3129
 XXYZ=             20.3763 YYXZ=            -15.5763 ZZXY=             -9.1997
 N-N= 3.591252399529D+02 E-N=-1.701141195362D+03  KE= 4.178894381264D+02
  Exact polarizability:  87.312   3.978  58.344   3.646  -0.233  56.790
 Approx polarizability:  93.183   2.858  57.712   7.399  -3.730  71.371
                          Isotropic Fermi Contact Couplings
        Atom                 a.u.       MegaHertz       Gauss      10(-4) cm-1
     1  C(13)              0.01695      19.05341       6.79873       6.35553
     2  H(1)              -0.00220      -9.81648      -3.50276      -3.27442
     3  C(13)              0.00851       9.56306       3.41234       3.18989
     4  C(13)              0.00563       6.33290       2.25974       2.11243
     5  O(17)             -0.00170       1.03241       0.36839       0.34437
     6  O(17)             -0.00089       0.54141       0.19319       0.18060
     7  C(13)              0.00000       0.00186       0.00066       0.00062
     8  C(13)             -0.00024      -0.27371      -0.09767      -0.09130
     9  H(1)               0.00000       0.00997       0.00356       0.00332
    10  H(1)              -0.00004      -0.16659      -0.05944      -0.05557
    11  H(1)              -0.00000      -0.01913      -0.00683      -0.00638
    12  H(1)              -0.00001      -0.02458      -0.00877      -0.00820
    13  H(1)              -0.00001      -0.03298      -0.01177      -0.01100
    14  O(17)              0.13421     -81.35722     -29.03028     -27.13785
    15  H(1)              -0.01597     -71.37831     -25.46955     -23.80924
 --------------------------------------------------------
       Center         ----  Spin Dipole Couplings  ----
                      3XX-RR        3YY-RR        3ZZ-RR
 --------------------------------------------------------
     1   Atom       -0.076172      0.138267     -0.062094
     2   Atom        0.012713     -0.001977     -0.010736
     3   Atom        0.005351      0.026610     -0.031961
     4   Atom        0.001225      0.011491     -0.012716
     5   Atom        0.014951     -0.022208      0.007257
     6   Atom        0.004855     -0.004649     -0.000206
     7   Atom        0.002275     -0.000334     -0.001940
     8   Atom        0.003781     -0.001705     -0.002077
     9   Atom        0.001206     -0.000327     -0.000879
    10   Atom        0.001016      0.000318     -0.001334
    11   Atom        0.001929     -0.000883     -0.001047
    12   Atom        0.005090     -0.002584     -0.002506
    13   Atom        0.004289     -0.002131     -0.002158
    14   Atom       -1.089013      2.499261     -1.410248
    15   Atom        0.008145     -0.062002      0.053857
 --------------------------------------------------------
                        XY            XZ            YZ
 --------------------------------------------------------
     1   Atom        0.025815     -0.001931      0.017991
     2   Atom        0.005316      0.006696      0.001937
     3   Atom       -0.001614      0.009864      0.006035
     4   Atom       -0.013949      0.002693     -0.001651
     5   Atom       -0.015808     -0.001125     -0.012595
     6   Atom       -0.006529     -0.003456      0.002253
     7   Atom       -0.002647     -0.000606      0.000435
     8   Atom       -0.001584      0.000125     -0.000010
     9   Atom       -0.001422     -0.000940      0.000592
    10   Atom       -0.001813      0.000103     -0.000037
    11   Atom       -0.000627      0.000121     -0.000011
    12   Atom       -0.000401     -0.001285      0.000145
    13   Atom       -0.001828      0.002167     -0.000512
    14   Atom        1.540591      0.391184      1.041451
    15   Atom        0.010348     -0.137319      0.027494
 --------------------------------------------------------


 ---------------------------------------------------------------------------------
              Anisotropic Spin Dipole Couplings in Principal Axis System
 ---------------------------------------------------------------------------------

       Atom             a.u.   MegaHertz   Gauss  10(-4) cm-1        Axes

              Baa    -0.0802   -10.764    -3.841    -3.590  0.9629 -0.1331  0.2348
     1 C(13)  Bbb    -0.0626    -8.405    -2.999    -2.804 -0.2438 -0.0554  0.9683
              Bcc     0.1428    19.169     6.840     6.394  0.1159  0.9896  0.0858
 
              Baa    -0.0125    -6.691    -2.388    -2.232 -0.2453 -0.0541  0.9679
     2 H(1)   Bbb    -0.0037    -1.971    -0.703    -0.657 -0.2998  0.9537 -0.0226
              Bcc     0.0162     8.662     3.091     2.889  0.9220  0.2957  0.2501
 
              Baa    -0.0350    -4.702    -1.678    -1.568 -0.2398 -0.1008  0.9656
     3 C(13)  Bbb     0.0078     1.046     0.373     0.349  0.9704  0.0057  0.2416
              Bcc     0.0272     3.656     1.305     1.219 -0.0299  0.9949  0.0964
 
              Baa    -0.0133    -1.784    -0.636    -0.595 -0.2549 -0.0793  0.9637
     4 C(13)  Bbb    -0.0082    -1.097    -0.391    -0.366  0.7789  0.5738  0.2533
              Bcc     0.0215     2.881     1.028     0.961 -0.5730  0.8152 -0.0845
 
              Baa    -0.0319     2.305     0.822     0.769  0.3118  0.9018  0.2994
     5 O(17)  Bbb     0.0101    -0.734    -0.262    -0.245 -0.3666 -0.1765  0.9135
              Bcc     0.0217    -1.571    -0.561    -0.524  0.8766 -0.3945  0.2755
 
              Baa    -0.0080     0.579     0.207     0.193  0.4379  0.8967 -0.0650
     6 O(17)  Bbb    -0.0019     0.134     0.048     0.045  0.3667 -0.1121  0.9235
              Bcc     0.0099    -0.713    -0.254    -0.238  0.8208 -0.4283 -0.3779
 
              Baa    -0.0021    -0.277    -0.099    -0.092 -0.1811 -0.4916  0.8518
     7 C(13)  Bbb    -0.0020    -0.262    -0.093    -0.087  0.5081  0.6948  0.5090
              Bcc     0.0040     0.539     0.192     0.180  0.8420 -0.5250 -0.1240
 
              Baa    -0.0021    -0.287    -0.102    -0.096  0.2484  0.8999 -0.3583
     8 C(13)  Bbb    -0.0021    -0.278    -0.099    -0.093  0.0751  0.3509  0.9334
              Bcc     0.0042     0.565     0.201     0.188  0.9657 -0.2588  0.0196
 
              Baa    -0.0013    -0.672    -0.240    -0.224  0.1114 -0.4062  0.9070
     9 H(1)   Bbb    -0.0012    -0.623    -0.222    -0.208  0.5719  0.7726  0.2758
              Bcc     0.0024     1.295     0.462     0.432  0.8127 -0.4880 -0.3184
 
              Baa    -0.0013    -0.717    -0.256    -0.239 -0.1584 -0.1509  0.9758
    10 H(1)   Bbb    -0.0012    -0.625    -0.223    -0.208  0.6169  0.7565  0.2171
              Bcc     0.0025     1.342     0.479     0.448  0.7709 -0.6364  0.0267
 
              Baa    -0.0011    -0.564    -0.201    -0.188 -0.1046 -0.3166  0.9428
    11 H(1)   Bbb    -0.0010    -0.539    -0.192    -0.180  0.1836  0.9255  0.3312
              Bcc     0.0021     1.103     0.394     0.368  0.9774 -0.2077  0.0387
 
              Baa    -0.0028    -1.471    -0.525    -0.491  0.1211 -0.4556  0.8819
    12 H(1)   Bbb    -0.0026    -1.369    -0.489    -0.457  0.1208  0.8886  0.4425
              Bcc     0.0053     2.840     1.014     0.947  0.9853 -0.0530 -0.1626
 
              Baa    -0.0028    -1.508    -0.538    -0.503 -0.3290 -0.1823  0.9266
    13 H(1)   Bbb    -0.0026    -1.387    -0.495    -0.463  0.1744  0.9526  0.2493
              Bcc     0.0054     2.895     1.033     0.966  0.9281 -0.2436  0.2816
 
              Baa    -1.6731   121.064    43.199    40.383 -0.3982 -0.0810  0.9137
    14 O(17)  Bbb    -1.6579   119.963    42.806    40.015  0.8526 -0.4002  0.3361
              Bcc     3.3310  -241.027   -86.004   -80.398  0.3384  0.9129  0.2284
 
              Baa    -0.1198   -63.896   -22.800   -21.313  0.6826 -0.4102  0.6048
    15 H(1)   Bbb    -0.0513   -27.391    -9.774    -9.137  0.3513  0.9099  0.2207
              Bcc     0.1711    91.287    32.574    30.450 -0.6409  0.0618  0.7652
 

 ---------------------------------------------------------------------------------

 Calling FoFJK, ICntrl=    100127 FMM=F ISym2X=0 I1Cent= 0 IOpClX= 1 NMat=1 NMatS=1 NMatT=0.
 Full mass-weighted force constant matrix:
 Low frequencies --- -460.9339 -175.9825 -134.7456  -84.9126  -54.9192  -46.4635
 Low frequencies ---   -0.0004   -0.0002    0.0008
 ******    4 imaginary frequencies (negative Signs) ****** 
 Diagonal vibrational polarizability:
       42.1544561     175.3966226      39.2685954
 Harmonic frequencies (cm**-1), IR intensities (KM/Mole), Raman scattering
 activities (A**4/AMU), depolarization ratios for plane and unpolarized
 incident light, reduced masses (AMU), force constants (mDyne/A),
 and normal coordinates:
                      1                      2                      3
                      A                      A                      A
 Frequencies --   -460.1032              -164.6645               -74.2252
 Red. masses --      1.0896                 2.1873                 5.0120
 Frc consts  --      0.1359                 0.0349                 0.0163
 IR Inten    --    124.2289                68.2033                 8.2917
  Atom  AN      X      Y      Z        X      Y      Z        X      Y      Z
     1   6     0.00   0.01  -0.00    -0.02   0.02   0.06    -0.02   0.09  -0.06
     2   1     0.00   0.04  -0.00    -0.02   0.01   0.07    -0.02   0.21  -0.05
     3   6     0.00  -0.01  -0.01    -0.02   0.04   0.06    -0.01  -0.06  -0.06
     4   6    -0.00  -0.00  -0.01    -0.01   0.00   0.01    -0.02  -0.06  -0.05
     5   8    -0.00   0.01   0.00     0.02  -0.12  -0.02    -0.03   0.16   0.01
     6   8     0.00  -0.01   0.00    -0.03   0.08   0.01    -0.00  -0.21  -0.07
     7   6     0.00  -0.00   0.01    -0.02   0.06  -0.01    -0.00   0.04   0.03
     8   6     0.00  -0.00   0.00    -0.02   0.02   0.06    -0.23   0.15  -0.01
     9   1     0.01  -0.01   0.01    -0.04   0.12  -0.03     0.08   0.05   0.06
    10   1     0.00  -0.00   0.01    -0.01   0.02  -0.06     0.09   0.10   0.08
    11   1     0.00   0.00   0.00    -0.02   0.02   0.05    -0.24   0.31   0.07
    12   1    -0.00  -0.00   0.00    -0.02   0.06   0.11    -0.31   0.08  -0.08
    13   1     0.00  -0.00   0.01    -0.01  -0.04   0.07    -0.33   0.14  -0.06
    14   8    -0.05   0.02  -0.04     0.07  -0.13  -0.15     0.27  -0.14   0.16
    15   1     0.71  -0.30   0.63     0.38   0.85   0.07     0.35   0.26   0.20
                      4                      5                      6
                      A                      A                      A
 Frequencies --    -15.9032                76.9457                90.0640
 Red. masses --      2.7988                 3.2855                 3.2281
 Frc consts  --      0.0004                 0.0115                 0.0154
 IR Inten    --      0.2466                 2.3501                 7.3939
  Atom  AN      X      Y      Z        X      Y      Z        X      Y      Z
     1   6    -0.00  -0.08   0.03     0.04   0.16   0.04    -0.09  -0.05   0.30
     2   1    -0.01  -0.13   0.05     0.05   0.33   0.02    -0.17  -0.10   0.62
     3   6    -0.00  -0.01   0.00     0.04  -0.05   0.07     0.00   0.01  -0.10
     4   6     0.01   0.06  -0.03     0.04  -0.12   0.03     0.01   0.00  -0.14
     5   8     0.07   0.21  -0.01     0.09  -0.13   0.01    -0.07  -0.01  -0.11
     6   8    -0.02  -0.02  -0.07    -0.01  -0.12  -0.00     0.08  -0.02  -0.08
     7   6    -0.01  -0.00  -0.11     0.01   0.05  -0.05     0.06  -0.01   0.08
     8   6    -0.02  -0.15   0.19    -0.16   0.05   0.08    -0.03   0.02   0.10
     9   1    -0.04   0.25  -0.16     0.00   0.23  -0.09     0.18  -0.04   0.14
    10   1     0.03  -0.16  -0.33     0.15  -0.00  -0.16    -0.02   0.02   0.14
    11   1     0.01  -0.12   0.01    -0.13   0.25  -0.09    -0.07  -0.03   0.38
    12   1    -0.17   0.02   0.48    -0.43   0.10   0.24     0.18  -0.02  -0.03
    13   1     0.13  -0.47   0.31    -0.04  -0.20   0.17    -0.27   0.12  -0.03
    14   8    -0.02  -0.03  -0.01    -0.03   0.16  -0.13     0.03   0.06  -0.04
    15   1    -0.00   0.09  -0.00    -0.18  -0.33  -0.24    -0.05  -0.18  -0.10
                      7                      8                      9
                      A                      A                      A
 Frequencies --    131.1214               174.0597               222.1021
 Red. masses --      4.3793                 1.3387                 2.8736
 Frc consts  --      0.0444                 0.0239                 0.0835
 IR Inten    --     14.3473                 2.0216                 7.9457
  Atom  AN      X      Y      Z        X      Y      Z        X      Y      Z
     1   6    -0.04  -0.25  -0.03     0.03  -0.02  -0.04     0.06  -0.17  -0.04
     2   1    -0.03  -0.41  -0.05     0.05  -0.02  -0.13     0.08  -0.49  -0.10
     3   6    -0.06  -0.06   0.01     0.00  -0.01   0.06     0.03   0.21   0.03
     4   6    -0.06   0.01   0.04     0.01   0.00   0.02     0.02   0.08   0.00
     5   8    -0.06  -0.05   0.02     0.09   0.00   0.00     0.01  -0.07  -0.03
     6   8    -0.08   0.11   0.05    -0.04   0.01  -0.02     0.03  -0.10  -0.03
     7   6    -0.07   0.07  -0.03    -0.04   0.00  -0.03     0.02  -0.08   0.02
     8   6    -0.01   0.02   0.01    -0.05  -0.02   0.03    -0.12  -0.01  -0.02
     9   1    -0.13   0.11  -0.07    -0.03   0.03  -0.03     0.07  -0.11   0.05
    10   1    -0.06   0.02  -0.10    -0.05  -0.02  -0.06     0.02  -0.04   0.08
    11   1     0.01   0.04  -0.17    -0.13  -0.26   0.57    -0.10   0.19  -0.08
    12   1    -0.14   0.07   0.12     0.44  -0.04  -0.17    -0.31  -0.06  -0.02
    13   1     0.14  -0.08   0.09    -0.49   0.19  -0.21    -0.09  -0.06   0.01
    14   8     0.32   0.16  -0.05     0.01   0.04  -0.01    -0.04   0.15   0.06
    15   1     0.19  -0.61  -0.12     0.01  -0.02  -0.01     0.10   0.60   0.16
                     10                     11                     12
                      A                      A                      A
 Frequencies --    291.4972               311.7102               423.9932
 Red. masses --      2.7780                 2.9948                 3.8282
 Frc consts  --      0.1391                 0.1714                 0.4055
 IR Inten    --     47.5502                17.7696                 0.9477
  Atom  AN      X      Y      Z        X      Y      Z        X      Y      Z
     1   6     0.04   0.03   0.02    -0.01   0.02  -0.02     0.10   0.02   0.04
     2   1     0.05  -0.15  -0.01     0.01   0.09  -0.09     0.06   0.16   0.19
     3   6     0.03   0.27   0.04    -0.03  -0.06   0.06     0.13  -0.13  -0.12
     4   6     0.02   0.12   0.03    -0.00   0.02  -0.05     0.06   0.02   0.02
     5   8    -0.01  -0.04   0.00     0.21   0.02  -0.12    -0.08   0.02   0.07
     6   8     0.00   0.01   0.00    -0.04   0.11  -0.07     0.06   0.24   0.08
     7   6     0.00  -0.03  -0.02    -0.09  -0.10   0.20     0.02  -0.14  -0.08
     8   6    -0.08  -0.01  -0.00    -0.06  -0.02   0.02    -0.20  -0.11  -0.07
     9   1    -0.00   0.00  -0.03     0.08  -0.38   0.33    -0.03  -0.16  -0.10
    10   1     0.01  -0.04  -0.04    -0.37   0.02   0.44    -0.08  -0.18  -0.09
    11   1    -0.09   0.08   0.05    -0.02   0.12  -0.24    -0.21   0.26   0.09
    12   1    -0.13  -0.03  -0.01    -0.31  -0.11  -0.00    -0.42  -0.21  -0.13
    13   1    -0.14  -0.05  -0.02     0.15   0.01   0.11    -0.41  -0.21  -0.15
    14   8     0.03  -0.19  -0.04     0.02  -0.01  -0.00    -0.00   0.01   0.01
    15   1    -0.10  -0.86  -0.12    -0.02  -0.15  -0.03     0.03   0.15   0.02
                     13                     14                     15
                      A                      A                      A
 Frequencies --    572.2801               624.2519               762.6545
 Red. masses --      4.2300                 5.3348                 3.4143
 Frc consts  --      0.8162                 1.2249                 1.1700
 IR Inten    --      2.8424                13.0481                82.7927
  Atom  AN      X      Y      Z        X      Y      Z        X      Y      Z
     1   6    -0.24   0.00  -0.06     0.17  -0.01   0.06    -0.00  -0.09   0.01
     2   1    -0.18   0.05  -0.33     0.34   0.22  -0.61    -0.01   0.87  -0.00
     3   6    -0.26  -0.04   0.16     0.05  -0.10   0.40     0.01  -0.14  -0.05
     4   6    -0.03   0.05  -0.02     0.04   0.02  -0.12     0.00   0.39   0.09
     5   8     0.05   0.01  -0.05    -0.28   0.02  -0.03    -0.00  -0.09  -0.04
     6   8     0.15   0.05   0.08     0.02   0.04  -0.20    -0.00  -0.10  -0.01
     7   6     0.27  -0.09  -0.05     0.04   0.01  -0.01    -0.02  -0.00   0.01
     8   6     0.01  -0.01  -0.02     0.01   0.01   0.02    -0.00   0.00   0.01
     9   1     0.12   0.05  -0.14     0.20  -0.14   0.09    -0.03   0.09  -0.01
    10   1     0.34  -0.16  -0.17    -0.15   0.06   0.12     0.06  -0.03  -0.05
    11   1    -0.01   0.40   0.20     0.01   0.02   0.01    -0.00  -0.06  -0.04
    12   1    -0.21  -0.12  -0.09    -0.00   0.04   0.06     0.04  -0.00  -0.02
    13   1    -0.26  -0.12  -0.12     0.01  -0.05   0.02     0.05   0.06   0.02
    14   8     0.01   0.00  -0.00     0.00  -0.00  -0.00     0.00  -0.00   0.01
    15   1    -0.00  -0.06  -0.00    -0.02  -0.03  -0.03     0.00   0.01   0.00
                     16                     17                     18
                      A                      A                      A
 Frequencies --    786.8702               816.5575               825.1187
 Red. masses --      1.5413                 1.2935                 1.5760
 Frc consts  --      0.5623                 0.5081                 0.6322
 IR Inten    --     51.7138                10.1293                15.3495
  Atom  AN      X      Y      Z        X      Y      Z        X      Y      Z
     1   6     0.04   0.08  -0.13     0.04   0.05   0.03     0.04  -0.12  -0.08
     2   1    -0.20  -0.45   0.84     0.08  -0.31  -0.12    -0.12   0.71   0.52
     3   6    -0.02  -0.08   0.08     0.03  -0.04   0.02    -0.00   0.10   0.07
     4   6     0.01   0.08   0.01    -0.02   0.03  -0.04    -0.01  -0.10  -0.04
     5   8    -0.02  -0.02   0.00    -0.01   0.01  -0.06    -0.01   0.03  -0.01
     6   8    -0.00  -0.01  -0.03     0.01  -0.01   0.04    -0.00   0.02   0.01
     7   6     0.02  -0.00  -0.01    -0.04  -0.02   0.07    -0.00  -0.01   0.03
     8   6     0.01   0.00   0.00    -0.02  -0.02   0.02    -0.00  -0.01   0.01
     9   1     0.04  -0.05   0.01    -0.11   0.49  -0.05    -0.03   0.20  -0.02
    10   1    -0.01   0.02   0.03     0.14  -0.29  -0.35     0.04  -0.13  -0.15
    11   1     0.00   0.02   0.02     0.01  -0.00  -0.18     0.01   0.04  -0.06
    12   1     0.00   0.02   0.03    -0.04  -0.26  -0.31    -0.04  -0.13  -0.14
    13   1    -0.01  -0.03   0.00     0.12   0.40   0.02     0.04   0.18   0.00
    14   8    -0.00  -0.00  -0.00     0.00  -0.00   0.00    -0.00   0.00  -0.00
    15   1     0.01  -0.01   0.01     0.00  -0.00   0.00    -0.02  -0.01  -0.02
                     19                     20                     21
                      A                      A                      A
 Frequencies --    899.4551               945.7754              1112.9735
 Red. masses --      3.4193                 2.5259                 4.1599
 Frc consts  --      1.6298                 1.3312                 3.0360
 IR Inten    --     20.9470                 5.5400                 8.2509
  Atom  AN      X      Y      Z        X      Y      Z        X      Y      Z
     1   6     0.08  -0.00   0.00     0.10   0.00   0.03     0.07   0.00   0.02
     2   1     0.07   0.03   0.06     0.11  -0.01   0.02     0.07  -0.00   0.03
     3   6     0.03  -0.01   0.08     0.07  -0.01  -0.01     0.04  -0.00  -0.03
     4   6    -0.09   0.01  -0.12    -0.14   0.01  -0.02    -0.16   0.00   0.04
     5   8    -0.00   0.05  -0.19     0.01   0.02  -0.09     0.01   0.00  -0.01
     6   8     0.10  -0.04   0.25    -0.15  -0.03   0.06    -0.18   0.01  -0.05
     7   6    -0.08   0.07  -0.01     0.05  -0.11  -0.03     0.28   0.21   0.15
     8   6    -0.08  -0.04  -0.09     0.16   0.11   0.05    -0.03  -0.21  -0.11
     9   1    -0.27  -0.17  -0.05    -0.25  -0.21  -0.15     0.26   0.32   0.14
    10   1     0.20   0.29   0.22    -0.01  -0.14  -0.05     0.38   0.27   0.18
    11   1    -0.10  -0.41  -0.00     0.14   0.67   0.37    -0.04  -0.10  -0.02
    12   1     0.15   0.28   0.28    -0.17   0.04   0.07    -0.13  -0.27  -0.13
    13   1    -0.03  -0.40  -0.01    -0.22  -0.11  -0.09    -0.15  -0.35  -0.16
    14   8     0.00  -0.00   0.00     0.00  -0.00   0.00     0.00  -0.00  -0.00
    15   1    -0.01  -0.01  -0.01    -0.00  -0.01  -0.00    -0.00  -0.01   0.00
                     22                     23                     24
                      A                      A                      A
 Frequencies --   1159.4865              1228.7080              1329.8017
 Red. masses --      2.0887                 1.7539                 1.8312
 Frc consts  --      1.6545                 1.5601                 1.9080
 IR Inten    --     18.7900                 4.5416               287.8262
  Atom  AN      X      Y      Z        X      Y      Z        X      Y      Z
     1   6    -0.02  -0.00  -0.01    -0.02   0.00  -0.01    -0.04  -0.00  -0.01
     2   1    -0.03   0.00  -0.01    -0.02  -0.00  -0.01    -0.05  -0.00  -0.02
     3   6    -0.01   0.00   0.01    -0.01   0.00  -0.00    -0.01   0.00   0.00
     4   6     0.06   0.00  -0.01     0.07  -0.00  -0.01     0.20   0.01  -0.07
     5   8    -0.00  -0.00   0.00    -0.01  -0.01   0.03    -0.02   0.00  -0.01
     6   8     0.08  -0.05   0.01     0.01   0.02  -0.07    -0.10  -0.00   0.02
     7   6    -0.15   0.17   0.02    -0.05  -0.05   0.17     0.07   0.03   0.01
     8   6     0.12  -0.13  -0.01     0.03   0.04  -0.12    -0.02  -0.03   0.06
     9   1    -0.13   0.03   0.06    -0.41   0.32  -0.05    -0.69  -0.31  -0.27
    10   1    -0.32   0.13   0.00     0.30  -0.24  -0.19     0.31   0.22   0.20
    11   1     0.09   0.52   0.20    -0.02  -0.03   0.27     0.00   0.00  -0.11
    12   1    -0.37  -0.35  -0.15    -0.01   0.31   0.28     0.01  -0.18  -0.14
    13   1    -0.32  -0.12  -0.21    -0.10  -0.45  -0.10     0.04   0.18   0.06
    14   8    -0.00   0.00  -0.00    -0.00   0.00   0.00    -0.00   0.00   0.00
    15   1    -0.00  -0.00  -0.00     0.00   0.00  -0.00     0.00   0.01   0.00
                     25                     26                     27
                      A                      A                      A
 Frequencies --   1373.7328              1443.8767              1457.4502
 Red. masses --      1.8538                 1.3871                 1.2698
 Frc consts  --      2.0612                 1.7038                 1.5892
 IR Inten    --    305.6545                42.0047                17.0860
  Atom  AN      X      Y      Z        X      Y      Z        X      Y      Z
     1   6     0.03  -0.00   0.01    -0.02   0.00  -0.00     0.01  -0.00   0.00
     2   1     0.03   0.00   0.02    -0.02   0.00  -0.01     0.01  -0.00   0.00
     3   6     0.00  -0.00  -0.00    -0.00  -0.00   0.00     0.00   0.00  -0.00
     4   6    -0.16  -0.01   0.06     0.09   0.00  -0.02    -0.03  -0.00   0.01
     5   8     0.02  -0.01   0.03    -0.01   0.01  -0.02     0.00  -0.00   0.00
     6   8     0.11   0.04  -0.11    -0.06   0.01   0.04     0.02  -0.00  -0.01
     7   6    -0.08  -0.02  -0.02    -0.08  -0.07  -0.04     0.04   0.04   0.02
     8   6     0.01  -0.03   0.05     0.02  -0.06  -0.02    -0.07  -0.11  -0.05
     9   1    -0.35  -0.17  -0.12     0.50   0.35   0.17    -0.18  -0.15  -0.05
    10   1     0.75   0.31   0.21     0.46   0.28   0.27    -0.18  -0.12  -0.12
    11   1     0.02   0.07  -0.03     0.02   0.28   0.13    -0.05   0.50   0.18
    12   1    -0.05  -0.11  -0.04     0.01   0.12   0.21     0.34   0.29   0.32
    13   1    -0.01   0.18   0.01     0.05   0.22  -0.04     0.34   0.40   0.07
    14   8     0.00  -0.00  -0.00    -0.00   0.00   0.00     0.00  -0.00  -0.00
    15   1    -0.00  -0.01  -0.00     0.00   0.00   0.00    -0.00  -0.00  -0.00
                     28                     29                     30
                      A                      A                      A
 Frequencies --   1525.8058              1536.5507              1544.3418
 Red. masses --      1.0415                 1.0605                 1.0849
 Frc consts  --      1.4286                 1.4752                 1.5245
 IR Inten    --     14.6572                 2.0852                27.0126
  Atom  AN      X      Y      Z        X      Y      Z        X      Y      Z
     1   6     0.00   0.00   0.00     0.00  -0.00   0.00     0.00  -0.00   0.00
     2   1     0.00  -0.00   0.00     0.00   0.00   0.00     0.00   0.00   0.00
     3   6     0.00  -0.00  -0.00    -0.00   0.00  -0.00    -0.00   0.00  -0.00
     4   6     0.00  -0.00   0.00    -0.02  -0.00  -0.00    -0.02   0.00  -0.00
     5   8    -0.00   0.00  -0.00     0.00  -0.00   0.01     0.00  -0.00   0.01
     6   8    -0.00  -0.00   0.00     0.02  -0.00  -0.01     0.02  -0.00  -0.01
     7   6     0.01   0.02  -0.02     0.01  -0.04  -0.02     0.05  -0.04  -0.01
     8   6     0.02   0.01  -0.05    -0.03   0.02  -0.01     0.03  -0.02   0.00
     9   1     0.01  -0.10  -0.00    -0.16   0.42  -0.16    -0.24   0.39  -0.21
    10   1     0.00  -0.00  -0.04    -0.25   0.21   0.37    -0.34   0.14   0.33
    11   1    -0.08  -0.35   0.58    -0.04   0.16   0.26     0.03  -0.18  -0.18
    12   1    -0.55  -0.09   0.05     0.19  -0.17  -0.32    -0.23   0.17   0.33
    13   1     0.36   0.25   0.10     0.36  -0.30   0.22    -0.28   0.34  -0.19
    14   8    -0.00  -0.00   0.00     0.00  -0.00   0.00    -0.00  -0.00  -0.00
    15   1    -0.00   0.00  -0.00    -0.00  -0.00  -0.00     0.00   0.00   0.00
                     31                     32                     33
                      A                      A                      A
 Frequencies --   1907.5680              2307.1151              3107.7493
 Red. masses --     12.2573                 5.6447                 1.0351
 Frc consts  --     26.2787                17.7022                 5.8900
 IR Inten    --    309.4687                61.4015                13.2500
  Atom  AN      X      Y      Z        X      Y      Z        X      Y      Z
     1   6    -0.07  -0.00  -0.01    -0.36  -0.00  -0.09     0.00  -0.00   0.00
     2   1    -0.10  -0.01  -0.01    -0.74  -0.02  -0.19    -0.00   0.00  -0.00
     3   6     0.05   0.00  -0.01     0.51  -0.01   0.12    -0.00   0.00  -0.00
     4   6     0.20  -0.19   0.75    -0.09   0.01  -0.04     0.00   0.00  -0.00
     5   8    -0.16   0.12  -0.48     0.00  -0.00   0.01     0.00   0.00   0.00
     6   8     0.04   0.01  -0.07    -0.00  -0.00   0.00    -0.00  -0.00   0.00
     7   6     0.02  -0.01   0.01     0.00   0.00  -0.00     0.00   0.00   0.00
     8   6    -0.01   0.01  -0.00    -0.00  -0.00  -0.00    -0.02  -0.04  -0.02
     9   1    -0.15   0.07  -0.08     0.01  -0.00  -0.00    -0.00  -0.00  -0.00
    10   1    -0.13  -0.01   0.08     0.00  -0.00  -0.00     0.00  -0.01   0.01
    11   1    -0.00  -0.03  -0.05     0.00   0.00   0.00     0.63  -0.04   0.08
    12   1     0.03   0.01  -0.01     0.00   0.00   0.00    -0.13   0.44  -0.34
    13   1    -0.03  -0.05   0.00     0.00   0.00   0.00    -0.23   0.06   0.46
    14   8    -0.00   0.00  -0.00     0.00   0.00   0.00     0.00   0.00  -0.00
    15   1     0.02  -0.00   0.02    -0.00  -0.00  -0.00    -0.00  -0.00   0.00
                     34                     35                     36
                      A                      A                      A
 Frequencies --   3136.2175              3187.9144              3190.1775
 Red. masses --      1.0601                 1.1022                 1.1009
 Frc consts  --      6.1435                 6.5994                 6.6015
 IR Inten    --     21.7503                 6.7903                14.2302
  Atom  AN      X      Y      Z        X      Y      Z        X      Y      Z
     1   6    -0.00   0.00   0.00    -0.00   0.00  -0.00     0.00  -0.00   0.00
     2   1     0.00  -0.00   0.00     0.00  -0.00   0.00    -0.00  -0.00   0.00
     3   6     0.00  -0.00  -0.00     0.00   0.00   0.00    -0.00   0.00   0.00
     4   6    -0.00  -0.00   0.00    -0.00  -0.00   0.00    -0.00   0.00  -0.00
     5   8    -0.00   0.00  -0.00     0.00  -0.00   0.00     0.00  -0.00   0.00
     6   8     0.00   0.00  -0.00    -0.00   0.00  -0.00     0.00   0.00   0.00
     7   6     0.03  -0.06  -0.00     0.02   0.01  -0.06     0.00   0.02  -0.03
     8   6    -0.01   0.01  -0.00     0.03  -0.04   0.05    -0.08   0.03   0.02
     9   1    -0.22   0.07   0.50    -0.24   0.09   0.53    -0.10   0.04   0.22
    10   1    -0.13   0.64  -0.49     0.05  -0.24   0.17     0.05  -0.24   0.18
    11   1     0.11  -0.01   0.01    -0.31   0.01  -0.03     0.68  -0.03   0.09
    12   1     0.01  -0.05   0.04    -0.13   0.48  -0.36     0.04  -0.23   0.18
    13   1     0.01  -0.00  -0.03     0.14  -0.05  -0.26     0.21  -0.06  -0.48
    14   8     0.00  -0.00  -0.00     0.00  -0.00   0.00    -0.00  -0.00   0.00
    15   1     0.00   0.00   0.00    -0.00  -0.00   0.00     0.00   0.00  -0.00
                     37                     38                     39
                      A                      A                      A
 Frequencies --   3211.0774              3529.8900              3806.6861
 Red. masses --      1.1050                 1.1748                 1.0672
 Frc consts  --      6.7132                 8.6245                 9.1112
 IR Inten    --     17.6635                60.3973                10.3710
  Atom  AN      X      Y      Z        X      Y      Z        X      Y      Z
     1   6    -0.00   0.00  -0.00    -0.11  -0.00  -0.03    -0.00   0.00  -0.00
     2   1     0.00  -0.00  -0.00     0.96   0.01   0.25     0.00  -0.00   0.00
     3   6     0.00  -0.00   0.00     0.04  -0.00   0.01     0.00   0.00   0.00
     4   6    -0.00   0.00  -0.00    -0.00   0.00  -0.00     0.00  -0.00  -0.00
     5   8     0.00   0.00   0.00     0.00   0.00  -0.00    -0.00   0.00  -0.00
     6   8    -0.00   0.00  -0.00     0.00   0.00  -0.00    -0.00  -0.00   0.00
     7   6     0.01   0.02  -0.06    -0.00   0.00   0.00     0.00   0.00  -0.00
     8   6     0.02   0.02  -0.06     0.00  -0.00   0.00    -0.00   0.00  -0.00
     9   1    -0.22   0.08   0.49     0.00  -0.00  -0.00    -0.00   0.00   0.00
    10   1     0.06  -0.29   0.21     0.00  -0.00   0.00    -0.00  -0.00   0.00
    11   1    -0.08   0.01  -0.03     0.00   0.00   0.00    -0.00  -0.00   0.00
    12   1     0.10  -0.35   0.26    -0.00   0.00  -0.00    -0.00  -0.00   0.00
    13   1    -0.26   0.09   0.53    -0.00  -0.00  -0.00     0.00   0.00  -0.00
    14   8    -0.00  -0.00   0.00     0.00   0.00   0.00     0.04  -0.00  -0.05
    15   1     0.00   0.00  -0.00     0.00  -0.00  -0.00    -0.65   0.04   0.76

 -------------------
 - Thermochemistry -
 -------------------
 Temperature   298.150 Kelvin.  Pressure   1.00000 Atm.
 Atom     1 has atomic number  6 and mass  12.00000
 Atom     2 has atomic number  1 and mass   1.00783
 Atom     3 has atomic number  6 and mass  12.00000
 Atom     4 has atomic number  6 and mass  12.00000
 Atom     5 has atomic number  8 and mass  15.99491
 Atom     6 has atomic number  8 and mass  15.99491
 Atom     7 has atomic number  6 and mass  12.00000
 Atom     8 has atomic number  6 and mass  12.00000
 Atom     9 has atomic number  1 and mass   1.00783
 Atom    10 has atomic number  1 and mass   1.00783
 Atom    11 has atomic number  1 and mass   1.00783
 Atom    12 has atomic number  1 and mass   1.00783
 Atom    13 has atomic number  1 and mass   1.00783
 Atom    14 has atomic number  8 and mass  15.99491
 Atom    15 has atomic number  1 and mass   1.00783
 Molecular mass:   115.03952 amu.
 Principal axes and moments of inertia in atomic units:
                           1         2         3
     Eigenvalues --   530.172371382.838611548.88540
           X            0.99995   0.01008  -0.00138
           Y           -0.00997   0.99790   0.06398
           Z            0.00202  -0.06396   0.99795
 This molecule is an asymmetric top.
 Rotational symmetry number  1.
 Warning -- assumption of classical behavior for rotation
           may cause significant error
 Rotational temperatures (Kelvin)      0.16337     0.06263     0.05592
 Rotational constants (GHZ):           3.40407     1.30510     1.16519
    4 imaginary frequencies ignored.
 Zero-point vibrational energy     293393.6 (Joules/Mol)
                                   70.12275 (Kcal/Mol)
 Warning -- explicit consideration of   9 degrees of freedom as
           vibrations may cause significant error
 Vibrational temperatures:    110.71   129.58   188.65   250.43   319.56
          (Kelvin)            419.40   448.48   610.03   823.38   898.16
                             1097.29  1132.13  1174.84  1187.16  1294.12
                             1360.76  1601.32  1668.24  1767.84  1913.29
                             1976.50  2077.42  2096.95  2195.29  2210.75
                             2221.96  2744.56  3319.42  4471.36  4512.32
                             4586.70  4589.95  4620.02  5078.72  5476.97
 
 Zero-point correction=                           0.111748 (Hartree/Particle)
 Thermal correction to Energy=                    0.119886
 Thermal correction to Enthalpy=                  0.120830
 Thermal correction to Gibbs Free Energy=         0.077652
 Sum of electronic and zero-point Energies=           -419.848738
 Sum of electronic and thermal Energies=              -419.840600
 Sum of electronic and thermal Enthalpies=            -419.839656
 Sum of electronic and thermal Free Energies=         -419.882833
 
                     E (Thermal)             CV                S
                      KCal/Mol        Cal/Mol-Kelvin    Cal/Mol-Kelvin
 Total                   75.229             27.216             90.875
 Electronic               0.000              0.000              1.377
 Translational            0.889              2.981             40.136
 Rotational               0.889              2.981             28.520
 Vibrational             73.452             21.254             20.842
 Vibration     1          0.599              1.965              3.967
 Vibration     2          0.602              1.956              3.659
 Vibration     3          0.612              1.922              2.930
 Vibration     4          0.627              1.874              2.391
 Vibration     5          0.648              1.807              1.942
 Vibration     6          0.687              1.690              1.465
 Vibration     7          0.700              1.651              1.353
 Vibration     8          0.786              1.418              0.879
 Vibration     9          0.928              1.091              0.500
                       Q            Log10(Q)             Ln(Q)
 Total Bot       0.191713D-35        -35.717348        -82.242234
 Total V=0       0.481937D+16         15.682990         36.111419
 Vib (Bot)       0.518141D-49        -49.285552       -113.484178
 Vib (Bot)    1  0.267772D+01          0.427765          0.984965
 Vib (Bot)    2  0.228285D+01          0.358478          0.825425
 Vib (Bot)    3  0.155434D+01          0.191547          0.441053
 Vib (Bot)    4  0.115625D+01          0.063050          0.145179
 Vib (Bot)    5  0.889809D+00         -0.050703         -0.116748
 Vib (Bot)    6  0.655501D+00         -0.183427         -0.422356
 Vib (Bot)    7  0.606026D+00         -0.217508         -0.500832
 Vib (Bot)    8  0.412865D+00         -0.384192         -0.884635
 Vib (Bot)    9  0.268327D+00         -0.571335         -1.315548
 Vib (V=0)       0.130252D+03          2.114786          4.869474
 Vib (V=0)    1  0.322400D+01          0.508395          1.170623
 Vib (V=0)    2  0.283697D+01          0.452854          1.042735
 Vib (V=0)    3  0.213278D+01          0.328947          0.757428
 Vib (V=0)    4  0.175972D+01          0.245445          0.565157
 Vib (V=0)    5  0.152067D+01          0.182034          0.419149
 Vib (V=0)    6  0.132443D+01          0.122028          0.280981
 Vib (V=0)    7  0.128566D+01          0.109127          0.251275
 Vib (V=0)    8  0.114843D+01          0.060103          0.138393
 Vib (V=0)    9  0.106745D+01          0.028348          0.065273
 Electronic      0.200000D+01          0.301030          0.693147
 Translational   0.484981D+08          7.685724         17.697035
 Rotational      0.381460D+06          5.581450         12.851762
 ***** Axes restored to original set *****
 -------------------------------------------------------------------
 Center     Atomic                   Forces (Hartrees/Bohr)
 Number     Number              X              Y              Z
 -------------------------------------------------------------------
      1        6          -0.021549294    0.000691417   -0.005546602
      2        1          -0.000788990   -0.000156597   -0.000157201
      3        6           0.024615452   -0.010219449    0.004473873
      4        6          -0.043632905    0.009616629   -0.031800755
      5        8           0.018269273   -0.012127484    0.045986643
      6        8           0.002502303    0.002370185   -0.014349680
      7        6           0.017207158   -0.000556396   -0.002885379
      8        6           0.000357844    0.000527931    0.000195045
      9        1           0.000378593   -0.000133611   -0.000724573
     10        1           0.000555771   -0.001156721    0.001135637
     11        1           0.001403935    0.000349072    0.000484421
     12        1          -0.000382294    0.001048719   -0.000484036
     13        1          -0.000314155    0.000731902    0.001536787
     14        8           0.012587315    0.007499868   -0.010767818
     15        1          -0.011210007    0.001514534    0.012903639
 -------------------------------------------------------------------
 Cartesian Forces:  Max     0.045986643 RMS     0.013323624

 GradGradGradGradGradGradGradGradGradGradGradGradGradGradGradGradGradGrad
 Berny optimization.
 Search for a local minimum.
 Step number   1 out of a maximum of    2
 All quantities printed in internal units (Hartrees-Bohrs-Radians)
 Second derivative matrix not updated -- analytic derivatives used.
 ITU=  0
     Eigenvalues ---   -0.01438  -0.00531  -0.00163  -0.00048   0.00087
     Eigenvalues ---    0.00124   0.00231   0.00412   0.00852   0.01775
     Eigenvalues ---    0.02550   0.03401   0.03627   0.05569   0.06689
     Eigenvalues ---    0.07663   0.08308   0.09337   0.10000   0.10565
     Eigenvalues ---    0.12127   0.14913   0.17975   0.18564   0.21516
     Eigenvalues ---    0.28651   0.29991   0.43499   0.50087   0.64699
     Eigenvalues ---    0.73825   0.77892   0.80444   0.88667   0.93681
     Eigenvalues ---    0.97345   0.98069   1.85581   2.83379
 Eigenvalue     1 is  -1.44D-02 should be greater than     0.000000 Eigenvector:
                          Z15       X15       X14       Z14       Y15
   1                    0.54594   0.52025  -0.44242  -0.29774  -0.28302
                          Y14       Y2        Y13       Z12       X13
   1                    0.17190   0.06805  -0.06106   0.05384   0.04738
 Eigenvalue     2 is  -5.31D-03 should be greater than     0.000000 Eigenvector:
                          Y5        Y15       Z14       Y6        X15
   1                    0.60202  -0.41980   0.37811  -0.27505  -0.19197
                          Z15       Z3        Z1        Z6        Z2
   1                    0.18815  -0.14445  -0.13456  -0.12573  -0.10454
 Eigenvalue     3 is  -1.63D-03 should be greater than     0.000000 Eigenvector:
                          Y15       X15       X12       X14       Y5
   1                    0.45783   0.41315  -0.27449   0.23805   0.23209
                          Y14       Z12       Y9        Y13       X8
   1                   -0.22243   0.22139   0.21008  -0.18284  -0.18050
 Eigenvalue     4 is  -4.80D-04 should be greater than     0.000000 Eigenvector:
                          Y13       Z12       Z10       Y2        Y11
   1                    0.35430  -0.33124   0.27292   0.25804   0.25318
                          X15       X13       X14       Y5        Z13
   1                    0.25178  -0.24803   0.24091  -0.20640  -0.20148
 Quadratic step=1.808D+00 exceeds max=3.000D-01 adjusted using Lamda=-1.935D-02.
 Angle between NR and scaled steps=  61.66 degrees.
 Angle between quadratic step and forces=  69.29 degrees.
 Linear search not attempted -- first point.
 B after Tr=     0.000742   -0.001420    0.000876
         Rot=    1.000000    0.000847   -0.000097    0.000364 Ang=   0.11 deg.
 Variable       Old X    -DE/DX   Delta X   Delta X   Delta X     New X
                                 (Linear)    (Quad)   (Total)
    X1       -5.17704  -0.02155   0.00000  -0.03757  -0.03766  -5.21470
    Y1       -0.88354   0.00069   0.00000  -0.02188  -0.02100  -0.90453
    Z1       -0.85545  -0.00555   0.00000  -0.02783  -0.02440  -0.87985
    X2       -7.12586  -0.00079   0.00000  -0.04107  -0.04122  -7.16708
    Y2       -0.89712  -0.00016   0.00000   0.03094   0.03241  -0.86471
    Z2       -1.35803  -0.00016   0.00000  -0.01749  -0.01375  -1.37178
    X3       -2.97060   0.02462   0.00000  -0.02368  -0.02374  -2.99434
    Y3       -0.84491  -0.01022   0.00000  -0.16493  -0.16475  -1.00966
    Z3       -0.32180   0.00447   0.00000  -0.02139  -0.01822  -0.34002
    X4       -0.31759  -0.04363   0.00000  -0.05266  -0.05267  -0.37026
    Y4       -1.07844   0.00962   0.00000  -0.06164  -0.06211  -1.14055
    Z4        0.41581  -0.03180   0.00000  -0.01593  -0.01305   0.40276
    X5        0.33044   0.01827   0.00000   0.02336   0.02342   0.35386
    Y5       -1.66522  -0.01213   0.00000   0.03206   0.03471  -1.63051
    Z5        2.50709   0.04599   0.00000   0.04433   0.04790   2.55499
    X6        1.20327   0.00250   0.00000  -0.00776  -0.00782   1.19546
    Y6       -0.63909   0.00237   0.00000  -0.04464  -0.04956  -0.68865
    Z6       -1.52992  -0.01435   0.00000  -0.02783  -0.02602  -1.55594
    X7        3.87532   0.01721   0.00000   0.03938   0.03935   3.91467
    Y7       -0.79372  -0.00056   0.00000   0.00185  -0.00415  -0.79787
    Z7       -1.01658  -0.00289   0.00000  -0.00887  -0.00741  -1.02399
    X8        4.80416   0.00036   0.00000   0.00267   0.00463   4.80879
    Y8        1.59965   0.00053   0.00000   0.01439   0.00991   1.60956
    Z8        0.25164   0.00020   0.00000   0.00193  -0.00087   0.25077
    X9        4.72500   0.00038   0.00000   0.02324   0.02265   4.74765
    Y9       -1.05681  -0.00013   0.00000   0.01025   0.00048  -1.05633
    Z9       -2.87125  -0.00072   0.00000  -0.01731  -0.01558  -2.88683
   X10        4.22937   0.00056   0.00000   0.03542   0.03440   4.26377
   Y10       -2.45788  -0.00116   0.00000   0.00261  -0.00166  -2.45953
   Z10        0.14683   0.00114   0.00000  -0.00046   0.00375   0.15058
   X11        6.84913   0.00140   0.00000   0.00700   0.00895   6.85808
   Y11        1.50052   0.00035   0.00000   0.02883   0.02329   1.52381
   Z11        0.50658   0.00048   0.00000   0.00975   0.00670   0.51329
   X12        4.36078  -0.00038   0.00000  -0.00628  -0.00334   4.35744
   Y12        3.24302   0.00105   0.00000   0.01641   0.01028   3.25330
   Z12       -0.91077  -0.00048   0.00000   0.00373  -0.00176  -0.91254
   X13        3.92367  -0.00031   0.00000  -0.00371  -0.00122   3.92244
   Y13        1.82773   0.00073   0.00000   0.00454   0.00383   1.83156
   Z13        2.10006   0.00154   0.00000   0.00391   0.00092   2.10098
   X14       -2.52855   0.01259   0.00000   0.04925   0.05268  -2.47587
   Y14        3.44945   0.00750   0.00000   0.17902   0.17984   3.62928
   Z14        0.21695  -0.01077   0.00000   0.04204   0.03725   0.25420
   X15       -3.72440  -0.01121   0.00000  -0.02202  -0.01841  -3.74281
   Y15        3.49178   0.00151   0.00000   0.00441   0.00848   3.50026
   Z15        1.60954   0.01290   0.00000   0.02888   0.02455   1.63409
         Item               Value     Threshold  Converged?
 Maximum Force            0.045987     0.000450     NO 
 RMS     Force            0.013324     0.000300     NO 
 Maximum Displacement     0.179835     0.001800     NO 
 RMS     Displacement     0.044596     0.001200     NO 
 Predicted change in Energy=-5.660492D-03
 GradGradGradGradGradGradGradGradGradGradGradGradGradGradGradGradGradGrad


 ----------------------------------------------------------------------

 Electric dipole moment (input orientation):
 (Debye = 10**-18 statcoulomb cm , SI units = C m)
                  (au)            (Debye)         (10**-30 SI)
   Tot        0.348424D+00      0.885606D+00      0.295406D+01
   x         -0.308114D+00     -0.783148D+00     -0.261230D+01
   y          0.942417D-01      0.239538D+00      0.799014D+00
   z         -0.132604D+00     -0.337045D+00     -0.112426D+01

 Dipole polarizability, Alpha (input orientation).
 (esu units = cm**3 , SI units = C**2 m**2 J**-1)
 Alpha(0;0):
               (au)            (10**-24 esu)      (10**-40 SI)
   iso        0.674822D+02      0.999983D+01      0.111263D+02
   aniso      0.312104D+02      0.462491D+01      0.514591D+01
   xx         0.872788D+02      0.129334D+02      0.143903D+02
   yx         0.395342D+01      0.585837D+00      0.651832D+00
   yy         0.583734D+02      0.865005D+01      0.962448D+01
   zx         0.380578D+01      0.563959D+00      0.627489D+00
   zy        -0.177283D+00     -0.262706D-01     -0.292300D-01
   zz         0.567944D+02      0.841606D+01      0.936413D+01

 ----------------------------------------------------------------------

 Dipole orientation:
     6         -1.64121601          1.96502292          4.66467709
     1         -2.04408630          2.45146151          6.57563774
     6         -1.14978402          1.40184009          2.52086345
     6         -0.69223984          0.96384472         -0.16909303
     8         -2.36226752          0.84161327         -1.69676817
     8          1.76390114          0.81056719         -0.65466636
     6          2.44168601          0.35521521         -3.25476688
     6          2.13756909         -2.41527231         -3.91144529
     1          4.40460398          0.95881293         -3.37145043
     1          1.27806324          1.55517271         -4.46074451
     1          2.78158394         -2.74463917         -5.84366652
     1          3.25797217         -3.58032698         -2.63247581
     1          0.16075407         -2.97867912         -3.77460429
     8         -0.69054271         -2.88726284          3.08645338
     1         -2.43317058         -3.09683079          3.62541204

 Electric dipole moment (dipole orientation):
 (Debye = 10**-18 statcoulomb cm , SI units = C m)
                  (au)            (Debye)         (10**-30 SI)
   Tot        0.348424D+00      0.885606D+00      0.295406D+01
   x          0.000000D+00      0.000000D+00      0.000000D+00
   y          0.000000D+00      0.000000D+00      0.000000D+00
   z          0.348424D+00      0.885606D+00      0.295406D+01

 Dipole polarizability, Alpha (dipole orientation).
 (esu units = cm**3 , SI units = C**2 m**2 J**-1)
 Alpha(0;0):
               (au)            (10**-24 esu)      (10**-40 SI)
   iso        0.674822D+02      0.999983D+01      0.111263D+02
   aniso      0.312104D+02      0.462491D+01      0.514591D+01
   xx         0.603023D+02      0.893588D+01      0.994251D+01
   yx        -0.429429D+01     -0.636348D+00     -0.708033D+00
   yy         0.606887D+02      0.899313D+01      0.100062D+02
   zx        -0.935392D+01     -0.138611D+01     -0.154225D+01
   zy         0.850179D+01      0.125984D+01      0.140176D+01
   zz         0.814557D+02      0.120705D+02      0.134302D+02

 ----------------------------------------------------------------------
 1\1\GINC-AJ\Freq\UM062X\6-31+G\C5H7O3(2)\AAYUSH\20-Jun-2025\0\\# freq 
 6-31+g m062x\\Title Card Required\\0,2\C,-2.739569,-0.467547,-0.452683
 \H,-3.770843,-0.474735,-0.71864\C,-1.571975,-0.447109,-0.170289\C,-0.1
 68063,-0.570684,0.220035\O,0.174861,-0.881197,1.326694\O,0.636745,-0.3
 38192,-0.809598\C,2.050731,-0.420016,-0.537949\C,2.542251,0.8465,0.133
 16\H,2.500361,-0.55924,-1.519401\H,2.238084,-1.300652,0.0777\H,3.62440
 1,0.794039,0.268072\H,2.307625,1.71613,-0.48196\H,2.076315,0.967194,1.
 111303\O,-1.338052,1.825369,0.114806\H,-1.97087,1.847768,0.85173\\Vers
 ion=ES64L-G16RevA.03\State=2-A\HF=-419.9604853\S2=0.756369\S2-1=0.\S2A
 =0.750028\RMSD=3.481e-09\RMSF=1.332e-02\ZeroPoint=0.1117477\Thermal=0.
 1198855\Dipole=-0.3081141,0.0942417,-0.1326037\DipoleDeriv=-0.2937238,
 0.1854426,0.022418,0.0137971,-0.2487625,0.0027611,0.0375788,0.0350566,
 -0.1971147,0.2664372,0.0139644,0.0059408,0.0035256,0.2397953,-0.006973
 1,-0.0053684,-0.0036562,0.2615446,-0.5371342,-0.2020128,-0.1294263,0.0
 172929,-0.2729878,-0.0570949,-0.1383586,-0.0378022,-0.1336929,2.129368
 7,-0.1241205,-0.0824568,0.0666969,0.5914734,-0.3086377,-0.4521155,-0.4
 238927,1.6000942,-0.7858737,0.0977187,-0.1884619,-0.0101622,-0.4525454
 ,0.2010012,0.034709,0.2649337,-1.0230105,-1.555166,-0.1295995,0.364707
 3,-0.1289522,-0.4111524,0.0602897,0.513044,0.1046731,-0.8342641,0.8979
 001,0.0829351,-0.0964362,0.0146436,0.3318638,0.0656695,0.0249789,0.016
 5484,0.2842651,-0.0842679,-0.0273719,0.0329741,-0.0486905,-0.0729758,-
 0.0870292,-0.0275642,-0.0536581,-0.016412,-0.0123694,-0.0061658,0.0339
 263,-0.0064368,0.0723703,-0.031024,0.0812561,-0.0563226,-0.0727844,-0.
 008673,-0.0387637,0.0207123,0.0266683,-0.0588187,0.033447,-0.0669136,0
 .0753185,0.0487765,-0.1497358,-0.0087708,-0.0272144,0.0181882,0.078938
 9,0.0020363,-0.0267949,-0.0131747,0.1097484,0.1076777,0.0488729,-0.042
 5944,0.0026232,-0.0462995,0.0463214,-0.0286158,0.0881035,0.0151179,0.0
 921401,0.0207405,0.0869168,-0.0007226,0.0599428,0.0005731,0.0654554,-0
 .0376558,-0.0377398,-0.2804605,0.130756,-0.1263513,0.0480645,-0.201719
 6,0.0654412,-0.158128,-0.002128,-0.1982819,0.2138804,-0.043625,0.12534
 56,-0.0165361,0.3908773,0.0132186,0.1468367,0.0436566,0.1937536\Polar=
 87.2788185,3.9534245,58.3734282,3.8057819,-0.1772826,56.79441\Quadrupo
 le=10.2542363,-3.9303178,-6.3239185,-0.7408539,-1.7998169,4.2842661\PG
 =C01 [X(C5H7O3)]\NImag=4\\1.53303784,0.01260786,0.06690703,0.36371085,
 0.00639333,0.15161185,-0.40856884,-0.00271662,-0.09685557,0.39817173,-
 0.00059051,-0.03256513,-0.00137103,0.00261918,0.01865591,-0.09762590,-
 0.00199298,-0.05684477,0.09790215,0.00154149,0.04358216,-1.12823964,-0
 .00960946,-0.26439902,0.01084743,-0.00215350,0.00165338,1.45606530,0.0
 0659653,-0.03711753,0.00006327,0.00004758,0.01095945,0.00123197,-0.023
 43672,0.08449712,-0.26445835,-0.00290370,-0.10619844,0.00022055,0.0002
 5082,0.00958044,0.32571872,-0.01530031,0.20664660,0.01654379,0.0026732
 7,-0.00150356,-0.00142106,0.00013549,-0.00160301,-0.26192407,0.0056788
 9,-0.04616250,0.68475795,-0.00917893,0.01199253,-0.00093582,-0.0001456
 2,0.00388683,-0.00042231,0.01916095,-0.08644644,0.00005012,-0.04201051
 ,0.25782366,0.00040809,0.00205336,0.01070615,-0.00093251,-0.00003240,0
 .00377157,-0.03814859,-0.00580955,-0.08195934,0.11177690,-0.21678612,0
 .99788550,-0.00528793,-0.00152945,0.00143205,0.00008735,-0.00006810,0.
 00119215,-0.02299786,0.01885880,-0.05459600,-0.15966781,0.05982814,-0.
 21299148,0.16132375,0.00105052,-0.00138080,-0.00033902,0.00011537,-0.0
 0058036,-0.00029471,0.00989119,0.02014832,0.01520436,0.05712302,-0.111
 79358,0.18078096,-0.06550519,0.07614127,-0.00019893,-0.00013115,0.0004
 6549,-0.00006824,-0.00044562,0.00052052,-0.03621777,0.01604858,-0.0284
 6115,-0.20269821,0.17983980,-0.70329067,0.22624782,-0.22524751,0.82828
 788,-0.00649207,0.00032282,-0.00238238,0.00086172,0.00033531,-0.001064
 94,-0.05716397,-0.00414161,0.03648516,-0.21362802,-0.03209766,0.135529
 61,0.02434901,-0.00420634,0.02356404,0.55168838,0.00031029,0.00038443,
 -0.00026246,0.00006322,-0.00031672,0.00012628,-0.00095198,0.01052842,0
 .00192042,-0.02169046,-0.07017226,0.04101266,-0.00831280,0.02247973,0.
 03162103,0.02230965,0.09678781,-0.00090823,-0.00114024,0.00005453,-0.0
 0017336,0.00018709,-0.00066035,0.00716993,0.00299770,0.00317902,0.0967
 9151,0.04143128,-0.22862212,0.03368606,0.03105896,-0.09773820,-0.12035
 111,-0.08149369,0.40501449,0.00223490,0.00038009,0.00112557,-0.0002931
 4,-0.00008160,-0.00007457,0.00354646,-0.00278856,-0.00050119,-0.061313
 74,-0.00285021,0.02619840,-0.00016214,0.00500130,-0.01764250,-0.200837
 42,0.01068570,-0.01053927,0.48737924,0.00051307,-0.00052833,-0.0000511
 1,0.00003847,-0.00022701,-0.00001588,-0.00055106,0.00644878,0.00211905
 ,-0.00746611,0.00314185,-0.00689424,0.00222318,-0.00527330,0.00048930,
 0.01733351,-0.06586507,0.01063196,-0.02096694,0.56643841,0.00074960,-0
 .00046802,0.00050653,-0.00000361,-0.00001411,0.00017869,0.00371700,0.0
 0265052,-0.00323682,0.04172325,-0.00392979,0.00627489,0.00174513,-0.00
 075311,-0.00256101,-0.04581209,0.00984939,-0.08738442,-0.06474513,-0.0
 3886027,0.63542321,-0.00033058,0.00008319,-0.00009298,0.00010020,-0.00
 009703,-0.00003392,-0.00065648,0.00152338,0.00093956,0.00231088,-0.000
 45747,-0.00864632,0.00065205,-0.00166099,0.00265910,-0.03731229,-0.036
 26026,-0.01897679,-0.08352640,-0.02080631,-0.00774589,0.58999336,0.000
 18618,0.00008986,0.00010060,-0.00002266,-0.00001863,-0.00000766,-0.000
 18351,-0.00055565,-0.00029895,-0.00042818,-0.00029903,0.00386451,-0.00
 118501,-0.00040085,-0.00162642,-0.00031439,0.00567516,-0.00212835,-0.0
 3270976,-0.18591019,-0.04967818,-0.03005446,0.53410424,-0.00000610,-0.
 00004850,-0.00010125,-0.00000093,0.00000324,0.00000895,-0.00039724,0.0
 0043893,0.00020616,0.00144874,0.00072856,0.00217675,-0.00124046,-0.001
 53019,-0.00034383,-0.00810749,-0.00508049,-0.00101340,-0.01250322,-0.0
 4865367,-0.11402312,-0.01608590,-0.03556730,0.58383739,-0.00057295,0.0
 0006707,-0.00027023,0.00004645,0.00003880,-0.00002958,-0.00112266,-0.0
 0055301,0.00111832,-0.00427776,0.00347868,-0.00497770,0.00159348,-0.00
 050168,0.00092492,-0.03564726,0.00173677,0.03436054,-0.08698025,0.0142
 8486,0.09464224,0.00701969,-0.00204742,-0.01146892,0.11511045,-0.00002
 481,-0.00003204,0.00003022,0.00001134,0.00000180,0.00000052,0.00017188
 ,0.00025273,-0.00009043,-0.00003531,-0.00058275,0.00251179,-0.00158180
 ,0.00058341,-0.00039131,0.00289900,0.00096745,-0.00277870,0.01405023,-
 0.05787722,-0.02713772,0.01109259,-0.00506270,-0.02949540,-0.01332494,
 0.05926793,0.00000210,0.00016579,-0.00004254,-0.00000406,-0.00001657,-
 0.00001697,-0.00000656,-0.00055590,0.00030881,-0.00336812,0.00049178,-
 0.00063240,0.00147116,-0.00034723,0.00074723,-0.00809492,0.00204277,0.
 00827278,0.10903166,-0.02853476,-0.28608082,0.00461629,-0.00121102,-0.
 01178287,-0.10958678,0.03384497,0.30275426,-0.00008845,0.00012886,-0.0
 0009362,0.00004471,0.00004191,0.00001067,-0.00007377,-0.00086123,0.000
 24005,0.00221850,0.00333582,-0.00890507,0.00079617,-0.00087357,0.00369
 131,-0.02922978,0.03072548,-0.02160826,-0.05544992,0.02794465,-0.01661
 677,0.00426338,-0.01054247,0.00679113,0.00452068,-0.01158491,0.0073858
 6,0.07318797,-0.00016280,0.00006470,0.00001929,-0.00000370,0.00001296,
 0.00000812,0.00007576,-0.00032468,-0.00038319,-0.00036559,0.00015685,0
 .00354569,-0.00244040,0.00053154,-0.00106295,0.00342329,0.00172895,0.0
 0029710,0.03703582,-0.23024467,0.12423502,0.00291989,-0.02369035,0.016
 03748,-0.00132170,0.00486498,-0.00376982,-0.03740527,0.24844188,-0.000
 14683,-0.00017366,-0.00001324,0.00001485,0.00000222,-0.00000059,-0.000
 37073,0.00075306,-0.00003602,0.00298580,-0.00014322,-0.00005182,0.0012
 2050,-0.00084600,-0.00059818,-0.00708601,0.00310744,-0.00284161,-0.025
 25368,0.12750269,-0.14219391,0.00271862,-0.01613147,0.00970162,-0.0045
 4682,0.02453522,-0.01492485,0.03084340,-0.13653185,0.15093075,-0.00010
 139,-0.00002938,-0.00000975,0.00003614,0.00000431,0.00000848,-0.000207
 14,0.00025948,0.00001504,0.00167690,0.00060727,-0.00120636,-0.00013085
 ,-0.00050275,0.00042317,-0.00026507,-0.00293500,-0.00031999,-0.0111984
 4,0.00410885,0.00032179,-0.31830819,0.01318026,-0.03357209,0.00030234,
 -0.00008519,-0.00038697,0.00014900,-0.00045945,0.00022388,0.34811635,-
 0.00016976,-0.00001036,-0.00004693,0.00001492,-0.00001075,-0.00000967,
 -0.00013314,0.00049816,0.00031809,0.00078874,-0.00011506,-0.00267153,0
 .00030825,-0.00035244,0.00094626,-0.00553935,-0.00560321,-0.00243506,-
 0.02907451,0.00302217,-0.00235307,0.01565327,-0.05009737,0.00142921,0.
 00062431,0.00118571,-0.00001575,0.00057059,0.00048688,0.00112694,-0.01
 429810,0.05176002,-0.00006060,0.00004003,0.00000302,0.00000887,-0.0000
 0550,-0.00000387,-0.00007870,-0.00005323,0.00009679,0.00032874,-0.0000
 0414,-0.00247203,0.00052105,0.00037436,0.00096167,-0.00346151,-0.00367
 990,-0.00021704,-0.01503826,0.00263806,-0.00208209,-0.03213867,0.00076
 732,-0.05211397,0.00038030,0.00062915,-0.00017456,0.00023910,0.0002794
 6,0.00045762,0.03770966,0.00024674,0.05286391,-0.00002749,0.00000283,-
 0.00000587,-0.00002757,-0.00000630,-0.00000250,0.00012382,0.00008304,-
 0.00001879,-0.00056982,-0.00071661,0.00155547,-0.00042727,0.00002610,-
 0.00073754,0.00205449,0.00092912,0.00046468,0.00122123,-0.01242749,0.0
 0551338,-0.06258379,0.04970268,-0.03367608,0.00006922,0.00085093,0.000
 22351,-0.00026001,-0.00215213,-0.00107440,-0.00634137,0.02765180,-0.01
 963593,0.06303499,-0.00007799,0.00003569,-0.00003922,-0.00000466,-0.00
 000634,0.00000707,-0.00002848,-0.00002783,0.00002039,-0.00002132,-0.00
 043845,0.00076078,-0.00019568,0.00018313,-0.00047787,0.00124287,0.0032
 5399,0.00032558,0.00677362,-0.02794133,0.01751656,0.04679526,-0.221411
 14,0.12423519,0.00023432,0.00111587,-0.00000678,-0.00199117,-0.0031779
 8,-0.00356707,-0.00074104,-0.00019975,0.00011047,-0.05135682,0.2451989
 8,0.00012399,0.00000113,-0.00000564,-0.00000114,0.00000097,0.00000618,
 -0.00000410,-0.00031595,0.00003417,-0.00054102,0.00050292,-0.00028171,
 0.00054996,0.00036272,0.00026435,0.00208277,0.00115878,0.00018267,0.00
 245668,-0.01753948,0.00963283,-0.03409562,0.12722358,-0.14180723,0.000
 56757,0.00051958,0.00094274,-0.00168406,-0.00302808,-0.00110236,0.0004
 4564,0.00234437,-0.00259380,0.03855838,-0.13564784,0.15058407,0.000111
 60,0.00002025,-0.00000287,-0.00003611,-0.00001090,0.00000311,0.0001441
 4,-0.00011296,0.00003969,-0.00124763,-0.00042840,-0.00074062,-0.000432
 90,-0.00056535,0.00046936,0.00145359,0.00130167,0.00045400,0.00479188,
 -0.00393000,-0.01323127,-0.10154469,0.01450249,0.10874162,-0.00005199,
 -0.00245340,-0.00131058,0.00000160,0.00082222,0.00047556,-0.01361920,0
 .00348000,0.03121123,0.00349701,-0.00067385,-0.00834332,0.10656437,0.0
 0017511,0.00001258,0.00002812,-0.00000872,0.00001573,-0.00001415,-0.00
 001252,-0.00045703,0.00013604,-0.00143512,0.00081415,-0.00270172,0.000
 90950,-0.00028682,0.00160035,0.00011962,0.00157875,0.00275506,0.014724
 93,-0.00574150,-0.03146455,0.01132407,-0.05233945,-0.02244467,-0.00263
 547,-0.00468118,-0.00204852,0.00052735,0.00115638,0.00034097,0.0008675
 8,-0.00058049,-0.00134344,-0.01259655,0.00341858,0.02442260,-0.0118370
 2,0.05710570,0.00002021,0.00003489,0.00000769,-0.00002126,0.00000953,-
 0.00001403,0.00007140,-0.00025828,0.00007123,-0.00084161,-0.00047933,-
 0.00151951,0.00092060,0.00102732,0.00072208,-0.00075389,0.00095974,0.0
 0108762,0.00759387,-0.00274927,-0.01445189,0.10701160,-0.02542935,-0.2
 7452961,-0.00107929,-0.00221101,0.00060066,-0.00037473,0.00038835,0.00
 066579,-0.00360903,0.00112621,0.00520521,0.00886491,-0.00318417,-0.015
 82712,-0.11795468,0.03077171,0.29787669,-0.00257645,-0.00171758,-0.000
 21223,0.00014421,0.00033918,-0.00018186,0.00240444,0.00017522,0.002422
 71,-0.00314359,0.00148839,-0.00284872,0.00068251,0.00089914,0.00127134
 ,-0.00033121,0.00136429,0.00081034,0.00048619,-0.00032444,-0.00022868,
 -0.00005334,0.00001073,-0.00013083,-0.00001334,0.00003874,0.00006124,-
 0.00003442,0.00001921,0.00000100,-0.00013342,0.00012053,0.00007712,0.0
 0018192,0.00000268,-0.00013078,0.00047890,-0.00017886,0.00022151,0.219
 86736,-0.01190948,-0.00672470,-0.00298638,0.00026888,0.00008564,-0.000
 02212,0.00705177,-0.00550739,0.00168942,0.00381114,-0.00720621,0.00196
 308,-0.00044974,-0.00006549,-0.00175213,-0.00038068,-0.00079410,-0.000
 28705,-0.00078867,0.00058972,0.00031830,0.00008144,-0.00016673,0.00006
 832,0.00000814,0.00002168,-0.00005551,-0.00000136,0.00003268,0.0000881
 4,0.00006042,0.00009942,0.00000636,0.00005830,0.00001338,-0.00013523,-
 0.00019155,-0.00014372,0.00000657,-0.00526880,0.01482149,-0.00054381,-
 0.00225878,0.00002657,0.00003827,0.00037499,-0.00000266,0.00118558,-0.
 00299307,-0.00015541,-0.00154128,-0.00013362,-0.00371675,0.00078409,0.
 00053505,0.00250098,0.00066475,-0.00129176,0.00033980,-0.00041373,-0.0
 0016087,-0.00007821,-0.00004771,0.00006752,-0.00026331,0.00002209,0.00
 004521,0.00004812,0.00012139,-0.00000589,0.00001417,-0.00005360,0.0000
 7199,0.00009728,0.00003225,-0.00000780,-0.00010577,0.00023382,-0.00011
 908,0.00018095,-0.26156570,0.01213480,0.29581365,0.00035765,-0.0006837
 3,-0.00044038,0.00000677,-0.00050622,-0.00015365,-0.00074600,-0.001328
 82,-0.00146297,-0.00031450,-0.00001384,0.00392892,-0.00037757,-0.00029
 076,-0.00168787,0.00049989,0.00072433,-0.00086005,0.00010157,0.0000257
 4,-0.00002896,-0.00002381,-0.00009448,0.00020777,0.00000391,-0.0000243
 5,-0.00003383,-0.00004565,0.00001487,-0.00000515,0.00002432,0.00000247
 ,-0.00006241,0.00005464,0.00004227,0.00001506,-0.00011058,0.00005612,-
 0.00006962,-0.21795976,0.00765018,0.26108360,0.21852912,0.00067474,-0.
 00112795,-0.00060286,-0.00027697,0.00010663,-0.00013597,0.00070882,-0.
 00289644,-0.00273213,0.00324206,-0.00076210,-0.00159728,-0.00085968,0.
 00006625,0.00058964,-0.00130603,-0.00063333,0.00057835,0.00060856,-0.0
 0003231,0.00008903,-0.00013655,0.00008282,-0.00012073,-0.00008874,-0.0
 0002568,0.00001656,-0.00001466,-0.00004012,-0.00006341,-0.00003727,-0.
 00008292,-0.00000573,-0.00004888,-0.00001679,0.00012993,0.00007681,0.0
 0012832,-0.00001291,0.00303157,0.00494434,-0.00625868,-0.00557379,0.00
 028929,-0.00106608,0.00042852,-0.00017595,-0.00012401,-0.00048513,-0.0
 0010528,0.00010671,0.00110226,-0.00007605,0.00320437,-0.00021010,0.001
 73147,-0.00094262,0.00001405,-0.00147715,-0.00121198,0.00000977,0.0003
 4623,0.00030537,0.00007848,0.00007612,-0.00008137,0.00005515,0.0000477
 1,-0.00005667,-0.00001208,-0.00001960,-0.00004040,-0.00002872,-0.00000
 738,0.00001014,-0.00007779,-0.00002815,-0.00006148,-0.00004529,0.00007
 663,-0.00004504,0.00008126,-0.00007576,0.26043353,-0.01103657,-0.29469
 942,-0.26043047,0.01012620,0.29438659\\0.02154929,-0.00069142,0.005546
 60,0.00078899,0.00015660,0.00015720,-0.02461545,0.01021945,-0.00447387
 ,0.04363291,-0.00961663,0.03180076,-0.01826927,0.01212748,-0.04598664,
 -0.00250230,-0.00237019,0.01434968,-0.01720716,0.00055640,0.00288538,-
 0.00035784,-0.00052793,-0.00019504,-0.00037859,0.00013361,0.00072457,-
 0.00055577,0.00115672,-0.00113564,-0.00140393,-0.00034907,-0.00048442,
 0.00038229,-0.00104872,0.00048404,0.00031416,-0.00073190,-0.00153679,-
 0.01258732,-0.00749987,0.01076782,0.01121001,-0.00151453,-0.01290364\\
 \@


 The cat could very well be man's best friend
 but would never stoop to admitting it.
                               -- Doug Larson
 Job cpu time:       0 days  0 hours 19 minutes 22.7 seconds.
 Elapsed time:       0 days  0 hours  0 minutes 48.5 seconds.
 File lengths (MBytes):  RWF=     59 Int=      0 D2E=      0 Chk=      8 Scr=      1
 Normal termination of Gaussian 16 at Fri Jun 20 13:59:21 2025.
