 Entering Gaussian System, Link 0=g16
 Initial command:
 /opt/g16/l1.exe "/home/aayush/scratches/g16/Gau-72909.inp" -scrdir="/home/aayush/scratches/g16/"
 Entering Link 1 = /opt/g16/l1.exe PID=     72912.
  
 Copyright (c) 1988,1990,1992,1993,1995,1998,2003,2009,2016,
            Gaussian, Inc.  All Rights Reserved.
  
 This is part of the Gaussian(R) 16 program.  It is based on
 the Gaussian(R) 09 system (copyright 2009, Gaussian, Inc.),
 the Gaussian(R) 03 system (copyright 2003, Gaussian, Inc.),
 the Gaussian(R) 98 system (copyright 1998, Gaussian, Inc.),
 the Gaussian(R) 94 system (copyright 1995, Gaussian, Inc.),
 the Gaussian 92(TM) system (copyright 1992, Gaussian, Inc.),
 the Gaussian 90(TM) system (copyright 1990, Gaussian, Inc.),
 the Gaussian 88(TM) system (copyright 1988, Gaussian, Inc.),
 the Gaussian 86(TM) system (copyright 1986, Carnegie Mellon
 University), and the Gaussian 82(TM) system (copyright 1983,
 Carnegie Mellon University). Gaussian is a federally registered
 trademark of Gaussian, Inc.
  
 This software contains proprietary and confidential information,
 including trade secrets, belonging to Gaussian, Inc.
  
 This software is provided under written license and may be
 used, copied, transmitted, or stored only in accord with that
 written license.
  
 The following legend is applicable only to US Government
 contracts under FAR:
  
                    RESTRICTED RIGHTS LEGEND
  
 Use, reproduction and disclosure by the US Government is
 subject to restrictions as set forth in subparagraphs (a)
 and (c) of the Commercial Computer Software - Restricted
 Rights clause in FAR 52.227-19.
  
 Gaussian, Inc.
 340 Quinnipiac St., Bldg. 40, Wallingford CT 06492
  
  
 ---------------------------------------------------------------
 Warning -- This program may not be used in any manner that
 competes with the business of Gaussian, Inc. or will provide
 assistance to any competitor of Gaussian, Inc.  The licensee
 of this program is prohibited from giving any competitor of
 Gaussian, Inc. access to this program.  By using this program,
 the user acknowledges that Gaussian, Inc. is engaged in the
 business of creating and licensing software in the field of
 computational chemistry and represents and warrants to the
 licensee that it is not a competitor of Gaussian, Inc. and that
 it will not use this program in any manner prohibited above.
 ---------------------------------------------------------------
  

 Cite this work as:
 Gaussian 16, Revision A.03,
 M. J. Frisch, G. W. Trucks, H. B. Schlegel, G. E. Scuseria, 
 M. A. Robb, J. R. Cheeseman, G. Scalmani, V. Barone, 
 G. A. Petersson, H. Nakatsuji, X. Li, M. Caricato, A. V. Marenich, 
 J. Bloino, B. G. Janesko, R. Gomperts, B. Mennucci, H. P. Hratchian, 
 J. V. Ortiz, A. F. Izmaylov, J. L. Sonnenberg, D. Williams-Young, 
 F. Ding, F. Lipparini, F. Egidi, J. Goings, B. Peng, A. Petrone, 
 T. Henderson, D. Ranasinghe, V. G. Zakrzewski, J. Gao, N. Rega, 
 G. Zheng, W. Liang, M. Hada, M. Ehara, K. Toyota, R. Fukuda, 
 J. Hasegawa, M. Ishida, T. Nakajima, Y. Honda, O. Kitao, H. Nakai, 
 T. Vreven, K. Throssell, J. A. Montgomery, Jr., J. E. Peralta, 
 F. Ogliaro, M. J. Bearpark, J. J. Heyd, E. N. Brothers, K. N. Kudin, 
 V. N. Staroverov, T. A. Keith, R. Kobayashi, J. Normand, 
 K. Raghavachari, A. P. Rendell, J. C. Burant, S. S. Iyengar, 
 J. Tomasi, M. Cossi, J. M. Millam, M. Klene, C. Adamo, R. Cammi, 
 J. W. Ochterski, R. L. Martin, K. Morokuma, O. Farkas, 
 J. B. Foresman, and D. J. Fox, Gaussian, Inc., Wallingford CT, 2016.
 
 ******************************************
 Gaussian 16:  ES64L-G16RevA.03 25-Dec-2016
                23-Jun-2025 
 ******************************************
 %nprocshared=24
 Will use up to   24 processors via shared memory.
 %mem=12GB
 %chk=ethyl_propiolate_ts1.chk
 --------------------------
 # freq 6-311++g(d,p) m062x
 --------------------------
 1/10=4,30=1,38=1/1,3;
 2/12=2,17=6,18=5,40=1/2;
 3/5=4,6=6,7=1111,11=2,25=1,30=1,71=2,74=-55,140=1/1,2,3;
 4//1;
 5/5=2,38=5,98=1/2;
 8/6=4,10=90,11=11/1;
 11/6=1,8=1,9=11,15=111,16=1/1,2,10;
 10/6=1/2;
 6/7=2,8=2,9=2,10=2,28=1/1;
 7/8=1,10=1,25=1/1,2,3,16;
 1/10=4,30=1/3;
 99//99;
 -------------------
 Title Card Required
 -------------------
 Symbolic Z-matrix:
 Charge =  0 Multiplicity = 2
 C                    -2.7785   -0.49479  -0.44835 
 H                    -3.80351  -0.578    -0.72817 
 C                    -1.61842  -0.23179  -0.13409 
 C                    -0.22047  -0.56224   0.22481 
 O                     0.10786  -0.9287    1.31624 
 O                     0.58111  -0.3554   -0.80962 
 C                     1.99623  -0.44256  -0.53894 
 C                     2.48317   0.82039   0.14317 
 H                     2.44556  -0.57254  -1.52159 
 H                     2.18355  -1.32863   0.06847 
 H                     3.56502   0.76883   0.28053 
 H                     2.24697   1.69418  -0.46515 
 H                     2.0147    0.93324   1.12122 
 O                    -1.4127    1.63188   0.10913 
 H                    -2.03454   1.7665    0.83922 
 

 GradGradGradGradGradGradGradGradGradGradGradGradGradGradGradGradGradGrad
 Berny optimization.
 Initialization pass.
 Trust Radius=3.00D-01 FncErr=1.00D-07 GrdErr=1.00D-07 EigMax=2.50D+02 EigMin=1.00D-04
 Number of steps in this run=      2 maximum allowed number of steps=      2.
 GradGradGradGradGradGradGradGradGradGradGradGradGradGradGradGradGradGrad

                          Input orientation:                          
 ---------------------------------------------------------------------
 Center     Atomic      Atomic             Coordinates (Angstroms)
 Number     Number       Type             X           Y           Z
 ---------------------------------------------------------------------
      1          6           0       -2.778498   -0.494791   -0.448350
      2          1           0       -3.803508   -0.577996   -0.728170
      3          6           0       -1.618417   -0.231785   -0.134092
      4          6           0       -0.220473   -0.562235    0.224807
      5          8           0        0.107861   -0.928697    1.316238
      6          8           0        0.581111   -0.355395   -0.809624
      7          6           0        1.996226   -0.442560   -0.538943
      8          6           0        2.483173    0.820392    0.143165
      9          1           0        2.445562   -0.572544   -1.521586
     10          1           0        2.183549   -1.328634    0.068466
     11          1           0        3.565019    0.768826    0.280529
     12          1           0        2.246968    1.694179   -0.465150
     13          1           0        2.014696    0.933235    1.121215
     14          8           0       -1.412699    1.631881    0.109130
     15          1           0       -2.034540    1.766497    0.839224
 ---------------------------------------------------------------------
                    Distance matrix (angstroms):
                    1          2          3          4          5
     1  C    0.000000
     2  H    1.065771   0.000000
     3  C    1.230333   2.290723   0.000000
     4  C    2.645974   3.707634   1.480626   0.000000
     5  O    3.410735   4.427347   2.359911   1.197213   0.000000
     6  O    3.381852   4.391021   2.304245   1.324903   2.252095
     7  C    4.775869   5.804400   3.643347   2.347635   2.691458
     8  C    5.455711   6.499005   4.243464   3.037766   3.174511
     9  H    5.333731   6.299239   4.307805   3.187121   3.693905
    10  H    5.058093   6.086291   3.962203   2.528069   2.454662
    11  H    6.509086   7.558214   5.295389   4.013076   3.988260
    12  H    5.481531   6.468402   4.331297   3.414046   3.824735
    13  H    5.241899   6.289320   4.016538   2.834777   2.672236
    14  O    2.588228   3.361636   1.890695   2.499786   3.213374
    15  H    2.706426   3.329057   2.261334   3.015185   3.475845
                    6          7          8          9         10
     6  O    0.000000
     7  C    1.443404   0.000000
     8  C    2.430663   1.515730   0.000000
     9  H    2.007541   1.088295   2.170963   0.000000
    10  H    2.070276   1.090487   2.171098   1.780053   0.000000
    11  H    3.369868   2.144785   1.091750   2.509995   2.520470
    12  H    2.663549   2.152666   1.090570   2.508691   3.070206
    13  H    2.728346   2.156218   1.090315   3.072037   2.500569
    14  O    2.961191   4.042780   3.979635   4.733382   4.658251
    15  H    3.750034   4.798578   4.667906   5.578158   5.288306
                   11         12         13         14         15
    11  H    0.000000
    12  H    1.774704   0.000000
    13  H    1.771238   1.774694   0.000000
    14  O    5.054891   3.704975   3.641354   0.000000
    15  H    5.715116   4.476375   4.143689   0.968424   0.000000
 Stoichiometry    C5H7O3(2)
 Framework group  C1[X(C5H7O3)]
 Deg. of freedom    39
 Full point group                 C1      NOp   1
 Largest Abelian subgroup         C1      NOp   1
 Largest concise Abelian subgroup C1      NOp   1
                         Standard orientation:                         
 ---------------------------------------------------------------------
 Center     Atomic      Atomic             Coordinates (Angstroms)
 Number     Number       Type             X           Y           Z
 ---------------------------------------------------------------------
      1          6           0       -2.778498   -0.494791   -0.448350
      2          1           0       -3.803508   -0.577996   -0.728170
      3          6           0       -1.618417   -0.231785   -0.134092
      4          6           0       -0.220473   -0.562235    0.224807
      5          8           0        0.107861   -0.928697    1.316238
      6          8           0        0.581111   -0.355395   -0.809624
      7          6           0        1.996226   -0.442560   -0.538943
      8          6           0        2.483173    0.820392    0.143165
      9          1           0        2.445562   -0.572544   -1.521586
     10          1           0        2.183549   -1.328634    0.068466
     11          1           0        3.565019    0.768826    0.280529
     12          1           0        2.246968    1.694179   -0.465150
     13          1           0        2.014696    0.933235    1.121215
     14          8           0       -1.412699    1.631881    0.109130
     15          1           0       -2.034540    1.766497    0.839224
 ---------------------------------------------------------------------
 Rotational constants (GHZ):           3.7004387           1.3111963           1.1988456
 Standard basis: 6-311++G(d,p) (5D, 7F)
 There are   233 symmetry adapted cartesian basis functions of A   symmetry.
 There are   225 symmetry adapted basis functions of A   symmetry.
   225 basis functions,   351 primitive gaussians,   233 cartesian basis functions
    31 alpha electrons       30 beta electrons
       nuclear repulsion energy       363.7031833468 Hartrees.
 NAtoms=   15 NActive=   15 NUniq=   15 SFac= 1.00D+00 NAtFMM=   60 NAOKFM=F Big=F
 Integral buffers will be    131072 words long.
 Raffenetti 2 integral format.
 Two-electron integral symmetry is turned on.
 One-electron integrals computed using PRISM.
 NBasis=   225 RedAO= T EigKep=  4.01D-06  NBF=   225
 NBsUse=   225 1.00D-06 EigRej= -1.00D+00 NBFU=   225
 ExpMin= 3.60D-02 ExpMax= 8.59D+03 ExpMxC= 1.30D+03 IAcc=3 IRadAn=         5 AccDes= 0.00D+00
 Harris functional with IExCor= 1009 and IRadAn=       5 diagonalized for initial guess.
 HarFok:  IExCor= 1009 AccDes= 0.00D+00 IRadAn=         5 IDoV= 1 UseB2=F ITyADJ=14
 ICtDFT=  3500011 ScaDFX=  1.000000  1.000000  1.000000  1.000000
 FoFCou: FMM=F IPFlag=           0 FMFlag=      100000 FMFlg1=           0
         NFxFlg=           0 DoJE=T BraDBF=F KetDBF=T FulRan=T
         wScrn=  0.000000 ICntrl=       500 IOpCl=  0 I1Cent=   200000004 NGrid=           0
         NMat0=    1 NMatS0=      1 NMatT0=    0 NMatD0=    1 NMtDS0=    0 NMtDT0=    0
 Petite list used in FoFCou.
 Initial guess <Sx>= 0.0000 <Sy>= 0.0000 <Sz>= 0.5000 <S**2>= 0.7500 S= 0.5000
 Requested convergence on RMS density matrix=1.00D-08 within 128 cycles.
 Requested convergence on MAX density matrix=1.00D-06.
 Requested convergence on             energy=1.00D-06.
 No special actions if energy rises.
 Restarting incremental Fock formation.
 SCF Done:  E(UM062X) =  -420.204295432     A.U. after   22 cycles
            NFock= 22  Conv=0.65D-08     -V/T= 2.0035
 <Sx>= 0.0000 <Sy>= 0.0000 <Sz>= 0.5000 <S**2>= 0.7857 S= 0.5177
 <L.S>=  0.00000000000    
 Annihilation of the first spin contaminant:
 S**2 before annihilation     0.7857,   after     0.7505
 DoSCS=F DFT=T ScalE2(SS,OS)=  1.000000  1.000000
 Range of M.O.s used for correlation:     1   225
 NBasis=   225 NAE=    31 NBE=    30 NFC=     0 NFV=     0
 NROrb=    225 NOA=    31 NOB=    30 NVA=   194 NVB=   195

 **** Warning!!: The largest alpha MO coefficient is  0.13811816D+03


 **** Warning!!: The largest beta MO coefficient is  0.12326513D+03

 Symmetrizing basis deriv contribution to polar:
 IMax=3 JMax=2 DiffMx= 0.00D+00
 G2DrvN: will do    16 centers at a time, making    1 passes.
 Calling FoFCou, ICntrl=  3107 FMM=F I1Cent=   0 AccDes= 0.00D+00.
 End of G2Drv F.D. properties file   721 does not exist.
 End of G2Drv F.D. properties file   722 does not exist.
 End of G2Drv F.D. properties file   788 does not exist.
          IDoAtm=111111111111111
          Differentiating once with respect to electric field.
                with respect to dipole field.
          Differentiating once with respect to nuclear coordinates.
 Keep R1 and R2 ints in memory in canonical form, NReq=671901991.
          There are    48 degrees of freedom in the 1st order CPHF.  IDoFFX=6 NUNeed=     3.
     45 vectors produced by pass  0 Test12= 2.47D-14 2.08D-09 XBig12= 8.88D+01 4.48D+00.
 AX will form    45 AO Fock derivatives at one time.
     45 vectors produced by pass  1 Test12= 2.47D-14 2.08D-09 XBig12= 1.54D+01 4.76D-01.
     45 vectors produced by pass  2 Test12= 2.47D-14 2.08D-09 XBig12= 6.60D-01 1.12D-01.
     45 vectors produced by pass  3 Test12= 2.47D-14 2.08D-09 XBig12= 1.03D-02 1.44D-02.
     45 vectors produced by pass  4 Test12= 2.47D-14 2.08D-09 XBig12= 1.15D-04 1.37D-03.
     45 vectors produced by pass  5 Test12= 2.47D-14 2.08D-09 XBig12= 1.37D-06 1.19D-04.
     38 vectors produced by pass  6 Test12= 2.47D-14 2.08D-09 XBig12= 1.39D-08 1.04D-05.
     20 vectors produced by pass  7 Test12= 2.47D-14 2.08D-09 XBig12= 1.02D-10 9.73D-07.
      4 vectors produced by pass  8 Test12= 2.47D-14 2.08D-09 XBig12= 9.44D-13 7.82D-08.
      3 vectors produced by pass  9 Test12= 2.47D-14 2.08D-09 XBig12= 1.23D-14 1.03D-08.
      1 vectors produced by pass 10 Test12= 2.47D-14 2.08D-09 XBig12= 3.48D-16 2.68D-09.
 InvSVY:  IOpt=1 It=  1 EMax= 2.66D-15
 Solved reduced A of dimension   336 with    48 vectors.
 Isotropic polarizability for W=    0.000000       74.20 Bohr**3.
 End of Minotr F.D. properties file   721 does not exist.
 End of Minotr F.D. properties file   722 does not exist.
 End of Minotr F.D. properties file   788 does not exist.

 **********************************************************************

            Population analysis using the SCF density.

 **********************************************************************

 Orbital symmetries:
 Alpha Orbitals:
       Occupied  (A) (A) (A) (A) (A) (A) (A) (A) (A) (A) (A) (A)
                 (A) (A) (A) (A) (A) (A) (A) (A) (A) (A) (A) (A)
                 (A) (A) (A) (A) (A) (A) (A)
       Virtual   (A) (A) (A) (A) (A) (A) (A) (A) (A) (A) (A) (A)
                 (A) (A) (A) (A) (A) (A) (A) (A) (A) (A) (A) (A)
                 (A) (A) (A) (A) (A) (A) (A) (A) (A) (A) (A) (A)
                 (A) (A) (A) (A) (A) (A) (A) (A) (A) (A) (A) (A)
                 (A) (A) (A) (A) (A) (A) (A) (A) (A) (A) (A) (A)
                 (A) (A) (A) (A) (A) (A) (A) (A) (A) (A) (A) (A)
                 (A) (A) (A) (A) (A) (A) (A) (A) (A) (A) (A) (A)
                 (A) (A) (A) (A) (A) (A) (A) (A) (A) (A) (A) (A)
                 (A) (A) (A) (A) (A) (A) (A) (A) (A) (A) (A) (A)
                 (A) (A) (A) (A) (A) (A) (A) (A) (A) (A) (A) (A)
                 (A) (A) (A) (A) (A) (A) (A) (A) (A) (A) (A) (A)
                 (A) (A) (A) (A) (A) (A) (A) (A) (A) (A) (A) (A)
                 (A) (A) (A) (A) (A) (A) (A) (A) (A) (A) (A) (A)
                 (A) (A) (A) (A) (A) (A) (A) (A) (A) (A) (A) (A)
                 (A) (A) (A) (A) (A) (A) (A) (A) (A) (A) (A) (A)
                 (A) (A) (A) (A) (A) (A) (A) (A) (A) (A) (A) (A)
                 (A) (A)
 Beta  Orbitals:
       Occupied  (A) (A) (A) (A) (A) (A) (A) (A) (A) (A) (A) (A)
                 (A) (A) (A) (A) (A) (A) (A) (A) (A) (A) (A) (A)
                 (A) (A) (A) (A) (A) (A)
       Virtual   (A) (A) (A) (A) (A) (A) (A) (A) (A) (A) (A) (A)
                 (A) (A) (A) (A) (A) (A) (A) (A) (A) (A) (A) (A)
                 (A) (A) (A) (A) (A) (A) (A) (A) (A) (A) (A) (A)
                 (A) (A) (A) (A) (A) (A) (A) (A) (A) (A) (A) (A)
                 (A) (A) (A) (A) (A) (A) (A) (A) (A) (A) (A) (A)
                 (A) (A) (A) (A) (A) (A) (A) (A) (A) (A) (A) (A)
                 (A) (A) (A) (A) (A) (A) (A) (A) (A) (A) (A) (A)
                 (A) (A) (A) (A) (A) (A) (A) (A) (A) (A) (A) (A)
                 (A) (A) (A) (A) (A) (A) (A) (A) (A) (A) (A) (A)
                 (A) (A) (A) (A) (A) (A) (A) (A) (A) (A) (A) (A)
                 (A) (A) (A) (A) (A) (A) (A) (A) (A) (A) (A) (A)
                 (A) (A) (A) (A) (A) (A) (A) (A) (A) (A) (A) (A)
                 (A) (A) (A) (A) (A) (A) (A) (A) (A) (A) (A) (A)
                 (A) (A) (A) (A) (A) (A) (A) (A) (A) (A) (A) (A)
                 (A) (A) (A) (A) (A) (A) (A) (A) (A) (A) (A) (A)
                 (A) (A) (A) (A) (A) (A) (A) (A) (A) (A) (A) (A)
                 (A) (A) (A)
 The electronic state is 2-A.
 Alpha  occ. eigenvalues --  -19.68219 -19.64646 -19.63204 -10.70688 -10.61360
 Alpha  occ. eigenvalues --  -10.60418 -10.59423 -10.53369  -1.25805  -1.16517
 Alpha  occ. eigenvalues --   -1.10909  -0.91486  -0.87694  -0.78257  -0.70908
 Alpha  occ. eigenvalues --   -0.64674  -0.62494  -0.58739  -0.57472  -0.53294
 Alpha  occ. eigenvalues --   -0.53155  -0.49828  -0.48257  -0.45993  -0.45110
 Alpha  occ. eigenvalues --   -0.41771  -0.40393  -0.39729  -0.38413  -0.36759
 Alpha  occ. eigenvalues --   -0.32704
 Alpha virt. eigenvalues --   -0.00311  -0.00164   0.00473   0.01479   0.02497
 Alpha virt. eigenvalues --    0.02712   0.03105   0.04263   0.05722   0.06133
 Alpha virt. eigenvalues --    0.07046   0.07606   0.08362   0.09890   0.10533
 Alpha virt. eigenvalues --    0.10998   0.11300   0.12168   0.12891   0.13646
 Alpha virt. eigenvalues --    0.14246   0.14451   0.14899   0.15586   0.15704
 Alpha virt. eigenvalues --    0.16462   0.17653   0.18143   0.19033   0.20168
 Alpha virt. eigenvalues --    0.21102   0.22002   0.23548   0.24090   0.24611
 Alpha virt. eigenvalues --    0.25258   0.26739   0.27754   0.29862   0.31044
 Alpha virt. eigenvalues --    0.31164   0.32080   0.32778   0.34168   0.34569
 Alpha virt. eigenvalues --    0.35016   0.36323   0.37043   0.38790   0.40425
 Alpha virt. eigenvalues --    0.41337   0.43210   0.44728   0.46754   0.48236
 Alpha virt. eigenvalues --    0.49910   0.53350   0.54780   0.55603   0.57508
 Alpha virt. eigenvalues --    0.58498   0.60841   0.63010   0.65398   0.66816
 Alpha virt. eigenvalues --    0.67664   0.69817   0.70004   0.71836   0.71962
 Alpha virt. eigenvalues --    0.73648   0.75213   0.77682   0.78612   0.79963
 Alpha virt. eigenvalues --    0.83620   0.85991   0.90495   0.93917   0.97944
 Alpha virt. eigenvalues --    0.99459   1.03948   1.06295   1.08015   1.12561
 Alpha virt. eigenvalues --    1.16285   1.17901   1.20183   1.21077   1.23812
 Alpha virt. eigenvalues --    1.25949   1.26906   1.29347   1.32910   1.35093
 Alpha virt. eigenvalues --    1.36007   1.36506   1.38767   1.42118   1.46181
 Alpha virt. eigenvalues --    1.48239   1.50017   1.51492   1.53610   1.57546
 Alpha virt. eigenvalues --    1.58791   1.59861   1.62039   1.62937   1.65249
 Alpha virt. eigenvalues --    1.66234   1.67898   1.70651   1.73214   1.74240
 Alpha virt. eigenvalues --    1.78402   1.80744   1.84101   1.86754   1.88504
 Alpha virt. eigenvalues --    1.90609   1.94312   1.99307   2.04145   2.05305
 Alpha virt. eigenvalues --    2.10163   2.12553   2.14220   2.20990   2.31428
 Alpha virt. eigenvalues --    2.31664   2.35602   2.42606   2.52047   2.52301
 Alpha virt. eigenvalues --    2.54398   2.55794   2.59965   2.61833   2.63408
 Alpha virt. eigenvalues --    2.65505   2.66581   2.71403   2.73690   2.75391
 Alpha virt. eigenvalues --    2.78014   2.82207   2.83461   2.88296   2.91029
 Alpha virt. eigenvalues --    2.94499   2.96679   2.98900   3.02255   3.05422
 Alpha virt. eigenvalues --    3.10908   3.16249   3.18401   3.19731   3.21568
 Alpha virt. eigenvalues --    3.27346   3.30986   3.34189   3.36665   3.41332
 Alpha virt. eigenvalues --    3.45926   3.47937   3.64881   3.75889   3.85733
 Alpha virt. eigenvalues --    3.86339   3.90541   3.91048   4.02660   4.10994
 Alpha virt. eigenvalues --    4.18518   4.28303   5.14512   5.16101   5.17962
 Alpha virt. eigenvalues --    5.20988   5.32299   5.47485   5.61919   5.73298
 Alpha virt. eigenvalues --    5.94734  23.58820  23.92567  23.94326  24.06081
 Alpha virt. eigenvalues --   24.90470  49.98052  50.01994  50.10864
  Beta  occ. eigenvalues --  -19.68220 -19.63552 -19.63223 -10.70645 -10.61485
  Beta  occ. eigenvalues --  -10.60417 -10.59022 -10.53369  -1.25795  -1.16551
  Beta  occ. eigenvalues --   -1.06880  -0.90478  -0.86999  -0.77824  -0.70407
  Beta  occ. eigenvalues --   -0.64482  -0.61822  -0.58656  -0.57085  -0.53184
  Beta  occ. eigenvalues --   -0.51406  -0.48920  -0.46729  -0.45200  -0.41737
  Beta  occ. eigenvalues --   -0.40616  -0.39541  -0.38500  -0.37972  -0.35439
  Beta virt. eigenvalues --   -0.10045  -0.00179   0.00470   0.01124   0.01832
  Beta virt. eigenvalues --    0.02514   0.02779   0.03237   0.04303   0.05745
  Beta virt. eigenvalues --    0.06084   0.07154   0.07473   0.08434   0.09922
  Beta virt. eigenvalues --    0.10729   0.11288   0.11541   0.12276   0.12618
  Beta virt. eigenvalues --    0.13618   0.14328   0.14927   0.15414   0.15658
  Beta virt. eigenvalues --    0.15892   0.16373   0.17423   0.18130   0.19179
  Beta virt. eigenvalues --    0.20660   0.21178   0.22107   0.23776   0.24158
  Beta virt. eigenvalues --    0.24666   0.25209   0.26832   0.27712   0.29923
  Beta virt. eigenvalues --    0.30998   0.31164   0.32011   0.32860   0.34251
  Beta virt. eigenvalues --    0.34555   0.34998   0.36358   0.37062   0.38828
  Beta virt. eigenvalues --    0.40425   0.41444   0.43145   0.44719   0.46794
  Beta virt. eigenvalues --    0.48433   0.49923   0.53314   0.54795   0.55864
  Beta virt. eigenvalues --    0.58029   0.58949   0.60963   0.63149   0.65612
  Beta virt. eigenvalues --    0.66750   0.68102   0.69765   0.69887   0.71718
  Beta virt. eigenvalues --    0.71892   0.73635   0.75172   0.77525   0.78491
  Beta virt. eigenvalues --    0.79914   0.83640   0.86058   0.90719   0.94092
  Beta virt. eigenvalues --    0.97924   0.99520   1.04125   1.06471   1.08146
  Beta virt. eigenvalues --    1.13469   1.17140   1.18377   1.20601   1.22187
  Beta virt. eigenvalues --    1.23971   1.26503   1.27581   1.29764   1.34047
  Beta virt. eigenvalues --    1.35771   1.36530   1.36991   1.39297   1.42880
  Beta virt. eigenvalues --    1.46906   1.48470   1.50354   1.52181   1.54156
  Beta virt. eigenvalues --    1.57751   1.59042   1.59905   1.62046   1.63203
  Beta virt. eigenvalues --    1.65317   1.66246   1.67930   1.70645   1.73293
  Beta virt. eigenvalues --    1.74287   1.78503   1.80800   1.84335   1.87002
  Beta virt. eigenvalues --    1.88664   1.90881   1.94741   1.99354   2.04268
  Beta virt. eigenvalues --    2.05615   2.10381   2.13214   2.14278   2.21022
  Beta virt. eigenvalues --    2.31510   2.31693   2.35615   2.42750   2.52051
  Beta virt. eigenvalues --    2.52791   2.54408   2.55888   2.60551   2.61955
  Beta virt. eigenvalues --    2.63736   2.65992   2.66748   2.71839   2.73745
  Beta virt. eigenvalues --    2.75576   2.78981   2.82693   2.84880   2.90715
  Beta virt. eigenvalues --    2.91276   2.94611   2.96783   2.98940   3.02103
  Beta virt. eigenvalues --    3.08960   3.11248   3.16392   3.21048   3.21605
  Beta virt. eigenvalues --    3.23934   3.27480   3.31111   3.35132   3.36572
  Beta virt. eigenvalues --    3.41538   3.45875   3.48616   3.64853   3.75892
  Beta virt. eigenvalues --    3.85748   3.86355   3.90707   3.93215   4.02643
  Beta virt. eigenvalues --    4.10858   4.18386   4.28300   5.15409   5.16891
  Beta virt. eigenvalues --    5.21333   5.23434   5.32403   5.47463   5.64021
  Beta virt. eigenvalues --    5.73279   5.94721  23.58914  23.92574  23.94331
  Beta virt. eigenvalues --   24.06081  24.91107  49.97597  50.01770  50.10890
          Condensed to atoms (all electrons):
               1          2          3          4          5          6
     1  C   17.669995   0.519956  -4.678819  -6.614542  -0.108855  -0.101263
     2  H    0.519956   0.419740  -0.106242  -0.034388  -0.001517  -0.002452
     3  C   -4.678819  -0.106242  12.092382  -1.906189   0.039877  -0.209026
     4  C   -6.614542  -0.034388  -1.906189  14.484054   0.501647   0.180535
     5  O   -0.108855  -0.001517   0.039877   0.501647   7.963942  -0.156025
     6  O   -0.101263  -0.002452  -0.209026   0.180535  -0.156025   8.254902
     7  C   -0.100479  -0.000723  -0.297081   0.289263   0.051995   0.115578
     8  C    0.042120   0.000312   0.084918  -0.236219  -0.071404  -0.029402
     9  H   -0.007392   0.000010  -0.018269   0.034222   0.004876  -0.093309
    10  H   -0.030124  -0.000235  -0.046787   0.066722  -0.014701  -0.010015
    11  H   -0.005450   0.000008  -0.004114   0.016642  -0.002181   0.015377
    12  H    0.000997   0.000012   0.006634  -0.009319   0.001639  -0.001227
    13  H    0.016842  -0.000235   0.006845  -0.034707   0.001634  -0.024374
    14  O   -0.342665  -0.004234   0.521393  -0.262291  -0.007957   0.010477
    15  H   -0.064841  -0.002654   0.059384   0.028429   0.000490  -0.001525
               7          8          9         10         11         12
     1  C   -0.100479   0.042120  -0.007392  -0.030124  -0.005450   0.000997
     2  H   -0.000723   0.000312   0.000010  -0.000235   0.000008   0.000012
     3  C   -0.297081   0.084918  -0.018269  -0.046787  -0.004114   0.006634
     4  C    0.289263  -0.236219   0.034222   0.066722   0.016642  -0.009319
     5  O    0.051995  -0.071404   0.004876  -0.014701  -0.002181   0.001639
     6  O    0.115578  -0.029402  -0.093309  -0.010015   0.015377  -0.001227
     7  C    5.436064   0.037367   0.444740   0.412415  -0.053300  -0.034052
     8  C    0.037367   5.470462  -0.053254  -0.041250   0.404517   0.414231
     9  H    0.444740  -0.053254   0.532857  -0.038520  -0.000614  -0.010921
    10  H    0.412415  -0.041250  -0.038520   0.524236  -0.004522   0.005436
    11  H   -0.053300   0.404517  -0.000614  -0.004522   0.539598  -0.033109
    12  H   -0.034052   0.414231  -0.010921   0.005436  -0.033109   0.528590
    13  H   -0.006950   0.383057   0.009162  -0.009667  -0.040836  -0.040656
    14  O   -0.017793   0.015033   0.000937  -0.001337   0.000326  -0.001895
    15  H    0.002995  -0.003852  -0.000038   0.000256   0.000236  -0.000225
              13         14         15
     1  C    0.016842  -0.342665  -0.064841
     2  H   -0.000235  -0.004234  -0.002654
     3  C    0.006845   0.521393   0.059384
     4  C   -0.034707  -0.262291   0.028429
     5  O    0.001634  -0.007957   0.000490
     6  O   -0.024374   0.010477  -0.001525
     7  C   -0.006950  -0.017793   0.002995
     8  C    0.383057   0.015033  -0.003852
     9  H    0.009162   0.000937  -0.000038
    10  H   -0.009667  -0.001337   0.000256
    11  H   -0.040836   0.000326   0.000236
    12  H   -0.040656  -0.001895  -0.000225
    13  H    0.548453   0.002219  -0.000088
    14  O    0.002219   8.128609   0.230590
    15  H   -0.000088   0.230590   0.513645
          Atomic-Atomic Spin Densities.
               1          2          3          4          5          6
     1  C    1.623807   0.063409  -0.542943  -0.114261   0.000256  -0.017275
     2  H    0.063409  -0.015263  -0.045218  -0.022665  -0.000077  -0.000438
     3  C   -0.542943  -0.045218   0.000665   0.329522   0.005702   0.001114
     4  C   -0.114261  -0.022665   0.329522  -0.348155  -0.004571   0.013713
     5  O    0.000256  -0.000077   0.005702  -0.004571  -0.014378   0.001186
     6  O   -0.017275  -0.000438   0.001114   0.013713   0.001186  -0.002108
     7  C   -0.025499  -0.000267  -0.027070   0.043649  -0.000181  -0.001400
     8  C    0.032105   0.000340   0.035159  -0.056788   0.000756   0.001020
     9  H   -0.000510  -0.000016  -0.000889   0.000506   0.000017   0.000221
    10  H   -0.000418  -0.000080   0.003793  -0.005136  -0.000433   0.000482
    11  H    0.001321   0.000020   0.001104  -0.001904  -0.000062   0.000092
    12  H   -0.002620  -0.000032  -0.003534   0.005329  -0.000038  -0.000061
    13  H   -0.009461  -0.000077  -0.015200   0.021149  -0.000141  -0.000400
    14  O   -0.344467  -0.004991  -0.023279   0.215311   0.002516   0.005053
    15  H    0.041208   0.000952  -0.008590  -0.026136  -0.000321   0.000026
               7          8          9         10         11         12
     1  C   -0.025499   0.032105  -0.000510  -0.000418   0.001321  -0.002620
     2  H   -0.000267   0.000340  -0.000016  -0.000080   0.000020  -0.000032
     3  C   -0.027070   0.035159  -0.000889   0.003793   0.001104  -0.003534
     4  C    0.043649  -0.056788   0.000506  -0.005136  -0.001904   0.005329
     5  O   -0.000181   0.000756   0.000017  -0.000433  -0.000062  -0.000038
     6  O   -0.001400   0.001020   0.000221   0.000482   0.000092  -0.000061
     7  C    0.011807  -0.011042   0.000701   0.002368  -0.001589   0.001357
     8  C   -0.011042   0.009786  -0.000907  -0.002382   0.002061  -0.001764
     9  H    0.000701  -0.000907   0.000262   0.000178  -0.000016   0.000032
    10  H    0.002368  -0.002382   0.000178   0.000075  -0.000140   0.000265
    11  H   -0.001589   0.002061  -0.000016  -0.000140   0.000117  -0.000462
    12  H    0.001357  -0.001764   0.000032   0.000265  -0.000462   0.000769
    13  H    0.003165  -0.002749   0.000460   0.000677  -0.000548   0.000329
    14  O    0.005144  -0.003182   0.000282   0.000771  -0.000086  -0.000052
    15  H   -0.000767   0.000874  -0.000035  -0.000067   0.000033  -0.000068
              13         14         15
     1  C   -0.009461  -0.344467   0.041208
     2  H   -0.000077  -0.004991   0.000952
     3  C   -0.015200  -0.023279  -0.008590
     4  C    0.021149   0.215311  -0.026136
     5  O   -0.000141   0.002516  -0.000321
     6  O   -0.000400   0.005053   0.000026
     7  C    0.003165   0.005144  -0.000767
     8  C   -0.002749  -0.003182   0.000874
     9  H    0.000460   0.000282  -0.000035
    10  H    0.000677   0.000771  -0.000067
    11  H   -0.000548  -0.000086   0.000033
    12  H    0.000329  -0.000052  -0.000068
    13  H    0.001225   0.000847  -0.000467
    14  O    0.000847   0.716879   0.006305
    15  H   -0.000467   0.006305  -0.023705
 Mulliken charges and spin densities:
               1          2
     1  C   -0.195479   0.704652
     2  H    0.212644  -0.024402
     3  C    0.455094  -0.289663
     4  C   -0.503859   0.049563
     5  O   -0.203459  -0.009771
     6  O    0.051750   0.001226
     7  C   -0.280038   0.000376
     8  C   -0.416637   0.003287
     9  H    0.195515   0.000287
    10  H    0.188092  -0.000047
    11  H    0.167422  -0.000060
    12  H    0.173866  -0.000549
    13  H    0.189300  -0.001190
    14  O   -0.271411   0.577050
    15  H    0.237199  -0.010759
 Sum of Mulliken charges =  -0.00000   1.00000
 Mulliken charges and spin densities with hydrogens summed into heavy atoms:
               1          2
     1  C    0.017165   0.680250
     3  C    0.455094  -0.289663
     4  C   -0.503859   0.049563
     5  O   -0.203459  -0.009771
     6  O    0.051750   0.001226
     7  C    0.103568   0.000616
     8  C    0.113952   0.001487
    14  O   -0.034212   0.566291
 APT charges:
               1
     1  C   -0.127616
     2  H    0.241833
     3  C   -0.313924
     4  C    1.436545
     5  O   -0.771626
     6  O   -0.939734
     7  C    0.533714
     8  C   -0.042565
     9  H   -0.013452
    10  H   -0.011488
    11  H    0.010536
    12  H    0.017562
    13  H    0.027653
    14  O   -0.285516
    15  H    0.238076
 Sum of APT charges =   0.00000
 APT charges with hydrogens summed into heavy atoms:
               1
     1  C    0.114217
     3  C   -0.313924
     4  C    1.436545
     5  O   -0.771626
     6  O   -0.939734
     7  C    0.508775
     8  C    0.013186
    14  O   -0.047439
 Electronic spatial extent (au):  <R**2>=           1057.4052
 Charge=              0.0000 electrons
 Dipole moment (field-independent basis, Debye):
    X=             -0.7371    Y=             -0.5813    Z=             -0.8240  Tot=              1.2490
 Quadrupole moment (field-independent basis, Debye-Ang):
   XX=            -29.6112   YY=            -49.8060   ZZ=            -51.0039
   XY=              1.0528   XZ=             -1.4349   YZ=              5.0036
 Traceless Quadrupole moment (field-independent basis, Debye-Ang):
   XX=             13.8625   YY=             -6.3323   ZZ=             -7.5302
   XY=              1.0528   XZ=             -1.4349   YZ=              5.0036
 Octapole moment (field-independent basis, Debye-Ang**2):
  XXX=            -35.6057  YYY=              0.3240  ZZZ=             -1.4529  XYY=              1.7686
  XXY=             -3.7052  XXZ=             -6.4623  XZZ=             -0.0958  YZZ=              6.5900
  YYZ=              2.7772  XYZ=             -6.6428
 Hexadecapole moment (field-independent basis, Debye-Ang**3):
 XXXX=           -740.8489 YYYY=           -262.4845 ZZZZ=           -173.8008 XXXY=              2.2736
 XXXZ=             21.7269 YYYX=            -15.5234 YYYZ=              8.7110 ZZZX=            -10.5021
 ZZZY=              7.4006 XXYY=           -200.2729 XXZZ=           -180.2834 YYZZ=            -71.8274
 XXYZ=             20.0009 YYXZ=            -12.0445 ZZXY=             -8.0035
 N-N= 3.637031833468D+02 E-N=-1.712102372215D+03  KE= 4.187439259848D+02
  Exact polarizability:  90.031   7.596  73.038   4.372   3.154  59.537
 Approx polarizability:  95.252   9.846  82.863   6.957   0.844  76.964
                          Isotropic Fermi Contact Couplings
        Atom                 a.u.       MegaHertz       Gauss      10(-4) cm-1
     1  C(13)              0.08676      97.53418      34.80262      32.53390
     2  H(1)              -0.01036     -46.32514     -16.52996     -15.45240
     3  C(13)             -0.00853      -9.59403      -3.42339      -3.20023
     4  C(13)              0.02759      31.01433      11.06668      10.34527
     5  O(17)             -0.00377       2.28703       0.81607       0.76287
     6  O(17)              0.00193      -1.16909      -0.41716      -0.38997
     7  C(13)              0.00002       0.02670       0.00953       0.00891
     8  C(13)             -0.00065      -0.72613      -0.25910      -0.24221
     9  H(1)               0.00005       0.21610       0.07711       0.07208
    10  H(1)              -0.00003      -0.14615      -0.05215      -0.04875
    11  H(1)              -0.00002      -0.07452      -0.02659      -0.02486
    12  H(1)               0.00002       0.09575       0.03417       0.03194
    13  H(1)               0.00002       0.07130       0.02544       0.02378
    14  O(17)              0.11083     -67.18250     -23.97239     -22.40967
    15  H(1)              -0.00999     -44.66540     -15.93772     -14.89877
 --------------------------------------------------------
       Center         ----  Spin Dipole Couplings  ----
                      3XX-RR        3YY-RR        3ZZ-RR
 --------------------------------------------------------
     1   Atom       -0.361111      0.618673     -0.257563
     2   Atom        0.045118     -0.008344     -0.036774
     3   Atom        0.122030     -0.065169     -0.056861
     4   Atom        0.015330      0.006159     -0.021489
     5   Atom        0.028351     -0.039451      0.011100
     6   Atom        0.007196     -0.012482      0.005286
     7   Atom        0.003153     -0.001020     -0.002134
     8   Atom        0.002687     -0.001254     -0.001433
     9   Atom        0.001357     -0.000641     -0.000715
    10   Atom        0.001373     -0.000188     -0.001185
    11   Atom        0.001470     -0.000685     -0.000784
    12   Atom        0.003435     -0.001686     -0.001749
    13   Atom        0.003065     -0.001548     -0.001517
    14   Atom       -0.699908      1.798565     -1.098657
    15   Atom        0.000060     -0.033291      0.033231
 --------------------------------------------------------
                        XY            XZ            YZ
 --------------------------------------------------------
     1   Atom       -0.119603     -0.041437      0.066697
     2   Atom        0.006443      0.024140      0.005770
     3   Atom       -0.006733      0.046712      0.002813
     4   Atom       -0.020055      0.008608     -0.002126
     5   Atom       -0.064300     -0.015059     -0.022910
     6   Atom       -0.015173     -0.010395      0.008492
     7   Atom       -0.002523     -0.000235      0.000160
     8   Atom       -0.001040      0.000085      0.000095
     9   Atom       -0.000788     -0.000748      0.000315
    10   Atom       -0.001134      0.000145     -0.000111
    11   Atom       -0.000207      0.000152      0.000023
    12   Atom        0.000218     -0.000719      0.000072
    13   Atom       -0.000801      0.001587     -0.000194
    14   Atom        1.199702      0.219159      0.515180
    15   Atom       -0.000719     -0.089063      0.034800
 --------------------------------------------------------


 ---------------------------------------------------------------------------------
              Anisotropic Spin Dipole Couplings in Principal Axis System
 ---------------------------------------------------------------------------------

       Atom             a.u.   MegaHertz   Gauss  10(-4) cm-1        Axes

              Baa    -0.3845   -51.599   -18.412   -17.212  0.9601  0.0970  0.2624
     1 C(13)  Bbb    -0.2542   -34.111   -12.172   -11.378 -0.2519 -0.1080  0.9617
              Bcc     0.6387    85.710    30.584    28.590 -0.1216  0.9894  0.0793
 
              Baa    -0.0438   -23.364    -8.337    -7.794 -0.2530 -0.1105  0.9611
     2 H(1)   Bbb    -0.0089    -4.747    -1.694    -1.583 -0.1505  0.9859  0.0737
              Bcc     0.0527    28.111    10.031     9.377  0.9557  0.1260  0.2660
 
              Baa    -0.0714    -9.583    -3.420    -3.197 -0.2101 -0.5806  0.7866
     3 C(13)  Bbb    -0.0622    -8.353    -2.981    -2.786 -0.1147  0.8136  0.5699
              Bcc     0.1337    17.937     6.400     5.983  0.9709 -0.0295  0.2376
 
              Baa    -0.0237    -3.175    -1.133    -1.059 -0.2692 -0.1129  0.9564
     4 C(13)  Bbb    -0.0089    -1.190    -0.424    -0.397  0.5631  0.7872  0.2514
              Bcc     0.0325     4.365     1.557     1.456  0.7813 -0.6063  0.1484
 
              Baa    -0.0860     6.221     2.220     2.075  0.4987  0.8231  0.2716
     5 O(17)  Bbb     0.0188    -1.361    -0.486    -0.454 -0.1222 -0.2435  0.9622
              Bcc     0.0672    -4.860    -1.734    -1.621  0.8581 -0.5131 -0.0208
 
              Baa    -0.0210     1.521     0.543     0.507  0.4373  0.8919 -0.1151
     6 O(17)  Bbb    -0.0035     0.255     0.091     0.085  0.5547 -0.1667  0.8152
              Bcc     0.0245    -1.776    -0.634    -0.592  0.7079 -0.4203 -0.5676
 
              Baa    -0.0022    -0.299    -0.107    -0.100  0.3591  0.8096 -0.4644
     7 C(13)  Bbb    -0.0021    -0.285    -0.102    -0.095  0.2328  0.4041  0.8846
              Bcc     0.0044     0.584     0.208     0.195  0.9038 -0.4257 -0.0433
 
              Baa    -0.0016    -0.214    -0.076    -0.071  0.2030  0.7874 -0.5821
     8 C(13)  Bbb    -0.0014    -0.182    -0.065    -0.061  0.1290  0.5678  0.8130
              Bcc     0.0029     0.395     0.141     0.132  0.9707 -0.2401  0.0137
 
              Baa    -0.0010    -0.533    -0.190    -0.178  0.0695 -0.5699  0.8188
     9 H(1)   Bbb    -0.0009    -0.472    -0.168    -0.157  0.4302  0.7576  0.4908
              Bcc     0.0019     1.005     0.358     0.335  0.9000 -0.3181 -0.2979
 
              Baa    -0.0012    -0.639    -0.228    -0.213 -0.0158  0.0913  0.9957
    10 H(1)   Bbb    -0.0008    -0.417    -0.149    -0.139  0.4684  0.8804 -0.0733
              Bcc     0.0020     1.056     0.377     0.352  0.8834 -0.4653  0.0566
 
              Baa    -0.0008    -0.431    -0.154    -0.144 -0.0930 -0.3330  0.9383
    11 H(1)   Bbb    -0.0007    -0.369    -0.132    -0.123  0.0658  0.9383  0.3396
              Bcc     0.0015     0.800     0.285     0.267  0.9935 -0.0933  0.0654
 
              Baa    -0.0019    -1.012    -0.361    -0.338  0.1376 -0.4454  0.8847
    12 H(1)   Bbb    -0.0016    -0.877    -0.313    -0.293  0.0248  0.8945  0.4465
              Bcc     0.0035     1.889     0.674     0.630  0.9902  0.0395 -0.1341
 
              Baa    -0.0020    -1.078    -0.385    -0.360 -0.3161 -0.1516  0.9366
    13 H(1)   Bbb    -0.0017    -0.890    -0.318    -0.297  0.1008  0.9762  0.1920
              Bcc     0.0037     1.969     0.703     0.657  0.9434 -0.1551  0.2933
 
              Baa    -1.1971    86.622    30.909    28.894 -0.6051  0.1067  0.7889
    14 O(17)  Bbb    -1.1745    84.988    30.326    28.349  0.7054 -0.3875  0.5935
              Bcc     2.3716  -171.610   -61.235   -57.243  0.3690  0.9157  0.1592
 
              Baa    -0.0840   -44.815   -15.991   -14.949  0.6585 -0.4195  0.6248
    15 H(1)   Bbb    -0.0284   -15.165    -5.411    -5.059  0.4394  0.8883  0.1334
              Bcc     0.1124    59.980    21.402    20.007 -0.6110  0.1867  0.7693
 

 ---------------------------------------------------------------------------------

 Calling FoFJK, ICntrl=    100127 FMM=F ISym2X=0 I1Cent= 0 IOpClX= 1 NMat=1 NMatS=1 NMatT=0.
 Full mass-weighted force constant matrix:
 Low frequencies --- -695.4563   -0.0001    0.0007    0.0008    9.7628   20.1463
 Low frequencies ---   33.1853   77.5628   90.5507
 ******    1 imaginary frequencies (negative Signs) ****** 
 Diagonal vibrational polarizability:
       48.6862490      40.9460073      40.3674766
 Harmonic frequencies (cm**-1), IR intensities (KM/Mole), Raman scattering
 activities (A**4/AMU), depolarization ratios for plane and unpolarized
 incident light, reduced masses (AMU), force constants (mDyne/A),
 and normal coordinates:
                      1                      2                      3
                      A                      A                      A
 Frequencies --   -695.4563                73.7879                79.0869
 Red. masses --     12.4071                 3.2682                 4.6821
 Frc consts  --      3.5356                 0.0105                 0.0173
 IR Inten    --     19.0101                 1.2604                 6.8612
  Atom  AN      X      Y      Z        X      Y      Z        X      Y      Z
     1   6     0.04  -0.10   0.00     0.02   0.13  -0.11     0.07  -0.05  -0.26
     2   1     0.03  -0.01  -0.00     0.03   0.24  -0.18     0.12  -0.08  -0.42
     3   6     0.04   0.82   0.12     0.02   0.01  -0.01    -0.00   0.00  -0.03
     4   6    -0.00   0.02   0.00    -0.01  -0.08   0.01     0.00   0.08   0.03
     5   8    -0.02  -0.02  -0.01    -0.04  -0.06   0.03     0.00   0.19   0.07
     6   8    -0.00  -0.01  -0.00     0.01  -0.15   0.01     0.01  -0.01   0.02
     7   6     0.00  -0.01  -0.00     0.01   0.01   0.07     0.01  -0.10  -0.00
     8   6    -0.00  -0.00  -0.00    -0.15   0.19  -0.15     0.14  -0.09  -0.14
     9   1     0.00  -0.00  -0.00     0.06  -0.14   0.12    -0.03  -0.24  -0.00
    10   1     0.01  -0.00  -0.00     0.06   0.14   0.25    -0.06  -0.06   0.08
    11   1    -0.00  -0.00  -0.00    -0.16   0.31  -0.04     0.14  -0.19  -0.15
    12   1    -0.01  -0.00   0.00    -0.18   0.04  -0.35     0.23  -0.12  -0.22
    13   1    -0.00   0.00  -0.00    -0.25   0.36  -0.22     0.17   0.06  -0.14
    14   8    -0.04  -0.49  -0.07     0.13  -0.03   0.11    -0.20  -0.01   0.24
    15   1     0.02  -0.21  -0.09     0.21  -0.06   0.19    -0.10  -0.23   0.37
                      4                      5                      6
                      A                      A                      A
 Frequencies --    117.7027               171.3813               204.5002
 Red. masses --      3.3001                 2.1988                 2.0748
 Frc consts  --      0.0269                 0.0381                 0.0511
 IR Inten    --      1.1608                20.5635                42.6819
  Atom  AN      X      Y      Z        X      Y      Z        X      Y      Z
     1   6     0.02   0.02  -0.02    -0.05  -0.00   0.16    -0.02  -0.09  -0.01
     2   1     0.02   0.06  -0.03    -0.11   0.00   0.35    -0.01  -0.21  -0.00
     3   6     0.02  -0.00  -0.01     0.01   0.01  -0.07    -0.03  -0.03  -0.02
     4   6     0.03   0.02  -0.03     0.02   0.02  -0.12    -0.02   0.04  -0.02
     5   8     0.09   0.21   0.02    -0.03   0.06  -0.09    -0.00   0.09  -0.01
     6   8    -0.02  -0.16  -0.10     0.08  -0.04  -0.08    -0.04   0.05  -0.03
     7   6    -0.01  -0.00  -0.09     0.06  -0.05   0.09    -0.05   0.01  -0.01
     8   6    -0.19  -0.06   0.16    -0.00   0.01   0.03    -0.02  -0.01   0.01
     9   1     0.02   0.25  -0.11     0.17  -0.16   0.16    -0.02  -0.01   0.01
    10   1     0.11  -0.09  -0.26    -0.05   0.01   0.21    -0.09   0.00   0.00
    11   1    -0.17   0.11   0.05    -0.05  -0.11   0.39    -0.07  -0.20   0.34
    12   1    -0.41   0.03   0.37     0.31  -0.06  -0.19     0.32  -0.02  -0.13
    13   1    -0.12  -0.37   0.22    -0.30   0.23  -0.14    -0.28   0.15  -0.13
    14   8     0.04  -0.02   0.04    -0.08   0.01   0.03     0.18  -0.06   0.09
    15   1     0.24  -0.09   0.23     0.22  -0.16   0.32    -0.45   0.16  -0.49
                      7                      8                      9
                      A                      A                      A
 Frequencies --    217.1272               234.4374               278.6773
 Red. masses --      2.3067                 1.5633                 2.5811
 Frc consts  --      0.0641                 0.0506                 0.1181
 IR Inten    --     14.2829                 6.3031                10.6628
  Atom  AN      X      Y      Z        X      Y      Z        X      Y      Z
     1   6    -0.09   0.00  -0.00     0.04   0.03  -0.06    -0.09   0.24   0.01
     2   1    -0.11   0.11   0.04     0.06   0.10  -0.17    -0.13   0.62   0.03
     3   6    -0.05  -0.10  -0.05     0.01  -0.02   0.08    -0.01  -0.10  -0.01
     4   6    -0.04   0.01  -0.01     0.01  -0.01   0.06     0.03  -0.05   0.00
     5   8    -0.07   0.08   0.02     0.09  -0.03   0.03     0.07   0.04   0.02
     6   8    -0.02   0.09   0.03    -0.05   0.03   0.01     0.02  -0.03   0.00
     7   6    -0.02   0.05   0.01    -0.05   0.02  -0.05     0.04   0.03  -0.01
     8   6     0.09   0.01  -0.00    -0.03  -0.02   0.02     0.06   0.01   0.01
     9   1    -0.05   0.04  -0.01    -0.07   0.07  -0.07     0.02   0.07  -0.03
    10   1    -0.04   0.04  -0.00    -0.03  -0.01  -0.10     0.08   0.02  -0.04
    11   1     0.12  -0.03  -0.17    -0.10  -0.26   0.47     0.05  -0.06   0.07
    12   1     0.03   0.05   0.07     0.41  -0.01  -0.14     0.15   0.03   0.01
    13   1     0.25  -0.02   0.07    -0.40   0.16  -0.18     0.02   0.03  -0.01
    14   8     0.12  -0.15  -0.03    -0.03   0.00  -0.08    -0.09  -0.16  -0.01
    15   1     0.69  -0.24   0.47     0.35  -0.05   0.25    -0.52  -0.05  -0.40
                     10                     11                     12
                      A                      A                      A
 Frequencies --    337.5137               434.9785               549.0368
 Red. masses --      3.0453                 3.5913                 1.4489
 Frc consts  --      0.2044                 0.4003                 0.2573
 IR Inten    --     10.3177                 4.0243                26.9302
  Atom  AN      X      Y      Z        X      Y      Z        X      Y      Z
     1   6    -0.00   0.03  -0.04     0.06   0.04   0.05     0.08  -0.14   0.02
     2   1     0.01   0.09  -0.12     0.02   0.17   0.18    -0.03   0.96   0.06
     3   6    -0.02  -0.03   0.08     0.11  -0.04  -0.11     0.06   0.01  -0.02
     4   6     0.01   0.04  -0.03     0.07   0.07   0.04     0.00  -0.02  -0.01
     5   8     0.21   0.01  -0.10    -0.09   0.00   0.07    -0.03   0.01   0.01
     6   8    -0.04   0.13  -0.05     0.08   0.21   0.10    -0.03  -0.00  -0.02
     7   6    -0.10  -0.11   0.19     0.06  -0.13  -0.09    -0.06   0.02   0.01
     8   6    -0.08  -0.03   0.01    -0.18  -0.10  -0.08     0.00   0.00   0.00
     9   1     0.06  -0.39   0.30    -0.02  -0.11  -0.13    -0.02  -0.02   0.03
    10   1    -0.38  -0.01   0.41    -0.01  -0.18  -0.13    -0.08   0.03   0.04
    11   1    -0.04   0.15  -0.25    -0.20   0.28   0.13     0.01  -0.08  -0.05
    12   1    -0.36  -0.12  -0.02    -0.40  -0.20  -0.14     0.05   0.03   0.02
    13   1     0.13  -0.01   0.10    -0.43  -0.21  -0.18     0.06   0.03   0.03
    14   8     0.01  -0.04  -0.02    -0.01  -0.06  -0.00     0.01   0.03   0.01
    15   1     0.03   0.03  -0.02    -0.05  -0.18  -0.01    -0.04  -0.00  -0.02
                     13                     14                     15
                      A                      A                      A
 Frequencies --    570.9902               612.5135               711.0740
 Red. masses --      3.2068                 6.5749                 1.3319
 Frc consts  --      0.6160                 1.4533                 0.3968
 IR Inten    --     14.4719                10.5401                40.1334
  Atom  AN      X      Y      Z        X      Y      Z        X      Y      Z
     1   6     0.15   0.13   0.06     0.23   0.12   0.06     0.04   0.01  -0.14
     2   1     0.13  -0.51   0.33     0.40  -0.16  -0.45    -0.25  -0.03   0.95
     3   6     0.21   0.00  -0.21     0.12  -0.15   0.42    -0.01  -0.01   0.08
     4   6     0.02  -0.05   0.03     0.04   0.05  -0.11     0.00  -0.01  -0.01
     5   8     0.00  -0.01   0.05    -0.31   0.04  -0.02    -0.01   0.00   0.00
     6   8    -0.11  -0.02  -0.03     0.01   0.03  -0.21     0.00   0.00  -0.01
     7   6    -0.20   0.06   0.04    -0.01   0.02  -0.01     0.00  -0.00  -0.00
     8   6    -0.00   0.00   0.01     0.01   0.01   0.01     0.00   0.00   0.00
     9   1    -0.12  -0.03   0.09     0.17  -0.14   0.09     0.01  -0.01   0.00
    10   1    -0.24   0.10   0.10    -0.19   0.08   0.13    -0.00   0.00   0.00
    11   1     0.01  -0.29  -0.16     0.01  -0.05  -0.03     0.00   0.01   0.01
    12   1     0.16   0.08   0.06     0.03   0.06   0.08    -0.00   0.00   0.00
    13   1     0.19   0.10   0.09     0.06  -0.04   0.04    -0.00  -0.01  -0.00
    14   8    -0.02  -0.02  -0.00    -0.02  -0.09  -0.03    -0.00  -0.00  -0.00
    15   1    -0.10  -0.33  -0.01    -0.00   0.14  -0.06     0.02   0.10  -0.00
                     16                     17                     18
                      A                      A                      A
 Frequencies --    766.9692               802.3826               891.4060
 Red. masses --      9.7773                 1.2105                 1.7484
 Frc consts  --      3.3886                 0.4592                 0.8186
 IR Inten    --     32.0708                 5.0041                32.7081
  Atom  AN      X      Y      Z        X      Y      Z        X      Y      Z
     1   6    -0.00  -0.01  -0.01     0.03   0.01   0.01     0.02   0.01   0.01
     2   1    -0.06   0.22   0.14     0.04  -0.00  -0.00     0.04  -0.00  -0.04
     3   6    -0.01  -0.11  -0.05     0.02  -0.01   0.02     0.02  -0.02  -0.01
     4   6     0.07   0.76   0.21    -0.02  -0.02  -0.04    -0.00   0.00  -0.05
     5   8    -0.01  -0.20  -0.10    -0.01   0.02  -0.05     0.00   0.02  -0.07
     6   8    -0.01  -0.21  -0.03     0.01   0.00   0.04     0.09  -0.02   0.12
     7   6    -0.05   0.00   0.03    -0.03  -0.03   0.07    -0.07   0.06   0.01
     8   6    -0.02   0.01   0.01    -0.01  -0.02   0.03    -0.08  -0.04  -0.06
     9   1    -0.05   0.19   0.00    -0.09   0.52  -0.03    -0.11   0.01  -0.00
    10   1     0.12  -0.04  -0.09     0.13  -0.30  -0.39     0.12   0.16   0.10
    11   1    -0.01  -0.15  -0.09     0.02   0.04  -0.19    -0.09  -0.39  -0.12
    12   1     0.10   0.01  -0.04    -0.04  -0.28  -0.35     0.12   0.12   0.11
    13   1     0.13   0.17   0.06     0.11   0.44   0.03     0.05  -0.16   0.01
    14   8     0.01  -0.10  -0.01    -0.00  -0.00  -0.00    -0.03  -0.04   0.02
    15   1     0.01  -0.14  -0.01    -0.00   0.00  -0.00     0.17   0.78   0.05
                     19                     20                     21
                      A                      A                      A
 Frequencies --    900.8074               925.6300              1070.8708
 Red. masses --      1.7967                 2.3441                 4.0536
 Frc consts  --      0.8590                 1.1833                 2.7388
 IR Inten    --     39.8668                17.2799                27.8801
  Atom  AN      X      Y      Z        X      Y      Z        X      Y      Z
     1   6    -0.04  -0.01  -0.00     0.09   0.02   0.03     0.07   0.01   0.02
     2   1    -0.04  -0.02  -0.02     0.11   0.02   0.03     0.07   0.02   0.05
     3   6    -0.00   0.01  -0.08     0.07  -0.03  -0.04     0.04  -0.01  -0.03
     4   6     0.07  -0.01   0.06    -0.13   0.02  -0.02    -0.15   0.01   0.04
     5   8    -0.00  -0.04   0.11     0.02   0.03  -0.09     0.02  -0.00  -0.01
     6   8    -0.02   0.03  -0.14    -0.13  -0.03   0.08    -0.21   0.03  -0.05
     7   6     0.01  -0.02  -0.00     0.03  -0.09  -0.03     0.31   0.15   0.14
     8   6     0.02   0.01   0.04     0.14   0.09   0.04    -0.07  -0.17  -0.09
     9   1     0.18   0.07   0.06    -0.26  -0.19  -0.14     0.35   0.28   0.14
    10   1    -0.15  -0.11  -0.09     0.01  -0.11  -0.05     0.39   0.24   0.22
    11   1     0.03   0.12  -0.05     0.11   0.56   0.36    -0.06  -0.28  -0.14
    12   1    -0.04  -0.13  -0.14    -0.15   0.05   0.09    -0.03  -0.21  -0.15
    13   1     0.04   0.21   0.03    -0.19  -0.10  -0.09    -0.05  -0.26  -0.08
    14   8    -0.03  -0.03   0.02    -0.02  -0.04   0.01    -0.00  -0.01   0.00
    15   1     0.20   0.84   0.06     0.10   0.44   0.02     0.02   0.07   0.01
                     22                     23                     24
                      A                      A                      A
 Frequencies --   1129.2991              1203.5804              1283.9066
 Red. masses --      2.0808                 1.7715                 3.8723
 Frc consts  --      1.5635                 1.5120                 3.7609
 IR Inten    --     21.4764                 7.8932               525.8014
  Atom  AN      X      Y      Z        X      Y      Z        X      Y      Z
     1   6    -0.01  -0.00  -0.00    -0.02  -0.00  -0.00    -0.08  -0.01  -0.02
     2   1    -0.01  -0.00  -0.01    -0.02  -0.00  -0.01    -0.08  -0.02  -0.05
     3   6    -0.01   0.00   0.01    -0.00   0.00  -0.00    -0.00   0.01   0.01
     4   6     0.03   0.00  -0.00     0.07  -0.00  -0.01     0.38   0.01  -0.14
     5   8    -0.00  -0.00   0.00    -0.01  -0.01   0.03    -0.05   0.01  -0.02
     6   8     0.05  -0.05  -0.01    -0.01   0.02  -0.07    -0.19  -0.02   0.09
     7   6    -0.11   0.19   0.05    -0.04  -0.06   0.18     0.11   0.04   0.03
     8   6     0.11  -0.15  -0.04     0.03   0.05  -0.13    -0.02  -0.02   0.06
     9   1    -0.09   0.10   0.08    -0.34   0.37  -0.01    -0.67  -0.28  -0.27
    10   1    -0.21   0.17   0.04     0.30  -0.25  -0.21     0.03   0.13   0.16
    11   1     0.09   0.45   0.21    -0.03  -0.08   0.28     0.00  -0.03  -0.14
    12   1    -0.40  -0.36  -0.16    -0.02   0.31   0.28     0.01  -0.19  -0.19
    13   1    -0.36  -0.20  -0.26    -0.07  -0.45  -0.11     0.01   0.10   0.05
    14   8    -0.00   0.00  -0.00    -0.00   0.00   0.00    -0.00   0.01   0.00
    15   1    -0.00  -0.01  -0.00    -0.00   0.00  -0.00     0.00   0.01  -0.00
                     25                     26                     27
                      A                      A                      A
 Frequencies --   1344.8832              1402.1912              1430.8366
 Red. masses --      1.2395                 1.2812                 1.3705
 Frc consts  --      1.3208                 1.4841                 1.6531
 IR Inten    --     86.8822                22.1170                13.3761
  Atom  AN      X      Y      Z        X      Y      Z        X      Y      Z
     1   6     0.01   0.00   0.00    -0.01  -0.00  -0.00    -0.01  -0.00  -0.00
     2   1     0.01   0.00   0.01    -0.01  -0.00  -0.01    -0.01  -0.00  -0.01
     3   6    -0.00  -0.00  -0.00     0.00   0.00   0.00     0.00   0.00   0.00
     4   6    -0.06  -0.00   0.03     0.06  -0.00  -0.01     0.05  -0.00  -0.01
     5   8     0.01  -0.01   0.02    -0.01   0.01  -0.01    -0.01   0.00  -0.01
     6   8     0.04   0.03  -0.07    -0.04   0.01   0.03    -0.04   0.01   0.02
     7   6    -0.03  -0.01  -0.00    -0.05  -0.04  -0.03    -0.08  -0.08  -0.05
     8   6    -0.00  -0.03   0.05    -0.01  -0.10  -0.05     0.07   0.08   0.04
     9   1    -0.50  -0.21  -0.19     0.34   0.26   0.12     0.42   0.26   0.14
    10   1     0.68   0.28   0.21     0.27   0.19   0.20     0.40   0.22   0.23
    11   1     0.01   0.07  -0.04    -0.01   0.46   0.20     0.07  -0.34  -0.12
    12   1    -0.02  -0.11  -0.06     0.16   0.23   0.34    -0.33  -0.18  -0.16
    13   1     0.02   0.19   0.04     0.20   0.38   0.01    -0.30  -0.20  -0.10
    14   8    -0.00  -0.00  -0.00     0.00   0.00   0.00    -0.00   0.00   0.00
    15   1    -0.00  -0.00   0.00     0.00   0.00  -0.00    -0.00  -0.00  -0.00
                     28                     29                     30
                      A                      A                      A
 Frequencies --   1491.4048              1502.0273              1514.7947
 Red. masses --      1.0400                 1.0538                 1.0935
 Frc consts  --      1.3629                 1.4007                 1.4784
 IR Inten    --     10.9066                 1.1193                20.4680
  Atom  AN      X      Y      Z        X      Y      Z        X      Y      Z
     1   6     0.00   0.00   0.00    -0.00  -0.00  -0.00     0.01   0.00   0.00
     2   1     0.00   0.00  -0.00    -0.00  -0.00  -0.00     0.01   0.00   0.00
     3   6    -0.00   0.00  -0.00     0.00  -0.00   0.00    -0.00  -0.00  -0.00
     4   6    -0.00   0.00  -0.00     0.01  -0.00   0.00    -0.03   0.00  -0.00
     5   8     0.00  -0.00   0.01    -0.00   0.00  -0.01     0.01  -0.00   0.01
     6   8     0.00   0.00  -0.00    -0.01   0.00   0.00     0.02  -0.00  -0.01
     7   6    -0.01  -0.02   0.02     0.00   0.04   0.03     0.05  -0.05  -0.01
     8   6    -0.01  -0.01   0.04     0.03  -0.03   0.00     0.02  -0.02   0.00
     9   1     0.00   0.12   0.01     0.12  -0.38   0.12    -0.29   0.43  -0.22
    10   1     0.00   0.00   0.05     0.19  -0.19  -0.34    -0.39   0.14   0.37
    11   1     0.08   0.36  -0.55     0.05  -0.14  -0.29     0.03  -0.17  -0.16
    12   1     0.55   0.09  -0.06    -0.18   0.19   0.38    -0.20   0.13   0.29
    13   1    -0.36  -0.29  -0.11    -0.37   0.36  -0.23    -0.24   0.30  -0.16
    14   8     0.00  -0.00  -0.00    -0.00   0.00  -0.00    -0.00  -0.00  -0.00
    15   1     0.00  -0.00   0.00     0.00   0.00   0.00    -0.00  -0.00   0.00
                     31                     32                     33
                      A                      A                      A
 Frequencies --   1847.9997              2010.1983              3076.6423
 Red. masses --     11.7636                 6.8456                 1.0353
 Frc consts  --     23.6698                16.2983                 5.7740
 IR Inten    --    340.9402                63.4030                 8.8608
  Atom  AN      X      Y      Z        X      Y      Z        X      Y      Z
     1   6    -0.12  -0.02  -0.03    -0.39  -0.07  -0.10    -0.00  -0.00   0.00
     2   1    -0.19  -0.04  -0.02    -0.65  -0.13  -0.18    -0.00  -0.00  -0.00
     3   6     0.13   0.01   0.02     0.56  -0.00   0.14     0.00   0.00   0.00
     4   6     0.18  -0.23   0.71    -0.13   0.06  -0.09     0.00   0.00  -0.00
     5   8    -0.15   0.16  -0.46     0.02  -0.02   0.05     0.00   0.00   0.00
     6   8     0.02   0.02  -0.07    -0.00  -0.00   0.01    -0.00  -0.00   0.00
     7   6     0.03  -0.01   0.02     0.00   0.00  -0.00    -0.00   0.00   0.00
     8   6    -0.01   0.01   0.00     0.00  -0.00  -0.00    -0.02  -0.04  -0.02
     9   1    -0.17   0.08  -0.09     0.02  -0.01   0.00     0.00  -0.00  -0.01
    10   1    -0.14  -0.02   0.09     0.01   0.00  -0.01     0.00  -0.02   0.01
    11   1     0.00  -0.04  -0.06    -0.00   0.00   0.00     0.63  -0.04   0.08
    12   1     0.04   0.01  -0.01     0.00  -0.00  -0.00    -0.13   0.45  -0.32
    13   1    -0.04  -0.05  -0.00     0.01   0.00   0.00    -0.23   0.05   0.47
    14   8    -0.00   0.02   0.00    -0.00   0.03   0.01    -0.00  -0.00  -0.00
    15   1     0.03   0.01   0.02    -0.00   0.04  -0.01    -0.00  -0.00   0.00
                     34                     35                     36
                      A                      A                      A
 Frequencies --   3109.1100              3154.0148              3155.1847
 Red. masses --      1.0608                 1.1011                 1.1052
 Frc consts  --      6.0417                 6.4537                 6.4823
 IR Inten    --     19.6341                16.1648                 0.2942
  Atom  AN      X      Y      Z        X      Y      Z        X      Y      Z
     1   6    -0.00  -0.00  -0.00     0.00   0.00   0.00    -0.00  -0.00  -0.00
     2   1     0.00   0.00   0.00    -0.00   0.00  -0.00    -0.00   0.00  -0.00
     3   6     0.00  -0.00  -0.00    -0.00  -0.00  -0.00     0.00  -0.00  -0.00
     4   6    -0.00  -0.00   0.00     0.00   0.00  -0.00     0.00  -0.00   0.00
     5   8    -0.00   0.00  -0.00     0.00  -0.00   0.00    -0.00   0.00  -0.00
     6   8     0.00   0.00  -0.00     0.00  -0.00   0.00    -0.00  -0.00  -0.00
     7   6     0.03  -0.06  -0.00    -0.01   0.01   0.01    -0.01  -0.02   0.05
     8   6    -0.01   0.01  -0.00    -0.08   0.04  -0.02     0.03   0.02  -0.06
     9   1    -0.23   0.05   0.50     0.08  -0.02  -0.17     0.21  -0.06  -0.45
    10   1    -0.13   0.66  -0.47     0.01  -0.04   0.03    -0.06   0.29  -0.19
    11   1     0.12  -0.01   0.01     0.72  -0.03   0.09    -0.21   0.01  -0.04
    12   1     0.01  -0.06   0.04     0.12  -0.49   0.35     0.09  -0.30   0.20
    13   1     0.01  -0.00  -0.03     0.08  -0.01  -0.21    -0.29   0.07   0.60
    14   8     0.00  -0.00   0.00    -0.00   0.00   0.00    -0.00  -0.00  -0.00
    15   1     0.00   0.00  -0.00     0.00   0.00  -0.00     0.00   0.00  -0.00
                     37                     38                     39
                      A                      A                      A
 Frequencies --   3176.6514              3463.2209              3832.1270
 Red. masses --      1.1074                 1.1368                 1.0677
 Frc consts  --      6.5843                 8.0332                 9.2379
 IR Inten    --     14.3032                76.5683                59.1847
  Atom  AN      X      Y      Z        X      Y      Z        X      Y      Z
     1   6    -0.00  -0.00  -0.00    -0.10  -0.01  -0.03    -0.00  -0.00  -0.00
     2   1     0.00   0.00   0.00     0.96   0.08   0.26     0.00   0.00   0.00
     3   6     0.00  -0.00   0.00     0.02   0.00   0.01     0.00   0.00   0.00
     4   6    -0.00   0.00  -0.00    -0.00   0.00  -0.00     0.00  -0.00  -0.00
     5   8     0.00  -0.00   0.00     0.00  -0.00  -0.00    -0.00   0.00  -0.00
     6   8     0.00  -0.00   0.00     0.00  -0.00  -0.00    -0.00  -0.00   0.00
     7   6     0.02   0.02  -0.07    -0.00  -0.00   0.00     0.00   0.00   0.00
     8   6     0.01   0.02  -0.05     0.00  -0.00   0.00    -0.00   0.00  -0.00
     9   1    -0.26   0.08   0.59     0.00  -0.00  -0.00    -0.00   0.00   0.00
    10   1     0.07  -0.35   0.24     0.00   0.00   0.00    -0.00  -0.00  -0.00
    11   1    -0.05   0.01  -0.01     0.00   0.00   0.00    -0.00  -0.00   0.00
    12   1     0.09  -0.32   0.22    -0.00   0.00  -0.00    -0.00  -0.00   0.00
    13   1    -0.21   0.05   0.43    -0.00  -0.00   0.00     0.00   0.00  -0.00
    14   8     0.00  -0.00   0.00     0.00   0.00   0.00     0.04  -0.01  -0.05
    15   1     0.00  -0.00  -0.00     0.00   0.00  -0.00    -0.64   0.13   0.75

 -------------------
 - Thermochemistry -
 -------------------
 Temperature   298.150 Kelvin.  Pressure   1.00000 Atm.
 Atom     1 has atomic number  6 and mass  12.00000
 Atom     2 has atomic number  1 and mass   1.00783
 Atom     3 has atomic number  6 and mass  12.00000
 Atom     4 has atomic number  6 and mass  12.00000
 Atom     5 has atomic number  8 and mass  15.99491
 Atom     6 has atomic number  8 and mass  15.99491
 Atom     7 has atomic number  6 and mass  12.00000
 Atom     8 has atomic number  6 and mass  12.00000
 Atom     9 has atomic number  1 and mass   1.00783
 Atom    10 has atomic number  1 and mass   1.00783
 Atom    11 has atomic number  1 and mass   1.00783
 Atom    12 has atomic number  1 and mass   1.00783
 Atom    13 has atomic number  1 and mass   1.00783
 Atom    14 has atomic number  8 and mass  15.99491
 Atom    15 has atomic number  1 and mass   1.00783
 Molecular mass:   115.03952 amu.
 Principal axes and moments of inertia in atomic units:
                           1         2         3
     Eigenvalues --   487.710071376.408101505.39918
           X            0.99993   0.01151  -0.00025
           Y           -0.01145   0.99618   0.08660
           Z            0.00124  -0.08659   0.99624
 This molecule is an asymmetric top.
 Rotational symmetry number  1.
 Warning -- assumption of classical behavior for rotation
           may cause significant error
 Rotational temperatures (Kelvin)      0.17759     0.06293     0.05754
 Rotational constants (GHZ):           3.70044     1.31120     1.19885
    1 imaginary frequencies ignored.
 Zero-point vibrational energy     293557.3 (Joules/Mol)
                                   70.16188 (Kcal/Mol)
 Warning -- explicit consideration of  13 degrees of freedom as
           vibrations may cause significant error
 Vibrational temperatures:    106.16   113.79   169.35   246.58   294.23
          (Kelvin)            312.40   337.30   400.95   485.61   625.84
                              789.94   821.53   881.27  1023.08  1103.50
                             1154.45  1282.53  1296.06  1331.78  1540.74
                             1624.81  1731.68  1847.26  1934.99  2017.44
                             2058.65  2145.80  2161.08  2179.45  2658.86
                             2892.23  4426.60  4473.32  4537.92  4539.61
                             4570.49  4982.80  5513.58
 
 Zero-point correction=                           0.111810 (Hartree/Particle)
 Thermal correction to Energy=                    0.121280
 Thermal correction to Enthalpy=                  0.122224
 Thermal correction to Gibbs Free Energy=         0.076670
 Sum of electronic and zero-point Energies=           -420.092485
 Sum of electronic and thermal Energies=              -420.083015
 Sum of electronic and thermal Enthalpies=            -420.082071
 Sum of electronic and thermal Free Energies=         -420.127626
 
                     E (Thermal)             CV                S
                      KCal/Mol        Cal/Mol-Kelvin    Cal/Mol-Kelvin
 Total                   76.104             32.231             95.878
 Electronic               0.000              0.000              1.377
 Translational            0.889              2.981             40.136
 Rotational               0.889              2.981             28.404
 Vibrational             74.327             26.270             25.961
 Vibration     1          0.599              1.966              4.050
 Vibration     2          0.600              1.963              3.913
 Vibration     3          0.608              1.935              3.138
 Vibration     4          0.626              1.878              2.420
 Vibration     5          0.640              1.833              2.092
 Vibration     6          0.646              1.815              1.983
 Vibration     7          0.654              1.788              1.845
 Vibration     8          0.679              1.713              1.542
 Vibration     9          0.718              1.601              1.224
 Vibration    10          0.796              1.394              0.843
 Vibration    11          0.904              1.142              0.546
 Vibration    12          0.927              1.094              0.502
 Vibration    13          0.972              1.005              0.429
                       Q            Log10(Q)             Ln(Q)
 Total Bot       0.542602D-35        -35.265518        -81.201857
 Total V=0       0.145713D+17         16.163497         37.217827
 Vib (Bot)       0.155454D-48        -48.808399       -112.385491
 Vib (Bot)    1  0.279360D+01          0.446164          1.027332
 Vib (Bot)    2  0.260438D+01          0.415704          0.957195
 Vib (Bot)    3  0.173713D+01          0.239832          0.552234
 Vib (Bot)    4  0.117536D+01          0.070171          0.161574
 Vib (Bot)    5  0.973342D+00         -0.011734         -0.027019
 Vib (Bot)    6  0.912094D+00         -0.039961         -0.092013
 Vib (Bot)    7  0.838487D+00         -0.076504         -0.176156
 Vib (Bot)    8  0.690388D+00         -0.160907         -0.370501
 Vib (Bot)    9  0.551017D+00         -0.258835         -0.595990
 Vib (Bot)   10  0.399008D+00         -0.399019         -0.918775
 Vib (Bot)   11  0.286096D+00         -0.543488         -1.251427
 Vib (Bot)   12  0.269277D+00         -0.569801         -1.312015
 Vib (Bot)   13  0.240639D+00         -0.618634         -1.424457
 Vib (V=0)       0.417462D+03          2.620616          6.034192
 Vib (V=0)    1  0.333799D+01          0.523486          1.205370
 Vib (V=0)    2  0.315194D+01          0.498578          1.148019
 Vib (V=0)    3  0.230766D+01          0.363171          0.836232
 Vib (V=0)    4  0.177729D+01          0.249758          0.575090
 Vib (V=0)    5  0.159426D+01          0.202558          0.466407
 Vib (V=0)    6  0.154015D+01          0.187563          0.431881
 Vib (V=0)    7  0.147625D+01          0.169159          0.389504
 Vib (V=0)    8  0.135243D+01          0.131115          0.301902
 Vib (V=0)    9  0.124406D+01          0.094840          0.218377
 Vib (V=0)   10  0.113969D+01          0.056788          0.130759
 Vib (V=0)   11  0.107607D+01          0.031839          0.073311
 Vib (V=0)   12  0.106790D+01          0.028530          0.065694
 Vib (V=0)   13  0.105489D+01          0.023209          0.053440
 Electronic      0.200000D+01          0.301030          0.693147
 Translational   0.484981D+08          7.685724         17.697035
 Rotational      0.359854D+06          5.556126         12.793453
 ***** Axes restored to original set *****
 -------------------------------------------------------------------
 Center     Atomic                   Forces (Hartrees/Bohr)
 Number     Number              X              Y              Z
 -------------------------------------------------------------------
      1        6           0.001007930   -0.002581894   -0.000008678
      2        1           0.000097420   -0.000195500   -0.000029147
      3        6           0.001269001    0.023423735    0.003423426
      4        6          -0.000071483    0.000616207    0.000028103
      5        8          -0.000647139   -0.000942157   -0.000404453
      6        8          -0.000033235   -0.000480776   -0.000066293
      7        6           0.000111389   -0.000154518   -0.000078378
      8        6          -0.000102722   -0.000057132   -0.000040418
      9        1           0.000010036   -0.000004670   -0.000004812
     10        1           0.000014230   -0.000012023   -0.000010309
     11        1          -0.000010398   -0.000005746    0.000000601
     12        1          -0.000015932   -0.000004904   -0.000001605
     13        1          -0.000011754   -0.000000850   -0.000005338
     14        8          -0.001729220   -0.019065345   -0.002527003
     15        1           0.000111877   -0.000534430   -0.000275695
 -------------------------------------------------------------------
 Cartesian Forces:  Max     0.023423735 RMS     0.004582869

 GradGradGradGradGradGradGradGradGradGradGradGradGradGradGradGradGradGrad
 Berny optimization.
 Search for a local minimum.
 Step number   1 out of a maximum of    2
 All quantities printed in internal units (Hartrees-Bohrs-Radians)
 Second derivative matrix not updated -- analytic derivatives used.
 ITU=  0
     Eigenvalues ---   -0.23790   0.00074   0.00124   0.00158   0.00249
     Eigenvalues ---    0.00422   0.00747   0.00860   0.01967   0.02132
     Eigenvalues ---    0.03137   0.03352   0.03980   0.05044   0.06307
     Eigenvalues ---    0.06882   0.07606   0.08600   0.10176   0.10852
     Eigenvalues ---    0.11940   0.14151   0.17036   0.17339   0.20299
     Eigenvalues ---    0.28445   0.29341   0.43128   0.49316   0.62439
     Eigenvalues ---    0.69429   0.76568   0.79215   0.86763   0.89287
     Eigenvalues ---    0.93411   0.99956   1.74638   2.18322
 Eigenvalue     1 is  -2.38D-01 should be greater than     0.000000 Eigenvector:
                          Y3        Y14       Z3        Y1        X14
   1                    0.79717  -0.56919   0.11761  -0.09460  -0.06616
                          Z14       Z15       Y15       X15       X3
   1                   -0.05697  -0.05611  -0.04595   0.03714   0.03249
 Angle between quadratic step and forces=  12.59 degrees.
 Linear search not attempted -- first point.
 B after Tr=    -0.000443   -0.001738    0.000001
         Rot=    1.000000   -0.000244   -0.000018   -0.000121 Ang=  -0.03 deg.
 Variable       Old X    -DE/DX   Delta X   Delta X   Delta X     New X
                                 (Linear)    (Quad)   (Total)
    X1       -5.25060   0.00101   0.00000  -0.00006  -0.00030  -5.25090
    Y1       -0.93502  -0.00258   0.00000  -0.00599  -0.00859  -0.94361
    Z1       -0.84726  -0.00001   0.00000   0.00107   0.00080  -0.84646
    X2       -7.18759   0.00010   0.00000  -0.00231  -0.00253  -7.19012
    Y2       -1.09225  -0.00020   0.00000  -0.00805  -0.01087  -1.10312
    Z2       -1.37604  -0.00003   0.00000   0.00354   0.00326  -1.37278
    X3       -3.05836   0.00127   0.00000   0.00298   0.00261  -3.05575
    Y3       -0.43801   0.02342   0.00000   0.09691   0.09455  -0.34346
    Z3       -0.25340   0.00342   0.00000   0.01493   0.01488  -0.23852
    X4       -0.41663  -0.00007   0.00000  -0.00038  -0.00055  -0.41719
    Y4       -1.06247   0.00062   0.00000   0.00136  -0.00069  -1.06316
    Z4        0.42482   0.00003   0.00000  -0.00047  -0.00097   0.42385
    X5        0.20383  -0.00065   0.00000  -0.00304  -0.00296   0.20086
    Y5       -1.75498  -0.00094   0.00000  -0.00567  -0.00857  -1.76355
    Z5        2.48733  -0.00040   0.00000  -0.00265  -0.00352   2.48381
    X6        1.09814  -0.00003   0.00000   0.00016  -0.00017   1.09797
    Y6       -0.67160  -0.00048   0.00000   0.00231   0.00158  -0.67002
    Z6       -1.52997  -0.00007   0.00000   0.00050   0.00014  -1.52983
    X7        3.77232   0.00011   0.00000   0.00077   0.00049   3.77281
    Y7       -0.83632  -0.00015   0.00000   0.00160   0.00127  -0.83505
    Z7       -1.01845  -0.00008   0.00000  -0.00023  -0.00077  -1.01923
    X8        4.69252  -0.00010   0.00000   0.00199   0.00118   4.69370
    Y8        1.55032  -0.00006   0.00000   0.00056  -0.00018   1.55014
    Z8        0.27054  -0.00004   0.00000   0.00092   0.00151   0.27205
    X9        4.62144   0.00001   0.00000  -0.00047  -0.00076   4.62068
    Y9       -1.08195  -0.00000   0.00000   0.00276   0.00354  -1.07841
    Z9       -2.87538  -0.00000   0.00000  -0.00063  -0.00132  -2.87670
   X10        4.12631   0.00001   0.00000  -0.00080  -0.00063   4.12568
   Y10       -2.51075  -0.00001   0.00000   0.00109   0.00029  -2.51047
   Z10        0.12938  -0.00001   0.00000  -0.00105  -0.00242   0.12696
   X11        6.73691  -0.00001   0.00000   0.00193   0.00116   6.73807
   Y11        1.45287  -0.00001   0.00000  -0.00024  -0.00060   1.45227
   Z11        0.53012   0.00000   0.00000   0.00101   0.00148   0.53160
   X12        4.24615  -0.00002   0.00000   0.00266   0.00141   4.24756
   Y12        3.20153  -0.00000   0.00000   0.00155   0.00127   3.20280
   Z12       -0.87901  -0.00000   0.00000   0.00211   0.00352  -0.87549
   X13        3.80722  -0.00001   0.00000   0.00211   0.00132   3.80854
   Y13        1.76356  -0.00000   0.00000  -0.00014  -0.00199   1.76157
   Z13        2.11879  -0.00001   0.00000   0.00123   0.00195   2.12074
   X14       -2.66961  -0.00173   0.00000  -0.00552  -0.00668  -2.67630
   Y14        3.08381  -0.01907   0.00000  -0.08405  -0.08653   2.99728
   Z14        0.20623  -0.00253   0.00000  -0.00985  -0.00829   0.19794
   X15       -3.84472   0.00011   0.00000   0.00763   0.00643  -3.83829
   Y15        3.33820  -0.00053   0.00000   0.01894   0.01551   3.35370
   Z15        1.58590  -0.00028   0.00000  -0.01202  -0.01024   1.57566
         Item               Value     Threshold  Converged?
 Maximum Force            0.023424     0.000450     NO 
 RMS     Force            0.004583     0.000300     NO 
 Maximum Displacement     0.094550     0.001800     NO 
 RMS     Displacement     0.019732     0.001200     NO 
 Predicted change in Energy=-5.924491D-03
 GradGradGradGradGradGradGradGradGradGradGradGradGradGradGradGradGradGrad


 ----------------------------------------------------------------------

 Electric dipole moment (input orientation):
 (Debye = 10**-18 statcoulomb cm , SI units = C m)
                  (au)            (Debye)         (10**-30 SI)
   Tot        0.491410D+00      0.124904D+01      0.416635D+01
   x         -0.289979D+00     -0.737052D+00     -0.245854D+01
   y         -0.228687D+00     -0.581265D+00     -0.193889D+01
   z         -0.324189D+00     -0.824007D+00     -0.274859D+01

 Dipole polarizability, Alpha (input orientation).
 (esu units = cm**3 , SI units = C**2 m**2 J**-1)
 Alpha(0;0):
               (au)            (10**-24 esu)      (10**-40 SI)
   iso        0.742022D+02      0.109956D+02      0.122343D+02
   aniso      0.309962D+02      0.459316D+01      0.511058D+01
   xx         0.900315D+02      0.133413D+02      0.148442D+02
   yx         0.759639D+01      0.112567D+01      0.125248D+01
   yy         0.730379D+02      0.108231D+02      0.120423D+02
   zx         0.437183D+01      0.647838D+00      0.720817D+00
   zy         0.315381D+01      0.467347D+00      0.519994D+00
   zz         0.595373D+02      0.882251D+01      0.981637D+01

 ----------------------------------------------------------------------

 Dipole orientation:
     6         -3.49434176         -0.45002699          4.09242754
     1         -4.68689697         -0.87987803          5.65745077
     6         -2.19471159         -0.24309683          2.17573063
     6         -0.40411523          1.05259776          0.46003303
     8         -1.01632056          2.71723433         -0.94448313
     8          1.88169497          0.05366105          0.67387227
     6          3.72023766          0.87739147         -1.16494365
     6          3.29185733         -0.44570740         -3.66897923
     1          5.52761607          0.36731131         -0.32665941
     1          3.59967496          2.92607675         -1.35184066
     1          4.77027724          0.09808398         -5.00126464
     1          3.34427872         -2.49028404         -3.41563813
     1          1.46637769          0.08251390         -4.46511890
     8         -2.74145454         -3.02715238          0.00416633
     1         -4.52625368         -2.80071706         -0.33098162

 Electric dipole moment (dipole orientation):
 (Debye = 10**-18 statcoulomb cm , SI units = C m)
                  (au)            (Debye)         (10**-30 SI)
   Tot        0.491410D+00      0.124904D+01      0.416635D+01
   x          0.000000D+00      0.000000D+00      0.000000D+00
   y          0.000000D+00      0.000000D+00      0.000000D+00
   z          0.491410D+00      0.124904D+01      0.416635D+01

 Dipole polarizability, Alpha (dipole orientation).
 (esu units = cm**3 , SI units = C**2 m**2 J**-1)
 Alpha(0;0):
               (au)            (10**-24 esu)      (10**-40 SI)
   iso        0.742022D+02      0.109956D+02      0.122343D+02
   aniso      0.309962D+02      0.459316D+01      0.511058D+01
   xx         0.735002D+02      0.108916D+02      0.121185D+02
   yx         0.305808D+01      0.453160D+00      0.504209D+00
   yy         0.665144D+02      0.985642D+01      0.109667D+02
   zx        -0.147778D+02     -0.218984D+01     -0.243653D+01
   zy         0.524674D+01      0.777486D+00      0.865070D+00
   zz         0.825920D+02      0.122389D+02      0.136176D+02

 ----------------------------------------------------------------------
 1\1\GINC-AJ\Freq\UM062X\6-311++G(d,p)\C5H7O3(2)\AAYUSH\23-Jun-2025\0\\
 # freq 6-311++g(d,p) m062x\\Title Card Required\\0,2\C,-2.778498,-0.49
 4791,-0.44835\H,-3.803508,-0.577996,-0.72817\C,-1.618417,-0.231785,-0.
 134092\C,-0.220473,-0.562235,0.224807\O,0.107861,-0.928697,1.316238\O,
 0.581111,-0.355395,-0.809624\C,1.996226,-0.44256,-0.538943\C,2.483173,
 0.820392,0.143165\H,2.445562,-0.572544,-1.521586\H,2.183549,-1.328634,
 0.068466\H,3.565019,0.768826,0.280529\H,2.246968,1.694179,-0.46515\H,2
 .014696,0.933235,1.121215\O,-1.412699,1.631881,0.10913\H,-2.03454,1.76
 6497,0.839224\\Version=ES64L-G16RevA.03\State=2-A\HF=-420.2042954\S2=0
 .785721\S2-1=0.\S2A=0.750507\RMSD=6.472e-09\RMSF=4.583e-03\ZeroPoint=0
 .1118101\Thermal=0.1212802\Dipole=-0.2899787,-0.2286872,-0.3241892\Dip
 oleDeriv=-0.2692703,0.4058926,0.0299532,0.0347524,-0.0058542,0.0243416
 ,0.0187995,0.1218777,-0.1077224,0.2786938,0.0218299,0.016971,0.0479815
 ,0.2148256,0.0069004,0.0116038,-0.0031601,0.2319799,-0.2916426,-0.3899
 986,-0.0939447,-0.0277286,-0.5519433,-0.0767615,-0.0780948,-0.1204698,
 -0.0981861,2.0544194,-0.3078359,-0.1423811,-0.1060701,0.612386,-0.3864
 958,-0.5124168,-0.4878768,1.6428303,-0.8079086,0.1695079,-0.1911497,0.
 0559479,-0.4680501,0.2545882,0.0265786,0.3356177,-1.0389191,-1.6352748
 ,-0.0618887,0.3806108,-0.0700889,-0.3312379,0.0710325,0.4970153,0.1079
 766,-0.8526899,0.995416,0.0782847,-0.0691637,0.0245387,0.3136305,0.074
 3037,0.0759452,0.0259639,0.2920963,-0.0616085,-0.0213359,0.0371615,-0.
 0470208,-0.054736,-0.0788101,-0.029364,-0.0506015,-0.0113501,-0.025283
 2,-0.0016972,0.0298092,-0.0091797,0.0571178,-0.0280041,0.068363,-0.052
 8145,-0.0721903,-0.0179008,-0.0335565,0.019506,0.0233459,-0.0569424,0.
 0248115,-0.0660812,0.0612936,0.0403798,-0.129941,-0.0067852,-0.0232373
 ,0.0060907,0.0664786,0.0011663,-0.0247548,-0.0113793,0.095071,0.085044
 7,0.0436512,-0.0370197,-0.0014108,-0.0407063,0.0376716,-0.0307047,0.06
 44054,0.0083487,0.073681,0.0160155,0.0719563,-0.0071477,0.039344,-0.00
 22156,0.055039,-0.0284196,-0.030067,-0.4306226,0.1950312,-0.0788487,0.
 0835689,-0.0951975,0.0541157,-0.0938314,-0.0554937,-0.3307274,0.182197
 7,-0.1071151,0.0497768,-0.0075793,0.3008852,0.0233556,0.0819032,0.0930
 802,0.2311463\Polar=90.0314546,7.5963906,73.037868,4.3718258,3.1538144
 ,59.5372766\Quadrupole=10.3064396,-4.7079261,-5.5985135,0.7827071,-1.0
 66829,3.7200179\PG=C01 [X(C5H7O3)]\NImag=1\\1.19913669,0.17074052,0.06
 984136,0.30952273,0.04630410,0.13497868,-0.39096555,-0.03521024,-0.100
 31177,0.38235328,-0.02205944,-0.01558155,-0.00575829,0.03191866,0.0120
 6422,-0.09958722,-0.00901129,-0.05166630,0.10039898,0.00860217,0.04277
 168,-0.80093056,-0.12936688,-0.20394161,0.00777976,-0.01033714,0.00119
 741,1.10291936,-0.03233291,0.00438622,-0.00371693,0.00206119,-0.000123
 79,0.00047722,-0.01875984,-0.12409342,-0.19436806,-0.02812641,-0.08573
 734,0.00103446,-0.00260673,0.00374458,0.23281517,-0.03747154,0.1831622
 8,0.01074216,0.00716243,0.00124905,-0.00056020,0.00023378,-0.00199730,
 -0.22657285,0.02085819,-0.03909617,0.63896677,-0.03000543,-0.00606244,
 -0.00852588,-0.00044485,0.00329797,-0.00029865,0.05163758,-0.03567697,
 0.01418590,-0.07804630,0.29461726,-0.00470188,0.00010237,0.00044643,-0
 .00125918,0.00011466,0.00541868,-0.02298439,0.00467963,-0.06266002,0.1
 0030210,-0.22691050,0.91929931,-0.00388312,0.00025602,-0.00031006,0.00
 019159,-0.00019111,0.00152320,-0.01746884,0.01645566,-0.04377985,-0.16
 827743,0.06741806,-0.18501672,0.16182256,0.00364518,0.00097352,0.00103
 855,0.00015552,-0.00048290,-0.00069496,0.01391990,0.00750689,0.0185380
 0,0.06108371,-0.14480457,0.19326704,-0.07408453,0.11715774,0.00003999,
 0.00032029,0.00134809,0.00001649,-0.00021037,0.00022169,-0.03392845,0.
 01589204,-0.02529388,-0.17657688,0.19260982,-0.64814581,0.19106470,-0.
 24364402,0.76939769,-0.00779271,0.00012059,-0.00178127,0.00102405,0.00
 028695,-0.00121297,-0.05154563,0.00110149,0.03348004,-0.19769926,-0.01
 777407,0.10311711,0.02645668,-0.00729456,0.03133350,0.50031977,0.00112
 276,0.00060179,0.00018018,-0.00003305,-0.00030734,0.00010231,0.0041961
 6,0.00796550,-0.00129351,-0.01455580,-0.07587681,0.03696568,-0.0092780
 4,0.02239354,0.03289041,0.00724510,0.10683223,0.00187897,0.00056627,0.
 00038814,-0.00002818,-0.00022912,-0.00065308,0.00685331,-0.00110592,0.
 00485359,0.08064401,0.03583456,-0.22281740,0.03054256,0.03293254,-0.09
 797696,-0.09765067,-0.07733943,0.40485577,0.00222063,0.00018423,0.0005
 2461,-0.00038043,-0.00005099,0.00002208,0.00137988,-0.00305269,0.00008
 244,-0.05511308,-0.00434922,0.03522206,-0.00039332,0.00618626,-0.01967
 347,-0.17483505,0.01282109,-0.01994660,0.45145592,0.00176720,0.0004079
 4,0.00039194,0.00000929,-0.00010001,0.00010705,-0.00019882,0.00283026,
 0.00080981,-0.00514079,0.00287002,-0.00947061,0.00247120,-0.00560102,0
 .00106008,0.01549770,-0.06925409,0.01260660,-0.02311164,0.56198383,0.0
 0108354,-0.00004696,0.00054062,-0.00005338,0.00000221,0.00027652,0.004
 68846,0.00140759,-0.00344182,0.03445938,-0.00600040,0.01190089,0.00118
 940,-0.00057739,-0.00386919,-0.04183814,0.01194525,-0.09638669,-0.0616
 9012,-0.04023806,0.63111057,0.00003748,0.00009745,0.00004566,0.0000817
 9,-0.00000826,0.00000521,-0.00040620,0.00104425,0.00061915,0.00185057,
 -0.00125316,-0.00953918,0.00083952,-0.00153325,0.00271517,-0.03787786,
 -0.03468798,-0.01773576,-0.07947074,-0.02115427,-0.00799967,0.57808577
 ,0.00025118,-0.00003680,0.00006455,-0.00000475,-0.00000245,-0.00001253
 ,-0.00043979,-0.00019147,-0.00017406,-0.00069412,-0.00050288,0.0036259
 6,-0.00105296,-0.00012376,-0.00184514,-0.00123133,0.00585061,-0.001066
 78,-0.03249970,-0.18380729,-0.05175142,-0.02950511,0.52273778,0.000130
 12,0.00005913,0.00001178,0.00001357,-0.00002120,0.00000219,-0.00043312
 ,0.00021644,0.00006909,0.00144711,0.00107081,0.00244594,-0.00122483,-0
 .00159702,-0.00060826,-0.00802431,-0.00446061,-0.00156054,-0.01308234,
 -0.05030838,-0.11190993,-0.01542158,-0.03570902,0.56980187,-0.00064547
 ,-0.00001288,-0.00021749,0.00005028,0.00003139,-0.00005932,-0.00114696
 ,-0.00035779,0.00110343,-0.00384102,0.00346583,-0.00540517,0.00150356,
 -0.00053273,0.00128698,-0.03407776,0.00160653,0.03403151,-0.08597736,0
 .01282605,0.09256124,0.00681390,-0.00077205,-0.01111420,0.11267593,-0.
 00000205,-0.00000558,0.00002794,0.00000845,-0.00000134,0.00000489,0.00
 017953,0.00012756,-0.00006745,0.00000185,-0.00071739,0.00245687,-0.001
 63353,0.00065280,-0.00039731,0.00304847,0.00065188,-0.00265080,0.01244
 956,-0.05631042,-0.02494534,0.01139239,-0.00326983,-0.02737405,-0.0123
 1588,0.05607796,-0.00008441,-0.00000438,-0.00005885,-0.00001111,-0.000
 00502,-0.00003118,-0.00028458,-0.00017127,0.00026268,-0.00247765,0.000
 67637,-0.00088428,0.00135811,-0.00045782,0.00093313,-0.00631239,0.0015
 8293,0.00939812,0.10643293,-0.02615746,-0.28364103,0.00432528,-0.00113
 803,-0.01145715,-0.10762827,0.03113028,0.29773353,-0.00041798,-0.00004
 274,-0.00005704,0.00003465,0.00003779,-0.00004395,-0.00001760,-0.00032
 194,0.00011645,0.00281520,0.00338449,-0.00858311,0.00038107,-0.0011489
 4,0.00392673,-0.02715839,0.03011721,-0.02017031,-0.05464103,0.02682175
 ,-0.01609241,0.00384048,-0.00951582,0.00708288,0.00426671,-0.01131139,
 0.00630460,0.07096100,-0.00017082,-0.00002432,-0.00004581,-0.00000375,
 0.00000288,0.00001908,0.00012390,-0.00001542,-0.00018115,-0.00042842,-
 0.00023626,0.00357590,-0.00227150,0.00059746,-0.00095285,0.00490343,0.
 00230049,-0.00091510,0.03536103,-0.23037951,0.12251290,0.00320204,-0.0
 2181567,0.01518023,-0.00198205,0.00526430,-0.00289090,-0.03676451,0.24
 605421,-0.00004002,-0.00001225,0.00003890,0.00002840,0.00000564,0.0000
 0011,-0.00018208,0.00038103,-0.00007479,0.00256537,-0.00031211,-0.0002
 7267,0.00156379,-0.00076877,-0.00072447,-0.00738438,0.00259922,-0.0025
 8280,-0.02442145,0.12538375,-0.13826098,0.00337166,-0.01465401,0.01045
 137,-0.00445336,0.02289976,-0.01362206,0.02938397,-0.13352260,0.145041
 73,-0.00004570,0.00002103,0.00000959,0.00003253,0.00001596,0.00000827,
 -0.00002092,0.00010426,-0.00001089,0.00142074,0.00047970,-0.00131161,-
 0.00006339,-0.00039742,0.00040573,-0.00056940,-0.00267882,-0.00033558,
 -0.01008458,0.00308460,0.00031511,-0.31396290,0.01304316,-0.03388024,0
 .00028195,-0.00018046,-0.00034521,0.00019785,-0.00042454,0.00013636,0.
 34017926,-0.00023390,-0.00000444,-0.00005269,0.00001553,-0.00000821,-0
 .00000479,0.00005816,0.00042914,0.00026697,0.00105198,-0.00002726,-0.0
 0295892,0.00020566,-0.00038265,0.00103466,-0.00642159,-0.00543251,-0.0
 0234983,-0.02609721,0.00470235,-0.00053845,0.01486563,-0.04856541,0.00
 114460,0.00063190,0.00103001,-0.00013852,0.00061513,0.00044584,0.00107
 909,-0.01377593,0.04900385,-0.00009248,-0.00000475,-0.00000881,0.00000
 692,0.00000010,-0.00000314,-0.00001653,0.00007065,0.00008636,0.0004688
 2,0.00000327,-0.00286222,0.00052299,0.00023658,0.00116995,-0.00405911,
 -0.00373150,0.00009050,-0.01355746,0.00383795,-0.00249530,-0.03272573,
 0.00070605,-0.05027604,0.00042231,0.00061226,-0.00005370,0.00021132,0.
 00009870,0.00044184,0.03763373,0.00008102,0.05059473,-0.00016915,-0.00
 003943,-0.00004901,-0.00002347,-0.00001662,-0.00000066,0.00020741,0.00
 022772,0.00002850,-0.00025364,-0.00051910,0.00150671,-0.00052164,0.000
 00286,-0.00071185,0.00207178,0.00053613,0.00045856,0.00054675,-0.01052
 002,0.00617437,-0.06033609,0.04939094,-0.03344987,0.00009241,0.0007922
 4,0.00003193,-0.00018791,-0.00221998,-0.00107910,-0.00505375,0.0260454
 2,-0.01796351,0.06030090,-0.00012806,-0.00000515,-0.00004661,-0.000002
 41,-0.00000604,0.00000375,0.00002660,0.00006574,0.00005109,-0.00009967
 ,-0.00043539,0.00075140,-0.00016518,0.00023991,-0.00039869,0.00103849,
 0.00294796,0.00017556,0.00686666,-0.02560108,0.01658357,0.04686380,-0.
 21991095,0.12258029,0.00023703,0.00103623,-0.00007587,-0.00206389,-0.0
 0324278,-0.00362723,0.00000336,0.00025247,-0.00088119,-0.05094170,0.24
 113751,0.00019038,0.00003073,0.00004632,0.00000384,0.00000838,0.000001
 87,-0.00015366,-0.00033482,-0.00002898,-0.00044113,0.00052017,-0.00047
 591,0.00053261,0.00029271,0.00043072,0.00160178,0.00103777,0.00035149,
 0.00401783,-0.01564740,0.01008486,-0.03387541,0.12498500,-0.13723056,0
 .00057357,0.00057545,0.00092308,-0.00181372,-0.00306541,-0.00111922,-0
 .00002518,0.00142160,-0.00278295,0.03765470,-0.13254814,0.14424741,0.0
 0003397,0.00000753,-0.00001378,-0.00002786,-0.00002675,-0.00000645,0.0
 0002695,0.00003306,0.00000655,-0.00077893,-0.00054518,-0.00102421,-0.0
 0071385,-0.00067400,0.00060426,0.00132254,0.00111334,0.00068672,0.0043
 5259,-0.00159955,-0.01217699,-0.09934864,0.01303908,0.10790945,-0.0000
 3568,-0.00243652,-0.00139829,0.00001345,0.00064574,0.00054273,-0.01212
 377,0.00294132,0.02912256,0.00310222,-0.00168501,-0.00813927,0.1038399
 7,0.00022034,0.00004183,0.00003250,-0.00000634,-0.00000234,-0.00001315
 ,-0.00028202,-0.00041157,0.00011395,-0.00099026,0.00099800,-0.00283901
 ,0.00058376,-0.00061462,0.00179504,-0.00009354,0.00153352,0.00283024,0
 .01535115,-0.00396603,-0.02876333,0.01022341,-0.05025008,-0.02079582,-
 0.00274015,-0.00459615,-0.00224981,0.00055531,0.00111245,0.00038447,0.
 00062619,-0.00151184,-0.00102857,-0.01268208,0.00355934,0.02267208,-0.
 01071285,0.05414328,-0.00016204,-0.00006194,-0.00004718,-0.00002064,-0
 .00000821,-0.00001471,0.00012018,0.00006721,0.00007598,-0.00046878,-0.
 00033704,-0.00143960,0.00090661,0.00099026,0.00063977,-0.00043069,0.00
 086241,0.00121248,0.00641223,-0.00253445,-0.01399071,0.10625125,-0.023
 14573,-0.26949328,-0.00104636,-0.00231624,0.00047849,-0.00033197,0.000
 22953,0.00066522,-0.00257731,0.00101080,0.00600709,0.00746215,-0.00251
 643,-0.01442360,-0.11631804,0.02791193,0.29024527,-0.01020438,-0.01361
 699,-0.00497323,0.00035889,0.00059597,-0.00024570,-0.01219686,0.019576
 62,0.01315660,-0.00121049,0.00644172,-0.00319556,-0.00000845,0.0008464
 9,0.00052366,-0.00031003,0.00167396,0.00144077,0.00087425,-0.00065918,
 -0.00060266,-0.00011820,0.00008072,-0.00010383,0.00003133,0.00002326,0
 .00010760,-0.00006574,0.00000367,-0.00003325,-0.00020396,0.00006263,0.
 00006448,0.00016534,0.00001119,-0.00010486,0.00039943,-0.00007188,0.00
 022695,0.24390918,-0.09026913,-0.05309512,-0.02911101,0.00175814,0.001
 26811,0.00077167,0.07698138,0.13681448,0.04613378,0.00839711,-0.034985
 98,-0.00233062,0.00146417,0.00219187,0.00088568,0.00037272,0.00017029,
 0.00040802,-0.00032721,0.00210472,0.00022227,0.00052878,-0.00009514,0.
 00009278,-0.00001880,0.00007553,-0.00009890,-0.00037835,-0.00005272,0.
 00020017,0.00009457,0.00008298,0.00000106,-0.00006522,-0.00004305,0.00
 000444,-0.00014344,-0.00008503,-0.00015774,-0.04480856,-0.02190119,-0.
 01050713,-0.00879962,0.00025914,0.00028341,0.00034354,0.00003597,0.013
 84546,0.01160890,-0.01555346,-0.00374399,-0.00127991,-0.00220675,0.002
 22845,0.00020352,0.00425888,0.00076692,-0.00159967,0.00041035,-0.00084
 760,0.00012558,-0.00004280,0.00005541,0.00009457,-0.00029904,0.0000239
 9,0.00005216,0.00004027,0.00012305,-0.00002435,0.00003297,-0.00001201,
 0.00006119,0.00012098,-0.00004429,-0.00002444,-0.00006495,0.00021766,-
 0.00010660,0.00011090,-0.26026711,0.04342526,0.31303329,0.00288368,-0.
 00030064,0.00030362,0.00005069,-0.00043018,-0.00000159,-0.00200694,-0.
 00663729,-0.00518780,-0.00148854,0.00010991,0.00287304,0.00013505,-0.0
 0017451,-0.00102655,0.00067125,0.00080144,-0.00066931,0.00006557,-0.00
 009352,-0.00001813,-0.00002888,-0.00008945,0.00015119,0.00000817,-0.00
 001591,-0.00001854,-0.00002177,0.00002575,0.00000136,0.00001603,0.0000
 3526,-0.00003829,0.00005885,0.00003880,-0.00002148,-0.00006239,0.00001
 895,-0.00002355,-0.22142032,0.04641385,0.25787780,0.22113954,-0.002545
 44,-0.00143727,-0.00078256,-0.00022140,-0.00001721,-0.00005276,0.01226
 127,0.00038684,-0.01017867,0.00116629,-0.00245728,-0.00102985,-0.00017
 770,0.00029579,0.00096036,-0.00079985,-0.00037704,0.00030320,0.0002686
 8,0.00012034,0.00018755,-0.00007570,-0.00001665,-0.00007818,-0.0000663
 9,-0.00001556,-0.00000161,0.00001589,-0.00001095,-0.00003615,-0.000015
 67,-0.00001431,-0.00000164,0.00000885,0.00000527,0.00004743,0.00004323
 ,0.00004925,0.00000563,0.02984038,-0.03244975,-0.04408014,-0.03970246,
 0.03593853,-0.00330247,-0.00131532,-0.00053962,-0.00010182,-0.00023777
 ,-0.00010487,0.00240443,0.00799976,0.00053571,0.00366607,-0.00123642,0
 .00225342,-0.00110096,0.00024078,-0.00178137,-0.00160541,0.00025856,0.
 00041702,0.00050488,0.00003359,0.00012499,-0.00009145,0.00002058,0.000
 05257,-0.00007885,-0.00000842,-0.00002105,-0.00005650,-0.00001818,-0.0
 0001515,-0.00001077,-0.00005674,-0.00002929,-0.00001863,-0.00002705,0.
 00004041,-0.00001288,0.00005609,-0.00002613,0.25400614,-0.06044686,-0.
 30013576,-0.25420178,0.05473739,0.29922911\\-0.00100793,0.00258189,0.0
 0000868,-0.00009742,0.00019550,0.00002915,-0.00126900,-0.02342374,-0.0
 0342343,0.00007148,-0.00061621,-0.00002810,0.00064714,0.00094216,0.000
 40445,0.00003323,0.00048078,0.00006629,-0.00011139,0.00015452,0.000078
 38,0.00010272,0.00005713,0.00004042,-0.00001004,0.00000467,0.00000481,
 -0.00001423,0.00001202,0.00001031,0.00001040,0.00000575,-0.00000060,0.
 00001593,0.00000490,0.00000160,0.00001175,0.00000085,0.00000534,0.0017
 2922,0.01906535,0.00252700,-0.00011188,0.00053443,0.00027569\\\@


 IF YOU BELIEVE CERTAIN WORDS, YOU BELIEVE THEIR HIDDEN ARGUMENTS.
 WHEN YOU BELIEVE SOMETHING IS RIGHT OR WRONG, TRUE OR FALSE, 
 YOU BELIEVE THE ASSUMPTIONS IN THE WORDS WHICH EXPRESS THE ARGUMENTS.
 SUCH ASSUMPTIONS ARE OFTEN FULL OF HOLES, BUT REMAIN MOST PRECIOUS 
 TO THE CONVINCED.

                 -- THE OPEN-ENDED PROOF FROM THE PANOPLIA PROPHETICA
                    CHILDREN OF DUNE BY FRANK HERBERT
 Job cpu time:       0 days  0 hours 58 minutes 42.1 seconds.
 Elapsed time:       0 days  0 hours  2 minutes 27.1 seconds.
 File lengths (MBytes):  RWF=    153 Int=      0 D2E=      0 Chk=      9 Scr=      1
 Normal termination of Gaussian 16 at Mon Jun 23 05:55:41 2025.
