 Entering Gaussian System, Link 0=g16
 Initial command:
 /opt/g16/l1.exe "/home/aayush/scratches/g16/Gau-66533.inp" -scrdir="/home/aayush/scratches/g16/"
 Entering Link 1 = /opt/g16/l1.exe PID=     66536.
  
 Copyright (c) 1988,1990,1992,1993,1995,1998,2003,2009,2016,
            Gaussian, Inc.  All Rights Reserved.
  
 This is part of the Gaussian(R) 16 program.  It is based on
 the Gaussian(R) 09 system (copyright 2009, Gaussian, Inc.),
 the Gaussian(R) 03 system (copyright 2003, Gaussian, Inc.),
 the Gaussian(R) 98 system (copyright 1998, Gaussian, Inc.),
 the Gaussian(R) 94 system (copyright 1995, Gaussian, Inc.),
 the Gaussian 92(TM) system (copyright 1992, Gaussian, Inc.),
 the Gaussian 90(TM) system (copyright 1990, Gaussian, Inc.),
 the Gaussian 88(TM) system (copyright 1988, Gaussian, Inc.),
 the Gaussian 86(TM) system (copyright 1986, Carnegie Mellon
 University), and the Gaussian 82(TM) system (copyright 1983,
 Carnegie Mellon University). Gaussian is a federally registered
 trademark of Gaussian, Inc.
  
 This software contains proprietary and confidential information,
 including trade secrets, belonging to Gaussian, Inc.
  
 This software is provided under written license and may be
 used, copied, transmitted, or stored only in accord with that
 written license.
  
 The following legend is applicable only to US Government
 contracts under FAR:
  
                    RESTRICTED RIGHTS LEGEND
  
 Use, reproduction and disclosure by the US Government is
 subject to restrictions as set forth in subparagraphs (a)
 and (c) of the Commercial Computer Software - Restricted
 Rights clause in FAR 52.227-19.
  
 Gaussian, Inc.
 340 Quinnipiac St., Bldg. 40, Wallingford CT 06492
  
  
 ---------------------------------------------------------------
 Warning -- This program may not be used in any manner that
 competes with the business of Gaussian, Inc. or will provide
 assistance to any competitor of Gaussian, Inc.  The licensee
 of this program is prohibited from giving any competitor of
 Gaussian, Inc. access to this program.  By using this program,
 the user acknowledges that Gaussian, Inc. is engaged in the
 business of creating and licensing software in the field of
 computational chemistry and represents and warrants to the
 licensee that it is not a competitor of Gaussian, Inc. and that
 it will not use this program in any manner prohibited above.
 ---------------------------------------------------------------
  

 Cite this work as:
 Gaussian 16, Revision A.03,
 M. J. Frisch, G. W. Trucks, H. B. Schlegel, G. E. Scuseria, 
 M. A. Robb, J. R. Cheeseman, G. Scalmani, V. Barone, 
 G. A. Petersson, H. Nakatsuji, X. Li, M. Caricato, A. V. Marenich, 
 J. Bloino, B. G. Janesko, R. Gomperts, B. Mennucci, H. P. Hratchian, 
 J. V. Ortiz, A. F. Izmaylov, J. L. Sonnenberg, D. Williams-Young, 
 F. Ding, F. Lipparini, F. Egidi, J. Goings, B. Peng, A. Petrone, 
 T. Henderson, D. Ranasinghe, V. G. Zakrzewski, J. Gao, N. Rega, 
 G. Zheng, W. Liang, M. Hada, M. Ehara, K. Toyota, R. Fukuda, 
 J. Hasegawa, M. Ishida, T. Nakajima, Y. Honda, O. Kitao, H. Nakai, 
 T. Vreven, K. Throssell, J. A. Montgomery, Jr., J. E. Peralta, 
 F. Ogliaro, M. J. Bearpark, J. J. Heyd, E. N. Brothers, K. N. Kudin, 
 V. N. Staroverov, T. A. Keith, R. Kobayashi, J. Normand, 
 K. Raghavachari, A. P. Rendell, J. C. Burant, S. S. Iyengar, 
 J. Tomasi, M. Cossi, J. M. Millam, M. Klene, C. Adamo, R. Cammi, 
 J. W. Ochterski, R. L. Martin, K. Morokuma, O. Farkas, 
 J. B. Foresman, and D. J. Fox, Gaussian, Inc., Wallingford CT, 2016.
 
 ******************************************
 Gaussian 16:  ES64L-G16RevA.03 25-Dec-2016
                23-Jun-2025 
 ******************************************
 %nprocshared=24
 Will use up to   24 processors via shared memory.
 %mem=12GB
 %chk=ethyl_propiolate_ts1.chk
 --------------------------
 # freq 6-311++g(d,p) m062x
 --------------------------
 1/10=4,30=1,38=1/1,3;
 2/12=2,17=6,18=5,40=1/2;
 3/5=4,6=6,7=1111,11=2,25=1,30=1,71=2,74=-55,140=1/1,2,3;
 4//1;
 5/5=2,38=5,98=1/2;
 8/6=4,10=90,11=11/1;
 11/6=1,8=1,9=11,15=111,16=1/1,2,10;
 10/6=1/2;
 6/7=2,8=2,9=2,10=2,28=1/1;
 7/8=1,10=1,25=1/1,2,3,16;
 1/10=4,30=1/3;
 99//99;
 -------------------
 Title Card Required
 -------------------
 Symbolic Z-matrix:
 Charge =  0 Multiplicity = 2
 C                    -2.78697  -0.49116  -0.4395 
 H                    -3.81463  -0.55447  -0.71248 
 C                    -1.62388  -0.35749  -0.14524 
 C                    -0.22269  -0.56738   0.23262 
 O                     0.11195  -0.90244   1.33357 
 O                     0.58059  -0.3678   -0.80389 
 C                     1.99462  -0.4528   -0.53277 
 C                     2.48501   0.82005   0.12782 
 H                     2.44356  -0.60008  -1.51327 
 H                     2.18112  -1.32876   0.08956 
 H                     3.56696   0.76982   0.26481 
 H                     2.24986   1.68402  -0.49497 
 H                     2.01785   0.94912   1.10447 
 O                    -1.40337   1.71518   0.09291 
 H                    -2.03472   1.81355   0.82359 
 

 GradGradGradGradGradGradGradGradGradGradGradGradGradGradGradGradGradGrad
 Berny optimization.
 Initialization pass.
 Trust Radius=3.00D-01 FncErr=1.00D-07 GrdErr=1.00D-07 EigMax=2.50D+02 EigMin=1.00D-04
 Number of steps in this run=      2 maximum allowed number of steps=      2.
 GradGradGradGradGradGradGradGradGradGradGradGradGradGradGradGradGradGrad

                          Input orientation:                          
 ---------------------------------------------------------------------
 Center     Atomic      Atomic             Coordinates (Angstroms)
 Number     Number       Type             X           Y           Z
 ---------------------------------------------------------------------
      1          6           0       -2.786970   -0.491163   -0.439503
      2          1           0       -3.814628   -0.554469   -0.712476
      3          6           0       -1.623881   -0.357493   -0.145235
      4          6           0       -0.222685   -0.567383    0.232623
      5          8           0        0.111952   -0.902441    1.333567
      6          8           0        0.580591   -0.367802   -0.803891
      7          6           0        1.994624   -0.452800   -0.532772
      8          6           0        2.485014    0.820050    0.127821
      9          1           0        2.443555   -0.600081   -1.513267
     10          1           0        2.181117   -1.328756    0.089557
     11          1           0        3.566960    0.769818    0.264814
     12          1           0        2.249864    1.684022   -0.494966
     13          1           0        2.017848    0.949120    1.104472
     14          8           0       -1.403368    1.715183    0.092907
     15          1           0       -2.034720    1.813549    0.823594
 ---------------------------------------------------------------------
                    Distance matrix (angstroms):
                    1          2          3          4          5
     1  C    0.000000
     2  H    1.065177   0.000000
     3  C    1.207161   2.271549   0.000000
     4  C    2.652003   3.714220   1.466349   0.000000
     5  O    3.422963   4.441329   2.344555   1.198467   0.000000
     6  O    3.389464   4.400131   2.300789   1.326441   2.252596
     7  C    4.782657   5.812920   3.640446   2.348493   2.688838
     8  C    5.462138   6.502376   4.283011   3.044271   3.170524
     9  H    5.340714   6.309374   4.298185   3.187168   3.692189
    10  H    5.065901   6.098503   3.934017   2.525554   2.451683
    11  H    6.516023   7.562848   5.327645   4.018775   3.984440
    12  H    5.486730   6.468092   4.392721   3.422237   3.821517
    13  H    5.248290   6.291252   4.065857   2.842515   2.667059
    14  O    2.658153   3.407952   2.097933   2.573643   3.269157
    15  H    2.733677   3.336929   2.412642   3.049845   3.499268
                    6          7          8          9         10
     6  O    0.000000
     7  C    1.442297   0.000000
     8  C    2.430207   1.515590   0.000000
     9  H    2.006939   1.088394   2.170636   0.000000
    10  H    2.069629   1.090583   2.170526   1.780136   0.000000
    11  H    3.369675   2.145502   1.091741   2.510027   2.520970
    12  H    2.663060   2.152344   1.090691   2.508302   3.069727
    13  H    2.727974   2.155571   1.090298   3.071450   2.499085
    14  O    3.013166   4.078967   3.990238   4.768549   4.702564
    15  H    3.774500   4.817850   4.679651   5.598346   5.309065
                   11         12         13         14         15
    11  H    0.000000
    12  H    1.774197   0.000000
    13  H    1.771136   1.775419   0.000000
    14  O    5.062354   3.700361   3.648950   0.000000
    15  H    5.725419   4.484756   4.153244   0.970662   0.000000
 Stoichiometry    C5H7O3(2)
 Framework group  C1[X(C5H7O3)]
 Deg. of freedom    39
 Full point group                 C1      NOp   1
 Largest Abelian subgroup         C1      NOp   1
 Largest concise Abelian subgroup C1      NOp   1
                         Standard orientation:                         
 ---------------------------------------------------------------------
 Center     Atomic      Atomic             Coordinates (Angstroms)
 Number     Number       Type             X           Y           Z
 ---------------------------------------------------------------------
      1          6           0       -2.786970   -0.491163   -0.439503
      2          1           0       -3.814628   -0.554469   -0.712476
      3          6           0       -1.623881   -0.357493   -0.145235
      4          6           0       -0.222685   -0.567383    0.232623
      5          8           0        0.111952   -0.902441    1.333567
      6          8           0        0.580591   -0.367802   -0.803891
      7          6           0        1.994624   -0.452800   -0.532772
      8          6           0        2.485014    0.820050    0.127821
      9          1           0        2.443555   -0.600081   -1.513267
     10          1           0        2.181117   -1.328756    0.089557
     11          1           0        3.566960    0.769818    0.264814
     12          1           0        2.249864    1.684022   -0.494966
     13          1           0        2.017848    0.949120    1.104472
     14          8           0       -1.403368    1.715183    0.092907
     15          1           0       -2.034720    1.813549    0.823594
 ---------------------------------------------------------------------
 Rotational constants (GHZ):           3.5614488           1.3083021           1.1834136
 Standard basis: 6-311++G(d,p) (5D, 7F)
 There are   233 symmetry adapted cartesian basis functions of A   symmetry.
 There are   225 symmetry adapted basis functions of A   symmetry.
   225 basis functions,   351 primitive gaussians,   233 cartesian basis functions
    31 alpha electrons       30 beta electrons
       nuclear repulsion energy       361.5632525518 Hartrees.
 NAtoms=   15 NActive=   15 NUniq=   15 SFac= 1.00D+00 NAtFMM=   60 NAOKFM=F Big=F
 Integral buffers will be    131072 words long.
 Raffenetti 2 integral format.
 Two-electron integral symmetry is turned on.
 One-electron integrals computed using PRISM.
 NBasis=   225 RedAO= T EigKep=  1.65D-06  NBF=   225
 NBsUse=   225 1.00D-06 EigRej= -1.00D+00 NBFU=   225
 ExpMin= 3.60D-02 ExpMax= 8.59D+03 ExpMxC= 1.30D+03 IAcc=3 IRadAn=         5 AccDes= 0.00D+00
 Harris functional with IExCor= 1009 and IRadAn=       5 diagonalized for initial guess.
 HarFok:  IExCor= 1009 AccDes= 0.00D+00 IRadAn=         5 IDoV= 1 UseB2=F ITyADJ=14
 ICtDFT=  3500011 ScaDFX=  1.000000  1.000000  1.000000  1.000000
 FoFCou: FMM=F IPFlag=           0 FMFlag=      100000 FMFlg1=           0
         NFxFlg=           0 DoJE=T BraDBF=F KetDBF=T FulRan=T
         wScrn=  0.000000 ICntrl=       500 IOpCl=  0 I1Cent=   200000004 NGrid=           0
         NMat0=    1 NMatS0=      1 NMatT0=    0 NMatD0=    1 NMtDS0=    0 NMtDT0=    0
 Petite list used in FoFCou.
 Initial guess <Sx>= 0.0000 <Sy>= 0.0000 <Sz>= 0.5000 <S**2>= 0.7500 S= 0.5000
 Requested convergence on RMS density matrix=1.00D-08 within 128 cycles.
 Requested convergence on MAX density matrix=1.00D-06.
 Requested convergence on             energy=1.00D-06.
 No special actions if energy rises.
 Restarting incremental Fock formation.
 SCF Done:  E(UM062X) =  -420.203473701     A.U. after   24 cycles
            NFock= 24  Conv=0.59D-08     -V/T= 2.0032
 <Sx>= 0.0000 <Sy>= 0.0000 <Sz>= 0.5000 <S**2>= 0.7659 S= 0.5079
 <L.S>=  0.00000000000    
 Annihilation of the first spin contaminant:
 S**2 before annihilation     0.7659,   after     0.7501
 DoSCS=F DFT=T ScalE2(SS,OS)=  1.000000  1.000000
 Range of M.O.s used for correlation:     1   225
 NBasis=   225 NAE=    31 NBE=    30 NFC=     0 NFV=     0
 NROrb=    225 NOA=    31 NOB=    30 NVA=   194 NVB=   195

 **** Warning!!: The largest alpha MO coefficient is  0.27828374D+03


 **** Warning!!: The largest beta MO coefficient is  0.23723291D+03

 Symmetrizing basis deriv contribution to polar:
 IMax=3 JMax=2 DiffMx= 0.00D+00
 G2DrvN: will do    16 centers at a time, making    1 passes.
 Calling FoFCou, ICntrl=  3107 FMM=F I1Cent=   0 AccDes= 0.00D+00.
 End of G2Drv F.D. properties file   721 does not exist.
 End of G2Drv F.D. properties file   722 does not exist.
 End of G2Drv F.D. properties file   788 does not exist.
          IDoAtm=111111111111111
          Differentiating once with respect to electric field.
                with respect to dipole field.
          Differentiating once with respect to nuclear coordinates.
 Keep R1 and R2 ints in memory in canonical form, NReq=671901991.
          There are    48 degrees of freedom in the 1st order CPHF.  IDoFFX=6 NUNeed=     3.
     45 vectors produced by pass  0 Test12= 2.47D-14 2.08D-09 XBig12= 9.40D+01 3.13D+00.
 AX will form    45 AO Fock derivatives at one time.
     45 vectors produced by pass  1 Test12= 2.47D-14 2.08D-09 XBig12= 2.01D+01 5.85D-01.
     45 vectors produced by pass  2 Test12= 2.47D-14 2.08D-09 XBig12= 7.23D-01 1.58D-01.
     45 vectors produced by pass  3 Test12= 2.47D-14 2.08D-09 XBig12= 1.08D-02 1.48D-02.
     45 vectors produced by pass  4 Test12= 2.47D-14 2.08D-09 XBig12= 1.02D-04 1.32D-03.
     45 vectors produced by pass  5 Test12= 2.47D-14 2.08D-09 XBig12= 8.19D-07 7.96D-05.
     39 vectors produced by pass  6 Test12= 2.47D-14 2.08D-09 XBig12= 7.76D-09 1.18D-05.
     20 vectors produced by pass  7 Test12= 2.47D-14 2.08D-09 XBig12= 5.40D-11 6.73D-07.
      4 vectors produced by pass  8 Test12= 2.47D-14 2.08D-09 XBig12= 4.35D-13 6.15D-08.
      3 vectors produced by pass  9 Test12= 2.47D-14 2.08D-09 XBig12= 5.51D-15 1.03D-08.
      2 vectors produced by pass 10 Test12= 2.47D-14 2.08D-09 XBig12= 5.58D-16 3.80D-09.
 InvSVY:  IOpt=1 It=  1 EMax= 8.88D-15
 Solved reduced A of dimension   338 with    48 vectors.
 Isotropic polarizability for W=    0.000000       73.79 Bohr**3.
 End of Minotr F.D. properties file   721 does not exist.
 End of Minotr F.D. properties file   722 does not exist.
 End of Minotr F.D. properties file   788 does not exist.

 **********************************************************************

            Population analysis using the SCF density.

 **********************************************************************

 Orbital symmetries:
 Alpha Orbitals:
       Occupied  (A) (A) (A) (A) (A) (A) (A) (A) (A) (A) (A) (A)
                 (A) (A) (A) (A) (A) (A) (A) (A) (A) (A) (A) (A)
                 (A) (A) (A) (A) (A) (A) (A)
       Virtual   (A) (A) (A) (A) (A) (A) (A) (A) (A) (A) (A) (A)
                 (A) (A) (A) (A) (A) (A) (A) (A) (A) (A) (A) (A)
                 (A) (A) (A) (A) (A) (A) (A) (A) (A) (A) (A) (A)
                 (A) (A) (A) (A) (A) (A) (A) (A) (A) (A) (A) (A)
                 (A) (A) (A) (A) (A) (A) (A) (A) (A) (A) (A) (A)
                 (A) (A) (A) (A) (A) (A) (A) (A) (A) (A) (A) (A)
                 (A) (A) (A) (A) (A) (A) (A) (A) (A) (A) (A) (A)
                 (A) (A) (A) (A) (A) (A) (A) (A) (A) (A) (A) (A)
                 (A) (A) (A) (A) (A) (A) (A) (A) (A) (A) (A) (A)
                 (A) (A) (A) (A) (A) (A) (A) (A) (A) (A) (A) (A)
                 (A) (A) (A) (A) (A) (A) (A) (A) (A) (A) (A) (A)
                 (A) (A) (A) (A) (A) (A) (A) (A) (A) (A) (A) (A)
                 (A) (A) (A) (A) (A) (A) (A) (A) (A) (A) (A) (A)
                 (A) (A) (A) (A) (A) (A) (A) (A) (A) (A) (A) (A)
                 (A) (A) (A) (A) (A) (A) (A) (A) (A) (A) (A) (A)
                 (A) (A) (A) (A) (A) (A) (A) (A) (A) (A) (A) (A)
                 (A) (A)
 Beta  Orbitals:
       Occupied  (A) (A) (A) (A) (A) (A) (A) (A) (A) (A) (A) (A)
                 (A) (A) (A) (A) (A) (A) (A) (A) (A) (A) (A) (A)
                 (A) (A) (A) (A) (A) (A)
       Virtual   (A) (A) (A) (A) (A) (A) (A) (A) (A) (A) (A) (A)
                 (A) (A) (A) (A) (A) (A) (A) (A) (A) (A) (A) (A)
                 (A) (A) (A) (A) (A) (A) (A) (A) (A) (A) (A) (A)
                 (A) (A) (A) (A) (A) (A) (A) (A) (A) (A) (A) (A)
                 (A) (A) (A) (A) (A) (A) (A) (A) (A) (A) (A) (A)
                 (A) (A) (A) (A) (A) (A) (A) (A) (A) (A) (A) (A)
                 (A) (A) (A) (A) (A) (A) (A) (A) (A) (A) (A) (A)
                 (A) (A) (A) (A) (A) (A) (A) (A) (A) (A) (A) (A)
                 (A) (A) (A) (A) (A) (A) (A) (A) (A) (A) (A) (A)
                 (A) (A) (A) (A) (A) (A) (A) (A) (A) (A) (A) (A)
                 (A) (A) (A) (A) (A) (A) (A) (A) (A) (A) (A) (A)
                 (A) (A) (A) (A) (A) (A) (A) (A) (A) (A) (A) (A)
                 (A) (A) (A) (A) (A) (A) (A) (A) (A) (A) (A) (A)
                 (A) (A) (A) (A) (A) (A) (A) (A) (A) (A) (A) (A)
                 (A) (A) (A) (A) (A) (A) (A) (A) (A) (A) (A) (A)
                 (A) (A) (A) (A) (A) (A) (A) (A) (A) (A) (A) (A)
                 (A) (A) (A)
 The electronic state is 2-A.
 Alpha  occ. eigenvalues --  -19.68042 -19.66569 -19.62951 -10.70563 -10.60326
 Alpha  occ. eigenvalues --  -10.58591 -10.58047 -10.53367  -1.25578  -1.16278
 Alpha  occ. eigenvalues --   -1.12557  -0.90843  -0.87324  -0.78035  -0.70580
 Alpha  occ. eigenvalues --   -0.64387  -0.61908  -0.58480  -0.57160  -0.54160
 Alpha  occ. eigenvalues --   -0.53233  -0.50370  -0.48516  -0.46110  -0.45054
 Alpha  occ. eigenvalues --   -0.41715  -0.41637  -0.39567  -0.38277  -0.36541
 Alpha  occ. eigenvalues --   -0.34918
 Alpha virt. eigenvalues --   -0.00775  -0.00209   0.00508   0.01472   0.02530
 Alpha virt. eigenvalues --    0.02788   0.03574   0.04365   0.05650   0.06192
 Alpha virt. eigenvalues --    0.07137   0.07635   0.08456   0.09825   0.10705
 Alpha virt. eigenvalues --    0.11008   0.11492   0.12600   0.12828   0.13712
 Alpha virt. eigenvalues --    0.14324   0.14746   0.15444   0.15681   0.15862
 Alpha virt. eigenvalues --    0.17003   0.17437   0.18492   0.19039   0.20722
 Alpha virt. eigenvalues --    0.21283   0.21659   0.23506   0.24203   0.24455
 Alpha virt. eigenvalues --    0.25508   0.26284   0.28093   0.29458   0.30586
 Alpha virt. eigenvalues --    0.31267   0.32121   0.32326   0.33829   0.34552
 Alpha virt. eigenvalues --    0.34635   0.35654   0.37014   0.38782   0.40514
 Alpha virt. eigenvalues --    0.41003   0.43341   0.45065   0.46802   0.49270
 Alpha virt. eigenvalues --    0.50163   0.53594   0.55271   0.56145   0.58759
 Alpha virt. eigenvalues --    0.59444   0.60755   0.63310   0.66412   0.67168
 Alpha virt. eigenvalues --    0.70052   0.70424   0.70557   0.72297   0.72646
 Alpha virt. eigenvalues --    0.74025   0.75656   0.77331   0.78318   0.79935
 Alpha virt. eigenvalues --    0.84321   0.87196   0.91439   0.94210   0.98565
 Alpha virt. eigenvalues --    1.01981   1.05163   1.06525   1.09123   1.10274
 Alpha virt. eigenvalues --    1.14899   1.17813   1.18990   1.20250   1.23515
 Alpha virt. eigenvalues --    1.24793   1.26132   1.29584   1.32486   1.35376
 Alpha virt. eigenvalues --    1.35436   1.36860   1.38055   1.41224   1.45148
 Alpha virt. eigenvalues --    1.46565   1.49071   1.51557   1.53090   1.55861
 Alpha virt. eigenvalues --    1.58548   1.59841   1.61861   1.62636   1.65453
 Alpha virt. eigenvalues --    1.66621   1.67882   1.70629   1.73343   1.74962
 Alpha virt. eigenvalues --    1.78965   1.81385   1.83799   1.87022   1.89317
 Alpha virt. eigenvalues --    1.90792   1.95243   1.99441   2.03621   2.05245
 Alpha virt. eigenvalues --    2.09847   2.10376   2.14313   2.21292   2.31861
 Alpha virt. eigenvalues --    2.35827   2.39215   2.46496   2.52012   2.52953
 Alpha virt. eigenvalues --    2.54536   2.55994   2.61904   2.62289   2.63527
 Alpha virt. eigenvalues --    2.65577   2.66543   2.72041   2.73707   2.75955
 Alpha virt. eigenvalues --    2.80927   2.83039   2.84661   2.90371   2.92722
 Alpha virt. eigenvalues --    2.94665   2.96467   2.99262   3.02543   3.06240
 Alpha virt. eigenvalues --    3.09955   3.12366   3.15979   3.17663   3.18656
 Alpha virt. eigenvalues --    3.25336   3.27157   3.31937   3.36639   3.38392
 Alpha virt. eigenvalues --    3.45144   3.51028   3.65942   3.77083   3.85628
 Alpha virt. eigenvalues --    3.86319   3.88896   3.91156   4.03477   4.13285
 Alpha virt. eigenvalues --    4.19581   4.28551   5.10953   5.13502   5.16705
 Alpha virt. eigenvalues --    5.20386   5.32762   5.47573   5.58779   5.73876
 Alpha virt. eigenvalues --    5.95012  23.61716  23.93224  23.94481  24.06180
 Alpha virt. eigenvalues --   25.08020  49.95481  50.01341  50.11525
  Beta  occ. eigenvalues --  -19.68046 -19.65084 -19.62969 -10.70542 -10.60326
  Beta  occ. eigenvalues --  -10.58616 -10.57868 -10.53367  -1.25583  -1.16316
  Beta  occ. eigenvalues --   -1.06033  -0.90378  -0.86947  -0.77847  -0.70384
  Beta  occ. eigenvalues --   -0.64306  -0.61506  -0.58425  -0.56689  -0.53206
  Beta  occ. eigenvalues --   -0.51706  -0.49003  -0.46553  -0.45108  -0.41706
  Beta  occ. eigenvalues --   -0.39462  -0.39095  -0.38397  -0.38038  -0.35972
  Beta virt. eigenvalues --   -0.09447  -0.00224   0.00281   0.00592   0.01765
  Beta virt. eigenvalues --    0.02644   0.02823   0.03590   0.04443   0.05721
  Beta virt. eigenvalues --    0.06182   0.07234   0.07596   0.08495   0.09909
  Beta virt. eigenvalues --    0.10806   0.11226   0.11702   0.12674   0.12871
  Beta virt. eigenvalues --    0.13733   0.14388   0.14976   0.15553   0.15723
  Beta virt. eigenvalues --    0.16163   0.16975   0.17589   0.18540   0.19132
  Beta virt. eigenvalues --    0.20874   0.21509   0.21811   0.23440   0.24153
  Beta virt. eigenvalues --    0.24554   0.25571   0.26406   0.28274   0.29323
  Beta virt. eigenvalues --    0.30625   0.31232   0.32153   0.32386   0.33885
  Beta virt. eigenvalues --    0.34554   0.34639   0.35762   0.37027   0.38850
  Beta virt. eigenvalues --    0.40487   0.41135   0.43282   0.45073   0.46824
  Beta virt. eigenvalues --    0.49392   0.50185   0.53612   0.55363   0.56481
  Beta virt. eigenvalues --    0.59250   0.59685   0.61079   0.63362   0.66579
  Beta virt. eigenvalues --    0.67170   0.70056   0.70489   0.70622   0.72215
  Beta virt. eigenvalues --    0.72686   0.74040   0.75645   0.77302   0.78370
  Beta virt. eigenvalues --    0.79953   0.84415   0.87244   0.91544   0.94537
  Beta virt. eigenvalues --    0.98599   1.02083   1.05499   1.07201   1.09192
  Beta virt. eigenvalues --    1.12032   1.15527   1.18077   1.19629   1.20692
  Beta virt. eigenvalues --    1.23881   1.25224   1.26322   1.29776   1.33404
  Beta virt. eigenvalues --    1.35485   1.35983   1.37019   1.38757   1.41804
  Beta virt. eigenvalues --    1.45682   1.47009   1.49250   1.51831   1.53655
  Beta virt. eigenvalues --    1.56272   1.58566   1.59852   1.61956   1.62647
  Beta virt. eigenvalues --    1.65462   1.66631   1.67895   1.70687   1.73593
  Beta virt. eigenvalues --    1.75073   1.79322   1.81425   1.84095   1.87120
  Beta virt. eigenvalues --    1.89573   1.90911   1.95759   1.99458   2.03730
  Beta virt. eigenvalues --    2.05334   2.10061   2.11490   2.14328   2.21307
  Beta virt. eigenvalues --    2.31876   2.35838   2.39515   2.46561   2.52015
  Beta virt. eigenvalues --    2.52941   2.54549   2.56078   2.62151   2.62653
  Beta virt. eigenvalues --    2.63907   2.65743   2.66672   2.72277   2.73771
  Beta virt. eigenvalues --    2.76281   2.81649   2.83163   2.87080   2.90875
  Beta virt. eigenvalues --    2.94719   2.95781   2.97700   2.99763   3.03787
  Beta virt. eigenvalues --    3.07157   3.11706   3.13695   3.16422   3.19463
  Beta virt. eigenvalues --    3.20423   3.26748   3.27365   3.32023   3.37112
  Beta virt. eigenvalues --    3.38339   3.45097   3.51576   3.65929   3.77134
  Beta virt. eigenvalues --    3.85675   3.86379   3.91144   3.92070   4.03470
  Beta virt. eigenvalues --    4.13232   4.19521   4.28548   5.12622   5.16154
  Beta virt. eigenvalues --    5.20644   5.22107   5.32840   5.47582   5.61138
  Beta virt. eigenvalues --    5.73861   5.95001  23.61771  23.93230  23.94486
  Beta virt. eigenvalues --   24.06180  25.08335  49.95018  50.01302  50.11549
          Condensed to atoms (all electrons):
               1          2          3          4          5          6
     1  C   33.952894   0.660679 -11.983116 -15.015181  -0.018818  -0.044482
     2  H    0.660679   0.432089  -0.203195  -0.069006  -0.001452  -0.003026
     3  C  -11.983116  -0.203195  18.689954  -1.778485   0.148065  -0.189714
     4  C  -15.015181  -0.069006  -1.778485  22.853149   0.284018   0.081171
     5  O   -0.018818  -0.001452   0.148065   0.284018   7.980896  -0.147293
     6  O   -0.044482  -0.003026  -0.189714   0.081171  -0.147293   8.257157
     7  C   -0.279815  -0.001074  -0.454147   0.615986   0.046499   0.122000
     8  C    0.105212   0.000151   0.123817  -0.350435  -0.069950  -0.025338
     9  H   -0.020629  -0.000019  -0.026440   0.055526   0.004163  -0.093677
    10  H   -0.031878  -0.000230  -0.054835   0.071530  -0.016986  -0.007050
    11  H   -0.008769  -0.000030  -0.010904   0.023888  -0.002187   0.015102
    12  H    0.002970   0.000049   0.010377  -0.013804   0.001605  -0.001470
    13  H    0.035662  -0.000134   0.021883  -0.073107   0.001454  -0.021785
    14  O   -0.213870  -0.002189   0.488912  -0.353315  -0.009721   0.000327
    15  H   -0.130187  -0.002591   0.087400   0.065813  -0.000437  -0.000783
               7          8          9         10         11         12
     1  C   -0.279815   0.105212  -0.020629  -0.031878  -0.008769   0.002970
     2  H   -0.001074   0.000151  -0.000019  -0.000230  -0.000030   0.000049
     3  C   -0.454147   0.123817  -0.026440  -0.054835  -0.010904   0.010377
     4  C    0.615986  -0.350435   0.055526   0.071530   0.023888  -0.013804
     5  O    0.046499  -0.069950   0.004163  -0.016986  -0.002187   0.001605
     6  O    0.122000  -0.025338  -0.093677  -0.007050   0.015102  -0.001470
     7  C    5.459102   0.011031   0.450327   0.415973  -0.044512  -0.036428
     8  C    0.011031   5.500531  -0.057503  -0.037630   0.397519   0.416953
     9  H    0.450327  -0.057503   0.532473  -0.037919   0.000095  -0.010824
    10  H    0.415973  -0.037630  -0.037919   0.520644  -0.004183   0.004937
    11  H   -0.044512   0.397519   0.000095  -0.004183   0.532193  -0.030757
    12  H   -0.036428   0.416953  -0.010824   0.004937  -0.030757   0.529792
    13  H   -0.009230   0.386173   0.009055  -0.010226  -0.037959  -0.043252
    14  O   -0.025205   0.019650   0.000396  -0.000904   0.000575  -0.001681
    15  H    0.004284  -0.004435   0.000099   0.000197   0.000130  -0.000212
              13         14         15
     1  C    0.035662  -0.213870  -0.130187
     2  H   -0.000134  -0.002189  -0.002591
     3  C    0.021883   0.488912   0.087400
     4  C   -0.073107  -0.353315   0.065813
     5  O    0.001454  -0.009721  -0.000437
     6  O   -0.021785   0.000327  -0.000783
     7  C   -0.009230  -0.025205   0.004284
     8  C    0.386173   0.019650  -0.004435
     9  H    0.009055   0.000396   0.000099
    10  H   -0.010226  -0.000904   0.000197
    11  H   -0.037959   0.000575   0.000130
    12  H   -0.043252  -0.001681  -0.000212
    13  H    0.550207   0.002432  -0.000204
    14  O    0.002432   8.085776   0.237546
    15  H   -0.000204   0.237546   0.509117
          Atomic-Atomic Spin Densities.
               1          2          3          4          5          6
     1  C    1.674880   0.054703  -0.517606  -0.595076   0.006153  -0.018975
     2  H    0.054703  -0.008102  -0.033719  -0.022047  -0.000008  -0.000227
     3  C   -0.517606  -0.033719   0.322344   0.126987   0.002670   0.002788
     4  C   -0.595076  -0.022047   0.126987   0.286837  -0.006673   0.021913
     5  O    0.006153  -0.000008   0.002670  -0.006673  -0.012853   0.000228
     6  O   -0.018975  -0.000227   0.002788   0.021913   0.000228  -0.005110
     7  C   -0.026933  -0.000129  -0.030983   0.051679   0.000011  -0.002476
     8  C    0.027229   0.000131   0.034620  -0.053333   0.000721   0.000870
     9  H   -0.002242  -0.000026  -0.001948   0.003759   0.000046   0.000016
    10  H   -0.000464  -0.000040  -0.000434  -0.000349  -0.000352   0.000139
    11  H    0.001497   0.000011   0.002171  -0.003123   0.000002   0.000106
    12  H   -0.000610  -0.000004  -0.001635   0.001965  -0.000050  -0.000071
    13  H   -0.008920  -0.000009  -0.014989   0.024101  -0.000280  -0.000988
    14  O   -0.328570  -0.003936  -0.011271   0.219737   0.001936   0.001980
    15  H    0.020172   0.000290  -0.006619  -0.012864  -0.000198   0.000329
               7          8          9         10         11         12
     1  C   -0.026933   0.027229  -0.002242  -0.000464   0.001497  -0.000610
     2  H   -0.000129   0.000131  -0.000026  -0.000040   0.000011  -0.000004
     3  C   -0.030983   0.034620  -0.001948  -0.000434   0.002171  -0.001635
     4  C    0.051679  -0.053333   0.003759  -0.000349  -0.003123   0.001965
     5  O    0.000011   0.000721   0.000046  -0.000352   0.000002  -0.000050
     6  O   -0.002476   0.000870   0.000016   0.000139   0.000106  -0.000071
     7  C    0.010118  -0.009506   0.000673   0.001629  -0.001579   0.000657
     8  C   -0.009506   0.007025  -0.001025  -0.001406   0.001719  -0.000755
     9  H    0.000673  -0.001025   0.000076   0.000301  -0.000092   0.000035
    10  H    0.001629  -0.001406   0.000301   0.000095  -0.000221   0.000096
    11  H   -0.001579   0.001719  -0.000092  -0.000221   0.000467  -0.000337
    12  H    0.000657  -0.000755   0.000035   0.000096  -0.000337   0.000416
    13  H    0.001436  -0.000874   0.000287   0.000597  -0.000510   0.000051
    14  O    0.005252  -0.003571   0.000282   0.000449  -0.000068  -0.000034
    15  H   -0.000575   0.000708  -0.000020  -0.000052   0.000033  -0.000058
              13         14         15
     1  C   -0.008920  -0.328570   0.020172
     2  H   -0.000009  -0.003936   0.000290
     3  C   -0.014989  -0.011271  -0.006619
     4  C    0.024101   0.219737  -0.012864
     5  O   -0.000280   0.001936  -0.000198
     6  O   -0.000988   0.001980   0.000329
     7  C    0.001436   0.005252  -0.000575
     8  C   -0.000874  -0.003571   0.000708
     9  H    0.000287   0.000282  -0.000020
    10  H    0.000597   0.000449  -0.000052
    11  H   -0.000510  -0.000068   0.000033
    12  H    0.000051  -0.000034  -0.000058
    13  H   -0.000766  -0.000040  -0.000217
    14  O   -0.000040   0.944562   0.012172
    15  H   -0.000217   0.012172  -0.032440
 Mulliken charges and spin densities:
               1          2
     1  C   -1.010673   0.285237
     2  H    0.189978  -0.013111
     3  C    1.130427  -0.127625
     4  C   -0.397747   0.043514
     5  O   -0.199857  -0.008645
     6  O    0.058861   0.000523
     7  C   -0.274791  -0.000726
     8  C   -0.415747   0.002553
     9  H    0.194878   0.000122
    10  H    0.188560  -0.000010
    11  H    0.169800   0.000077
    12  H    0.171745  -0.000334
    13  H    0.189031  -0.001120
    14  O   -0.228729   0.838882
    15  H    0.234263  -0.019338
 Sum of Mulliken charges =  -0.00000   1.00000
 Mulliken charges and spin densities with hydrogens summed into heavy atoms:
               1          2
     1  C   -0.820695   0.272126
     3  C    1.130427  -0.127625
     4  C   -0.397747   0.043514
     5  O   -0.199857  -0.008645
     6  O    0.058861   0.000523
     7  C    0.108648  -0.000613
     8  C    0.114830   0.001176
    14  O    0.005534   0.819544
 APT charges:
               1
     1  C   -0.166291
     2  H    0.236179
     3  C   -0.442828
     4  C    1.470558
     5  O   -0.777357
     6  O   -0.939223
     7  C    0.532974
     8  C   -0.042178
     9  H   -0.013491
    10  H   -0.011399
    11  H    0.009481
    12  H    0.015570
    13  H    0.027810
    14  O   -0.154273
    15  H    0.254469
 Sum of APT charges =   0.00000
 APT charges with hydrogens summed into heavy atoms:
               1
     1  C    0.069888
     3  C   -0.442828
     4  C    1.470558
     5  O   -0.777357
     6  O   -0.939223
     7  C    0.508084
     8  C    0.010683
    14  O    0.100195
 Electronic spatial extent (au):  <R**2>=           1067.9484
 Charge=              0.0000 electrons
 Dipole moment (field-independent basis, Debye):
    X=             -0.6572    Y=              0.0113    Z=             -0.6784  Tot=              0.9446
 Quadrupole moment (field-independent basis, Debye-Ang):
   XX=            -30.0991   YY=            -48.8285   ZZ=            -51.1933
   XY=             -0.0656   XZ=             -1.7654   YZ=              5.1033
 Traceless Quadrupole moment (field-independent basis, Debye-Ang):
   XX=             13.2745   YY=             -5.4549   ZZ=             -7.8196
   XY=             -0.0656   XZ=             -1.7654   YZ=              5.1033
 Octapole moment (field-independent basis, Debye-Ang**2):
  XXX=            -35.0893  YYY=              3.3159  ZZZ=             -1.6199  XYY=              0.8680
  XXY=             -1.6356  XXZ=             -5.8379  XZZ=              0.0015  YZZ=              6.9921
  YYZ=              3.6624  XYZ=             -6.7770
 Hexadecapole moment (field-independent basis, Debye-Ang**3):
 XXXX=           -743.2330 YYYY=           -267.9299 ZZZZ=           -174.9389 XXXY=             -3.3820
 XXXZ=             20.5210 YYYX=            -19.9134 YYYZ=             10.0361 ZZZX=            -10.6011
 ZZZY=              7.6693 XXYY=           -201.6077 XXZZ=           -181.3909 YYZZ=            -73.1835
 XXYZ=             20.0510 YYXZ=            -13.2148 ZZXY=             -8.7117
 N-N= 3.615632525518D+02 E-N=-1.708008981110D+03  KE= 4.188673030942D+02
  Exact polarizability:  91.398   6.701  70.446   4.572   2.381  59.514
 Approx polarizability:  98.713   6.767  74.407   7.530  -0.855  76.792
                          Isotropic Fermi Contact Couplings
        Atom                 a.u.       MegaHertz       Gauss      10(-4) cm-1
     1  C(13)              0.03996      44.92259      16.02950      14.98456
     2  H(1)              -0.00456     -20.36310      -7.26606      -6.79240
     3  C(13)              0.01563      17.57387       6.27079       5.86201
     4  C(13)              0.01289      14.48848       5.16985       4.83284
     5  O(17)             -0.00322       1.95368       0.69712       0.65168
     6  O(17)             -0.00041       0.25086       0.08951       0.08368
     7  C(13)             -0.00002      -0.02161      -0.00771      -0.00721
     8  C(13)             -0.00048      -0.53777      -0.19189      -0.17938
     9  H(1)               0.00002       0.08705       0.03106       0.02904
    10  H(1)              -0.00005      -0.20612      -0.07355      -0.06875
    11  H(1)              -0.00000      -0.01380      -0.00493      -0.00460
    12  H(1)               0.00001       0.05205       0.01857       0.01736
    13  H(1)               0.00001       0.05098       0.01819       0.01700
    14  O(17)              0.13100     -79.40969     -28.33535     -26.48822
    15  H(1)              -0.01414     -63.19151     -22.54830     -21.07842
 --------------------------------------------------------
       Center         ----  Spin Dipole Couplings  ----
                      3XX-RR        3YY-RR        3ZZ-RR
 --------------------------------------------------------
     1   Atom       -0.172699      0.296088     -0.123388
     2   Atom        0.022699     -0.003996     -0.018703
     3   Atom        0.047081     -0.008219     -0.038862
     4   Atom        0.004389      0.012094     -0.016483
     5   Atom        0.024768     -0.036086      0.011319
     6   Atom        0.007324     -0.010256      0.002931
     7   Atom        0.002524     -0.000563     -0.001961
     8   Atom        0.003504     -0.001618     -0.001886
     9   Atom        0.001248     -0.000431     -0.000817
    10   Atom        0.001103      0.000178     -0.001281
    11   Atom        0.001801     -0.000835     -0.000965
    12   Atom        0.004606     -0.002345     -0.002261
    13   Atom        0.003987     -0.002013     -0.001974
    14   Atom       -0.991957      2.479764     -1.487807
    15   Atom        0.005027     -0.049866      0.044839
 --------------------------------------------------------
                        XY            XZ            YZ
 --------------------------------------------------------
     1   Atom       -0.004315     -0.013113      0.036039
     2   Atom        0.006013      0.012171      0.003164
     3   Atom       -0.003868      0.022462      0.005590
     4   Atom       -0.018023      0.003719     -0.001755
     5   Atom       -0.035852     -0.006624     -0.020820
     6   Atom       -0.009912     -0.006124      0.003865
     7   Atom       -0.002642     -0.000533      0.000371
     8   Atom       -0.001510      0.000071      0.000016
     9   Atom       -0.001229     -0.000881      0.000516
    10   Atom       -0.001615      0.000106     -0.000037
    11   Atom       -0.000497      0.000125     -0.000000
    12   Atom       -0.000164     -0.001121      0.000104
    13   Atom       -0.001528      0.001985     -0.000419
    14   Atom        1.647455      0.354014      0.862566
    15   Atom        0.003529     -0.126821      0.039960
 --------------------------------------------------------


 ---------------------------------------------------------------------------------
              Anisotropic Spin Dipole Couplings in Principal Axis System
 ---------------------------------------------------------------------------------

       Atom             a.u.   MegaHertz   Gauss  10(-4) cm-1        Axes

              Baa    -0.1760   -23.620    -8.428    -7.879  0.9686 -0.0101  0.2483
     1 C(13)  Bbb    -0.1232   -16.533    -5.900    -5.515 -0.2482 -0.0855  0.9649
              Bcc     0.2992    40.153    14.328    13.394 -0.0115  0.9963  0.0853
 
              Baa    -0.0221   -11.814    -4.216    -3.941 -0.2503 -0.0852  0.9644
     2 H(1)   Bbb    -0.0053    -2.813    -1.004    -0.938 -0.2219  0.9746  0.0285
              Bcc     0.0274    14.627     5.219     4.879  0.9424  0.2069  0.2629
 
              Baa    -0.0455    -6.101    -2.177    -2.035 -0.2391 -0.1684  0.9563
     3 C(13)  Bbb    -0.0072    -0.970    -0.346    -0.324 -0.0014  0.9849  0.1730
              Bcc     0.0527     7.071     2.523     2.359  0.9710 -0.0400  0.2358
 
              Baa    -0.0172    -2.314    -0.826    -0.772 -0.2415 -0.0905  0.9662
     4 C(13)  Bbb    -0.0097    -1.307    -0.466    -0.436  0.7383  0.6290  0.2435
              Bcc     0.0270     3.622     1.292     1.208 -0.6298  0.7721 -0.0850
 
              Baa    -0.0593     4.294     1.532     1.432  0.3943  0.8708  0.2936
     5 O(17)  Bbb     0.0177    -1.279    -0.457    -0.427 -0.2225 -0.2195  0.9499
              Bcc     0.0417    -3.014    -1.076    -1.005  0.8916 -0.4399  0.1072
 
              Baa    -0.0148     1.069     0.382     0.357  0.3935  0.9171 -0.0641
     6 O(17)  Bbb    -0.0010     0.073     0.026     0.024  0.4713 -0.1414  0.8705
              Bcc     0.0158    -1.143    -0.408    -0.381  0.7893 -0.3728 -0.4879
 
              Baa    -0.0021    -0.284    -0.101    -0.095  0.3682  0.7559 -0.5413
     7 C(13)  Bbb    -0.0020    -0.267    -0.095    -0.089  0.3485  0.4275  0.8341
              Bcc     0.0041     0.551     0.197     0.184  0.8620 -0.4958 -0.1060
 
              Baa    -0.0020    -0.274    -0.098    -0.091  0.2591  0.9403 -0.2208
     8 C(13)  Bbb    -0.0019    -0.252    -0.090    -0.084  0.0478  0.2158  0.9753
              Bcc     0.0039     0.526     0.188     0.175  0.9647 -0.2632  0.0110
 
              Baa    -0.0012    -0.628    -0.224    -0.209  0.0677 -0.4898  0.8692
     9 H(1)   Bbb    -0.0011    -0.566    -0.202    -0.189  0.5435  0.7487  0.3796
              Bcc     0.0022     1.194     0.426     0.398  0.8367 -0.4467 -0.3169
 
              Baa    -0.0013    -0.688    -0.245    -0.229 -0.1059 -0.0918  0.9901
    10 H(1)   Bbb    -0.0010    -0.552    -0.197    -0.184  0.5928  0.7936  0.1370
              Bcc     0.0023     1.240     0.442     0.413  0.7983 -0.6015  0.0296
 
              Baa    -0.0010    -0.523    -0.187    -0.174 -0.1069 -0.3651  0.9248
    11 H(1)   Bbb    -0.0009    -0.489    -0.175    -0.163  0.1497  0.9136  0.3780
              Bcc     0.0019     1.012     0.361     0.338  0.9829 -0.1788  0.0430
 
              Baa    -0.0025    -1.325    -0.473    -0.442  0.1243 -0.4975  0.8585
    12 H(1)   Bbb    -0.0023    -1.230    -0.439    -0.410  0.0997  0.8671  0.4880
              Bcc     0.0048     2.555     0.912     0.852  0.9872 -0.0249 -0.1573
 
              Baa    -0.0026    -1.378    -0.492    -0.460 -0.3235 -0.1856  0.9278
    13 H(1)   Bbb    -0.0024    -1.262    -0.450    -0.421  0.1537  0.9573  0.2450
              Bcc     0.0049     2.640     0.942     0.881  0.9337 -0.2219  0.2812
 
              Baa    -1.6722   121.000    43.176    40.361 -0.4046 -0.0293  0.9140
    14 O(17)  Bbb    -1.6458   119.086    42.493    39.723  0.8389 -0.4099  0.3582
              Bcc     3.3180  -240.086   -85.669   -80.084  0.3641  0.9117  0.1905
 
              Baa    -0.1164   -62.083   -22.153   -20.709  0.6644 -0.4106  0.6245
    15 H(1)   Bbb    -0.0408   -21.777    -7.771    -7.264  0.3982  0.9016  0.1690
              Bcc     0.1572    83.859    29.923    27.973 -0.6324  0.1364  0.7625
 

 ---------------------------------------------------------------------------------

 Calling FoFJK, ICntrl=    100127 FMM=F ISym2X=0 I1Cent= 0 IOpClX= 1 NMat=1 NMatS=1 NMatT=0.
 Full mass-weighted force constant matrix:
 Low frequencies --- -299.6234  -58.8296  -36.4180   -9.1538   -0.0008   -0.0006
 Low frequencies ---   -0.0003   32.1697   51.0076
 ******    2 imaginary frequencies (negative Signs) ****** 
 Diagonal vibrational polarizability:
      214.3539514     717.9714294      40.1645802
 Harmonic frequencies (cm**-1), IR intensities (KM/Mole), Raman scattering
 activities (A**4/AMU), depolarization ratios for plane and unpolarized
 incident light, reduced masses (AMU), force constants (mDyne/A),
 and normal coordinates:
                      1                      2                      3
                      A                      A                      A
 Frequencies --   -299.6234               -14.9261                47.2872
 Red. masses --     11.8952                 4.8348                 3.9370
 Frc consts  --      0.6292                 0.0006                 0.0052
 IR Inten    --     35.3406                 7.0089                 1.4806
  Atom  AN      X      Y      Z        X      Y      Z        X      Y      Z
     1   6     0.06   0.00   0.03     0.06  -0.01  -0.19    -0.01   0.09  -0.08
     2   1     0.09  -0.29  -0.01     0.08  -0.04  -0.27    -0.00   0.17  -0.11
     3   6     0.03   0.73   0.10     0.03   0.02  -0.09    -0.01   0.00  -0.04
     4   6     0.02   0.12   0.02     0.01   0.06  -0.01    -0.02  -0.07  -0.00
     5   8    -0.03  -0.05  -0.02    -0.03   0.21   0.05    -0.06  -0.03   0.02
     6   8     0.00   0.01  -0.00     0.05  -0.07  -0.01     0.00  -0.15   0.00
     7   6     0.01  -0.02  -0.01     0.04  -0.12   0.04    -0.00   0.03   0.08
     8   6     0.00  -0.01  -0.00     0.11  -0.05  -0.15    -0.18   0.20  -0.13
     9   1     0.00  -0.02  -0.01     0.05  -0.30   0.07     0.06  -0.10   0.12
    10   1     0.00  -0.02  -0.01    -0.03  -0.04   0.17     0.06   0.16   0.24
    11   1    -0.00  -0.01   0.01     0.10  -0.11  -0.11    -0.19   0.34  -0.02
    12   1     0.00  -0.02  -0.01     0.19  -0.13  -0.29    -0.22   0.06  -0.32
    13   1    -0.01  -0.01  -0.01     0.09   0.13  -0.18    -0.29   0.35  -0.20
    14   8    -0.06  -0.54  -0.07    -0.22  -0.01   0.27     0.25  -0.07   0.12
    15   1    -0.04  -0.13  -0.12    -0.08  -0.28   0.43     0.24  -0.04   0.11
                      4                      5                      6
                      A                      A                      A
 Frequencies --    115.7259               140.0472               161.0905
 Red. masses --      3.6963                 5.2085                 2.5703
 Frc consts  --      0.0292                 0.0602                 0.0393
 IR Inten    --      1.6163                12.6686                 9.4247
  Atom  AN      X      Y      Z        X      Y      Z        X      Y      Z
     1   6    -0.00  -0.03   0.03    -0.04  -0.26  -0.12    -0.09  -0.07   0.21
     2   1    -0.02  -0.05   0.08    -0.01  -0.46  -0.19    -0.15  -0.12   0.45
     3   6     0.01  -0.01  -0.03    -0.09  -0.06  -0.02    -0.02  -0.00  -0.11
     4   6     0.02   0.05  -0.06    -0.08   0.10   0.04    -0.01   0.03  -0.13
     5   8     0.07   0.26  -0.01    -0.07   0.11   0.04    -0.08   0.04  -0.10
     6   8    -0.01  -0.13  -0.12    -0.10   0.20   0.05     0.07   0.03  -0.06
     7   6    -0.01  -0.00  -0.09    -0.09   0.03  -0.04     0.04  -0.03   0.10
     8   6    -0.16  -0.09   0.19     0.13  -0.06  -0.04     0.04   0.01   0.03
     9   1     0.03   0.25  -0.11    -0.17  -0.00  -0.07     0.15  -0.16   0.17
    10   1     0.08  -0.11  -0.27    -0.16  -0.01  -0.07    -0.08   0.03   0.22
    11   1    -0.15   0.04   0.11     0.13  -0.24  -0.09    -0.01  -0.13   0.37
    12   1    -0.33   0.03   0.41     0.24  -0.00  -0.00     0.36  -0.05  -0.18
    13   1    -0.12  -0.39   0.25     0.20  -0.01  -0.01    -0.23   0.24  -0.13
    14   8     0.08  -0.05   0.05     0.29  -0.09   0.09     0.02  -0.02   0.02
    15   1     0.21  -0.09   0.17    -0.19   0.15  -0.36     0.13  -0.08   0.12
                      7                      8                      9
                      A                      A                      A
 Frequencies --    210.9105               226.9821               257.5749
 Red. masses --      1.5947                 1.4328                 1.8845
 Frc consts  --      0.0418                 0.0435                 0.0737
 IR Inten    --     34.7794                 2.8173                32.6277
  Atom  AN      X      Y      Z        X      Y      Z        X      Y      Z
     1   6    -0.05   0.07   0.01     0.01   0.06  -0.05     0.05  -0.17  -0.03
     2   1    -0.07   0.21   0.05     0.03   0.15  -0.13     0.08  -0.36  -0.08
     3   6    -0.02  -0.08  -0.04    -0.01  -0.06   0.06     0.01   0.11   0.03
     4   6    -0.02  -0.01  -0.00     0.01  -0.01   0.03    -0.01   0.03   0.01
     5   8    -0.05   0.03   0.02     0.08   0.02   0.02    -0.02  -0.06  -0.01
     6   8     0.00   0.05   0.03    -0.05   0.04  -0.00    -0.02   0.00   0.01
     7   6     0.01   0.04   0.01    -0.04   0.02  -0.03    -0.02  -0.02   0.00
     8   6     0.08   0.02  -0.01    -0.01  -0.02   0.02    -0.05  -0.01  -0.01
     9   1    -0.03   0.03  -0.01    -0.05   0.04  -0.04    -0.02  -0.03   0.01
    10   1     0.01   0.03  -0.01    -0.05  -0.00  -0.06    -0.03  -0.02   0.01
    11   1     0.13   0.08  -0.31    -0.09  -0.28   0.49    -0.05   0.03   0.00
    12   1    -0.14   0.05   0.12     0.46  -0.02  -0.16    -0.07  -0.02  -0.02
    13   1     0.34  -0.09   0.13    -0.39   0.19  -0.19    -0.06  -0.01  -0.02
    14   8    -0.00  -0.10  -0.06    -0.01  -0.06  -0.04     0.01   0.13  -0.03
    15   1     0.56  -0.28   0.46     0.26  -0.11   0.20     0.66  -0.09   0.56
                     10                     11                     12
                      A                      A                      A
 Frequencies --    336.0194               428.1107               559.5861
 Red. masses --      2.9083                 3.7502                 3.7136
 Frc consts  --      0.1935                 0.4050                 0.6851
 IR Inten    --      9.7549                 3.5771                 7.5960
  Atom  AN      X      Y      Z        X      Y      Z        X      Y      Z
     1   6     0.00   0.02  -0.04     0.09   0.03   0.06    -0.18  -0.01  -0.07
     2   1     0.02   0.06  -0.11     0.05   0.09   0.20    -0.11  -0.02  -0.33
     3   6    -0.02  -0.04   0.08     0.13  -0.06  -0.13    -0.22  -0.03   0.22
     4   6     0.01   0.04  -0.04     0.06   0.07   0.04    -0.02   0.06  -0.03
     5   8     0.20   0.01  -0.11    -0.09  -0.01   0.07    -0.01   0.01  -0.05
     6   8    -0.03   0.12  -0.06     0.07   0.22   0.09     0.14   0.04   0.04
     7   6    -0.09  -0.11   0.19     0.03  -0.13  -0.09     0.25  -0.08  -0.05
     8   6    -0.08  -0.03   0.01    -0.20  -0.10  -0.07    -0.00  -0.01  -0.02
     9   1     0.07  -0.39   0.31    -0.04  -0.13  -0.12     0.15   0.02  -0.11
    10   1    -0.37  -0.00   0.42    -0.04  -0.18  -0.12     0.29  -0.13  -0.13
    11   1    -0.03   0.15  -0.26    -0.21   0.27   0.11    -0.01   0.36   0.19
    12   1    -0.36  -0.12  -0.02    -0.41  -0.20  -0.13    -0.20  -0.11  -0.08
    13   1     0.14  -0.00   0.10    -0.43  -0.22  -0.17    -0.25  -0.13  -0.12
    14   8     0.00  -0.03  -0.01     0.00  -0.04  -0.01    -0.01  -0.02   0.00
    15   1     0.02   0.02   0.00    -0.05  -0.18  -0.04     0.13   0.39   0.07
                     13                     14                     15
                      A                      A                      A
 Frequencies --    607.5366               668.3253               714.7720
 Red. masses --      6.4886                 1.1246                 1.3301
 Frc consts  --      1.4111                 0.2960                 0.4004
 IR Inten    --     12.6400                77.5248                31.0871
  Atom  AN      X      Y      Z        X      Y      Z        X      Y      Z
     1   6     0.26   0.01   0.05     0.02  -0.01  -0.01    -0.02  -0.13   0.08
     2   1     0.36   0.27  -0.35    -0.02   0.05   0.14     0.09   0.81  -0.56
     3   6     0.14  -0.14   0.39     0.03  -0.01  -0.06     0.00   0.05  -0.05
     4   6     0.04   0.02  -0.13     0.00  -0.03  -0.00    -0.01  -0.02  -0.00
     5   8    -0.33   0.04  -0.02     0.01   0.01   0.01     0.01   0.01  -0.00
     6   8     0.00   0.03  -0.22    -0.00   0.01   0.01     0.00   0.01   0.01
     7   6    -0.03   0.03  -0.01    -0.02   0.01   0.00    -0.00  -0.00   0.00
     8   6     0.01   0.01   0.01    -0.00  -0.00  -0.00    -0.00  -0.00  -0.00
     9   1     0.17  -0.15   0.11    -0.02   0.00   0.00    -0.01   0.01  -0.00
    10   1    -0.22   0.10   0.15    -0.02   0.01   0.00     0.01  -0.01  -0.01
    11   1     0.01  -0.07  -0.05    -0.00  -0.03  -0.01    -0.00   0.00  -0.00
    12   1     0.04   0.06   0.08     0.01   0.00   0.00    -0.00  -0.01  -0.01
    13   1     0.07  -0.03   0.05     0.01   0.00   0.00    -0.00   0.00  -0.00
    14   8    -0.01  -0.04  -0.00    -0.03  -0.04   0.02     0.00   0.01   0.00
    15   1     0.02   0.24  -0.01     0.23   0.95   0.12    -0.01   0.01  -0.01
                     16                     17                     18
                      A                      A                      A
 Frequencies --    739.3245               772.6713               803.0685
 Red. masses --      1.3239                 7.8987                 1.2055
 Frc consts  --      0.4264                 2.7784                 0.4581
 IR Inten    --     23.0394                60.4282                 5.1514
  Atom  AN      X      Y      Z        X      Y      Z        X      Y      Z
     1   6     0.03  -0.09  -0.12     0.01  -0.03  -0.01     0.03   0.01   0.01
     2   1    -0.24   0.56   0.77    -0.06   0.42   0.15     0.04  -0.02  -0.01
     3   6    -0.02   0.03   0.06     0.02  -0.16  -0.05     0.02  -0.00   0.02
     4   6    -0.00  -0.02  -0.01     0.04   0.68   0.17    -0.02  -0.03  -0.04
     5   8    -0.00   0.01   0.00    -0.01  -0.18  -0.09    -0.01   0.02  -0.04
     6   8    -0.00   0.01   0.00    -0.00  -0.19  -0.02     0.01   0.01   0.03
     7   6     0.01  -0.00  -0.00    -0.05  -0.00   0.03    -0.03  -0.02   0.07
     8   6     0.00   0.00   0.00    -0.02   0.01   0.01    -0.01  -0.02   0.03
     9   1     0.00  -0.00  -0.00    -0.05   0.21  -0.01    -0.09   0.52  -0.04
    10   1     0.00  -0.01  -0.00     0.12  -0.06  -0.11     0.12  -0.31  -0.38
    11   1     0.00   0.02   0.01    -0.01  -0.13  -0.10     0.02   0.03  -0.19
    12   1    -0.01  -0.01  -0.00     0.09  -0.02  -0.07    -0.05  -0.29  -0.34
    13   1    -0.01  -0.00  -0.00     0.12   0.18   0.06     0.11   0.44   0.02
    14   8     0.01   0.01  -0.00    -0.00  -0.05  -0.00     0.00  -0.00  -0.00
    15   1    -0.04  -0.11  -0.02     0.05   0.16   0.02    -0.01  -0.00  -0.00
                     19                     20                     21
                      A                      A                      A
 Frequencies --    897.4665               928.9097              1075.4442
 Red. masses --      3.2365                 2.7502                 4.1316
 Frc consts  --      1.5359                 1.3982                 2.8154
 IR Inten    --     15.9187                 6.1001                23.6829
  Atom  AN      X      Y      Z        X      Y      Z        X      Y      Z
     1   6     0.05   0.01   0.01     0.11   0.01   0.03     0.07   0.01   0.02
     2   1     0.06  -0.00  -0.02     0.12   0.01   0.04     0.07   0.01   0.04
     3   6     0.01  -0.02   0.07     0.07  -0.02   0.00     0.04  -0.01  -0.03
     4   6    -0.04   0.00  -0.11    -0.15   0.02  -0.04    -0.15   0.01   0.03
     5   8    -0.00   0.05  -0.16     0.01   0.03  -0.13     0.02  -0.00  -0.02
     6   8     0.13  -0.04   0.24    -0.14  -0.04   0.11    -0.22   0.02  -0.04
     7   6    -0.09   0.09   0.02     0.03  -0.10  -0.02     0.31   0.16   0.14
     8   6    -0.11  -0.06  -0.10     0.15   0.10   0.04    -0.06  -0.17  -0.09
     9   1    -0.24  -0.02  -0.03    -0.33  -0.21  -0.17     0.33   0.28   0.14
    10   1     0.25   0.27   0.18     0.04  -0.11  -0.04     0.40   0.25   0.21
    11   1    -0.13  -0.58  -0.12     0.12   0.60   0.39    -0.06  -0.26  -0.12
    12   1     0.18   0.23   0.21    -0.15   0.08   0.12    -0.05  -0.22  -0.15
    13   1     0.04  -0.33   0.01    -0.22  -0.15  -0.10    -0.07  -0.29  -0.09
    14   8     0.00  -0.00  -0.00    -0.00  -0.01  -0.00    -0.00  -0.01  -0.00
    15   1    -0.02  -0.02  -0.01    -0.00   0.01  -0.00     0.00   0.01   0.00
                     22                     23                     24
                      A                      A                      A
 Frequencies --   1129.6869              1204.4433              1290.6410
 Red. masses --      2.0914                 1.7714                 3.6520
 Frc consts  --      1.5726                 1.5140                 3.5842
 IR Inten    --     22.5773                 5.8347               535.3848
  Atom  AN      X      Y      Z        X      Y      Z        X      Y      Z
     1   6    -0.01  -0.00  -0.00    -0.02  -0.00  -0.00    -0.08  -0.01  -0.02
     2   1    -0.02  -0.00  -0.01    -0.02  -0.00  -0.01    -0.08  -0.01  -0.05
     3   6    -0.01   0.00   0.01    -0.00   0.00  -0.00    -0.01   0.01   0.01
     4   6     0.03   0.00  -0.00     0.06  -0.00  -0.01     0.38   0.01  -0.14
     5   8    -0.00  -0.00   0.00    -0.01  -0.01   0.03    -0.05   0.00  -0.01
     6   8     0.06  -0.05  -0.01    -0.00   0.02  -0.07    -0.18  -0.02   0.08
     7   6    -0.12   0.19   0.04    -0.04  -0.06   0.18     0.10   0.04   0.03
     8   6     0.11  -0.15  -0.03     0.03   0.05  -0.13    -0.02  -0.02   0.06
     9   1    -0.09   0.10   0.08    -0.33   0.37  -0.02    -0.69  -0.28  -0.27
    10   1    -0.22   0.17   0.03     0.30  -0.26  -0.21     0.05   0.13   0.15
    11   1     0.09   0.46   0.20    -0.03  -0.07   0.28     0.00  -0.03  -0.13
    12   1    -0.40  -0.37  -0.15    -0.02   0.31   0.28     0.01  -0.19  -0.18
    13   1    -0.36  -0.20  -0.25    -0.07  -0.45  -0.10     0.01   0.09   0.05
    14   8    -0.00   0.00   0.00    -0.00   0.00   0.00    -0.00   0.01   0.00
    15   1    -0.00  -0.00  -0.00     0.00   0.00   0.00     0.01   0.02   0.00
                     25                     26                     27
                      A                      A                      A
 Frequencies --   1346.1870              1402.0688              1431.2509
 Red. masses --      1.2552                 1.2851                 1.3826
 Frc consts  --      1.3402                 1.4885                 1.6687
 IR Inten    --    100.6175                27.4005                13.1928
  Atom  AN      X      Y      Z        X      Y      Z        X      Y      Z
     1   6     0.01   0.00   0.00    -0.01  -0.00  -0.00    -0.01  -0.00  -0.00
     2   1     0.01   0.00   0.01    -0.01  -0.00  -0.01    -0.01  -0.00  -0.01
     3   6     0.00  -0.00  -0.00    -0.00   0.00   0.00    -0.00   0.00   0.00
     4   6    -0.06  -0.00   0.03     0.06  -0.00  -0.01     0.05   0.00  -0.01
     5   8     0.01  -0.01   0.02    -0.01   0.01  -0.01    -0.01   0.00  -0.01
     6   8     0.05   0.03  -0.08    -0.04   0.01   0.03    -0.04   0.01   0.02
     7   6    -0.04  -0.01  -0.00    -0.04  -0.04  -0.02    -0.08  -0.08  -0.05
     8   6    -0.00  -0.03   0.05    -0.02  -0.11  -0.05     0.07   0.07   0.04
     9   1    -0.50  -0.21  -0.18     0.32   0.25   0.11     0.44   0.28   0.14
    10   1     0.69   0.28   0.21     0.25   0.18   0.19     0.41   0.23   0.24
    11   1     0.01   0.07  -0.04    -0.02   0.47   0.21     0.07  -0.32  -0.11
    12   1    -0.02  -0.11  -0.05     0.18   0.24   0.34    -0.32  -0.17  -0.15
    13   1     0.02   0.19   0.03     0.21   0.38   0.00    -0.29  -0.18  -0.10
    14   8     0.00  -0.00  -0.00    -0.00   0.00   0.00    -0.00   0.00   0.00
    15   1    -0.00  -0.00   0.00     0.00   0.00   0.00     0.00   0.00   0.00
                     28                     29                     30
                      A                      A                      A
 Frequencies --   1491.2118              1502.4413              1515.0769
 Red. masses --      1.0400                 1.0548                 1.0934
 Frc consts  --      1.3626                 1.4028                 1.4787
 IR Inten    --     10.8983                 1.1499                21.3975
  Atom  AN      X      Y      Z        X      Y      Z        X      Y      Z
     1   6    -0.00  -0.00  -0.00     0.00   0.00   0.00     0.00   0.00   0.00
     2   1    -0.00  -0.00   0.00     0.00   0.00   0.00     0.01   0.00   0.00
     3   6     0.00  -0.00   0.00    -0.00   0.00  -0.00    -0.00  -0.00  -0.00
     4   6     0.00  -0.00   0.00    -0.01   0.00  -0.00    -0.03   0.00  -0.00
     5   8    -0.00   0.00  -0.01     0.00  -0.00   0.01     0.01  -0.00   0.01
     6   8    -0.00  -0.00   0.00     0.01  -0.00  -0.00     0.02  -0.00  -0.01
     7   6     0.01   0.02  -0.02     0.00  -0.04  -0.03     0.05  -0.05  -0.01
     8   6     0.01   0.01  -0.04    -0.03   0.03  -0.01     0.02  -0.02   0.00
     9   1    -0.00  -0.12  -0.01    -0.12   0.38  -0.14    -0.29   0.42  -0.23
    10   1    -0.00  -0.00  -0.04    -0.20   0.20   0.35    -0.38   0.14   0.36
    11   1    -0.08  -0.36   0.56    -0.05   0.14   0.28     0.03  -0.18  -0.16
    12   1    -0.55  -0.09   0.05     0.17  -0.19  -0.37    -0.20   0.14   0.29
    13   1     0.36   0.28   0.10     0.37  -0.35   0.23    -0.25   0.30  -0.17
    14   8    -0.00   0.00   0.00     0.00  -0.00   0.00    -0.00  -0.00  -0.00
    15   1     0.00   0.00  -0.00    -0.00  -0.00  -0.00     0.00  -0.00   0.00
                     31                     32                     33
                      A                      A                      A
 Frequencies --   1844.9165              2193.2030              3075.8813
 Red. masses --     11.9945                 6.0460                 1.0353
 Frc consts  --     24.0539                17.1347                 5.7709
 IR Inten    --    342.7051                80.1745                 9.3883
  Atom  AN      X      Y      Z        X      Y      Z        X      Y      Z
     1   6    -0.07  -0.01  -0.02    -0.38  -0.04  -0.09    -0.00   0.00   0.00
     2   1    -0.12  -0.02  -0.00    -0.71  -0.07  -0.19    -0.00  -0.00  -0.00
     3   6     0.06   0.00  -0.00     0.53   0.01   0.13    -0.00   0.00   0.00
     4   6     0.21  -0.22   0.73    -0.10   0.02  -0.04     0.00   0.00  -0.00
     5   8    -0.15   0.14  -0.47     0.01  -0.00   0.01     0.00   0.00   0.00
     6   8     0.02   0.02  -0.07    -0.00  -0.00   0.00    -0.00  -0.00   0.00
     7   6     0.03  -0.01   0.02     0.00   0.00  -0.00    -0.00   0.00   0.00
     8   6    -0.01   0.01   0.00    -0.00  -0.00  -0.00    -0.02  -0.04  -0.02
     9   1    -0.18   0.08  -0.09     0.01  -0.00  -0.00     0.00  -0.00  -0.01
    10   1    -0.14  -0.02   0.09     0.00  -0.00  -0.00     0.00  -0.02   0.01
    11   1     0.00  -0.04  -0.06     0.00   0.00   0.00     0.62  -0.03   0.08
    12   1     0.04   0.01  -0.01     0.00  -0.00  -0.00    -0.13   0.45  -0.34
    13   1    -0.04  -0.05  -0.00     0.00   0.00   0.00    -0.23   0.05   0.47
    14   8    -0.00   0.01  -0.00     0.00   0.01   0.00    -0.00   0.00  -0.00
    15   1     0.03  -0.00   0.02    -0.00   0.00  -0.00    -0.00  -0.00   0.00
                     34                     35                     36
                      A                      A                      A
 Frequencies --   3107.6791              3152.7024              3154.3181
 Red. masses --      1.0607                 1.1019                 1.1045
 Frc consts  --      6.0357                 6.4530                 6.4746
 IR Inten    --     19.8271                13.3810                 3.7300
  Atom  AN      X      Y      Z        X      Y      Z        X      Y      Z
     1   6    -0.00   0.00  -0.00     0.00   0.00   0.00    -0.00   0.00  -0.00
     2   1     0.00   0.00   0.00    -0.00   0.00  -0.00    -0.00   0.00  -0.00
     3   6     0.00  -0.00  -0.00    -0.00  -0.00  -0.00     0.00  -0.00  -0.00
     4   6    -0.00  -0.00   0.00     0.00   0.00  -0.00     0.00  -0.00   0.00
     5   8    -0.00   0.00  -0.00    -0.00  -0.00   0.00    -0.00   0.00  -0.00
     6   8     0.00   0.00  -0.00     0.00  -0.00   0.00    -0.00  -0.00  -0.00
     7   6     0.03  -0.06  -0.00    -0.01  -0.00   0.03    -0.01  -0.02   0.05
     8   6    -0.01   0.01  -0.00    -0.06   0.05  -0.04     0.06  -0.00  -0.05
     9   1    -0.23   0.06   0.50     0.15  -0.05  -0.32     0.17  -0.05  -0.36
    10   1    -0.13   0.65  -0.48    -0.02   0.06  -0.04    -0.06   0.28  -0.20
    11   1     0.12  -0.01   0.01     0.60  -0.02   0.07    -0.46   0.02  -0.07
    12   1     0.01  -0.05   0.04     0.14  -0.56   0.41     0.04  -0.08   0.05
    13   1     0.01  -0.00  -0.03    -0.03   0.01   0.04    -0.29   0.08   0.62
    14   8     0.00  -0.00   0.00    -0.00   0.00   0.00     0.00  -0.00  -0.00
    15   1     0.00   0.00  -0.00     0.00   0.00  -0.00    -0.00  -0.00  -0.00
                     37                     38                     39
                      A                      A                      A
 Frequencies --   3175.2714              3482.7968              3808.4578
 Red. masses --      1.1074                 1.1595                 1.0674
 Frc consts  --      6.5782                 8.2864                 9.1215
 IR Inten    --     14.7908                68.9177                43.2717
  Atom  AN      X      Y      Z        X      Y      Z        X      Y      Z
     1   6    -0.00  -0.00  -0.00    -0.11  -0.01  -0.03    -0.00   0.00  -0.00
     2   1     0.00   0.00   0.00     0.96   0.06   0.25     0.00   0.00   0.00
     3   6     0.00  -0.00   0.00     0.03   0.00   0.01     0.00   0.00   0.00
     4   6    -0.00   0.00  -0.00    -0.00   0.00  -0.00     0.00  -0.00  -0.00
     5   8     0.00  -0.00   0.00     0.00  -0.00  -0.00    -0.00   0.00  -0.00
     6   8     0.00  -0.00   0.00     0.00  -0.00  -0.00    -0.00  -0.00   0.00
     7   6     0.02   0.02  -0.07    -0.00  -0.00   0.00     0.00  -0.00   0.00
     8   6     0.02   0.02  -0.05     0.00  -0.00   0.00    -0.00   0.00  -0.00
     9   1    -0.26   0.09   0.58     0.00  -0.00  -0.00    -0.00   0.00   0.00
    10   1     0.07  -0.35   0.24     0.00   0.00   0.00    -0.00  -0.00  -0.00
    11   1    -0.06   0.01  -0.02     0.00   0.00   0.00    -0.00  -0.00   0.00
    12   1     0.09  -0.31   0.22    -0.00   0.00  -0.00    -0.00  -0.00   0.00
    13   1    -0.21   0.06   0.44    -0.00  -0.00  -0.00     0.00   0.00   0.00
    14   8    -0.00  -0.00   0.00     0.00   0.00   0.00     0.04  -0.01  -0.05
    15   1     0.00   0.00  -0.00     0.00  -0.00  -0.00    -0.65   0.10   0.75

 -------------------
 - Thermochemistry -
 -------------------
 Temperature   298.150 Kelvin.  Pressure   1.00000 Atm.
 Atom     1 has atomic number  6 and mass  12.00000
 Atom     2 has atomic number  1 and mass   1.00783
 Atom     3 has atomic number  6 and mass  12.00000
 Atom     4 has atomic number  6 and mass  12.00000
 Atom     5 has atomic number  8 and mass  15.99491
 Atom     6 has atomic number  8 and mass  15.99491
 Atom     7 has atomic number  6 and mass  12.00000
 Atom     8 has atomic number  6 and mass  12.00000
 Atom     9 has atomic number  1 and mass   1.00783
 Atom    10 has atomic number  1 and mass   1.00783
 Atom    11 has atomic number  1 and mass   1.00783
 Atom    12 has atomic number  1 and mass   1.00783
 Atom    13 has atomic number  1 and mass   1.00783
 Atom    14 has atomic number  8 and mass  15.99491
 Atom    15 has atomic number  1 and mass   1.00783
 Molecular mass:   115.03952 amu.
 Principal axes and moments of inertia in atomic units:
                           1         2         3
     Eigenvalues --   506.743551379.452961525.02996
           X            0.99994   0.01087  -0.00079
           Y           -0.01078   0.99712   0.07513
           Z            0.00161  -0.07511   0.99717
 This molecule is an asymmetric top.
 Rotational symmetry number  1.
 Warning -- assumption of classical behavior for rotation
           may cause significant error
 Rotational temperatures (Kelvin)      0.17092     0.06279     0.05679
 Rotational constants (GHZ):           3.56145     1.30830     1.18341
    2 imaginary frequencies ignored.
 Zero-point vibrational energy     293079.6 (Joules/Mol)
                                   70.04771 (Kcal/Mol)
 Warning -- explicit consideration of  11 degrees of freedom as
           vibrations may cause significant error
 Vibrational temperatures:     68.04   166.50   201.50   231.77   303.45
          (Kelvin)            326.58   370.59   483.46   615.96   805.12
                              874.11   961.57  1028.40  1063.72  1111.70
                             1155.44  1291.25  1336.49  1547.32  1625.37
                             1732.93  1856.94  1936.86  2017.26  2059.25
                             2145.52  2161.68  2179.86  2654.42  3155.53
                             4425.51  4471.26  4536.04  4538.36  4568.51
                             5010.97  5479.52
 
 Zero-point correction=                           0.111628 (Hartree/Particle)
 Thermal correction to Energy=                    0.120545
 Thermal correction to Enthalpy=                  0.121489
 Thermal correction to Gibbs Free Energy=         0.076841
 Sum of electronic and zero-point Energies=           -420.091846
 Sum of electronic and thermal Energies=              -420.082929
 Sum of electronic and thermal Enthalpies=            -420.081985
 Sum of electronic and thermal Free Energies=         -420.126632
 
                     E (Thermal)             CV                S
                      KCal/Mol        Cal/Mol-Kelvin    Cal/Mol-Kelvin
 Total                   75.643             30.446             93.969
 Electronic               0.000              0.000              1.377
 Translational            0.889              2.981             40.136
 Rotational               0.889              2.981             28.457
 Vibrational             73.866             24.485             23.999
 Vibration     1          0.595              1.979              4.928
 Vibration     2          0.608              1.936              3.171
 Vibration     3          0.615              1.913              2.803
 Vibration     4          0.622              1.890              2.537
 Vibration     5          0.643              1.824              2.036
 Vibration     6          0.651              1.800              1.903
 Vibration     7          0.667              1.750              1.678
 Vibration     8          0.717              1.604              1.231
 Vibration     9          0.790              1.409              0.865
 Vibration    10          0.915              1.119              0.525
 Vibration    11          0.966              1.016              0.437
                       Q            Log10(Q)             Ln(Q)
 Total Bot       0.452273D-35        -35.344599        -81.383948
 Total V=0       0.100169D+17         16.000733         36.843048
 Vib (Bot)       0.126158D-48        -48.899086       -112.594307
 Vib (Bot)    1  0.437276D+01          0.640756          1.475395
 Vib (Bot)    2  0.176759D+01          0.247382          0.569618
 Vib (Bot)    3  0.145189D+01          0.161933          0.372865
 Vib (Bot)    4  0.125456D+01          0.098491          0.226783
 Vib (Bot)    5  0.941363D+00         -0.026243         -0.060426
 Vib (Bot)    6  0.868865D+00         -0.061048         -0.140568
 Vib (Bot)    7  0.754974D+00         -0.122068         -0.281072
 Vib (Bot)    8  0.553986D+00         -0.256501         -0.590616
 Vib (Bot)    9  0.407593D+00         -0.389773         -0.897486
 Vib (Bot)   10  0.277857D+00         -0.556179         -1.280649
 Vib (Bot)   11  0.243872D+00         -0.612839         -1.411114
 Vib (V=0)       0.279412D+03          2.446246          5.632689
 Vib (V=0)    1  0.490126D+01          0.690307          1.589491
 Vib (V=0)    2  0.233695D+01          0.368649          0.848846
 Vib (V=0)    3  0.203557D+01          0.308686          0.710777
 Vib (V=0)    4  0.185052D+01          0.267295          0.615469
 Vib (V=0)    5  0.156591D+01          0.194767          0.448467
 Vib (V=0)    6  0.150246D+01          0.176803          0.407104
 Vib (V=0)    7  0.140553D+01          0.147840          0.340415
 Vib (V=0)    8  0.124626D+01          0.095608          0.220145
 Vib (V=0)    9  0.114508D+01          0.058837          0.135477
 Vib (V=0)   10  0.107202D+01          0.030202          0.069543
 Vib (V=0)   11  0.105630D+01          0.023789          0.054775
 Electronic      0.200000D+01          0.301030          0.693147
 Translational   0.484981D+08          7.685724         17.697035
 Rotational      0.369600D+06          5.567732         12.820178
 ***** Axes restored to original set *****
 -------------------------------------------------------------------
 Center     Atomic                   Forces (Hartrees/Bohr)
 Number     Number              X              Y              Z
 -------------------------------------------------------------------
      1        6          -0.001176688    0.000208253   -0.000339789
      2        1          -0.000062481    0.000345139    0.000038407
      3        6          -0.000188258   -0.010355786   -0.001339552
      4        6          -0.000185352   -0.001516374   -0.000236482
      5        8           0.000599217    0.000828956    0.000353673
      6        8          -0.000016650    0.000234691    0.000075522
      7        6          -0.000076489    0.000193116    0.000074096
      8        6           0.000096239    0.000089736    0.000054230
      9        1          -0.000005680    0.000008993    0.000004884
     10        1          -0.000013865    0.000012994    0.000012963
     11        1           0.000009139    0.000004463   -0.000001260
     12        1           0.000012911    0.000008936    0.000004429
     13        1           0.000013453    0.000007321    0.000003412
     14        8           0.000911174    0.009786763    0.001308605
     15        1           0.000083331    0.000142797   -0.000013138
 -------------------------------------------------------------------
 Cartesian Forces:  Max     0.010355786 RMS     0.002174515

 GradGradGradGradGradGradGradGradGradGradGradGradGradGradGradGradGradGrad
 Berny optimization.
 Search for a local minimum.
 Step number   1 out of a maximum of    2
 All quantities printed in internal units (Hartrees-Bohrs-Radians)
 Second derivative matrix not updated -- analytic derivatives used.
 ITU=  0
     Eigenvalues ---   -0.04435  -0.00011   0.00031   0.00164   0.00231
     Eigenvalues ---    0.00429   0.00492   0.00606   0.01132   0.02067
     Eigenvalues ---    0.02492   0.03234   0.03554   0.05263   0.06331
     Eigenvalues ---    0.07583   0.07689   0.08683   0.09587   0.10206
     Eigenvalues ---    0.11518   0.14137   0.17035   0.17357   0.19917
     Eigenvalues ---    0.28657   0.29454   0.43656   0.49428   0.62778
     Eigenvalues ---    0.70788   0.76565   0.79236   0.86796   0.89846
     Eigenvalues ---    0.93054   0.98034   1.73552   2.56917
 Eigenvalue     1 is  -4.44D-02 should be greater than     0.000000 Eigenvector:
                          Y3        Y14       Z3        Y4        X14
   1                    0.72921  -0.63626   0.10470   0.10320  -0.08483
                          Z14       Y2        Y15       Z15       Y5
   1                   -0.07740  -0.07211  -0.06465  -0.06404  -0.05735
 Eigenvalue     2 is  -1.11D-04 should be greater than     0.000000 Eigenvector:
                          Z15       Z14       Z12       Z2        Y15
   1                    0.45291   0.32349  -0.29113  -0.27894  -0.26994
                          Y9        X14       Z1        Z10       Y5
   1                   -0.26788  -0.22332  -0.19980   0.19838   0.19516
 Quadratic step=7.852D-01 exceeds max=3.000D-01 adjusted using Lamda=-4.646D-03.
 Angle between NR and scaled steps=  58.55 degrees.
 Angle between quadratic step and forces=   9.47 degrees.
 Linear search not attempted -- first point.
 B after Tr=     0.001162    0.003694   -0.000307
         Rot=    1.000000    0.000215    0.000030    0.000190 Ang=   0.03 deg.
 Variable       Old X    -DE/DX   Delta X   Delta X   Delta X     New X
                                 (Linear)    (Quad)   (Total)
    X1       -5.26661  -0.00118   0.00000  -0.01335  -0.01249  -5.27910
    Y1       -0.92816   0.00021   0.00000  -0.00810  -0.00276  -0.93092
    Z1       -0.83054  -0.00034   0.00000   0.00074   0.00052  -0.83002
    X2       -7.20860  -0.00006   0.00000  -0.01106  -0.01021  -7.21882
    Y2       -1.04779   0.00035   0.00000  -0.01073  -0.00488  -1.05267
    Z2       -1.34638   0.00004   0.00000   0.00675   0.00646  -1.33993
    X3       -3.06869  -0.00019   0.00000  -0.00755  -0.00671  -3.07540
    Y3       -0.67556  -0.01036   0.00000  -0.21040  -0.20566  -0.88123
    Z3       -0.27445  -0.00134   0.00000  -0.02612  -0.02623  -0.30069
    X4       -0.42081  -0.00019   0.00000  -0.00433  -0.00361  -0.42442
    Y4       -1.07220  -0.00152   0.00000  -0.02779  -0.02375  -1.09594
    Z4        0.43959  -0.00024   0.00000  -0.00369  -0.00355   0.43604
    X5        0.21156   0.00060   0.00000   0.01152   0.01188   0.22344
    Y5       -1.70537   0.00083   0.00000   0.00418   0.00888  -1.69649
    Z5        2.52008   0.00035   0.00000   0.00400   0.00443   2.52451
    X6        1.09716  -0.00002   0.00000  -0.00192  -0.00093   1.09623
    Y6       -0.69505   0.00023   0.00000   0.01350   0.01612  -0.67892
    Z6       -1.51913   0.00008   0.00000   0.00308   0.00313  -1.51600
    X7        3.76929  -0.00008   0.00000  -0.00351  -0.00261   3.76669
    Y7       -0.85567   0.00019   0.00000   0.00336   0.00519  -0.85048
    Z7       -1.00679   0.00007   0.00000  -0.00062  -0.00033  -1.00712
    X8        4.69600   0.00010   0.00000   0.00623   0.00796   4.70396
    Y8        1.54967   0.00009   0.00000  -0.00352  -0.00151   1.54816
    Z8        0.24155   0.00005   0.00000   0.00404   0.00335   0.24490
    X9        4.61765  -0.00001   0.00000  -0.00524  -0.00433   4.61332
    Y9       -1.13399   0.00001   0.00000   0.00264   0.00335  -1.13064
    Z9       -2.85966   0.00000   0.00000  -0.00187  -0.00141  -2.86107
   X10        4.12171  -0.00001   0.00000  -0.00756  -0.00736   4.11435
   Y10       -2.51098   0.00001   0.00000  -0.00158   0.00062  -2.51036
   Z10        0.16924   0.00001   0.00000  -0.00523  -0.00421   0.16503
   X11        6.74058   0.00001   0.00000   0.00594   0.00762   6.74819
   Y11        1.45475   0.00000   0.00000  -0.00864  -0.00729   1.44746
   Z11        0.50043  -0.00000   0.00000   0.00292   0.00240   0.50282
   X12        4.25163   0.00001   0.00000   0.00902   0.01145   4.26307
   Y12        3.18234   0.00001   0.00000  -0.00134   0.00034   3.18268
   Z12       -0.93535   0.00000   0.00000   0.00589   0.00447  -0.93088
   X13        3.81318   0.00001   0.00000   0.00609   0.00781   3.82099
   Y13        1.79358   0.00001   0.00000  -0.00570  -0.00255   1.79102
   Z13        2.08715   0.00000   0.00000   0.00393   0.00308   2.09023
   X14       -2.65198   0.00091   0.00000   0.01863   0.02109  -2.63089
   Y14        3.24123   0.00979   0.00000   0.20549   0.21026   3.45149
   Z14        0.17557   0.00131   0.00000   0.01017   0.00822   0.18379
   X15       -3.84506   0.00008   0.00000  -0.02192  -0.01955  -3.86462
   Y15        3.42711   0.00014   0.00000  -0.00220   0.00363   3.43074
   Z15        1.55637  -0.00001   0.00000   0.00168  -0.00033   1.55603
         Item               Value     Threshold  Converged?
 Maximum Force            0.010356     0.000450     NO 
 RMS     Force            0.002175     0.000300     NO 
 Maximum Displacement     0.210264     0.001800     NO 
 RMS     Displacement     0.044757     0.001200     NO 
 Predicted change in Energy=-6.223695D-03
 GradGradGradGradGradGradGradGradGradGradGradGradGradGradGradGradGradGrad


 ----------------------------------------------------------------------

 Electric dipole moment (input orientation):
 (Debye = 10**-18 statcoulomb cm , SI units = C m)
                  (au)            (Debye)         (10**-30 SI)
   Tot        0.371624D+00      0.944573D+00      0.315076D+01
   x         -0.258567D+00     -0.657213D+00     -0.219223D+01
   y          0.444536D-02      0.112990D-01      0.376893D-01
   z         -0.266884D+00     -0.678352D+00     -0.226274D+01

 Dipole polarizability, Alpha (input orientation).
 (esu units = cm**3 , SI units = C**2 m**2 J**-1)
 Alpha(0;0):
               (au)            (10**-24 esu)      (10**-40 SI)
   iso        0.737859D+02      0.109339D+02      0.121656D+02
   aniso      0.316543D+02      0.469068D+01      0.521908D+01
   xx         0.913980D+02      0.135438D+02      0.150695D+02
   yx         0.670139D+01      0.993044D+00      0.110491D+01
   yy         0.704459D+02      0.104390D+02      0.116150D+02
   zx         0.457191D+01      0.677487D+00      0.753806D+00
   zy         0.238076D+01      0.352792D+00      0.392534D+00
   zz         0.595137D+02      0.881902D+01      0.981249D+01

 ----------------------------------------------------------------------

 Dipole orientation:
     6         -3.20932016          0.96353301          4.24974518
     1         -4.24580528          1.09873172          5.96996619
     6         -2.01637258          0.69365558          2.32414624
     6         -0.61329890          1.06888922         -0.03573059
     8         -1.60972338          1.67405439         -1.97740967
     8          1.84163620          0.70784431          0.31928572
     6          3.40362005          0.84938124         -1.90978862
     6          3.21230082         -1.57517797         -3.42229991
     1          5.30077962          1.14573329         -1.17273459
     1          2.83046837          2.48878550         -3.01937193
     1          4.50022102         -1.49326197         -5.03192549
     1          3.71990388         -3.19148188         -2.24839030
     1          1.29527877         -1.83686526         -4.13057291
     8         -2.01121774         -3.23020995          1.75787433
     1         -3.82796644         -3.42681699          1.59858679

 Electric dipole moment (dipole orientation):
 (Debye = 10**-18 statcoulomb cm , SI units = C m)
                  (au)            (Debye)         (10**-30 SI)
   Tot        0.371624D+00      0.944573D+00      0.315076D+01
   x          0.000000D+00      0.000000D+00      0.000000D+00
   y          0.000000D+00      0.000000D+00      0.000000D+00
   z          0.371624D+00      0.944573D+00      0.315076D+01

 Dipole polarizability, Alpha (dipole orientation).
 (esu units = cm**3 , SI units = C**2 m**2 J**-1)
 Alpha(0;0):
               (au)            (10**-24 esu)      (10**-40 SI)
   iso        0.737859D+02      0.109339D+02      0.121656D+02
   aniso      0.316543D+02      0.469068D+01      0.521908D+01
   xx         0.714232D+02      0.105838D+02      0.117761D+02
   yx        -0.334452D+01     -0.495607D+00     -0.551437D+00
   yy         0.705673D+02      0.104570D+02      0.116350D+02
   zx        -0.160711D+02     -0.238150D+01     -0.264977D+01
   zy         0.640184D+01      0.948654D+00      0.105552D+01
   zz         0.793672D+02      0.117610D+02      0.130859D+02

 ----------------------------------------------------------------------
 1\1\GINC-AJ\Freq\UM062X\6-311++G(d,p)\C5H7O3(2)\AAYUSH\23-Jun-2025\0\\
 # freq 6-311++g(d,p) m062x\\Title Card Required\\0,2\C,-2.78697,-0.491
 163,-0.439503\H,-3.814628,-0.554469,-0.712476\C,-1.623881,-0.357493,-0
 .145235\C,-0.222685,-0.567383,0.232623\O,0.111952,-0.902441,1.333567\O
 ,0.580591,-0.367802,-0.803891\C,1.994624,-0.4528,-0.532772\C,2.485014,
 0.82005,0.127821\H,2.443555,-0.600081,-1.513267\H,2.181117,-1.328756,0
 .089557\H,3.56696,0.769818,0.264814\H,2.249864,1.684022,-0.494966\H,2.
 017848,0.94912,1.104472\O,-1.403368,1.715183,0.092907\H,-2.03472,1.813
 549,0.823594\\Version=ES64L-G16RevA.03\State=2-A\HF=-420.2034737\S2=0.
 765862\S2-1=0.\S2A=0.750111\RMSD=5.881e-09\RMSF=2.175e-03\ZeroPoint=0.
 1116281\Thermal=0.1205449\Dipole=-0.2585674,0.0044454,-0.2668844\Dipol
 eDeriv=-0.2690868,0.3697445,0.0327792,0.0382844,-0.1105292,0.0132453,0
 .0198225,0.093474,-0.1192569,0.2777594,0.0264542,0.0187997,0.0205332,0
 .2043557,-0.0015886,0.0108153,-0.0007532,0.2264226,-0.4933479,-0.39722
 55,-0.1464426,-0.0888616,-0.6846112,-0.1249443,-0.1155884,-0.1295596,-
 0.1505248,2.1407222,-0.2816343,-0.1104099,-0.0097223,0.6067699,-0.3376
 68,-0.4799297,-0.4643186,1.6641823,-0.8174293,0.1534056,-0.2035122,0.0
 275461,-0.4563179,0.2310228,0.0114328,0.3167262,-1.0583253,-1.6316936,
 -0.070634,0.3802345,-0.0809174,-0.3356343,0.0669194,0.5103465,0.103926
 ,-0.8503426,0.991693,0.0792675,-0.0706091,0.0226008,0.3178118,0.072466
 4,0.0689694,0.0255853,0.2894183,-0.0624205,-0.0218257,0.0365574,-0.046
 7335,-0.0554005,-0.0793148,-0.0270901,-0.0502121,-0.008712,-0.0247232,
 -0.0022732,0.0306696,-0.0081839,0.0553828,-0.0304669,0.0703599,-0.0552
 469,-0.0711338,-0.0171371,-0.0342778,0.0200362,0.0225378,-0.0557268,0.
 0260893,-0.0665359,0.0632918,0.0386683,-0.1317245,-0.0075245,-0.023261
 ,0.0053585,0.0651528,0.0016016,-0.0249025,-0.0113323,0.0950136,0.08364
 88,0.0432257,-0.0384229,-0.0017481,-0.0428224,0.0394996,-0.0306118,0.0
 68132,0.0058839,0.0742457,0.0182112,0.0723004,-0.0041098,0.0394957,-0.
 004096,0.0551086,-0.0318116,-0.0303123,-0.3269234,0.19576,-0.0510855,0
 .1084761,0.1244451,0.1162406,-0.083638,0.0017995,-0.2603413,0.2064174,
 -0.0706736,0.0523662,-0.0050602,0.3276285,0.0109935,0.0814413,0.070299
 4,0.22936\Polar=91.3980024,6.7013898,70.4459261,4.5719089,2.380761,59.
 51371\Quadrupole=9.8692875,-4.0555805,-5.8137069,-0.0487905,-1.3124956
 ,3.7941782\PG=C01 [X(C5H7O3)]\NImag=2\\1.39501935,0.11427452,0.0689161
 6,0.34452428,0.03130842,0.14309805,-0.39614859,-0.02437743,-0.09804798
 ,0.38653227,-0.01779194,-0.02694358,-0.00560147,0.02318351,0.01719492,
 -0.09839934,-0.00722996,-0.05201059,0.09832974,0.00671727,0.04223472,-
 0.99765006,-0.08970039,-0.24356096,0.00914651,-0.00530865,0.00209585,1
 .31127070,-0.04458805,-0.02543363,-0.01058954,0.00138429,0.00657448,0.
 00117608,0.01269465,0.00955740,-0.24149212,-0.02167481,-0.09528516,0.0
 0107197,-0.00071504,0.00473030,0.29423657,-0.01137578,0.18410585,0.016
 13674,0.00543560,0.00143740,-0.00070648,0.00013440,-0.00201203,-0.2519
 5323,0.00735783,-0.04714884,0.65886318,-0.01641740,0.00002857,-0.00431
 765,-0.00057683,0.00440262,-0.00020659,0.03355686,-0.05550678,0.006516
 91,-0.06183115,0.27544859,-0.00024481,0.00125261,0.00277572,-0.0012394
 4,0.00021391,0.00519806,-0.03265477,-0.00236025,-0.06720322,0.10954967
 ,-0.20636911,0.92565685,-0.00546794,-0.00024948,-0.00033690,0.00020441
 ,-0.00027135,0.00152279,-0.01887242,0.01838160,-0.04607854,-0.16966448
 ,0.06071952,-0.18748078,0.16604825,0.00226277,0.00070526,0.00025421,0.
 00016876,-0.00063120,-0.00052148,0.01218818,0.01233608,0.01673732,0.05
 583082,-0.13332008,0.17548194,-0.06653891,0.10205082,-0.00127532,-0.00
 058350,0.00112154,0.00001722,-0.00033541,0.00034553,-0.03753280,0.0185
 6195,-0.02743775,-0.17738182,0.17449322,-0.65130794,0.19702290,-0.2216
 5041,0.77648218,-0.00857054,0.00002944,-0.00234621,0.00100438,0.000219
 50,-0.00116180,-0.05301743,0.00208868,0.03416841,-0.19620521,-0.018621
 21,0.10156429,0.02657090,-0.00622660,0.03088471,0.50360140,0.00051341,
 0.00068966,0.00019789,0.00000675,-0.00035029,0.00006880,0.00153529,0.0
 0970152,-0.00044896,-0.01380441,-0.07493076,0.03450419,-0.00816248,0.0
 2335599,0.03109404,0.00934393,0.10410887,0.00071735,0.00011550,0.00002
 375,-0.00005815,-0.00012074,-0.00061143,0.00865826,-0.00046272,0.00579
 512,0.07841601,0.03447222,-0.22282274,0.03053429,0.03071931,-0.0983490
 9,-0.09568682,-0.07338870,0.40541446,0.00246540,-0.00006825,0.00056874
 ,-0.00036489,0.00000803,0.00000452,0.00185482,-0.00270893,0.00012641,-
 0.05508008,-0.00435748,0.03452725,-0.00048819,0.00573861,-0.01968230,-
 0.17701914,0.01239066,-0.01991415,0.45330736,0.00103553,-0.00006172,0.
 00019923,0.00004294,-0.00016262,0.00004353,-0.00039992,0.00414368,0.00
 109757,-0.00488880,0.00250506,-0.00851689,0.00243129,-0.00564005,0.000
 78805,0.01552615,-0.06896661,0.01179685,-0.02335762,0.56089027,0.00120
 734,0.00004235,0.00068343,-0.00003615,-0.00003252,0.00024763,0.0042855
 9,0.00098523,-0.00364660,0.03438925,-0.00553064,0.01271488,0.00113896,
 -0.00053720,-0.00402229,-0.04213159,0.01129233,-0.09732511,-0.06070039
 ,-0.03891968,0.63215642,-0.00023255,-0.00001617,-0.00001430,0.00009002
 ,-0.00004095,-0.00001814,-0.00051724,0.00151884,0.00069835,0.00194034,
 -0.00118011,-0.00918092,0.00080592,-0.00157312,0.00269036,-0.03762307,
 -0.03506543,-0.01737349,-0.07982612,-0.02166866,-0.00794502,0.57794371
 ,0.00020825,-0.00006532,0.00006113,-0.00001061,0.00000540,-0.00001320,
 -0.00031471,-0.00025492,-0.00019470,-0.00067609,-0.00040912,0.00359685
 ,-0.00108562,-0.00022787,-0.00182487,-0.00140442,0.00588017,-0.0011103
 2,-0.03310474,-0.18547614,-0.05059677,-0.02943531,0.52134995,0.0000344
 9,-0.00001324,-0.00003629,0.00001170,-0.00001960,0.00000449,-0.0003755
 1,0.00037019,0.00009624,0.00145005,0.00101699,0.00231884,-0.00121788,-
 0.00160301,-0.00052669,-0.00802289,-0.00450366,-0.00145125,-0.01277883
 ,-0.04919846,-0.11012779,-0.01499359,-0.03458590,0.57087866,-0.0006822
 6,0.00002648,-0.00025415,0.00004811,0.00002418,-0.00005109,-0.00113818
 ,-0.00031519,0.00113198,-0.00371339,0.00343806,-0.00556947,0.00151449,
 -0.00055085,0.00132349,-0.03416999,0.00224428,0.03409037,-0.08582494,0
 .01439935,0.09209862,0.00683819,-0.00094993,-0.01114300,0.11258295,-0.
 00002962,-0.00000687,0.00002254,0.00000846,-0.00000820,0.00000087,0.00
 016826,0.00017852,-0.00004938,-0.00002967,-0.00066131,0.00249493,-0.00
 163264,0.00064855,-0.00040395,0.00299076,0.00064697,-0.00256106,0.0143
 1387,-0.05732482,-0.02882096,0.01140970,-0.00381163,-0.02751849,-0.014
 19495,0.05727214,-0.00007919,0.00001493,-0.00006389,-0.00001463,0.0000
 0261,-0.00002629,-0.00021607,-0.00021977,0.00027574,-0.00249684,0.0006
 5466,-0.00101041,0.00141725,-0.00046034,0.00095674,-0.00629788,0.00178
 233,0.00946810,0.10588502,-0.03009945,-0.28245489,0.00412994,-0.001260
 27,-0.01099162,-0.10715523,0.03530875,0.29638018,-0.00029279,0.0000765
 3,-0.00002969,0.00003040,0.00003756,-0.00002556,-0.00010207,-0.0006438
 6,0.00007545,0.00277854,0.00333762,-0.00873778,0.00041230,-0.00102806,
 0.00395311,-0.02711889,0.02974368,-0.02057778,-0.05464687,0.02627808,-
 0.01643658,0.00383116,-0.00945888,0.00729081,0.00421321,-0.01116823,0.
 00646448,0.07100144,-0.00016208,0.00000958,-0.00002501,-0.00000413,0.0
 0001050,0.00001686,0.00014084,-0.00009036,-0.00022042,-0.00045036,-0.0
 0007398,0.00359931,-0.00222442,0.00055753,-0.00098056,0.00487157,0.002
 22136,-0.00089744,0.03470198,-0.22603853,0.12379672,0.00319565,-0.0218
 4925,0.01569801,-0.00205116,0.00564477,-0.00323567,-0.03602174,0.24143
 884,-0.00008789,-0.00006405,0.00000554,0.00002626,-0.00000403,0.000001
 88,-0.00026571,0.00053783,-0.00004701,0.00267629,-0.00031827,-0.000293
 96,0.00158689,-0.00078340,-0.00071577,-0.00753700,0.00255630,-0.002631
 62,-0.02478831,0.12674859,-0.14229856,0.00327739,-0.01411491,0.0103780
 9,-0.00437623,0.02256234,-0.01394323,0.02984607,-0.13503154,0.14946125
 ,-0.00006453,0.00001394,0.00000456,0.00003514,0.00000583,0.00000845,-0
 .00011982,0.00012839,-0.00001774,0.00146836,0.00048535,-0.00130250,-0.
 00007631,-0.00041777,0.00041286,-0.00059220,-0.00273878,-0.00031163,-0
 .01009755,0.00314595,0.00028435,-0.31400051,0.01274341,-0.03377609,0.0
 0028299,-0.00018208,-0.00034311,0.00019386,-0.00042057,0.00014799,0.34
 023489,-0.00024904,0.00000614,-0.00005798,0.00001729,-0.00001026,-0.00
 000676,-0.00001959,0.00053724,0.00028963,0.00106586,-0.00003488,-0.002
 93275,0.00021702,-0.00036836,0.00105015,-0.00639964,-0.00553989,-0.002
 29157,-0.02632962,0.00485580,-0.00062556,0.01458723,-0.04858839,0.0011
 0188,0.00064703,0.00104408,-0.00015308,0.00061398,0.00046248,0.0010777
 0,-0.01343731,0.04903970,-0.00008433,0.00001407,0.00000306,0.00000739,
 -0.00000036,-0.00000497,-0.00004662,0.00006422,0.00008962,0.00044345,-
 0.00002875,-0.00279372,0.00054189,0.00029881,0.00112807,-0.00394424,-0
 .00365190,0.00019972,-0.01310002,0.00376894,-0.00250308,-0.03263648,0.
 00064645,-0.05027750,0.00040993,0.00059903,-0.00006369,0.00020500,0.00
 009778,0.00042074,0.03751254,0.00007161,0.05054000,-0.00012459,0.00000
 285,-0.00003005,-0.00002539,-0.00001036,0.00000003,0.00018674,0.000205
 49,0.00001124,-0.00027374,-0.00047696,0.00152075,-0.00051911,-0.000011
 57,-0.00071252,0.00208650,0.00055519,0.00044476,0.00055594,-0.01043421
 ,0.00635705,-0.06017738,0.04855675,-0.03396521,0.00009988,0.00079709,0
 .00002284,-0.00019660,-0.00223277,-0.00103641,-0.00504744,0.02577542,-
 0.01841864,0.06017390,-0.00010704,0.00001846,-0.00003471,-0.00000240,-
 0.00000371,0.00000398,0.00001446,0.00006589,0.00003238,-0.00008868,-0.
 00040333,0.00074708,-0.00016034,0.00022895,-0.00039158,0.00105053,0.00
 299353,0.00013211,0.00694604,-0.02560088,0.01720216,0.04611549,-0.2155
 2192,0.12366443,0.00025491,0.00104566,-0.00007914,-0.00212271,-0.00335
 968,-0.00359486,0.00001791,0.00016344,-0.00086752,-0.05009474,0.236515
 23,0.00016382,-0.00000860,0.00003481,0.00000495,0.00000640,0.00000142,
 -0.00010436,-0.00034266,-0.00002778,-0.00045885,0.00049527,-0.00050041
 ,0.00054466,0.00031007,0.00043558,0.00159778,0.00098811,0.00033503,0.0
 0384719,-0.01502113,0.01001475,-0.03438662,0.12608699,-0.14114181,0.00
 056854,0.00057367,0.00091463,-0.00177438,-0.00301127,-0.00099996,-0.00
 002917,0.00137058,-0.00278066,0.03824364,-0.13394375,0.14843608,0.0000
 4859,-0.00002858,-0.00001248,-0.00003100,-0.00000852,-0.00000471,0.000
 09096,0.00012169,0.00004863,-0.00082108,-0.00058592,-0.00103409,-0.000
 68423,-0.00065385,0.00062775,0.00132070,0.00114716,0.00065898,0.004384
 69,-0.00181369,-0.01218585,-0.09904270,0.01496534,0.10742344,-0.000032
 57,-0.00246591,-0.00135331,0.00001755,0.00065242,0.00053157,-0.0120949
 6,0.00342982,0.02909534,0.00309703,-0.00184061,-0.00813406,0.10343308,
 0.00021408,-0.00000003,0.00002387,-0.00000839,0.00000246,-0.00001348,-
 0.00019449,-0.00040406,0.00014180,-0.00102550,0.00084991,-0.00295011,0
 .00061538,-0.00053612,0.00183130,-0.00013239,0.00160755,0.00285338,0.0
 1541438,-0.00449444,-0.02892488,0.01211354,-0.05097602,-0.02433879,-0.
 00277111,-0.00468163,-0.00216775,0.00055472,0.00112686,0.00037343,0.00
 060600,-0.00150893,-0.00098275,-0.01254630,0.00390796,0.02238632,-0.01
 278224,0.05505674,-0.00007445,-0.00000261,-0.00001049,-0.00002392,0.00
 000628,-0.00001477,0.00009960,-0.00001764,0.00006784,-0.00046981,-0.00
 039784,-0.00140762,0.00092091,0.00105733,0.00060085,-0.00045847,0.0008
 7311,0.00117040,0.00619581,-0.00269153,-0.01346647,0.10583342,-0.02680
 006,-0.26892933,-0.00103453,-0.00223616,0.00054015,-0.00033315,0.00023
 758,0.00065900,-0.00256518,0.00112173,0.00597956,0.00761936,-0.0028246
 0,-0.01472004,-0.11582923,0.03178422,0.28947416,-0.00580454,-0.0044420
 7,-0.00148063,0.00013222,0.00021902,-0.00017690,0.00217436,0.00759721,
 0.00567650,-0.00201337,0.00223874,-0.00251278,0.00031347,0.00105405,0.
 00074049,-0.00076828,0.00170404,0.00104372,0.00068468,-0.00025822,-0.0
 0031057,0.00001018,0.00003139,-0.00008700,-0.00001831,0.00003183,0.000
 05958,-0.00009226,-0.00000917,-0.00000307,-0.00014295,0.00007153,0.000
 05789,0.00013055,-0.00001199,-0.00008229,0.00038750,-0.00009058,0.0001
 6105,0.22848513,-0.03949026,-0.01716125,-0.01081139,0.00044300,-0.0001
 5337,0.00006790,0.03209770,0.04153800,0.01483112,0.01050704,-0.0173430
 1,0.00248528,-0.00130232,0.00064700,-0.00222115,-0.00235111,-0.0008183
 6,0.00029179,0.00002543,0.00136366,0.00053998,0.00015071,-0.00009885,0
 .00001748,-0.00013016,0.00003690,-0.00009625,-0.00022058,-0.00003517,0
 .00010718,0.00007007,0.00000328,-0.00002300,-0.00005416,-0.00003489,0.
 00002797,-0.00018219,-0.00002681,-0.00010015,-0.03305261,0.00722066,-0
 .00343286,-0.00296016,-0.00000517,0.00010099,0.00013174,0.00000099,0.0
 0486549,0.00046646,-0.00179024,-0.00165181,0.00037484,-0.00349874,0.00
 088632,0.00052672,0.00298608,0.00069263,-0.00160552,0.00051976,-0.0006
 4554,-0.00001608,-0.00006639,0.00000340,0.00008673,-0.00024992,0.00002
 841,0.00003619,0.00003709,0.00013214,-0.00002923,0.00001793,-0.0000150
 9,0.00003756,0.00008801,-0.00004186,-0.00002194,-0.00003821,0.00017699
 ,-0.00006443,0.00008043,-0.25689206,0.03647625,0.29720330,0.00136831,-
 0.00097698,-0.00042165,0.00005288,-0.00040025,-0.00011181,-0.00135365,
 -0.00322264,-0.00250827,-0.00075611,0.00027091,0.00279538,-0.00009706,
 -0.00024247,-0.00108814,0.00050088,0.00058672,-0.00064172,0.00009489,-
 0.00003815,-0.00001502,-0.00003994,-0.00006481,0.00014950,-0.00000019,
 -0.00001686,-0.00002284,-0.00002896,0.00001394,0.00000215,0.00002103,0
 .00001003,-0.00004311,0.00003370,0.00002917,-0.00000084,-0.00007357,0.
 00003291,-0.00004142,-0.22347839,0.03348945,0.25579285,0.22375620,0.00
 032687,-0.00070146,-0.00062952,-0.00027519,0.00007285,-0.00010383,0.00
 354150,-0.00294308,-0.00496764,0.00246312,-0.00055151,-0.00124698,-0.0
 0073722,0.00019352,0.00057274,-0.00098518,-0.00059970,0.00045139,0.000
 38767,0.00000735,0.00012943,-0.00011141,0.00004391,-0.00008785,-0.0000
 7095,-0.00002315,0.00000845,0.00002189,-0.00002495,-0.00005232,-0.0000
 2035,-0.00006146,-0.00000666,-0.00003171,-0.00001470,0.00008204,0.0000
 4508,0.00007655,-0.00000963,0.02491685,-0.01513778,-0.03343914,-0.0294
 7097,0.01966362,-0.00147696,-0.00021095,-0.00033432,-0.00014995,-0.000
 24904,-0.00009697,0.00051541,0.00320639,0.00027706,0.00325787,-0.00085
 526,0.00217441,-0.00100277,0.00017014,-0.00169705,-0.00132091,0.000241
 64,0.00026490,0.00045459,0.00002046,0.00009406,-0.00008431,0.00002287,
 0.00005587,-0.00006764,-0.00000831,-0.00001862,-0.00005214,-0.00001511
 ,-0.00001433,-0.00001023,-0.00005315,-0.00002516,-0.00001500,-0.000024
 03,0.00003656,-0.00000898,0.00004786,-0.00002367,0.25380608,-0.0415930
 2,-0.29528491,-0.25384505,0.03929952,0.29459217\\0.00117669,-0.0002082
 5,0.00033979,0.00006248,-0.00034514,-0.00003841,0.00018826,0.01035579,
 0.00133955,0.00018535,0.00151637,0.00023648,-0.00059922,-0.00082896,-0
 .00035367,0.00001665,-0.00023469,-0.00007552,0.00007649,-0.00019312,-0
 .00007410,-0.00009624,-0.00008974,-0.00005423,0.00000568,-0.00000899,-
 0.00000488,0.00001387,-0.00001299,-0.00001296,-0.00000914,-0.00000446,
 0.00000126,-0.00001291,-0.00000894,-0.00000443,-0.00001345,-0.00000732
 ,-0.00000341,-0.00091117,-0.00978676,-0.00130860,-0.00008333,-0.000142
 80,0.00001314\\\@


 CONFIDENCE: THAT QUIET ASSURED FEELING YOU HAVE
 JUST BEFORE YOU FALL FLAT ON YOUR FACE.
 Job cpu time:       0 days  0 hours 59 minutes 41.6 seconds.
 Elapsed time:       0 days  0 hours  2 minutes 29.3 seconds.
 File lengths (MBytes):  RWF=    153 Int=      0 D2E=      0 Chk=      9 Scr=      1
 Normal termination of Gaussian 16 at Mon Jun 23 05:23:44 2025.
