 Entering Gaussian System, Link 0=g16
 Initial command:
 /opt/g16/l1.exe "/home/aayush/scratches/g16/Gau-75121.inp" -scrdir="/home/aayush/scratches/g16/"
 Entering Link 1 = /opt/g16/l1.exe PID=     75124.
  
 Copyright (c) 1988,1990,1992,1993,1995,1998,2003,2009,2016,
            Gaussian, Inc.  All Rights Reserved.
  
 This is part of the Gaussian(R) 16 program.  It is based on
 the Gaussian(R) 09 system (copyright 2009, Gaussian, Inc.),
 the Gaussian(R) 03 system (copyright 2003, Gaussian, Inc.),
 the Gaussian(R) 98 system (copyright 1998, Gaussian, Inc.),
 the Gaussian(R) 94 system (copyright 1995, Gaussian, Inc.),
 the Gaussian 92(TM) system (copyright 1992, Gaussian, Inc.),
 the Gaussian 90(TM) system (copyright 1990, Gaussian, Inc.),
 the Gaussian 88(TM) system (copyright 1988, Gaussian, Inc.),
 the Gaussian 86(TM) system (copyright 1986, Carnegie Mellon
 University), and the Gaussian 82(TM) system (copyright 1983,
 Carnegie Mellon University). Gaussian is a federally registered
 trademark of Gaussian, Inc.
  
 This software contains proprietary and confidential information,
 including trade secrets, belonging to Gaussian, Inc.
  
 This software is provided under written license and may be
 used, copied, transmitted, or stored only in accord with that
 written license.
  
 The following legend is applicable only to US Government
 contracts under FAR:
  
                    RESTRICTED RIGHTS LEGEND
  
 Use, reproduction and disclosure by the US Government is
 subject to restrictions as set forth in subparagraphs (a)
 and (c) of the Commercial Computer Software - Restricted
 Rights clause in FAR 52.227-19.
  
 Gaussian, Inc.
 340 Quinnipiac St., Bldg. 40, Wallingford CT 06492
  
  
 ---------------------------------------------------------------
 Warning -- This program may not be used in any manner that
 competes with the business of Gaussian, Inc. or will provide
 assistance to any competitor of Gaussian, Inc.  The licensee
 of this program is prohibited from giving any competitor of
 Gaussian, Inc. access to this program.  By using this program,
 the user acknowledges that Gaussian, Inc. is engaged in the
 business of creating and licensing software in the field of
 computational chemistry and represents and warrants to the
 licensee that it is not a competitor of Gaussian, Inc. and that
 it will not use this program in any manner prohibited above.
 ---------------------------------------------------------------
  

 Cite this work as:
 Gaussian 16, Revision A.03,
 M. J. Frisch, G. W. Trucks, H. B. Schlegel, G. E. Scuseria, 
 M. A. Robb, J. R. Cheeseman, G. Scalmani, V. Barone, 
 G. A. Petersson, H. Nakatsuji, X. Li, M. Caricato, A. V. Marenich, 
 J. Bloino, B. G. Janesko, R. Gomperts, B. Mennucci, H. P. Hratchian, 
 J. V. Ortiz, A. F. Izmaylov, J. L. Sonnenberg, D. Williams-Young, 
 F. Ding, F. Lipparini, F. Egidi, J. Goings, B. Peng, A. Petrone, 
 T. Henderson, D. Ranasinghe, V. G. Zakrzewski, J. Gao, N. Rega, 
 G. Zheng, W. Liang, M. Hada, M. Ehara, K. Toyota, R. Fukuda, 
 J. Hasegawa, M. Ishida, T. Nakajima, Y. Honda, O. Kitao, H. Nakai, 
 T. Vreven, K. Throssell, J. A. Montgomery, Jr., J. E. Peralta, 
 F. Ogliaro, M. J. Bearpark, J. J. Heyd, E. N. Brothers, K. N. Kudin, 
 V. N. Staroverov, T. A. Keith, R. Kobayashi, J. Normand, 
 K. Raghavachari, A. P. Rendell, J. C. Burant, S. S. Iyengar, 
 J. Tomasi, M. Cossi, J. M. Millam, M. Klene, C. Adamo, R. Cammi, 
 J. W. Ochterski, R. L. Martin, K. Morokuma, O. Farkas, 
 J. B. Foresman, and D. J. Fox, Gaussian, Inc., Wallingford CT, 2016.
 
 ******************************************
 Gaussian 16:  ES64L-G16RevA.03 25-Dec-2016
                20-Jun-2025 
 ******************************************
 %nprocshared=24
 Will use up to   24 processors via shared memory.
 %mem=12GB
 %chk=ethyl_propiolate_ts1.chk
 -------------------
 # freq 6-31+g m062x
 -------------------
 1/10=4,30=1,38=1/1,3;
 2/12=2,17=6,18=5,40=1/2;
 3/5=1,6=6,7=10,11=2,25=1,30=1,71=2,74=-55,140=1/1,2,3;
 4//1;
 5/5=2,38=5,98=1/2;
 8/6=4,10=90,11=11/1;
 11/6=1,8=1,9=11,15=111,16=1/1,2,10;
 10/6=1/2;
 6/7=2,8=2,9=2,10=2,28=1/1;
 7/8=1,10=1,25=1/1,2,3,16;
 1/10=4,30=1/3;
 99//99;
 -------------------
 Title Card Required
 -------------------
 Symbolic Z-matrix:
 Charge =  0 Multiplicity = 2
 C                    -2.78215  -0.49197  -0.44372 
 H                    -3.80807  -0.56993  -0.72053 
 C                    -1.62121  -0.29547  -0.14028 
 C                    -0.22136  -0.56333   0.22903 
 O                     0.10955  -0.91576   1.32491 
 O                     0.58094  -0.36164  -0.80673 
 C                     1.99551  -0.44777  -0.53574 
 C                     2.48398   0.82033   0.13553 
 H                     2.44466  -0.58643  -1.51733 
 H                     2.18247  -1.32877   0.07919 
 H                     3.56587   0.76956   0.27281 
 H                     2.24826   1.68914  -0.48016 
 H                     2.01608   0.94134   1.11288 
 O                    -1.40836   1.67277   0.10093 
 H                    -2.03504   1.79137   0.83132 
 

 GradGradGradGradGradGradGradGradGradGradGradGradGradGradGradGradGradGrad
 Berny optimization.
 Initialization pass.
 Trust Radius=3.00D-01 FncErr=1.00D-07 GrdErr=1.00D-07 EigMax=2.50D+02 EigMin=1.00D-04
 Number of steps in this run=      2 maximum allowed number of steps=      2.
 GradGradGradGradGradGradGradGradGradGradGradGradGradGradGradGradGradGrad

                          Input orientation:                          
 ---------------------------------------------------------------------
 Center     Atomic      Atomic             Coordinates (Angstroms)
 Number     Number       Type             X           Y           Z
 ---------------------------------------------------------------------
      1          6           0       -2.782149   -0.491969   -0.443720
      2          1           0       -3.808067   -0.569925   -0.720530
      3          6           0       -1.621206   -0.295473   -0.140277
      4          6           0       -0.221357   -0.563325    0.229028
      5          8           0        0.109554   -0.915759    1.324907
      6          8           0        0.580944   -0.361641   -0.806731
      7          6           0        1.995512   -0.447771   -0.535737
      8          6           0        2.483982    0.820327    0.135532
      9          1           0        2.444662   -0.586430   -1.517330
     10          1           0        2.182467   -1.328772    0.079191
     11          1           0        3.565870    0.769561    0.272813
     12          1           0        2.248260    1.689138   -0.480162
     13          1           0        2.016081    0.941343    1.112881
     14          8           0       -1.408364    1.672773    0.100932
     15          1           0       -2.035040    1.791374    0.831319
 ---------------------------------------------------------------------
                    Distance matrix (angstroms):
                    1          2          3          4          5
     1  C    0.000000
     2  H    1.065462   0.000000
     3  C    1.215926   2.279118   0.000000
     4  C    2.648648   3.710282   1.472314   0.000000
     5  O    3.416078   4.432964   2.350968   1.197774   0.000000
     6  O    3.385138   4.394796   2.301739   1.325579   2.252362
     7  C    4.778751   5.807805   3.641460   2.347920   2.690325
     8  C    5.458002   6.500425   4.263056   3.040081   3.172777
     9  H    5.336770   6.303315   4.302582   3.187155   3.693169
    10  H    5.061728   6.091133   3.947632   2.527198   2.453438
    11  H    6.511699   7.560152   5.311374   4.015170   3.986643
    12  H    5.483026   6.468403   4.361991   3.416950   3.823327
    13  H    5.244082   6.290153   4.041036   2.837490   2.669949
    14  O    2.621076   3.385715   1.994361   2.534863   3.240785
    15  H    2.719844   3.335805   2.338843   3.032624   3.488765
                    6          7          8          9         10
     6  O    0.000000
     7  C    1.442865   0.000000
     8  C    2.430321   1.515677   0.000000
     9  H    2.007218   1.088341   2.170821   0.000000
    10  H    2.070043   1.090528   2.170878   1.780083   0.000000
    11  H    3.369691   2.145151   1.091744   2.510066   2.520773
    12  H    2.663134   2.152522   1.090631   2.508486   3.070014
    13  H    2.728057   2.155923   1.090315   3.071772   2.499924
    14  O    2.986643   4.060594   3.984748   4.750640   4.680151
    15  H    3.763250   4.809154   4.674250   5.589082   5.299846
                   11         12         13         14         15
    11  H    0.000000
    12  H    1.774455   0.000000
    13  H    1.771177   1.775075   0.000000
    14  O    5.058492   3.702545   3.644977   0.000000
    15  H    5.720684   4.480747   4.148905   0.969667   0.000000
 Stoichiometry    C5H7O3(2)
 Framework group  C1[X(C5H7O3)]
 Deg. of freedom    39
 Full point group                 C1      NOp   1
 Largest Abelian subgroup         C1      NOp   1
 Largest concise Abelian subgroup C1      NOp   1
                         Standard orientation:                         
 ---------------------------------------------------------------------
 Center     Atomic      Atomic             Coordinates (Angstroms)
 Number     Number       Type             X           Y           Z
 ---------------------------------------------------------------------
      1          6           0       -2.782149   -0.491969   -0.443720
      2          1           0       -3.808067   -0.569925   -0.720530
      3          6           0       -1.621206   -0.295473   -0.140277
      4          6           0       -0.221357   -0.563325    0.229028
      5          8           0        0.109554   -0.915759    1.324907
      6          8           0        0.580944   -0.361641   -0.806731
      7          6           0        1.995512   -0.447771   -0.535737
      8          6           0        2.483982    0.820327    0.135532
      9          1           0        2.444662   -0.586430   -1.517330
     10          1           0        2.182467   -1.328772    0.079191
     11          1           0        3.565870    0.769561    0.272813
     12          1           0        2.248260    1.689138   -0.480162
     13          1           0        2.016081    0.941343    1.112881
     14          8           0       -1.408364    1.672773    0.100932
     15          1           0       -2.035040    1.791374    0.831319
 ---------------------------------------------------------------------
 Rotational constants (GHZ):           3.6330687           1.3098775           1.1915296
 Standard basis: 6-31+G (6D, 7F)
 There are   118 symmetry adapted cartesian basis functions of A   symmetry.
 There are   118 symmetry adapted basis functions of A   symmetry.
   118 basis functions,   236 primitive gaussians,   118 cartesian basis functions
    31 alpha electrons       30 beta electrons
       nuclear repulsion energy       362.6739629886 Hartrees.
 NAtoms=   15 NActive=   15 NUniq=   15 SFac= 1.00D+00 NAtFMM=   60 NAOKFM=F Big=F
 Integral buffers will be    131072 words long.
 Raffenetti 2 integral format.
 Two-electron integral symmetry is turned on.
 One-electron integrals computed using PRISM.
 NBasis=   118 RedAO= T EigKep=  4.16D-06  NBF=   118
 NBsUse=   118 1.00D-06 EigRej= -1.00D+00 NBFU=   118
 ExpMin= 4.38D-02 ExpMax= 5.48D+03 ExpMxC= 8.25D+02 IAcc=3 IRadAn=         5 AccDes= 0.00D+00
 Harris functional with IExCor= 1009 and IRadAn=       5 diagonalized for initial guess.
 HarFok:  IExCor= 1009 AccDes= 0.00D+00 IRadAn=         5 IDoV= 1 UseB2=F ITyADJ=14
 ICtDFT=  3500011 ScaDFX=  1.000000  1.000000  1.000000  1.000000
 FoFCou: FMM=F IPFlag=           0 FMFlag=      100000 FMFlg1=           0
         NFxFlg=           0 DoJE=T BraDBF=F KetDBF=T FulRan=T
         wScrn=  0.000000 ICntrl=       500 IOpCl=  0 I1Cent=   200000004 NGrid=           0
         NMat0=    1 NMatS0=      1 NMatT0=    0 NMatD0=    1 NMtDS0=    0 NMtDT0=    0
 Petite list used in FoFCou.
 Initial guess <Sx>= 0.0000 <Sy>= 0.0000 <Sz>= 0.5000 <S**2>= 0.7500 S= 0.5000
 Requested convergence on RMS density matrix=1.00D-08 within 128 cycles.
 Requested convergence on MAX density matrix=1.00D-06.
 Requested convergence on             energy=1.00D-06.
 No special actions if energy rises.
 Restarting incremental Fock formation.
 SCF Done:  E(UM062X) =  -419.953388043     A.U. after   22 cycles
            NFock= 22  Conv=0.70D-08     -V/T= 2.0050
 <Sx>= 0.0000 <Sy>= 0.0000 <Sz>= 0.5000 <S**2>= 0.7741 S= 0.5120
 <L.S>=  0.00000000000    
 Annihilation of the first spin contaminant:
 S**2 before annihilation     0.7741,   after     0.7502
 DoSCS=F DFT=T ScalE2(SS,OS)=  1.000000  1.000000
 Range of M.O.s used for correlation:     1   118
 NBasis=   118 NAE=    31 NBE=    30 NFC=     0 NFV=     0
 NROrb=    118 NOA=    31 NOB=    30 NVA=    87 NVB=    88

 **** Warning!!: The largest alpha MO coefficient is  0.14869195D+03


 **** Warning!!: The largest beta MO coefficient is  0.13138192D+03

 Symmetrizing basis deriv contribution to polar:
 IMax=3 JMax=2 DiffMx= 0.00D+00
 G2DrvN: will do    16 centers at a time, making    1 passes.
 Calling FoFCou, ICntrl=  3107 FMM=F I1Cent=   0 AccDes= 0.00D+00.
 End of G2Drv F.D. properties file   721 does not exist.
 End of G2Drv F.D. properties file   722 does not exist.
 End of G2Drv F.D. properties file   788 does not exist.
          IDoAtm=111111111111111
          Differentiating once with respect to electric field.
                with respect to dipole field.
          Differentiating once with respect to nuclear coordinates.
 Keep R1 and R2 ints in memory in canonical form, NReq=71861349.
          There are    48 degrees of freedom in the 1st order CPHF.  IDoFFX=6 NUNeed=     3.
     45 vectors produced by pass  0 Test12= 1.11D-14 2.08D-09 XBig12= 8.96D+01 4.00D+00.
 AX will form    45 AO Fock derivatives at one time.
     45 vectors produced by pass  1 Test12= 1.11D-14 2.08D-09 XBig12= 1.74D+01 5.56D-01.
     45 vectors produced by pass  2 Test12= 1.11D-14 2.08D-09 XBig12= 4.56D-01 1.20D-01.
     45 vectors produced by pass  3 Test12= 1.11D-14 2.08D-09 XBig12= 3.11D-03 8.29D-03.
     45 vectors produced by pass  4 Test12= 1.11D-14 2.08D-09 XBig12= 2.48D-05 7.63D-04.
     45 vectors produced by pass  5 Test12= 1.11D-14 2.08D-09 XBig12= 2.43D-07 6.61D-05.
     32 vectors produced by pass  6 Test12= 1.11D-14 2.08D-09 XBig12= 1.78D-09 5.58D-06.
     13 vectors produced by pass  7 Test12= 1.11D-14 2.08D-09 XBig12= 1.14D-11 4.29D-07.
      3 vectors produced by pass  8 Test12= 1.11D-14 2.08D-09 XBig12= 6.87D-14 2.48D-08.
      1 vectors produced by pass  9 Test12= 1.11D-14 2.08D-09 XBig12= 6.07D-16 2.53D-09.
 InvSVY:  IOpt=1 It=  1 EMax= 1.24D-14
 Solved reduced A of dimension   319 with    48 vectors.
 Isotropic polarizability for W=    0.000000       71.38 Bohr**3.
 End of Minotr F.D. properties file   721 does not exist.
 End of Minotr F.D. properties file   722 does not exist.
 End of Minotr F.D. properties file   788 does not exist.

 **********************************************************************

            Population analysis using the SCF density.

 **********************************************************************

 Orbital symmetries:
 Alpha Orbitals:
       Occupied  (A) (A) (A) (A) (A) (A) (A) (A) (A) (A) (A) (A)
                 (A) (A) (A) (A) (A) (A) (A) (A) (A) (A) (A) (A)
                 (A) (A) (A) (A) (A) (A) (A)
       Virtual   (A) (A) (A) (A) (A) (A) (A) (A) (A) (A) (A) (A)
                 (A) (A) (A) (A) (A) (A) (A) (A) (A) (A) (A) (A)
                 (A) (A) (A) (A) (A) (A) (A) (A) (A) (A) (A) (A)
                 (A) (A) (A) (A) (A) (A) (A) (A) (A) (A) (A) (A)
                 (A) (A) (A) (A) (A) (A) (A) (A) (A) (A) (A) (A)
                 (A) (A) (A) (A) (A) (A) (A) (A) (A) (A) (A) (A)
                 (A) (A) (A) (A) (A) (A) (A) (A) (A) (A) (A) (A)
                 (A) (A) (A)
 Beta  Orbitals:
       Occupied  (A) (A) (A) (A) (A) (A) (A) (A) (A) (A) (A) (A)
                 (A) (A) (A) (A) (A) (A) (A) (A) (A) (A) (A) (A)
                 (A) (A) (A) (A) (A) (A)
       Virtual   (A) (A) (A) (A) (A) (A) (A) (A) (A) (A) (A) (A)
                 (A) (A) (A) (A) (A) (A) (A) (A) (A) (A) (A) (A)
                 (A) (A) (A) (A) (A) (A) (A) (A) (A) (A) (A) (A)
                 (A) (A) (A) (A) (A) (A) (A) (A) (A) (A) (A) (A)
                 (A) (A) (A) (A) (A) (A) (A) (A) (A) (A) (A) (A)
                 (A) (A) (A) (A) (A) (A) (A) (A) (A) (A) (A) (A)
                 (A) (A) (A) (A) (A) (A) (A) (A) (A) (A) (A) (A)
                 (A) (A) (A) (A)
 The electronic state is 2-A.
 Alpha  occ. eigenvalues --  -19.70455 -19.68299 -19.66241 -10.73038 -10.61400
 Alpha  occ. eigenvalues --  -10.61344 -10.60306 -10.54158  -1.28047  -1.18700
 Alpha  occ. eigenvalues --   -1.13027  -0.91914  -0.88187  -0.78601  -0.71308
 Alpha  occ. eigenvalues --   -0.64642  -0.62647  -0.58813  -0.57331  -0.53718
 Alpha  occ. eigenvalues --   -0.53449  -0.50234  -0.48412  -0.46296  -0.45066
 Alpha  occ. eigenvalues --   -0.41755  -0.40942  -0.39724  -0.38082  -0.36954
 Alpha  occ. eigenvalues --   -0.34029
 Alpha virt. eigenvalues --   -0.00776   0.01843   0.02445   0.03398   0.03720
 Alpha virt. eigenvalues --    0.04349   0.05546   0.05848   0.07685   0.07919
 Alpha virt. eigenvalues --    0.08848   0.08924   0.09978   0.11762   0.12205
 Alpha virt. eigenvalues --    0.13411   0.14112   0.15054   0.15795   0.16357
 Alpha virt. eigenvalues --    0.16912   0.19036   0.19684   0.20283   0.22071
 Alpha virt. eigenvalues --    0.23704   0.24101   0.24580   0.26238   0.27196
 Alpha virt. eigenvalues --    0.28355   0.29906   0.30019   0.30967   0.32149
 Alpha virt. eigenvalues --    0.33089   0.33379   0.35300   0.35693   0.36904
 Alpha virt. eigenvalues --    0.38584   0.40288   0.40941   0.42628   0.44874
 Alpha virt. eigenvalues --    0.47092   0.57958   0.59273   0.68967   0.70184
 Alpha virt. eigenvalues --    0.71484   0.72814   0.74234   0.76010   0.77354
 Alpha virt. eigenvalues --    0.80537   0.84151   0.84595   0.89300   0.90120
 Alpha virt. eigenvalues --    0.92909   0.96366   1.00117   1.07111   1.10856
 Alpha virt. eigenvalues --    1.12016   1.13437   1.15634   1.17746   1.20969
 Alpha virt. eigenvalues --    1.23685   1.25305   1.27111   1.28021   1.33846
 Alpha virt. eigenvalues --    1.36518   1.37964   1.40129   1.42303   1.45528
 Alpha virt. eigenvalues --    1.47805   1.55229   1.65136   1.72202   1.83501
 Alpha virt. eigenvalues --    2.02055   2.03782
  Beta  occ. eigenvalues --  -19.70458 -19.66880 -19.66264 -10.73002 -10.61481
  Beta  occ. eigenvalues --  -10.61344 -10.60022 -10.54159  -1.28050  -1.18732
  Beta  occ. eigenvalues --   -1.07651  -0.91286  -0.87784  -0.78381  -0.71047
  Beta  occ. eigenvalues --   -0.64522  -0.62067  -0.58645  -0.57048  -0.53678
  Beta  occ. eigenvalues --   -0.51145  -0.49157  -0.46691  -0.45169  -0.41714
  Beta  occ. eigenvalues --   -0.39838  -0.39477  -0.38221  -0.37936  -0.35962
  Beta virt. eigenvalues --   -0.10020   0.00414   0.01882   0.02464   0.03368
  Beta virt. eigenvalues --    0.03785   0.04526   0.05582   0.05870   0.07708
  Beta virt. eigenvalues --    0.07901   0.08890   0.08945   0.10114   0.11762
  Beta virt. eigenvalues --    0.12292   0.13739   0.14327   0.15517   0.15961
  Beta virt. eigenvalues --    0.16314   0.17010   0.18963   0.20148   0.20355
  Beta virt. eigenvalues --    0.21948   0.23798   0.24347   0.24669   0.26252
  Beta virt. eigenvalues --    0.27355   0.28389   0.29905   0.30077   0.31025
  Beta virt. eigenvalues --    0.32268   0.33125   0.33335   0.35323   0.35591
  Beta virt. eigenvalues --    0.36955   0.38615   0.40423   0.40795   0.42749
  Beta virt. eigenvalues --    0.44949   0.47087   0.58009   0.59379   0.69159
  Beta virt. eigenvalues --    0.70525   0.72044   0.73139   0.74467   0.77374
  Beta virt. eigenvalues --    0.77446   0.80544   0.83861   0.84647   0.88973
  Beta virt. eigenvalues --    0.90298   0.92855   0.96735   1.00249   1.06798
  Beta virt. eigenvalues --    1.10915   1.12065   1.14076   1.17016   1.18212
  Beta virt. eigenvalues --    1.20975   1.24189   1.25929   1.28201   1.29101
  Beta virt. eigenvalues --    1.33978   1.37214   1.39648   1.40497   1.43134
  Beta virt. eigenvalues --    1.45803   1.48074   1.55532   1.65706   1.72126
  Beta virt. eigenvalues --    1.85406   2.02036   2.03951
          Condensed to atoms (all electrons):
               1          2          3          4          5          6
     1  C   23.820340   0.557206  -7.562607 -10.738620   0.009259  -0.052554
     2  H    0.557206   0.365222  -0.208261  -0.029633   0.000014  -0.000006
     3  C   -7.562607  -0.208261  17.086734  -2.420865   0.106393  -0.680666
     4  C  -10.738620  -0.029633  -2.420865  18.955035   0.083889   0.184969
     5  O    0.009259   0.000014   0.106393   0.083889   8.469340  -0.258876
     6  O   -0.052554  -0.000006  -0.680666   0.184969  -0.258876   9.061455
     7  C   -0.198168   0.000082  -0.549313   0.571975  -0.006306  -0.005550
     8  C    0.110238  -0.000027   0.108771  -0.340162  -0.051729   0.029760
     9  H   -0.005467  -0.000000  -0.021055   0.038519  -0.000275  -0.072438
    10  H   -0.002351   0.000000   0.002290  -0.005296   0.002929  -0.033480
    11  H    0.000329   0.000000   0.003450   0.001743  -0.000117   0.008008
    12  H    0.002070   0.000000   0.009057  -0.007617  -0.000281  -0.000945
    13  H   -0.000851  -0.000000  -0.009854   0.010393   0.001424  -0.010309
    14  O   -0.320210  -0.000169   0.552353  -0.287944  -0.012251  -0.005382
    15  H    0.087111  -0.000208  -0.031031  -0.040395  -0.000058   0.000566
               7          8          9         10         11         12
     1  C   -0.198168   0.110238  -0.005467  -0.002351   0.000329   0.002070
     2  H    0.000082  -0.000027  -0.000000   0.000000   0.000000   0.000000
     3  C   -0.549313   0.108771  -0.021055   0.002290   0.003450   0.009057
     4  C    0.571975  -0.340162   0.038519  -0.005296   0.001743  -0.007617
     5  O   -0.006306  -0.051729  -0.000275   0.002929  -0.000117  -0.000281
     6  O   -0.005550   0.029760  -0.072438  -0.033480   0.008008  -0.000945
     7  C    5.964928  -0.173616   0.429259   0.420247  -0.074962  -0.052667
     8  C   -0.173616   5.786208  -0.055824  -0.076258   0.401768   0.395490
     9  H    0.429259  -0.055824   0.501367  -0.033172  -0.000773  -0.004573
    10  H    0.420247  -0.076258  -0.033172   0.492619  -0.000705   0.003744
    11  H   -0.074962   0.401768  -0.000773  -0.000705   0.505853  -0.025468
    12  H   -0.052667   0.395490  -0.004573   0.003744  -0.025468   0.478187
    13  H   -0.045738   0.402481   0.003572  -0.004731  -0.023827  -0.025977
    14  O   -0.017913   0.015859   0.000034   0.000026   0.000054  -0.000212
    15  H   -0.000046   0.000079   0.000001   0.000002   0.000000   0.000003
              13         14         15
     1  C   -0.000851  -0.320210   0.087111
     2  H   -0.000000  -0.000169  -0.000208
     3  C   -0.009854   0.552353  -0.031031
     4  C    0.010393  -0.287944  -0.040395
     5  O    0.001424  -0.012251  -0.000058
     6  O   -0.010309  -0.005382   0.000566
     7  C   -0.045738  -0.017913  -0.000046
     8  C    0.402481   0.015859   0.000079
     9  H    0.003572   0.000034   0.000001
    10  H   -0.004731   0.000026   0.000002
    11  H   -0.023827   0.000054   0.000000
    12  H   -0.025977  -0.000212   0.000003
    13  H    0.468100  -0.000287   0.000025
    14  O   -0.000287   8.391855   0.140480
    15  H    0.000025   0.140480   0.437069
          Atomic-Atomic Spin Densities.
               1          2          3          4          5          6
     1  C    0.555924  -0.001363   0.016448   0.078905   0.009631  -0.001100
     2  H   -0.001363  -0.012999   0.000120  -0.001599  -0.000002   0.000005
     3  C    0.016448   0.000120  -0.320778   0.144840   0.011908   0.001692
     4  C    0.078905  -0.001599   0.144840  -0.272693  -0.019707   0.000700
     5  O    0.009631  -0.000002   0.011908  -0.019707  -0.013859   0.000422
     6  O   -0.001100   0.000005   0.001692   0.000700   0.000422  -0.001910
     7  C   -0.016487  -0.000025  -0.015233   0.023968  -0.000588  -0.000721
     8  C    0.011349   0.000015   0.013034  -0.015921   0.000811  -0.000337
     9  H    0.000101   0.000000   0.000225  -0.000300  -0.000003   0.000107
    10  H   -0.000020  -0.000000  -0.000373   0.000367  -0.000106  -0.000017
    11  H   -0.000039   0.000000  -0.000208   0.000228  -0.000003  -0.000024
    12  H   -0.000047  -0.000000  -0.000367   0.000489  -0.000017  -0.000068
    13  H   -0.000163  -0.000000  -0.001127   0.001729  -0.000074  -0.000174
    14  O   -0.225394  -0.000726  -0.038347   0.117806   0.001023   0.000764
    15  H    0.008596   0.000053  -0.001889  -0.004150  -0.000034   0.000144
               7          8          9         10         11         12
     1  C   -0.016487   0.011349   0.000101  -0.000020  -0.000039  -0.000047
     2  H   -0.000025   0.000015   0.000000  -0.000000   0.000000  -0.000000
     3  C   -0.015233   0.013034   0.000225  -0.000373  -0.000208  -0.000367
     4  C    0.023968  -0.015921  -0.000300   0.000367   0.000228   0.000489
     5  O   -0.000588   0.000811  -0.000003  -0.000106  -0.000003  -0.000017
     6  O   -0.000721  -0.000337   0.000107  -0.000017  -0.000024  -0.000068
     7  C    0.017961  -0.014150  -0.000044   0.000283  -0.000018   0.000248
     8  C   -0.014150   0.009922  -0.000024  -0.000182   0.000192  -0.000221
     9  H   -0.000044  -0.000024  -0.000081   0.000002   0.000000  -0.000000
    10  H    0.000283  -0.000182   0.000002  -0.000091  -0.000007  -0.000002
    11  H   -0.000018   0.000192   0.000000  -0.000007  -0.000154  -0.000021
    12  H    0.000248  -0.000221  -0.000000  -0.000002  -0.000021   0.000018
    13  H    0.000159  -0.000320  -0.000000   0.000001  -0.000002  -0.000011
    14  O    0.003839  -0.003247   0.000006   0.000009  -0.000002  -0.000040
    15  H    0.000010   0.000071  -0.000000  -0.000000  -0.000000  -0.000001
              13         14         15
     1  C   -0.000163  -0.225394   0.008596
     2  H   -0.000000  -0.000726   0.000053
     3  C   -0.001127  -0.038347  -0.001889
     4  C    0.001729   0.117806  -0.004150
     5  O   -0.000074   0.001023  -0.000034
     6  O   -0.000174   0.000764   0.000144
     7  C    0.000159   0.003839   0.000010
     8  C   -0.000320  -0.003247   0.000071
     9  H   -0.000000   0.000006  -0.000000
    10  H    0.000001   0.000009  -0.000000
    11  H   -0.000002  -0.000002  -0.000000
    12  H   -0.000011  -0.000040  -0.000001
    13  H   -0.000011  -0.000012  -0.000002
    14  O   -0.000012   0.895415   0.002567
    15  H   -0.000002   0.002567  -0.032272
 Mulliken charges and spin densities:
               1          2
     1  C    0.294275   0.436339
     2  H    0.315781  -0.016521
     3  C   -0.385396  -0.190056
     4  C    0.024009   0.054663
     5  O   -0.343354  -0.010597
     6  O   -0.164551  -0.000517
     7  C   -0.262213  -0.000798
     8  C   -0.553039   0.000991
     9  H    0.220825  -0.000011
    10  H    0.234136  -0.000136
    11  H    0.204646  -0.000060
    12  H    0.229189  -0.000040
    13  H    0.235579  -0.000007
    14  O   -0.456291   0.753659
    15  H    0.406402  -0.026909
 Sum of Mulliken charges =  -0.00000   1.00000
 Mulliken charges and spin densities with hydrogens summed into heavy atoms:
               1          2
     1  C    0.610056   0.419818
     3  C   -0.385396  -0.190056
     4  C    0.024009   0.054663
     5  O   -0.343354  -0.010597
     6  O   -0.164551  -0.000517
     7  C    0.192749  -0.000945
     8  C    0.116375   0.000885
    14  O   -0.049889   0.726750
 APT charges:
               1
     1  C   -0.139460
     2  H    0.254899
     3  C   -0.496504
     4  C    1.446290
     5  O   -0.752500
     6  O   -0.922752
     7  C    0.498966
     8  C   -0.060260
     9  H   -0.002832
    10  H   -0.004711
    11  H    0.015766
    12  H    0.028162
    13  H    0.036620
    14  O   -0.143104
    15  H    0.241419
 Sum of APT charges =  -0.00000
 APT charges with hydrogens summed into heavy atoms:
               1
     1  C    0.115439
     3  C   -0.496504
     4  C    1.446290
     5  O   -0.752500
     6  O   -0.922752
     7  C    0.491423
     8  C    0.020288
    14  O    0.098316
 Electronic spatial extent (au):  <R**2>=           1063.0388
 Charge=             -0.0000 electrons
 Dipole moment (field-independent basis, Debye):
    X=             -0.8221    Y=             -0.2921    Z=             -0.5067  Tot=              1.0090
 Quadrupole moment (field-independent basis, Debye-Ang):
   XX=            -29.2851   YY=            -49.6133   ZZ=            -52.2534
   XY=              0.2526   XZ=             -1.9821   YZ=              5.6431
 Traceless Quadrupole moment (field-independent basis, Debye-Ang):
   XX=             14.4322   YY=             -5.8961   ZZ=             -8.5361
   XY=              0.2526   XZ=             -1.9821   YZ=              5.6431
 Octapole moment (field-independent basis, Debye-Ang**2):
  XXX=            -35.6469  YYY=              2.0048  ZZZ=             -2.1314  XYY=              0.9262
  XXY=             -1.8984  XXZ=             -6.0493  XZZ=             -0.4094  YZZ=              7.4907
  YYZ=              3.5698  XYZ=             -7.0421
 Hexadecapole moment (field-independent basis, Debye-Ang**3):
 XXXX=           -743.2680 YYYY=           -266.5768 ZZZZ=           -178.0366 XXXY=             -2.8251
 XXXZ=             19.6611 YYYX=            -17.9571 YYYZ=             11.3976 ZZZX=            -10.1615
 ZZZY=              8.4506 XXYY=           -199.8071 XXZZ=           -181.4782 YYZZ=            -73.5772
 XXYZ=             20.9935 YYXZ=            -13.7481 ZZXY=             -8.0216
 N-N= 3.626739629886D+02 E-N=-1.708144697785D+03  KE= 4.178466743007D+02
  Exact polarizability:  86.855   7.749  70.054   4.189   2.525  57.219
 Approx polarizability:  91.633   9.600  69.974   7.708  -1.180  71.622
                          Isotropic Fermi Contact Couplings
        Atom                 a.u.       MegaHertz       Gauss      10(-4) cm-1
     1  C(13)              0.04268      47.97533      17.11879      16.00285
     2  H(1)              -0.00694     -31.02915     -11.07197     -10.35021
     3  C(13)              0.00201       2.26348       0.80767       0.75502
     4  C(13)              0.01825      20.51940       7.32183       6.84454
     5  O(17)             -0.00294       1.78375       0.63648       0.59499
     6  O(17)              0.00138      -0.83747      -0.29883      -0.27935
     7  C(13)              0.00002       0.02454       0.00876       0.00818
     8  C(13)             -0.00053      -0.59047      -0.21070      -0.19696
     9  H(1)               0.00003       0.11626       0.04149       0.03878
    10  H(1)              -0.00004      -0.19095      -0.06813      -0.06369
    11  H(1)              -0.00000      -0.02172      -0.00775      -0.00725
    12  H(1)               0.00001       0.06346       0.02264       0.02117
    13  H(1)               0.00001       0.05359       0.01912       0.01787
    14  O(17)              0.11971     -72.56617     -25.89341     -24.20547
    15  H(1)              -0.01363     -60.92217     -21.73855     -20.32145
 --------------------------------------------------------
       Center         ----  Spin Dipole Couplings  ----
                      3XX-RR        3YY-RR        3ZZ-RR
 --------------------------------------------------------
     1   Atom       -0.231673      0.392656     -0.160984
     2   Atom        0.032369     -0.007075     -0.025294
     3   Atom        0.074518     -0.034118     -0.040401
     4   Atom        0.008102      0.011482     -0.019584
     5   Atom        0.030984     -0.042447      0.011464
     6   Atom        0.006324     -0.009456      0.003132
     7   Atom        0.003003     -0.000850     -0.002153
     8   Atom        0.003238     -0.001517     -0.001721
     9   Atom        0.001299     -0.000524     -0.000775
    10   Atom        0.001190      0.000085     -0.001275
    11   Atom        0.001701     -0.000791     -0.000909
    12   Atom        0.004274     -0.002147     -0.002127
    13   Atom        0.003693     -0.001876     -0.001818
    14   Atom       -0.813927      2.086939     -1.273012
    15   Atom        0.005656     -0.048388      0.042732
 --------------------------------------------------------
                        XY            XZ            YZ
 --------------------------------------------------------
     1   Atom       -0.039077     -0.022712      0.042909
     2   Atom        0.006664      0.016941      0.004012
     3   Atom       -0.004048      0.030578      0.005894
     4   Atom       -0.019094      0.005848     -0.001290
     5   Atom       -0.050716     -0.011514     -0.023406
     6   Atom       -0.012764     -0.007320      0.006819
     7   Atom       -0.002809     -0.000337      0.000251
     8   Atom       -0.001393      0.000091      0.000073
     9   Atom       -0.001100     -0.000855      0.000463
    10   Atom       -0.001466      0.000122     -0.000090
    11   Atom       -0.000394      0.000150      0.000009
    12   Atom       -0.000012     -0.000976      0.000096
    13   Atom       -0.001293      0.001907     -0.000343
    14   Atom        1.390802      0.262462      0.626184
    15   Atom       -0.001337     -0.113303      0.035748
 --------------------------------------------------------


 ---------------------------------------------------------------------------------
              Anisotropic Spin Dipole Couplings in Principal Axis System
 ---------------------------------------------------------------------------------

       Atom             a.u.   MegaHertz   Gauss  10(-4) cm-1        Axes

              Baa    -0.2394   -32.127   -11.464   -10.717  0.9656  0.0423  0.2565
     1 C(13)  Bbb    -0.1592   -21.360    -7.622    -7.125 -0.2518 -0.0927  0.9633
              Bcc     0.3986    53.488    19.086    17.842 -0.0645  0.9948  0.0789
 
              Baa    -0.0301   -16.063    -5.732    -5.358 -0.2511 -0.0951  0.9633
     2 H(1)   Bbb    -0.0081    -4.327    -1.544    -1.443 -0.1824  0.9820  0.0495
              Bcc     0.0382    20.390     7.276     6.802  0.9506  0.1633  0.2639
 
              Baa    -0.0507    -6.808    -2.429    -2.271 -0.2313 -0.3747  0.8978
     3 C(13)  Bbb    -0.0315    -4.222    -1.507    -1.408 -0.0709  0.9269  0.3686
              Bcc     0.0822    11.031     3.936     3.679  0.9703 -0.0216  0.2410
 
              Baa    -0.0211    -2.828    -1.009    -0.943 -0.2705 -0.1208  0.9551
     4 C(13)  Bbb    -0.0084    -1.124    -0.401    -0.375  0.6832  0.6750  0.2788
              Bcc     0.0295     3.952     1.410     1.318 -0.6783  0.7279 -0.1000
 
              Baa    -0.0761     5.507     1.965     1.837  0.4351  0.8539  0.2854
     5 O(17)  Bbb     0.0192    -1.391    -0.496    -0.464 -0.1386 -0.2497  0.9583
              Bcc     0.0569    -4.116    -1.469    -1.373  0.8897 -0.4565  0.0097
 
              Baa    -0.0169     1.224     0.437     0.408  0.4426  0.8858 -0.1397
     6 O(17)  Bbb    -0.0024     0.175     0.062     0.058  0.5211 -0.1272  0.8440
              Bcc     0.0193    -1.398    -0.499    -0.466  0.7298 -0.4463 -0.5179
 
              Baa    -0.0024    -0.316    -0.113    -0.105  0.4184  0.8395 -0.3468
     7 C(13)  Bbb    -0.0022    -0.289    -0.103    -0.096  0.2136  0.2801  0.9359
              Bcc     0.0045     0.605     0.216     0.202  0.8828 -0.4656 -0.0621
 
              Baa    -0.0019    -0.260    -0.093    -0.087  0.2444  0.8818 -0.4034
     8 C(13)  Bbb    -0.0017    -0.225    -0.080    -0.075  0.0941  0.3925  0.9149
              Bcc     0.0036     0.485     0.173     0.162  0.9651 -0.2616  0.0129
 
              Baa    -0.0011    -0.603    -0.215    -0.201  0.0258 -0.5776  0.8159
     9 H(1)   Bbb    -0.0010    -0.539    -0.192    -0.180  0.5161  0.7067  0.4839
              Bcc     0.0021     1.142     0.407     0.381  0.8562 -0.4086 -0.3163
 
              Baa    -0.0013    -0.684    -0.244    -0.228 -0.0280  0.0361  0.9990
    10 H(1)   Bbb    -0.0009    -0.496    -0.177    -0.165  0.5694  0.8219 -0.0137
              Bcc     0.0022     1.179     0.421     0.393  0.8216 -0.5684  0.0435
 
              Baa    -0.0009    -0.496    -0.177    -0.166 -0.1068 -0.3609  0.9265
    11 H(1)   Bbb    -0.0008    -0.448    -0.160    -0.149  0.1206  0.9202  0.3724
              Bcc     0.0018     0.944     0.337     0.315  0.9869 -0.1515  0.0548
 
              Baa    -0.0023    -1.239    -0.442    -0.413  0.1284 -0.4690  0.8738
    12 H(1)   Bbb    -0.0021    -1.119    -0.399    -0.373  0.0727  0.8832  0.4634
              Bcc     0.0044     2.358     0.841     0.787  0.9891 -0.0040 -0.1475
 
              Baa    -0.0024    -1.294    -0.462    -0.432 -0.3299 -0.2004  0.9225
    13 H(1)   Bbb    -0.0021    -1.143    -0.408    -0.381  0.1292  0.9584  0.2544
              Bcc     0.0046     2.436     0.869     0.813  0.9351 -0.2032  0.2903
 
              Baa    -1.3923   100.746    35.949    33.605 -0.4764  0.0323  0.8786
    14 O(17)  Bbb    -1.3680    98.986    35.321    33.018  0.7984 -0.4026  0.4477
              Bcc     2.7603  -199.732   -71.269   -66.623  0.3682  0.9148  0.1660
 
              Baa    -0.1006   -53.687   -19.157   -17.908  0.6623 -0.4115  0.6261
    15 H(1)   Bbb    -0.0426   -22.704    -8.101    -7.573  0.4058  0.8995  0.1620
              Bcc     0.1432    76.391    27.258    25.481 -0.6299  0.1467  0.7627
 

 ---------------------------------------------------------------------------------

 Calling FoFJK, ICntrl=    100127 FMM=F ISym2X=0 I1Cent= 0 IOpClX= 1 NMat=1 NMatS=1 NMatT=0.
 Full mass-weighted force constant matrix:
 Low frequencies --- -532.6913 -456.4506 -133.8815  -99.3498  -76.3018  -52.8131
 Low frequencies ---  -22.5923   -0.0007    0.0003
 ******    5 imaginary frequencies (negative Signs) ****** 
 Diagonal vibrational polarizability:
       88.8860753     110.7023443      34.8077169
 Harmonic frequencies (cm**-1), IR intensities (KM/Mole), Raman scattering
 activities (A**4/AMU), depolarization ratios for plane and unpolarized
 incident light, reduced masses (AMU), force constants (mDyne/A),
 and normal coordinates:
                      1                      2                      3
                      A                      A                      A
 Frequencies --   -532.6517              -455.5821               -99.1828
 Red. masses --     11.3116                 1.0886                 6.8287
 Frc consts  --      1.8909                 0.1331                 0.0396
 IR Inten    --     48.4942               115.1523                 9.3239
  Atom  AN      X      Y      Z        X      Y      Z        X      Y      Z
     1   6     0.06  -0.11   0.01     0.00   0.00  -0.01     0.07  -0.01  -0.25
     2   1     0.08  -0.24  -0.03     0.00   0.03  -0.01     0.10  -0.03  -0.36
     3   6     0.02   0.77   0.11     0.00   0.02  -0.00     0.03   0.03  -0.10
     4   6     0.01   0.07   0.01    -0.00  -0.00  -0.01     0.01   0.05  -0.02
     5   8    -0.03  -0.05  -0.02    -0.00   0.01   0.00    -0.00   0.34   0.07
     6   8    -0.01  -0.01  -0.01     0.00  -0.01  -0.00     0.03  -0.18  -0.06
     7   6     0.00  -0.01  -0.01     0.00  -0.00   0.01     0.03  -0.12  -0.00
     8   6    -0.00  -0.01  -0.00    -0.00   0.00   0.00    -0.01  -0.05  -0.11
     9   1    -0.00   0.00  -0.01     0.01  -0.00   0.01     0.05  -0.20   0.02
    10   1     0.01  -0.01  -0.02     0.00  -0.00   0.01     0.02  -0.05   0.08
    11   1    -0.01  -0.01   0.00    -0.00   0.00   0.01    -0.01  -0.03  -0.08
    12   1    -0.01  -0.01   0.00    -0.00  -0.00   0.00     0.01  -0.10  -0.19
    13   1    -0.01  -0.01  -0.00     0.00   0.00   0.01    -0.03   0.04  -0.13
    14   8    -0.03  -0.47  -0.05    -0.05  -0.00  -0.04    -0.12  -0.04   0.37
    15   1    -0.08   0.17  -0.22     0.72  -0.23   0.66    -0.29  -0.39   0.28
                      4                      5                      6
                      A                      A                      A
 Frequencies --    -45.4677               -13.4379                99.2846
 Red. masses --      4.1916                 2.5048                 3.1822
 Frc consts  --      0.0051                 0.0003                 0.0185
 IR Inten    --      4.9200                 0.4526                 6.8320
  Atom  AN      X      Y      Z        X      Y      Z        X      Y      Z
     1   6    -0.02   0.14  -0.02    -0.01  -0.01   0.04    -0.09  -0.04   0.26
     2   1    -0.03   0.27  -0.02    -0.01  -0.01   0.05    -0.16  -0.10   0.56
     3   6     0.00  -0.01  -0.01    -0.00  -0.02   0.02     0.01   0.02  -0.13
     4   6    -0.01  -0.10  -0.02     0.02   0.01  -0.02     0.01   0.03  -0.15
     5   8    -0.03  -0.04   0.01     0.09   0.15   0.01    -0.07   0.08  -0.11
     6   8    -0.00  -0.18  -0.03    -0.03  -0.06  -0.07     0.09  -0.03  -0.10
     7   6    -0.00   0.06   0.05    -0.02   0.03  -0.11     0.07  -0.04   0.09
     8   6    -0.24   0.20  -0.05    -0.10  -0.09   0.19    -0.01  -0.01   0.08
     9   1     0.07   0.03   0.08    -0.03   0.31  -0.15     0.19  -0.10   0.15
    10   1     0.10   0.15   0.14     0.08  -0.10  -0.33    -0.03  -0.00   0.17
    11   1    -0.24   0.37   0.06    -0.08   0.01   0.01    -0.05  -0.10   0.40
    12   1    -0.31   0.10  -0.16    -0.31   0.05   0.48     0.26  -0.05  -0.08
    13   1    -0.35   0.24  -0.10     0.03  -0.44   0.30    -0.28   0.15  -0.07
    14   8     0.26  -0.08   0.05     0.05  -0.03  -0.05    -0.01  -0.00   0.03
    15   1     0.28   0.06   0.04     0.06   0.06  -0.05    -0.06  -0.10   0.01
                      7                      8                      9
                      A                      A                      A
 Frequencies --    158.3659               177.1696               220.3661
 Red. masses --      4.9195                 1.3888                 4.5692
 Frc consts  --      0.0727                 0.0257                 0.1307
 IR Inten    --      0.7043                 1.0235                 0.7663
  Atom  AN      X      Y      Z        X      Y      Z        X      Y      Z
     1   6    -0.08  -0.18  -0.07     0.04   0.02  -0.04     0.11  -0.33  -0.02
     2   1    -0.07  -0.27  -0.09     0.06   0.03  -0.12     0.15  -0.72  -0.05
     3   6    -0.10  -0.11  -0.03     0.01   0.01   0.07     0.02   0.15   0.02
     4   6    -0.08   0.06   0.00     0.02  -0.00   0.03    -0.01   0.07   0.00
     5   8    -0.06   0.14   0.02     0.10  -0.01  -0.00    -0.05  -0.08  -0.03
     6   8    -0.09   0.20   0.03    -0.03  -0.01  -0.02    -0.02  -0.04  -0.02
     7   6    -0.09   0.05  -0.01    -0.03  -0.00  -0.03    -0.03  -0.05   0.00
     8   6     0.11  -0.03  -0.01    -0.06  -0.02   0.03    -0.13  -0.01  -0.01
     9   1    -0.13  -0.01  -0.02    -0.02   0.02  -0.03     0.00  -0.06   0.02
    10   1    -0.19   0.03  -0.01    -0.04  -0.02  -0.05    -0.03  -0.04   0.02
    11   1     0.07  -0.32   0.19    -0.14  -0.25   0.56    -0.12   0.13  -0.04
    12   1     0.46   0.00  -0.10     0.43  -0.04  -0.18    -0.26  -0.04  -0.00
    13   1    -0.03   0.15  -0.10    -0.50   0.19  -0.21    -0.12  -0.06   0.00
    14   8     0.30  -0.15   0.05    -0.03   0.02  -0.02     0.11   0.29   0.06
    15   1     0.39   0.04   0.10    -0.02   0.05  -0.01     0.14   0.15   0.10
                     10                     11                     12
                      A                      A                      A
 Frequencies --    306.3779               417.8928               539.0287
 Red. masses --      2.8843                 3.5527                 1.9384
 Frc consts  --      0.1595                 0.3655                 0.3318
 IR Inten    --     13.5420                 8.7271                47.8790
  Atom  AN      X      Y      Z        X      Y      Z        X      Y      Z
     1   6    -0.01   0.01  -0.03     0.08   0.04   0.04    -0.09  -0.01  -0.04
     2   1     0.01   0.03  -0.10     0.05   0.09   0.15    -0.05  -0.02  -0.17
     3   6    -0.03  -0.02   0.07     0.12  -0.04  -0.11    -0.11  -0.04   0.11
     4   6     0.00   0.04  -0.05     0.07   0.07   0.05     0.00   0.04  -0.03
     5   8     0.20   0.02  -0.11    -0.07   0.00   0.07    -0.03   0.01  -0.03
     6   8    -0.03   0.10  -0.07     0.06   0.22   0.09     0.10   0.02   0.02
     7   6    -0.08  -0.11   0.20     0.02  -0.14  -0.08     0.15  -0.06  -0.04
     8   6    -0.07  -0.02   0.01    -0.20  -0.10  -0.07    -0.01  -0.01  -0.02
     9   1     0.09  -0.40   0.32    -0.03  -0.13  -0.11     0.09   0.01  -0.07
    10   1    -0.36   0.00   0.44    -0.06  -0.17  -0.11     0.17  -0.08  -0.08
    11   1    -0.03   0.15  -0.25    -0.22   0.26   0.11    -0.01   0.21   0.11
    12   1    -0.34  -0.11  -0.01    -0.42  -0.20  -0.13    -0.13  -0.07  -0.05
    13   1     0.14  -0.00   0.11    -0.42  -0.21  -0.15    -0.15  -0.08  -0.07
    14   8     0.00  -0.03  -0.00     0.01  -0.06  -0.01    -0.03  -0.02   0.02
    15   1     0.03   0.09   0.01    -0.05  -0.30  -0.02     0.18   0.82   0.07
                     13                     14                     15
                      A                      A                      A
 Frequencies --    602.6484               634.0294               662.2078
 Red. masses --      3.1141                 2.0046                 1.4538
 Frc consts  --      0.6664                 0.4748                 0.3756
 IR Inten    --     40.4384                28.3225                17.4435
  Atom  AN      X      Y      Z        X      Y      Z        X      Y      Z
     1   6     0.21  -0.01   0.05    -0.00   0.00  -0.02    -0.02  -0.15   0.01
     2   1     0.22   0.33  -0.06    -0.11  -0.13   0.40    -0.08   0.97  -0.10
     3   6     0.17  -0.08   0.11     0.05   0.03  -0.23    -0.02   0.05  -0.03
     4   6     0.04  -0.03  -0.06    -0.01  -0.06   0.04    -0.02  -0.08  -0.02
     5   8    -0.18   0.03   0.02     0.09  -0.01   0.03     0.03   0.02   0.00
     6   8    -0.04   0.02  -0.13    -0.03  -0.01   0.07     0.01   0.02   0.03
     7   6    -0.10   0.04   0.01    -0.07   0.01   0.01     0.01  -0.01   0.00
     8   6    -0.00  -0.00   0.01    -0.01  -0.01  -0.01    -0.00  -0.00  -0.00
     9   1     0.05  -0.11   0.10    -0.10   0.03  -0.01    -0.01   0.01  -0.01
    10   1    -0.24   0.09   0.13    -0.02   0.01  -0.01     0.02  -0.02  -0.02
    11   1     0.00  -0.16  -0.08    -0.01  -0.08  -0.05    -0.00   0.04   0.01
    12   1     0.08   0.06   0.06     0.03   0.00  -0.01    -0.02  -0.02  -0.02
    13   1     0.10   0.01   0.06     0.03   0.03   0.01    -0.02  -0.00  -0.01
    14   8    -0.04  -0.04   0.01    -0.04  -0.01   0.03     0.01   0.04   0.00
    15   1     0.12   0.69   0.04     0.17   0.81   0.08    -0.02  -0.00  -0.02
                     16                     17                     18
                      A                      A                      A
 Frequencies --    718.9718               754.4419               817.4512
 Red. masses --      5.8149                 1.3796                 1.2858
 Frc consts  --      1.7710                 0.4627                 0.5062
 IR Inten    --     80.1840                50.5795                 7.7299
  Atom  AN      X      Y      Z        X      Y      Z        X      Y      Z
     1   6     0.00  -0.07  -0.00     0.04  -0.01  -0.14     0.04   0.01   0.01
     2   1    -0.09   0.71   0.11    -0.26   0.10   0.94     0.04  -0.01   0.02
     3   6     0.01  -0.10  -0.09    -0.02  -0.00   0.10     0.03  -0.01   0.03
     4   6     0.04   0.56   0.15     0.00  -0.01  -0.01    -0.03  -0.00  -0.05
     5   8     0.00  -0.13  -0.06    -0.02   0.00   0.00    -0.01   0.02  -0.06
     6   8    -0.02  -0.16  -0.02     0.00   0.01  -0.01     0.01  -0.00   0.05
     7   6    -0.04   0.01   0.01     0.02  -0.00  -0.00    -0.04  -0.03   0.08
     8   6    -0.00   0.01   0.01     0.01   0.00   0.00    -0.02  -0.02   0.03
     9   1    -0.05   0.09  -0.00     0.02  -0.02   0.00    -0.12   0.52  -0.04
    10   1     0.06   0.00  -0.03    -0.00   0.00   0.01     0.15  -0.30  -0.39
    11   1    -0.00  -0.12  -0.05     0.00   0.03   0.02     0.01   0.02  -0.18
    12   1     0.09   0.04   0.01    -0.01   0.00   0.01    -0.04  -0.28  -0.33
    13   1     0.09   0.07   0.05    -0.01  -0.01  -0.00     0.12   0.43   0.02
    14   8     0.00  -0.07   0.01     0.00   0.01  -0.01    -0.00  -0.01  -0.00
    15   1     0.04   0.08   0.02    -0.03  -0.10  -0.02    -0.00  -0.00  -0.00
                     19                     20                     21
                      A                      A                      A
 Frequencies --    897.1219               943.4031              1108.0351
 Red. masses --      3.3290                 2.5083                 4.1962
 Frc consts  --      1.5786                 1.3153                 3.0354
 IR Inten    --     21.9524                 5.9836                11.9655
  Atom  AN      X      Y      Z        X      Y      Z        X      Y      Z
     1   6     0.08   0.01   0.01     0.09   0.01   0.03     0.07   0.01   0.02
     2   1     0.09   0.01   0.02     0.10   0.01   0.03     0.07   0.01   0.04
     3   6     0.04  -0.02   0.07     0.06  -0.02  -0.02     0.04  -0.01  -0.03
     4   6    -0.10   0.02  -0.11    -0.14   0.01  -0.01    -0.17   0.01   0.05
     5   8     0.00   0.06  -0.18     0.01   0.02  -0.08     0.02  -0.00  -0.01
     6   8     0.09  -0.05   0.25    -0.15  -0.03   0.04    -0.18   0.02  -0.05
     7   6    -0.08   0.07  -0.01     0.05  -0.11  -0.04     0.28   0.20   0.16
     8   6    -0.07  -0.03  -0.09     0.16   0.11   0.06    -0.04  -0.21  -0.12
     9   1    -0.28  -0.19  -0.06    -0.23  -0.21  -0.15     0.28   0.31   0.15
    10   1     0.20   0.29   0.24    -0.02  -0.14  -0.06     0.38   0.26   0.19
    11   1    -0.10  -0.38   0.01     0.14   0.67   0.39    -0.05  -0.12  -0.04
    12   1     0.14   0.28   0.30    -0.18   0.03   0.06    -0.11  -0.26  -0.13
    13   1    -0.05  -0.42  -0.02    -0.22  -0.10  -0.09    -0.13  -0.33  -0.16
    14   8     0.00  -0.01  -0.00    -0.00  -0.01   0.00    -0.00  -0.01   0.00
    15   1    -0.01  -0.03  -0.01     0.00   0.02  -0.00     0.00   0.01   0.00
                     22                     23                     24
                      A                      A                      A
 Frequencies --   1158.6004              1228.5600              1324.8765
 Red. masses --      2.0718                 1.7497                 1.9840
 Frc consts  --      1.6385                 1.5560                 2.0518
 IR Inten    --     17.8902                 5.9554               308.6803
  Atom  AN      X      Y      Z        X      Y      Z        X      Y      Z
     1   6    -0.02  -0.00  -0.01    -0.02  -0.00  -0.01    -0.04  -0.00  -0.01
     2   1    -0.02  -0.00  -0.01    -0.02  -0.00  -0.01    -0.05  -0.01  -0.02
     3   6    -0.01   0.00   0.01    -0.01   0.00  -0.00    -0.00   0.00   0.00
     4   6     0.06   0.00  -0.01     0.08  -0.00  -0.01     0.22   0.00  -0.08
     5   8    -0.00  -0.00   0.00    -0.01  -0.01   0.03    -0.03   0.01  -0.01
     6   8     0.07  -0.05   0.01     0.00   0.02  -0.07    -0.12  -0.00   0.03
     7   6    -0.14   0.17   0.02    -0.05  -0.05   0.17     0.07   0.03   0.02
     8   6     0.11  -0.13  -0.02     0.03   0.04  -0.12    -0.02  -0.03   0.07
     9   1    -0.13   0.03   0.06    -0.41   0.32  -0.04    -0.68  -0.31  -0.27
    10   1    -0.31   0.13   0.01     0.31  -0.23  -0.19     0.29   0.21   0.21
    11   1     0.09   0.52   0.21    -0.03  -0.04   0.27     0.00   0.01  -0.11
    12   1    -0.37  -0.35  -0.16    -0.01   0.30   0.28     0.01  -0.18  -0.15
    13   1    -0.32  -0.13  -0.22    -0.09  -0.45  -0.11     0.04   0.18   0.06
    14   8    -0.00   0.00  -0.00    -0.00   0.00   0.00    -0.00   0.01   0.00
    15   1    -0.00  -0.01  -0.00    -0.00   0.00  -0.00     0.00   0.01  -0.00
                     25                     26                     27
                      A                      A                      A
 Frequencies --   1369.1227              1441.7734              1458.2195
 Red. masses --      1.7534                 1.3843                 1.2548
 Frc consts  --      1.9365                 1.6954                 1.5720
 IR Inten    --    266.0378                33.1379                19.8401
  Atom  AN      X      Y      Z        X      Y      Z        X      Y      Z
     1   6     0.02   0.00   0.01    -0.02  -0.00  -0.00     0.00   0.00   0.00
     2   1     0.03   0.00   0.02    -0.02  -0.00  -0.01     0.00   0.00   0.00
     3   6     0.00  -0.00  -0.00     0.00   0.00   0.00    -0.00  -0.00  -0.00
     4   6    -0.15  -0.00   0.06     0.09  -0.00  -0.02    -0.02  -0.00   0.01
     5   8     0.02  -0.01   0.03    -0.01   0.01  -0.02     0.00  -0.00   0.00
     6   8     0.10   0.04  -0.10    -0.06   0.01   0.04     0.02  -0.00  -0.01
     7   6    -0.07  -0.02  -0.02    -0.08  -0.08  -0.04     0.03   0.03   0.02
     8   6     0.01  -0.03   0.05     0.03  -0.05  -0.02    -0.07  -0.11  -0.06
     9   1    -0.38  -0.18  -0.14     0.52   0.36   0.18    -0.14  -0.12  -0.04
    10   1     0.74   0.31   0.22     0.47   0.28   0.29    -0.14  -0.09  -0.10
    11   1     0.02   0.07  -0.03     0.03   0.23   0.12    -0.05   0.51   0.19
    12   1    -0.05  -0.11  -0.05    -0.01   0.09   0.18     0.34   0.30   0.34
    13   1    -0.00   0.18   0.02     0.02   0.18  -0.04     0.34   0.41   0.08
    14   8     0.00  -0.00  -0.00    -0.00   0.00   0.00     0.00  -0.00  -0.00
    15   1    -0.00  -0.01   0.00     0.00   0.00  -0.00     0.00   0.00   0.00
                     28                     29                     30
                      A                      A                      A
 Frequencies --   1526.3335              1536.8530              1544.9976
 Red. masses --      1.0412                 1.0549                 1.0896
 Frc consts  --      1.4292                 1.4679                 1.5325
 IR Inten    --     15.1914                 2.6260                27.6922
  Atom  AN      X      Y      Z        X      Y      Z        X      Y      Z
     1   6     0.00   0.00   0.00     0.00   0.00   0.00     0.00   0.00   0.00
     2   1    -0.00   0.00   0.00     0.00   0.00   0.00     0.00   0.00   0.00
     3   6     0.00  -0.00   0.00    -0.00   0.00  -0.00    -0.00  -0.00  -0.00
     4   6     0.00  -0.00   0.00    -0.01   0.00  -0.00    -0.02   0.00  -0.00
     5   8    -0.00   0.00  -0.00     0.00  -0.00   0.01     0.00  -0.00   0.01
     6   8    -0.00  -0.00   0.00     0.01  -0.00  -0.00     0.02  -0.00  -0.01
     7   6     0.01   0.02  -0.01     0.00  -0.04  -0.02     0.05  -0.05  -0.01
     8   6     0.02   0.01  -0.05    -0.03   0.02  -0.01     0.03  -0.02  -0.00
     9   1     0.01  -0.10  -0.00    -0.13   0.38  -0.13    -0.26   0.45  -0.21
    10   1     0.01  -0.00  -0.04    -0.21   0.18   0.33    -0.37   0.15   0.38
    11   1    -0.08  -0.36   0.57    -0.05   0.17   0.28     0.03  -0.16  -0.15
    12   1    -0.55  -0.09   0.05     0.22  -0.17  -0.36    -0.21   0.14   0.30
    13   1     0.36   0.26   0.11     0.38  -0.34   0.23    -0.24   0.31  -0.16
    14   8    -0.00   0.00   0.00     0.00  -0.00   0.00    -0.00  -0.00  -0.00
    15   1    -0.00   0.00  -0.00    -0.00  -0.00  -0.00     0.00  -0.00   0.00
                     31                     32                     33
                      A                      A                      A
 Frequencies --   1912.8967              2184.8634              3108.3413
 Red. masses --     12.2001                 6.1398                 1.0350
 Frc consts  --     26.3024                17.2684                 5.8920
 IR Inten    --    323.3983                93.1236                11.7921
  Atom  AN      X      Y      Z        X      Y      Z        X      Y      Z
     1   6    -0.08  -0.01  -0.02    -0.38  -0.05  -0.10    -0.00  -0.00  -0.00
     2   1    -0.14  -0.02  -0.01    -0.70  -0.10  -0.19    -0.00  -0.00  -0.00
     3   6     0.08   0.00   0.00     0.53   0.01   0.13    -0.00   0.00   0.00
     4   6     0.18  -0.23   0.73    -0.10   0.03  -0.06     0.00   0.00  -0.00
     5   8    -0.15   0.15  -0.48     0.01  -0.01   0.02     0.00   0.00   0.00
     6   8     0.04   0.02  -0.07    -0.00  -0.00   0.00    -0.00  -0.00   0.00
     7   6     0.02  -0.01   0.01     0.00   0.00  -0.00     0.00   0.00   0.00
     8   6    -0.01   0.01   0.00    -0.00  -0.00  -0.00    -0.02  -0.04  -0.02
     9   1    -0.15   0.07  -0.08     0.01  -0.00  -0.00     0.00  -0.00  -0.00
    10   1    -0.13  -0.02   0.08     0.00  -0.00  -0.00     0.00  -0.01   0.01
    11   1    -0.00  -0.03  -0.05     0.00   0.00   0.00     0.63  -0.04   0.08
    12   1     0.03   0.01  -0.01     0.00  -0.00  -0.00    -0.13   0.44  -0.33
    13   1    -0.03  -0.05   0.00     0.00   0.00   0.00    -0.23   0.05   0.47
    14   8    -0.00   0.01  -0.00     0.00   0.02   0.00     0.00  -0.00  -0.00
    15   1     0.02  -0.00   0.02    -0.00   0.01  -0.00    -0.00  -0.00   0.00
                     34                     35                     36
                      A                      A                      A
 Frequencies --   3138.8753              3189.7118              3190.7491
 Red. masses --      1.0601                 1.1032                 1.0998
 Frc consts  --      6.1541                 6.6128                 6.5968
 IR Inten    --     21.2983                 1.8346                18.1223
  Atom  AN      X      Y      Z        X      Y      Z        X      Y      Z
     1   6    -0.00   0.00  -0.00    -0.00   0.00   0.00     0.00   0.00   0.00
     2   1     0.00   0.00   0.00     0.00  -0.00   0.00     0.00   0.00   0.00
     3   6     0.00  -0.00  -0.00     0.00  -0.00   0.00    -0.00  -0.00  -0.00
     4   6    -0.00  -0.00   0.00    -0.00  -0.00   0.00     0.00   0.00  -0.00
     5   8    -0.00   0.00  -0.00     0.00  -0.00   0.00     0.00  -0.00   0.00
     6   8     0.00   0.00  -0.00     0.00   0.00  -0.00     0.00  -0.00   0.00
     7   6     0.03  -0.06  -0.00     0.02   0.02  -0.06    -0.00   0.01  -0.01
     8   6    -0.01   0.01  -0.00     0.00  -0.03   0.06    -0.08   0.03   0.01
     9   1    -0.23   0.05   0.50    -0.25   0.08   0.54    -0.02   0.01   0.05
    10   1    -0.13   0.65  -0.47     0.06  -0.29   0.20     0.03  -0.16   0.11
    11   1     0.11  -0.01   0.01    -0.11  -0.00  -0.00     0.74  -0.03   0.10
    12   1     0.01  -0.05   0.04    -0.12   0.43  -0.30     0.07  -0.34   0.25
    13   1     0.01  -0.00  -0.03     0.20  -0.05  -0.40     0.18  -0.04  -0.42
    14   8     0.00  -0.00  -0.00     0.00   0.00   0.00    -0.00   0.00   0.00
    15   1     0.00   0.00   0.00    -0.00  -0.00   0.00     0.00   0.00  -0.00
                     37                     38                     39
                      A                      A                      A
 Frequencies --   3212.1344              3517.5032              3832.6088
 Red. masses --      1.1054                 1.1563                 1.0673
 Frc consts  --      6.7197                 8.4290                 9.2368
 IR Inten    --     16.9433                62.4845                18.8436
  Atom  AN      X      Y      Z        X      Y      Z        X      Y      Z
     1   6    -0.00   0.00  -0.00    -0.11  -0.01  -0.03    -0.00  -0.00  -0.00
     2   1     0.00  -0.00   0.00     0.96   0.07   0.26     0.00   0.00   0.00
     3   6     0.00  -0.00   0.00     0.03   0.00   0.01     0.00   0.00   0.00
     4   6    -0.00   0.00  -0.00    -0.00   0.00  -0.00     0.00   0.00  -0.00
     5   8     0.00  -0.00   0.00     0.00  -0.00  -0.00    -0.00   0.00  -0.00
     6   8    -0.00   0.00  -0.00     0.00   0.00  -0.00    -0.00  -0.00   0.00
     7   6     0.01   0.02  -0.06    -0.00  -0.00   0.00     0.00   0.00   0.00
     8   6     0.02   0.02  -0.06     0.00  -0.00   0.00    -0.00   0.00  -0.00
     9   1    -0.23   0.07   0.51     0.00  -0.00  -0.00    -0.00   0.00   0.00
    10   1     0.06  -0.32   0.21     0.00   0.00   0.00     0.00  -0.00   0.00
    11   1    -0.06   0.01  -0.02     0.00   0.00   0.00     0.00  -0.00   0.00
    12   1     0.10  -0.36   0.25    -0.00   0.00  -0.00    -0.00  -0.00   0.00
    13   1    -0.24   0.07   0.50    -0.00  -0.00   0.00     0.00   0.00  -0.00
    14   8    -0.00  -0.00   0.00     0.00   0.00   0.00     0.04  -0.01  -0.05
    15   1     0.00   0.00  -0.00     0.00  -0.00  -0.00    -0.65   0.12   0.75

 -------------------
 - Thermochemistry -
 -------------------
 Temperature   298.150 Kelvin.  Pressure   1.00000 Atm.
 Atom     1 has atomic number  6 and mass  12.00000
 Atom     2 has atomic number  1 and mass   1.00783
 Atom     3 has atomic number  6 and mass  12.00000
 Atom     4 has atomic number  6 and mass  12.00000
 Atom     5 has atomic number  8 and mass  15.99491
 Atom     6 has atomic number  8 and mass  15.99491
 Atom     7 has atomic number  6 and mass  12.00000
 Atom     8 has atomic number  6 and mass  12.00000
 Atom     9 has atomic number  1 and mass   1.00783
 Atom    10 has atomic number  1 and mass   1.00783
 Atom    11 has atomic number  1 and mass   1.00783
 Atom    12 has atomic number  1 and mass   1.00783
 Atom    13 has atomic number  1 and mass   1.00783
 Atom    14 has atomic number  8 and mass  15.99491
 Atom    15 has atomic number  1 and mass   1.00783
 Molecular mass:   115.03952 amu.
 Principal axes and moments of inertia in atomic units:
                           1         2         3
     Eigenvalues --   496.753941377.793901514.64236
           X            0.99994   0.01123  -0.00052
           Y           -0.01115   0.99666   0.08087
           Z            0.00142  -0.08086   0.99672
 This molecule is an asymmetric top.
 Rotational symmetry number  1.
 Warning -- assumption of classical behavior for rotation
           may cause significant error
 Rotational temperatures (Kelvin)      0.17436     0.06286     0.05718
 Rotational constants (GHZ):           3.63307     1.30988     1.19153
    5 imaginary frequencies ignored.
 Zero-point vibrational energy     292689.2 (Joules/Mol)
                                   69.95440 (Kcal/Mol)
 Warning -- explicit consideration of   8 degrees of freedom as
           vibrations may cause significant error
 Vibrational temperatures:    142.85   227.85   254.91   317.06   440.81
          (Kelvin)            601.25   775.54   867.08   912.23   952.77
                             1034.44  1085.47  1176.13  1290.76  1357.35
                             1594.22  1666.97  1767.62  1906.20  1969.86
                             2074.39  2098.05  2196.05  2211.19  2222.91
                             2752.23  3143.53  4472.21  4516.14  4589.28
                             4590.78  4621.54  5060.90  5514.27
 
 Zero-point correction=                           0.111479 (Hartree/Particle)
 Thermal correction to Energy=                    0.118610
 Thermal correction to Enthalpy=                  0.119554
 Thermal correction to Gibbs Free Energy=         0.078895
 Sum of electronic and zero-point Energies=           -419.841909
 Sum of electronic and thermal Energies=              -419.834778
 Sum of electronic and thermal Enthalpies=            -419.833834
 Sum of electronic and thermal Free Energies=         -419.874493
 
                     E (Thermal)             CV                S
                      KCal/Mol        Cal/Mol-Kelvin    Cal/Mol-Kelvin
 Total                   74.429             25.070             85.574
 Electronic               0.000              0.000              1.377
 Translational            0.889              2.981             40.136
 Rotational               0.889              2.981             28.429
 Vibrational             72.651             19.109             15.632
 Vibration     1          0.604              1.950              3.468
 Vibration     2          0.621              1.893              2.569
 Vibration     3          0.628              1.870              2.358
 Vibration     4          0.647              1.810              1.956
 Vibration     5          0.697              1.662              1.382
 Vibration     6          0.781              1.431              0.899
 Vibration     7          0.894              1.164              0.567
 Vibration     8          0.961              1.026              0.445
                       Q            Log10(Q)             Ln(Q)
 Total Bot       0.513873D-36        -36.289145        -83.558843
 Total V=0       0.972281D+15         14.987792         34.510666
 Vib (Bot)       0.145358D-49        -49.837563       -114.755229
 Vib (Bot)    1  0.206735D+01          0.315413          0.726266
 Vib (Bot)    2  0.127721D+01          0.106262          0.244678
 Vib (Bot)    3  0.113476D+01          0.054905          0.126422
 Vib (Bot)    4  0.897475D+00         -0.046977         -0.108169
 Vib (Bot)    5  0.618479D+00         -0.208675         -0.480492
 Vib (Bot)    6  0.420853D+00         -0.375870         -0.865472
 Vib (Bot)    7  0.294196D+00         -0.531363         -1.223508
 Vib (Bot)    8  0.247097D+00         -0.607133         -1.397975
 Vib (V=0)       0.275026D+02          1.439374          3.314280
 Vib (V=0)    1  0.262695D+01          0.419452          0.965824
 Vib (V=0)    2  0.187159D+01          0.272211          0.626789
 Vib (V=0)    3  0.174003D+01          0.240558          0.553904
 Vib (V=0)    4  0.152736D+01          0.183941          0.423539
 Vib (V=0)    5  0.129531D+01          0.112373          0.258749
 Vib (V=0)    6  0.115354D+01          0.062033          0.142837
 Vib (V=0)    7  0.108013D+01          0.033476          0.077082
 Vib (V=0)    8  0.105772D+01          0.024373          0.056120
 Electronic      0.200000D+01          0.301030          0.693147
 Translational   0.484981D+08          7.685724         17.697035
 Rotational      0.364471D+06          5.561663         12.806203
 ***** Axes restored to original set *****
 -------------------------------------------------------------------
 Center     Atomic                   Forces (Hartrees/Bohr)
 Number     Number              X              Y              Z
 -------------------------------------------------------------------
      1        6          -0.018901943   -0.001271537   -0.004710351
      2        1          -0.000635680   -0.000533264   -0.000309424
      3        6           0.022375603   -0.006161891    0.004460635
      4        6          -0.042493517    0.016208682   -0.030392240
      5        8           0.016613469   -0.015395375    0.045450619
      6        8           0.002719455    0.002392384   -0.015042247
      7        6           0.017627240   -0.001252870   -0.003291569
      8        6           0.000384496    0.000212822    0.000092737
      9        1           0.000405730   -0.000162959   -0.000633148
     10        1           0.000597664   -0.001173529    0.001067312
     11        1           0.001371461    0.000342716    0.000521294
     12        1          -0.000365065    0.001012576   -0.000481025
     13        1          -0.000294809    0.000748788    0.001555335
     14        8           0.011894630    0.000833164   -0.011123681
     15        1          -0.011298733    0.004200292    0.012835753
 -------------------------------------------------------------------
 Cartesian Forces:  Max     0.045450619 RMS     0.013047075

 GradGradGradGradGradGradGradGradGradGradGradGradGradGradGradGradGradGrad
 Berny optimization.
 Search for a local minimum.
 Step number   1 out of a maximum of    2
 All quantities printed in internal units (Hartrees-Bohrs-Radians)
 Second derivative matrix not updated -- analytic derivatives used.
 ITU=  0
     Eigenvalues ---   -0.13971  -0.01266  -0.00405  -0.00069  -0.00025
     Eigenvalues ---    0.00109   0.00249   0.00648   0.00901   0.01770
     Eigenvalues ---    0.02058   0.03253   0.03544   0.05401   0.06183
     Eigenvalues ---    0.06766   0.07674   0.08753   0.09425   0.10543
     Eigenvalues ---    0.12138   0.14875   0.17620   0.18176   0.20839
     Eigenvalues ---    0.24672   0.29756   0.43058   0.49957   0.64377
     Eigenvalues ---    0.72827   0.77836   0.80514   0.88737   0.94434
     Eigenvalues ---    0.96761   0.99607   1.86854   2.55966
 Eigenvalue     1 is  -1.40D-01 should be greater than     0.000000 Eigenvector:
                          Y3        Y14       Z3        Y1        X14
   1                    0.78356  -0.58604   0.10464  -0.08727  -0.06928
                          Y4        Z14       Z15       X1        X15
   1                    0.05778  -0.05039  -0.05029   0.04861   0.04265
 Eigenvalue     2 is  -1.27D-02 should be greater than     0.000000 Eigenvector:
                          X15       Z15       X14       Z14       Y15
   1                    0.59172   0.59086  -0.36815  -0.28809  -0.22264
                          Y14       Z12       Y13       X13       Z13
   1                    0.08517   0.05427  -0.05292   0.04185   0.04153
 Eigenvalue     3 is  -4.05D-03 should be greater than     0.000000 Eigenvector:
                          Y5        Z14       Y6        Y15       Z15
   1                    0.61684   0.34803  -0.27606  -0.25032   0.21645
                          Z2        X15       Z1        Y13       X12
   1                   -0.20924  -0.20110  -0.18060  -0.17359  -0.12267
 Eigenvalue     4 is  -6.92D-04 should be greater than     0.000000 Eigenvector:
                          X12       Z12       X15       Y9        Y13
   1                    0.33292  -0.31779  -0.30025  -0.27608   0.26339
                          Z10       X14       Y15       Z14       Z15
   1                    0.23105  -0.22955  -0.22541   0.21087   0.19836
 Eigenvalue     5 is  -2.54D-04 should be greater than     0.000000 Eigenvector:
                          Y2        Y11       X13       Y13       Z12
   1                    0.29385   0.29131  -0.28114   0.27744  -0.27679
                          X14       X15       Z10       X12       Y6
   1                    0.26278   0.25319   0.21259  -0.21158  -0.19529
 Quadratic step=6.031D-01 exceeds max=3.000D-01 adjusted using Lamda=-1.409D-03.
 Angle between NR and scaled steps=  31.46 degrees.
 Angle between quadratic step and forces=  73.97 degrees.
 Linear search not attempted -- first point.
 B after Tr=    -0.000784   -0.010818    0.005049
         Rot=    1.000000    0.000103   -0.000300    0.000011 Ang=   0.04 deg.
 Variable       Old X    -DE/DX   Delta X   Delta X   Delta X     New X
                                 (Linear)    (Quad)   (Total)
    X1       -5.25750  -0.01890   0.00000  -0.05116  -0.05248  -5.30998
    Y1       -0.92969  -0.00127   0.00000  -0.00186  -0.01273  -0.94242
    Z1       -0.83851  -0.00471   0.00000  -0.02546  -0.01703  -0.85554
    X2       -7.19620  -0.00064   0.00000  -0.03979  -0.04145  -7.23765
    Y2       -1.07700  -0.00053   0.00000  -0.03536  -0.04631  -1.12332
    Z2       -1.36160  -0.00031   0.00000  -0.06123  -0.05162  -1.41322
    X3       -3.06364   0.02238   0.00000  -0.03908  -0.04003  -3.10367
    Y3       -0.55836  -0.00616   0.00000  -0.07476  -0.08557  -0.64393
    Z3       -0.26509   0.00446   0.00000   0.01341   0.02045  -0.24464
    X4       -0.41830  -0.04249   0.00000  -0.06120  -0.06174  -0.48005
    Y4       -1.06453   0.01621   0.00000  -0.00342  -0.01413  -1.07866
    Z4        0.43280  -0.03039   0.00000   0.00871   0.01426   0.44706
    X5        0.20703   0.01661   0.00000   0.00165   0.00235   0.20938
    Y5       -1.73053  -0.01540   0.00000  -0.00495  -0.01525  -1.74579
    Z5        2.50371   0.04545   0.00000   0.04674   0.05202   2.55573
    X6        1.09783   0.00272   0.00000  -0.01617  -0.01789   1.07993
    Y6       -0.68340   0.00239   0.00000  -0.01836  -0.02952  -0.71292
    Z6       -1.52450  -0.01504   0.00000  -0.01400  -0.00945  -1.53395
    X7        3.77097   0.01763   0.00000   0.03864   0.03722   3.80819
    Y7       -0.84616  -0.00125   0.00000   0.00945  -0.00167  -0.84783
    Z7       -1.01240  -0.00329   0.00000  -0.01964  -0.01671  -1.02910
    X8        4.69405   0.00038   0.00000  -0.00137  -0.00196   4.69208
    Y8        1.55019   0.00021   0.00000   0.01794   0.00707   1.55727
    Z8        0.25612   0.00009   0.00000   0.00407   0.00598   0.26210
    X9        4.61974   0.00041   0.00000   0.01005   0.00750   4.62725
    Y9       -1.10819  -0.00016   0.00000   0.03624   0.02472  -1.08347
    Z9       -2.86734  -0.00063   0.00000  -0.03753  -0.03503  -2.90237
   X10        4.12426   0.00060   0.00000   0.05077   0.05000   4.17427
   Y10       -2.51102  -0.00117   0.00000   0.00007  -0.01082  -2.52183
   Z10        0.14965   0.00107   0.00000  -0.02980  -0.02674   0.12291
   X11        6.73852   0.00137   0.00000   0.00547   0.00502   6.74354
   Y11        1.45426   0.00034   0.00000   0.05804   0.04718   1.50143
   Z11        0.51554   0.00052   0.00000   0.00087   0.00157   0.51711
   X12        4.24860  -0.00037   0.00000  -0.03811  -0.03936   4.20924
   Y12        3.19201   0.00101   0.00000   0.02502   0.01392   3.20593
   Z12       -0.90737  -0.00048   0.00000   0.02275   0.02462  -0.88276
   X13        3.80984  -0.00029   0.00000   0.00055   0.00108   3.81092
   Y13        1.77888   0.00075   0.00000  -0.01503  -0.02549   1.75339
   Z13        2.10304   0.00156   0.00000   0.01368   0.01609   2.11913
   X14       -2.66142   0.01189   0.00000   0.09828   0.09769  -2.56373
   Y14        3.16108   0.00083   0.00000  -0.02396  -0.03468   3.12641
   Z14        0.19073  -0.01112   0.00000   0.01965   0.02559   0.21632
   X15       -3.84567  -0.01130   0.00000   0.05382   0.05405  -3.79162
   Y15        3.38521   0.00420   0.00000   0.19369   0.18328   3.56849
   Z15        1.57097   0.01284   0.00000  -0.01057  -0.00398   1.56698
         Item               Value     Threshold  Converged?
 Maximum Force            0.045451     0.000450     NO 
 RMS     Force            0.013047     0.000300     NO 
 Maximum Displacement     0.183280     0.001800     NO 
 RMS     Displacement     0.044207     0.001200     NO 
 Predicted change in Energy=-4.121891D-03
 GradGradGradGradGradGradGradGradGradGradGradGradGradGradGradGradGradGrad


 ----------------------------------------------------------------------

 Electric dipole moment (input orientation):
 (Debye = 10**-18 statcoulomb cm , SI units = C m)
                  (au)            (Debye)         (10**-30 SI)
   Tot        0.396969D+00      0.100899D+01      0.336564D+01
   x         -0.323458D+00     -0.822147D+00     -0.274239D+01
   y         -0.114938D+00     -0.292144D+00     -0.974487D+00
   z         -0.199371D+00     -0.506750D+00     -0.169034D+01

 Dipole polarizability, Alpha (input orientation).
 (esu units = cm**3 , SI units = C**2 m**2 J**-1)
 Alpha(0;0):
               (au)            (10**-24 esu)      (10**-40 SI)
   iso        0.713760D+02      0.105768D+02      0.117683D+02
   aniso      0.302409D+02      0.448124D+01      0.498605D+01
   xx         0.868545D+02      0.128705D+02      0.143204D+02
   yx         0.774895D+01      0.114828D+01      0.127763D+01
   yy         0.700540D+02      0.103809D+02      0.115503D+02
   zx         0.418882D+01      0.620719D+00      0.690644D+00
   zy         0.252486D+01      0.374145D+00      0.416293D+00
   zz         0.572195D+02      0.847905D+01      0.943422D+01

 ----------------------------------------------------------------------

 Dipole orientation:
     6         -2.10464726         -0.19065547          4.97421633
     1         -2.73715492         -0.50748695          6.85927749
     6         -1.40593948         -0.03068658          2.79110970
     6         -0.41890125          1.06474216          0.43169928
     8         -1.65276519          2.39139675         -0.92507650
     8          1.96214664          0.37627233          0.06899744
     6          3.06215339          1.09803757         -2.31920119
     6          2.16731221         -0.65233782         -4.40226920
     1          5.08839180          0.94166082         -2.00331585
     1          2.57390955          3.06192216         -2.70864826
     1          3.11188873         -0.16556447         -6.17065733
     1          2.60892652         -2.60936424         -3.93033471
     1          0.13307101         -0.47236820         -4.67560077
     8         -2.13702972         -3.34742174          1.15752501
     1         -3.95772053         -3.34538932          1.36438115

 Electric dipole moment (dipole orientation):
 (Debye = 10**-18 statcoulomb cm , SI units = C m)
                  (au)            (Debye)         (10**-30 SI)
   Tot        0.396969D+00      0.100899D+01      0.336564D+01
   x          0.000000D+00      0.000000D+00      0.000000D+00
   y          0.000000D+00      0.000000D+00      0.000000D+00
   z          0.396969D+00      0.100899D+01      0.336564D+01

 Dipole polarizability, Alpha (dipole orientation).
 (esu units = cm**3 , SI units = C**2 m**2 J**-1)
 Alpha(0;0):
               (au)            (10**-24 esu)      (10**-40 SI)
   iso        0.713760D+02      0.105768D+02      0.117683D+02
   aniso      0.302409D+02      0.448124D+01      0.498605D+01
   xx         0.622432D+02      0.922349D+01      0.102625D+02
   yx         0.219477D+01      0.325231D+00      0.361868D+00
   yy         0.660947D+02      0.979423D+01      0.108975D+02
   zx        -0.107500D+02     -0.159298D+01     -0.177243D+01
   zy         0.499273D+01      0.739847D+00      0.823190D+00
   zz         0.857900D+02      0.127128D+02      0.141449D+02

 ----------------------------------------------------------------------
 1\1\GINC-AJ\Freq\UM062X\6-31+G\C5H7O3(2)\AAYUSH\20-Jun-2025\0\\# freq 
 6-31+g m062x\\Title Card Required\\0,2\C,-2.782149,-0.491969,-0.44372\
 H,-3.808067,-0.569925,-0.72053\C,-1.621206,-0.295473,-0.140277\C,-0.22
 1357,-0.563325,0.229028\O,0.109554,-0.915759,1.324907\O,0.580944,-0.36
 1641,-0.806731\C,1.995512,-0.447771,-0.535737\C,2.483982,0.820327,0.13
 5532\H,2.444662,-0.58643,-1.51733\H,2.182467,-1.328772,0.079191\H,3.56
 587,0.769561,0.272813\H,2.24826,1.689138,-0.480162\H,2.016081,0.941343
 ,1.112881\O,-1.408364,1.672773,0.100932\H,-2.03504,1.791374,0.831319\\
 Version=ES64L-G16RevA.03\State=2-A\HF=-419.953388\S2=0.774137\S2-1=0.\
 S2A=0.750225\RMSD=7.023e-09\RMSF=1.305e-02\ZeroPoint=0.1114794\Thermal
 =0.1186098\Dipole=-0.3234577,-0.1149382,-0.1993707\DipoleDeriv=-0.2236
 553,0.4878818,0.0708682,0.0358065,-0.0502634,0.0361708,0.0508598,0.144
 4861,-0.1444607,0.269599,0.018626,0.0075094,0.0290237,0.2350668,-0.000
 5103,-0.0017329,-0.0049706,0.2600311,-0.4815384,-0.5009747,-0.1470714,
 -0.0784034,-0.8686982,-0.15286,-0.143843,-0.1648883,-0.1392755,2.07390
 85,-0.3188326,-0.1374593,-0.0476601,0.6706588,-0.3265875,-0.4758245,-0
 .4520901,1.5943023,-0.7775771,0.1581512,-0.1661592,0.0246597,-0.475380
 8,0.2221081,0.0427848,0.3086314,-1.0045422,-1.5424839,-0.0443659,0.377
 8894,-0.0783442,-0.3852761,0.0447168,0.5117346,0.0853172,-0.8404948,0.
 9008958,0.0671322,-0.098337,0.0054642,0.3117616,0.0678823,0.0282857,0.
 0091351,0.2842415,-0.0880836,-0.0266517,0.0344476,-0.0499889,-0.075971
 1,-0.0855816,-0.0311551,-0.0544463,-0.0167263,-0.0099759,-0.0010538,0.
 0327804,-0.006822,0.0733179,-0.0304126,0.0782943,-0.0552454,-0.071838,
 -0.0078307,-0.0343407,0.0204254,0.0269974,-0.0558652,0.0333929,-0.0680
 037,0.0739046,0.0495624,-0.1468543,-0.0099545,-0.0274989,0.0185114,0.0
 835155,0.0029014,-0.0265407,-0.0112752,0.1106378,0.109877,0.0524885,-0
 .0412166,0.0032549,-0.040299,0.0454577,-0.0299717,0.0812245,0.0149067,
 0.0911321,0.0221441,0.0880769,-0.004285,0.055255,0.0004068,0.0685435,-
 0.0314219,-0.0365263,-0.352972,0.2011932,-0.1328078,0.1175873,0.174256
 3,0.1416703,-0.1524179,0.0298508,-0.2505953,0.1855587,-0.0714429,0.118
 5529,0.0041984,0.3479219,0.001245,0.1489869,0.0417882,0.1907772\Polar=
 86.8545223,7.7489539,70.0539532,4.1888227,2.5248576,57.2194666\Quadrup
 ole=10.729968,-4.3835697,-6.3463983,0.1877786,-1.4736499,4.1954776\PG=
 C01 [X(C5H7O3)]\NImag=5\\1.38732042,0.16098046,0.06470968,0.35124826,0
 .04322885,0.14470578,-0.40373602,-0.03106547,-0.10125194,0.39297801,-0
 .02236066,-0.02346804,-0.00660917,0.02940632,0.01599794,-0.10126709,-0
 .00889174,-0.05533980,0.10157583,0.00846651,0.04414338,-0.98166424,-0.
 12833525,-0.24635995,0.01053626,-0.00749591,0.00164150,1.29425833,-0.0
 5298560,-0.00349373,-0.01030180,0.00124579,0.00403381,0.00101345,0.014
 10681,-0.05960971,-0.24077452,-0.02839758,-0.09616693,0.00090421,-0.00
 167336,0.00687276,0.28969010,-0.02059686,0.19418964,0.01668176,0.00839
 284,0.00109832,-0.00096003,0.00048997,-0.00172669,-0.24783061,0.005725
 59,-0.04406912,0.66415600,-0.02693189,-0.00437004,-0.00706441,-0.00029
 049,0.00460358,-0.00041055,0.04669126,-0.04571890,0.01142349,-0.071047
 02,0.26451910,-0.00200672,0.00088060,0.00561522,-0.00114519,0.00044704
 ,0.00466330,-0.03125467,-0.00018656,-0.07363869,0.09759368,-0.24429488
 ,0.99228411,-0.00465450,-0.00125631,0.00035382,0.00011784,-0.00013360,
 0.00133692,-0.02111674,0.02269447,-0.05022152,-0.15434320,0.06994932,-
 0.20618763,0.15401890,0.00316175,0.00119434,0.00051504,0.00014219,-0.0
 0070045,-0.00044431,0.01230704,0.00996278,0.01860093,0.06517318,-0.124
 65852,0.20799875,-0.07814557,0.09473818,-0.00064328,-0.00011146,0.0008
 1937,-0.00004371,-0.00040072,0.00021976,-0.03203975,0.01843111,-0.0258
 5919,-0.19590315,0.20780468,-0.69830878,0.21506700,-0.25627082,0.81991
 812,-0.00803394,-0.00070478,-0.00243179,0.00089235,0.00028600,-0.00114
 778,-0.05487053,0.00425166,0.03731436,-0.21307040,-0.02537941,0.138739
 60,0.02396077,-0.00481879,0.02402471,0.54958001,0.00071565,0.00081148,
 -0.00041402,-0.00001223,-0.00039802,0.00014769,0.00364824,0.00897189,0
 .00069326,-0.01706042,-0.06728023,0.03840309,-0.00978592,0.02213180,0.
 03170235,0.01193186,0.09501075,0.00099657,-0.00026414,-0.00001508,-0.0
 0006330,-0.00009252,-0.00058624,0.00537719,0.00085413,0.00287053,0.099
 65514,0.03769800,-0.23227658,0.03410473,0.03111498,-0.09792962,-0.1240
 5966,-0.07772438,0.40809151,0.00230027,0.00035245,0.00080840,-0.000308
 36,-0.00001671,0.00002008,0.00292972,-0.00391230,-0.00034898,-0.061496
 24,-0.00244115,0.02717768,-0.00009741,0.00554312,-0.01749566,-0.199247
 03,0.01210185,-0.01091250,0.48602971,0.00159723,0.00039334,0.00052059,
 0.00004821,-0.00018568,0.00006166,-0.00021903,0.00342922,0.00080257,-0
 .00627469,0.00423972,-0.00829485,0.00253904,-0.00530674,0.00108549,0.0
 1639458,-0.06555358,0.01144570,-0.02310535,0.56593609,0.00111893,-0.00
 013771,0.00060974,-0.00001279,0.00000551,0.00022541,0.00390567,0.00160
 613,-0.00349734,0.04199497,-0.00474692,0.00518043,0.00174900,-0.000775
 55,-0.00229501,-0.04597924,0.01062023,-0.08653493,-0.06588022,-0.03894
 671,0.63621157,-0.00008739,0.00005342,0.00000487,0.00009389,-0.0000377
 1,-0.00001300,-0.00050155,0.00135716,0.00075527,0.00231824,-0.00097717
 ,-0.00924231,0.00071169,-0.00152037,0.00270413,-0.03850740,-0.03611810
 ,-0.01874857,-0.08308602,-0.02039191,-0.00720936,0.59099749,0.00021409
 ,-0.00008683,0.00008532,-0.00001426,0.00000270,-0.00001376,-0.00035350
 ,-0.00021495,-0.00022282,-0.00044258,-0.00051396,0.00401085,-0.0012031
 5,-0.00028878,-0.00163376,-0.00021175,0.00528647,-0.00241041,-0.032380
 06,-0.18552676,-0.04937714,-0.03011948,0.53392409,0.00007448,-0.000003
 25,-0.00002562,0.00001301,-0.00001696,0.00000689,-0.00044875,0.0004080
 4,0.00011616,0.00156017,0.00091997,0.00232824,-0.00121740,-0.00155005,
 -0.00043373,-0.00821419,-0.00535313,-0.00105297,-0.01226283,-0.0482203
 9,-0.11406514,-0.01553529,-0.03613653,0.58344425,-0.00069895,0.0000466
 8,-0.00024846,0.00003833,0.00001640,-0.00005314,-0.00105959,-0.0003307
 1,0.00113629,-0.00436793,0.00353735,-0.00481701,0.00155310,-0.00046773
 ,0.00087940,-0.03529603,0.00189950,0.03443351,-0.08716629,0.01416655,0
 .09466152,0.00699811,-0.00211469,-0.01151770,0.11511598,-0.00000294,0.
 00003133,0.00004381,0.00000862,-0.00000604,0.00000188,0.00020631,0.000
 08180,-0.00014330,-0.00001386,-0.00049769,0.00253172,-0.00155159,0.000
 56850,-0.00037291,0.00300048,0.00091714,-0.00289001,0.01386965,-0.0578
 3235,-0.02706754,0.01114773,-0.00500741,-0.02939955,-0.01339095,0.0592
 8694,-0.00006900,0.00011520,-0.00002971,-0.00001195,-0.00001692,-0.000
 03337,-0.00000729,-0.00046247,0.00027891,-0.00334516,0.00069176,-0.000
 39098,0.00136041,-0.00040244,0.00075600,-0.00813204,0.00195343,0.00807
 525,0.10938057,-0.02851326,-0.28658752,0.00460458,-0.00119229,-0.01170
 664,-0.10978444,0.03372894,0.30318067,-0.00035234,0.00016956,-0.000104
 24,0.00003077,0.00000955,-0.00002977,0.00007535,-0.00069310,0.00029374
 ,0.00251521,0.00352430,-0.00860034,0.00065408,-0.00110430,0.00366795,-
 0.02896583,0.03101816,-0.02179821,-0.05549898,0.02801887,-0.01653905,0
 .00423907,-0.01048003,0.00676795,0.00458035,-0.01161642,0.00741775,0.0
 7291029,-0.00019600,-0.00006016,-0.00004936,-0.00000867,0.00001852,0.0
 0001606,0.00005566,0.00003804,-0.00025987,-0.00017499,-0.00022657,0.00
 356125,-0.00250520,0.00060593,-0.00103794,0.00346003,0.00185719,0.0001
 8883,0.03709205,-0.23091387,0.12447298,0.00295272,-0.02348341,0.016022
 23,-0.00131688,0.00479974,-0.00374051,-0.03761866,0.24899738,-0.000068
 83,-0.00007473,-0.00000477,0.00002520,0.00000782,0.00000652,-0.0002791
 8,0.00054421,-0.00004052,0.00278302,-0.00010587,-0.00015539,0.00133505
 ,-0.00085198,-0.00064219,-0.00694137,0.00303390,-0.00267558,-0.0253439
 0,0.12771900,-0.14235381,0.00275989,-0.01615930,0.00980253,-0.00455365
 ,0.02460961,-0.01495869,0.03070730,-0.13675172,0.15098942,-0.00005542,
 0.00001127,0.00000476,0.00003513,0.00001112,0.00000897,-0.00014826,0.0
 0014264,-0.00000810,0.00169039,0.00060321,-0.00124066,-0.00010241,-0.0
 0044686,0.00041006,-0.00032508,-0.00286138,-0.00029161,-0.01108508,0.0
 0404612,0.00030985,-0.31838735,0.01273197,-0.03420179,0.00029424,-0.00
 009132,-0.00038714,0.00015283,-0.00046340,0.00021182,0.34810936,-0.000
 23143,-0.00001401,-0.00006157,0.00001351,-0.00001255,-0.00000661,0.000
 01915,0.00059164,0.00031418,0.00088158,-0.00018443,-0.00277006,0.00029
 109,-0.00034592,0.00093301,-0.00578447,-0.00552237,-0.00236681,-0.0289
 8160,0.00294164,-0.00236334,0.01523657,-0.05009975,0.00143543,0.000615
 37,0.00117656,-0.00002422,0.00058018,0.00047933,0.00113243,-0.01382489
 ,0.05171056,-0.00009402,-0.00000664,-0.00001734,0.00000495,0.00000222,
 -0.00000126,-0.00002543,0.00006791,0.00009943,0.00035628,-0.00005226,-
 0.00250599,0.00047997,0.00029210,0.00100088,-0.00351769,-0.00364227,-0
 .00021475,-0.01500642,0.00257891,-0.00214395,-0.03280978,0.00082015,-0
 .05214759,0.00038547,0.00061586,-0.00017354,0.00023795,0.00028060,0.00
 045487,0.03839782,0.00027367,0.05298655,-0.00014794,-0.00003236,-0.000
 04132,-0.00003149,-0.00001579,-0.00000407,0.00023502,0.00028926,0.0000
 2031,-0.00049047,-0.00071943,0.00161519,-0.00046142,0.00002667,-0.0007
 5293,0.00203236,0.00083885,0.00045309,0.00117694,-0.01234773,0.0054689
 3,-0.06279145,0.04997563,-0.03396006,0.00006574,0.00084875,0.00021701,
 -0.00025074,-0.00214690,-0.00107515,-0.00633596,0.02759200,-0.01962891
 ,0.06323763,-0.00012272,-0.00001964,-0.00004705,-0.00000594,-0.0000022
 0,0.00000477,0.00000777,0.00013504,0.00004485,-0.00003294,-0.00055705,
 0.00079465,-0.00020258,0.00023141,-0.00049056,0.00132274,0.00325963,0.
 00032351,0.00673942,-0.02794946,0.01749740,0.04695998,-0.22149478,0.12
 453213,0.00022656,0.00111520,-0.00000491,-0.00196718,-0.00316204,-0.00
 357862,-0.00076520,-0.00008551,0.00003442,-0.05155840,0.24519017,0.000
 24759,0.00003792,0.00004511,0.00000249,0.00000892,0.00000613,-0.000166
 95,-0.00054478,-0.00003408,-0.00061771,0.00053954,-0.00029937,0.000573
 93,0.00034913,0.00029785,0.00211978,0.00113212,0.00017544,0.00247797,-
 0.01756511,0.00965679,-0.03433314,0.12751110,-0.14218517,0.00057763,0.
 00050986,0.00094741,-0.00169844,-0.00302265,-0.00111526,0.00044595,0.0
 0237233,-0.00262028,0.03880363,-0.13586039,0.15102152,0.00006453,-0.00
 002607,-0.00002927,-0.00003218,-0.00001107,0.00000078,0.00011854,0.000
 04086,0.00005475,-0.00120784,-0.00060712,-0.00076476,-0.00046779,-0.00
 051894,0.00046551,0.00147466,0.00124396,0.00042607,0.00469936,-0.00386
 305,-0.01311029,-0.10188287,0.01441738,0.10887100,-0.00008051,-0.00242
 349,-0.00130905,0.00001061,0.00083579,0.00047718,-0.01367589,0.0034790
 5,0.03120672,0.00349079,-0.00066023,-0.00831163,0.10710034,0.00028175,
 0.00004403,0.00003777,-0.00000458,0.00000835,-0.00000894,-0.00020416,-
 0.00062105,0.00011462,-0.00151800,0.00093095,-0.00265273,0.00092669,-0
 .00035013,0.00161105,0.00026361,0.00158318,0.00271651,0.01473852,-0.00
 576296,-0.03151700,0.01125248,-0.05243292,-0.02260674,-0.00263114,-0.0
 0466119,-0.00202502,0.00052428,0.00116485,0.00035306,0.00083090,-0.000
 57926,-0.00123187,-0.01261984,0.00340986,0.02437413,-0.01176690,0.0571
 9157,-0.00014312,-0.00005847,-0.00004531,-0.00002215,0.00000224,-0.000
 01587,0.00019680,0.00010137,0.00012551,-0.00079454,-0.00052501,-0.0015
 0286,0.00085798,0.00092617,0.00071187,-0.00069487,0.00093387,0.0010837
 6,0.00753913,-0.00277259,-0.01449140,0.10717095,-0.02541571,-0.2738254
 0,-0.00103053,-0.00221294,0.00062089,-0.00038821,0.00037033,0.00067090
 ,-0.00362562,0.00114218,0.00520252,0.00894513,-0.00318399,-0.01587294,
 -0.11819424,0.03087730,0.29722922,-0.00883591,-0.00794639,-0.00295834,
 0.00031015,0.00036388,-0.00028884,0.00032294,0.01253779,0.00851147,-0.
 00249144,0.00425623,-0.00364047,0.00041310,0.00081458,0.00116574,-0.00
 037532,0.00157237,0.00128095,0.00077660,-0.00050318,-0.00043921,-0.000
 08459,0.00007831,-0.00011476,0.00001410,0.00003441,0.00009045,-0.00007
 836,0.00000427,-0.00002460,-0.00017864,0.00009412,0.00006437,0.0001844
 7,0.00000990,-0.00011400,0.00046152,-0.00011167,0.00022179,0.22836647,
 -0.06424765,-0.03424935,-0.01929966,0.00081049,0.00008349,0.00021830,0
 .05368790,0.08639110,0.02694485,0.01348875,-0.02857598,0.00119123,-0.0
 0109920,0.00200935,-0.00207423,-0.00280395,-0.00047125,0.00090366,-0.0
 0000689,0.00209317,0.00054505,0.00032409,-0.00009984,0.00008936,-0.000
 18012,0.00004659,-0.00011588,-0.00038726,-0.00009038,0.00017497,0.0001
 0092,-0.00000694,-0.00003082,-0.00010780,-0.00006160,0.00006478,-0.000
 21424,-0.00002020,-0.00018176,-0.04269513,-0.01561039,-0.00639494,-0.0
 0594721,-0.00009852,0.00007906,0.00030123,-0.00000916,0.00827703,0.004
 99365,-0.00511076,-0.00196208,-0.00151969,-0.00281507,0.00139929,0.000
 34261,0.00331829,0.00029481,-0.00152052,0.00046941,-0.00042038,0.00002
 513,-0.00001966,-0.00002570,0.00009310,-0.00031021,-0.00001459,0.00004
 952,0.00004193,0.00009774,-0.00002178,0.00002672,-0.00004762,0.0000630
 1,0.00011118,0.00000288,-0.00001501,-0.00009481,0.00026421,-0.00011931
 ,0.00018460,-0.26356016,0.04530772,0.29873833,0.00189968,-0.00064007,-
 0.00009313,0.00003537,-0.00051179,-0.00005371,-0.00128463,-0.00447033,
 -0.00325825,-0.00110344,-0.00016799,0.00377360,-0.00018602,-0.00014597
 ,-0.00150601,0.00075142,0.00086762,-0.00085341,0.00007281,-0.00010565,
 -0.00003870,-0.00002987,-0.00009787,0.00018615,0.00000936,-0.00002540,
 -0.00002469,-0.00002228,0.00003017,-0.00001278,0.00001214,0.00001978,-
 0.00005129,0.00008653,0.00004882,-0.00000709,-0.00007325,0.00003808,-0
 .00003850,-0.21880507,0.04333010,0.26201045,0.21863727,0.00012794,-0.0
 0142241,-0.00058435,-0.00027348,0.00002461,-0.00015442,0.00587772,-0.0
 0397698,-0.00764496,0.00241258,-0.00170999,-0.00162009,-0.00051750,0.0
 0020823,0.00082470,-0.00120780,-0.00060408,0.00050295,0.00040702,-0.00
 000180,0.00018462,-0.00011941,0.00003614,-0.00012057,-0.00007618,-0.00
 001913,0.00000859,0.00002205,-0.00002454,-0.00005278,-0.00002513,-0.00
 004898,-0.00000198,-0.00002291,-0.00000904,0.00009309,0.00007409,0.000
 09489,-0.00000298,0.03149052,-0.01143777,-0.04203242,-0.03816950,0.018
 89085,-0.00222431,-0.00036965,-0.00005214,-0.00005373,-0.00043185,-0.0
 0015844,0.00149368,0.00407249,-0.00020540,0.00337686,-0.00035785,0.001
 82242,-0.00099155,0.00015544,-0.00157362,-0.00137461,0.00003437,0.0005
 1987,0.00026704,0.00007386,0.00010483,-0.00008255,0.00004120,0.0000544
 1,-0.00005430,-0.00000493,-0.00002061,-0.00003211,-0.00002843,-0.00000
 475,0.00001332,-0.00007364,-0.00003074,-0.00006375,-0.00005120,0.00007
 167,-0.00004697,0.00007718,-0.00007549,0.25980562,-0.05373758,-0.29443
 228,-0.26003262,0.05060059,0.29398026\\0.01890194,0.00127154,0.0047103
 5,0.00063568,0.00053326,0.00030942,-0.02237560,0.00616189,-0.00446063,
 0.04249352,-0.01620868,0.03039224,-0.01661347,0.01539538,-0.04545062,-
 0.00271945,-0.00239238,0.01504225,-0.01762724,0.00125287,0.00329157,-0
 .00038450,-0.00021282,-0.00009274,-0.00040573,0.00016296,0.00063315,-0
 .00059766,0.00117353,-0.00106731,-0.00137146,-0.00034272,-0.00052129,0
 .00036507,-0.00101258,0.00048103,0.00029481,-0.00074879,-0.00155534,-0
 .01189463,-0.00083316,0.01112368,0.01129873,-0.00420029,-0.01283575\\\
 @


 Age does not diminish the extreme disappointment of
 having a scoop of ice cream fall from the cone.
 -- Jim Fiebig
 Job cpu time:       0 days  0 hours 19 minutes 11.8 seconds.
 Elapsed time:       0 days  0 hours  0 minutes 48.1 seconds.
 File lengths (MBytes):  RWF=     59 Int=      0 D2E=      0 Chk=      8 Scr=      1
 Normal termination of Gaussian 16 at Fri Jun 20 14:09:01 2025.
