 Entering Gaussian System, Link 0=g16
 Initial command:
 /opt/g16/l1.exe "/home/aayush/scratches/g16/Gau-74633.inp" -scrdir="/home/aayush/scratches/g16/"
 Entering Link 1 = /opt/g16/l1.exe PID=     74636.
  
 Copyright (c) 1988,1990,1992,1993,1995,1998,2003,2009,2016,
            Gaussian, Inc.  All Rights Reserved.
  
 This is part of the Gaussian(R) 16 program.  It is based on
 the Gaussian(R) 09 system (copyright 2009, Gaussian, Inc.),
 the Gaussian(R) 03 system (copyright 2003, Gaussian, Inc.),
 the Gaussian(R) 98 system (copyright 1998, Gaussian, Inc.),
 the Gaussian(R) 94 system (copyright 1995, Gaussian, Inc.),
 the Gaussian 92(TM) system (copyright 1992, Gaussian, Inc.),
 the Gaussian 90(TM) system (copyright 1990, Gaussian, Inc.),
 the Gaussian 88(TM) system (copyright 1988, Gaussian, Inc.),
 the Gaussian 86(TM) system (copyright 1986, Carnegie Mellon
 University), and the Gaussian 82(TM) system (copyright 1983,
 Carnegie Mellon University). Gaussian is a federally registered
 trademark of Gaussian, Inc.
  
 This software contains proprietary and confidential information,
 including trade secrets, belonging to Gaussian, Inc.
  
 This software is provided under written license and may be
 used, copied, transmitted, or stored only in accord with that
 written license.
  
 The following legend is applicable only to US Government
 contracts under FAR:
  
                    RESTRICTED RIGHTS LEGEND
  
 Use, reproduction and disclosure by the US Government is
 subject to restrictions as set forth in subparagraphs (a)
 and (c) of the Commercial Computer Software - Restricted
 Rights clause in FAR 52.227-19.
  
 Gaussian, Inc.
 340 Quinnipiac St., Bldg. 40, Wallingford CT 06492
  
  
 ---------------------------------------------------------------
 Warning -- This program may not be used in any manner that
 competes with the business of Gaussian, Inc. or will provide
 assistance to any competitor of Gaussian, Inc.  The licensee
 of this program is prohibited from giving any competitor of
 Gaussian, Inc. access to this program.  By using this program,
 the user acknowledges that Gaussian, Inc. is engaged in the
 business of creating and licensing software in the field of
 computational chemistry and represents and warrants to the
 licensee that it is not a competitor of Gaussian, Inc. and that
 it will not use this program in any manner prohibited above.
 ---------------------------------------------------------------
  

 Cite this work as:
 Gaussian 16, Revision A.03,
 M. J. Frisch, G. W. Trucks, H. B. Schlegel, G. E. Scuseria, 
 M. A. Robb, J. R. Cheeseman, G. Scalmani, V. Barone, 
 G. A. Petersson, H. Nakatsuji, X. Li, M. Caricato, A. V. Marenich, 
 J. Bloino, B. G. Janesko, R. Gomperts, B. Mennucci, H. P. Hratchian, 
 J. V. Ortiz, A. F. Izmaylov, J. L. Sonnenberg, D. Williams-Young, 
 F. Ding, F. Lipparini, F. Egidi, J. Goings, B. Peng, A. Petrone, 
 T. Henderson, D. Ranasinghe, V. G. Zakrzewski, J. Gao, N. Rega, 
 G. Zheng, W. Liang, M. Hada, M. Ehara, K. Toyota, R. Fukuda, 
 J. Hasegawa, M. Ishida, T. Nakajima, Y. Honda, O. Kitao, H. Nakai, 
 T. Vreven, K. Throssell, J. A. Montgomery, Jr., J. E. Peralta, 
 F. Ogliaro, M. J. Bearpark, J. J. Heyd, E. N. Brothers, K. N. Kudin, 
 V. N. Staroverov, T. A. Keith, R. Kobayashi, J. Normand, 
 K. Raghavachari, A. P. Rendell, J. C. Burant, S. S. Iyengar, 
 J. Tomasi, M. Cossi, J. M. Millam, M. Klene, C. Adamo, R. Cammi, 
 J. W. Ochterski, R. L. Martin, K. Morokuma, O. Farkas, 
 J. B. Foresman, and D. J. Fox, Gaussian, Inc., Wallingford CT, 2016.
 
 ******************************************
 Gaussian 16:  ES64L-G16RevA.03 25-Dec-2016
                20-Jun-2025 
 ******************************************
 %nprocshared=24
 Will use up to   24 processors via shared memory.
 %mem=12GB
 %chk=ethyl_propiolate_ts1.chk
 -------------------
 # freq 6-31+g m062x
 -------------------
 1/10=4,30=1,38=1/1,3;
 2/12=2,17=6,18=5,40=1/2;
 3/5=1,6=6,7=10,11=2,25=1,30=1,71=2,74=-55,140=1/1,2,3;
 4//1;
 5/5=2,38=5,98=1/2;
 8/6=4,10=90,11=11/1;
 11/6=1,8=1,9=11,15=111,16=1/1,2,10;
 10/6=1/2;
 6/7=2,8=2,9=2,10=2,28=1/1;
 7/8=1,10=1,25=1/1,2,3,16;
 1/10=4,30=1/3;
 99//99;
 -------------------
 Title Card Required
 -------------------
 Symbolic Z-matrix:
 Charge =  0 Multiplicity = 2
 C                    -2.72182  -0.47413  -0.44697 
 H                    -3.74696  -0.5592   -0.72575 
 C                    -1.56152  -0.20904  -0.1353 
 C                    -0.16361  -0.53712   0.22591 
 O                     0.16491  -0.89457   1.32027 
 O                     0.63773  -0.33935  -0.81048 
 C                     2.0529   -0.4249   -0.53954 
 C                     2.54066   0.84351   0.13179 
 H                     2.50185  -0.56333  -1.5212 
 H                     2.24001  -1.30593   0.07523 
 H                     3.62252   0.79259   0.26923 
 H                     2.30466   1.71227  -0.48376 
 H                     2.07255   0.96477   1.10901 
 O                    -1.35485   1.6565    0.09221 
 H                    -1.97639   1.79753   0.82135 
 

 GradGradGradGradGradGradGradGradGradGradGradGradGradGradGradGradGradGrad
 Berny optimization.
 Initialization pass.
 Trust Radius=3.00D-01 FncErr=1.00D-07 GrdErr=1.00D-07 EigMax=2.50D+02 EigMin=1.00D-04
 Number of steps in this run=      2 maximum allowed number of steps=      2.
 GradGradGradGradGradGradGradGradGradGradGradGradGradGradGradGradGradGrad

                          Input orientation:                          
 ---------------------------------------------------------------------
 Center     Atomic      Atomic             Coordinates (Angstroms)
 Number     Number       Type             X           Y           Z
 ---------------------------------------------------------------------
      1          6           0       -2.721821   -0.474132   -0.446967
      2          1           0       -3.746961   -0.559202   -0.725747
      3          6           0       -1.561515   -0.209041   -0.135302
      4          6           0       -0.163608   -0.537122    0.225906
      5          8           0        0.164913   -0.894566    1.320268
      6          8           0        0.637734   -0.339346   -0.810483
      7          6           0        2.052897   -0.424898   -0.539537
      8          6           0        2.540655    0.843505    0.131790
      9          1           0        2.501851   -0.563334   -1.521200
     10          1           0        2.240006   -1.305932    0.075226
     11          1           0        3.622521    0.792587    0.269233
     12          1           0        2.304658    1.712267   -0.483760
     13          1           0        2.072550    0.964771    1.109010
     14          8           0       -1.354850    1.656504    0.092205
     15          1           0       -1.976390    1.797533    0.821345
 ---------------------------------------------------------------------
                    Distance matrix (angstroms):
                    1          2          3          4          5
     1  C    0.000000
     2  H    1.065771   0.000000
     3  C    1.230333   2.290723   0.000000
     4  C    2.645974   3.707634   1.480626   0.000000
     5  O    3.410736   4.427347   2.359911   1.197214   0.000000
     6  O    3.381852   4.391021   2.304245   1.324902   2.252094
     7  C    4.775869   5.804400   3.643347   2.347635   2.691458
     8  C    5.455711   6.499005   4.243464   3.037767   3.174511
     9  H    5.333731   6.299239   4.307805   3.187121   3.693905
    10  H    5.058093   6.086291   3.962203   2.528069   2.454661
    11  H    6.509086   7.558213   5.295388   4.013076   3.988259
    12  H    5.481531   6.468402   4.331298   3.414047   3.824736
    13  H    5.241898   6.289319   4.016538   2.834777   2.672236
    14  O    2.588228   3.361636   1.890695   2.499786   3.213375
    15  H    2.706427   3.329056   2.261335   3.015185   3.475845
                    6          7          8          9         10
     6  O    0.000000
     7  C    1.443405   0.000000
     8  C    2.430663   1.515729   0.000000
     9  H    2.007541   1.088295   2.170962   0.000000
    10  H    2.070276   1.090488   2.171099   1.780054   0.000000
    11  H    3.369868   2.144784   1.091750   2.509995   2.520470
    12  H    2.663550   2.152666   1.090570   2.508690   3.070207
    13  H    2.728346   2.156217   1.090315   3.072037   2.500569
    14  O    2.961191   4.042780   3.979635   4.733381   4.658251
    15  H    3.750035   4.798578   4.667906   5.578159   5.288306
                   11         12         13         14         15
    11  H    0.000000
    12  H    1.774704   0.000000
    13  H    1.771238   1.774695   0.000000
    14  O    5.054890   3.704976   3.641354   0.000000
    15  H    5.715116   4.476376   4.143689   0.968425   0.000000
 Stoichiometry    C5H7O3(2)
 Framework group  C1[X(C5H7O3)]
 Deg. of freedom    39
 Full point group                 C1      NOp   1
 Largest Abelian subgroup         C1      NOp   1
 Largest concise Abelian subgroup C1      NOp   1
                         Standard orientation:                         
 ---------------------------------------------------------------------
 Center     Atomic      Atomic             Coordinates (Angstroms)
 Number     Number       Type             X           Y           Z
 ---------------------------------------------------------------------
      1          6           0       -2.778498   -0.494791   -0.448350
      2          1           0       -3.803508   -0.577996   -0.728170
      3          6           0       -1.618417   -0.231785   -0.134092
      4          6           0       -0.220473   -0.562235    0.224807
      5          8           0        0.107861   -0.928697    1.316238
      6          8           0        0.581111   -0.355395   -0.809624
      7          6           0        1.996226   -0.442560   -0.538943
      8          6           0        2.483173    0.820392    0.143165
      9          1           0        2.445562   -0.572544   -1.521586
     10          1           0        2.183549   -1.328634    0.068466
     11          1           0        3.565019    0.768826    0.280529
     12          1           0        2.246968    1.694179   -0.465150
     13          1           0        2.014696    0.933235    1.121215
     14          8           0       -1.412699    1.631881    0.109130
     15          1           0       -2.034540    1.766497    0.839224
 ---------------------------------------------------------------------
 Rotational constants (GHZ):           3.7004385           1.3111963           1.1988455
 Standard basis: 6-31+G (6D, 7F)
 There are   118 symmetry adapted cartesian basis functions of A   symmetry.
 There are   118 symmetry adapted basis functions of A   symmetry.
   118 basis functions,   236 primitive gaussians,   118 cartesian basis functions
    31 alpha electrons       30 beta electrons
       nuclear repulsion energy       363.7031749118 Hartrees.
 NAtoms=   15 NActive=   15 NUniq=   15 SFac= 1.00D+00 NAtFMM=   60 NAOKFM=F Big=F
 Integral buffers will be    131072 words long.
 Raffenetti 2 integral format.
 Two-electron integral symmetry is turned on.
 One-electron integrals computed using PRISM.
 NBasis=   118 RedAO= T EigKep=  6.44D-06  NBF=   118
 NBsUse=   118 1.00D-06 EigRej= -1.00D+00 NBFU=   118
 ExpMin= 4.38D-02 ExpMax= 5.48D+03 ExpMxC= 8.25D+02 IAcc=3 IRadAn=         5 AccDes= 0.00D+00
 Harris functional with IExCor= 1009 and IRadAn=       5 diagonalized for initial guess.
 HarFok:  IExCor= 1009 AccDes= 0.00D+00 IRadAn=         5 IDoV= 1 UseB2=F ITyADJ=14
 ICtDFT=  3500011 ScaDFX=  1.000000  1.000000  1.000000  1.000000
 FoFCou: FMM=F IPFlag=           0 FMFlag=      100000 FMFlg1=           0
         NFxFlg=           0 DoJE=T BraDBF=F KetDBF=T FulRan=T
         wScrn=  0.000000 ICntrl=       500 IOpCl=  0 I1Cent=   200000004 NGrid=           0
         NMat0=    1 NMatS0=      1 NMatT0=    0 NMatD0=    1 NMtDS0=    0 NMtDT0=    0
 Petite list used in FoFCou.
 Initial guess <Sx>= 0.0000 <Sy>= 0.0000 <Sz>= 0.5000 <S**2>= 0.7500 S= 0.5000
 Requested convergence on RMS density matrix=1.00D-08 within 128 cycles.
 Requested convergence on MAX density matrix=1.00D-06.
 Requested convergence on             energy=1.00D-06.
 No special actions if energy rises.
 Restarting incremental Fock formation.
 SCF Done:  E(UM062X) =  -419.954160691     A.U. after   22 cycles
            NFock= 22  Conv=0.38D-08     -V/T= 2.0052
 <Sx>= 0.0000 <Sy>= 0.0000 <Sz>= 0.5000 <S**2>= 0.7846 S= 0.5172
 <L.S>=  0.00000000000    
 Annihilation of the first spin contaminant:
 S**2 before annihilation     0.7846,   after     0.7505
 DoSCS=F DFT=T ScalE2(SS,OS)=  1.000000  1.000000
 Range of M.O.s used for correlation:     1   118
 NBasis=   118 NAE=    31 NBE=    30 NFC=     0 NFV=     0
 NROrb=    118 NOA=    31 NOB=    30 NVA=    87 NVB=    88

 **** Warning!!: The largest alpha MO coefficient is  0.14630100D+03


 **** Warning!!: The largest beta MO coefficient is  0.10890915D+03

 Symmetrizing basis deriv contribution to polar:
 IMax=3 JMax=2 DiffMx= 0.00D+00
 G2DrvN: will do    16 centers at a time, making    1 passes.
 Calling FoFCou, ICntrl=  3107 FMM=F I1Cent=   0 AccDes= 0.00D+00.
 End of G2Drv F.D. properties file   721 does not exist.
 End of G2Drv F.D. properties file   722 does not exist.
 End of G2Drv F.D. properties file   788 does not exist.
          IDoAtm=111111111111111
          Differentiating once with respect to electric field.
                with respect to dipole field.
          Differentiating once with respect to nuclear coordinates.
 Keep R1 and R2 ints in memory in canonical form, NReq=71861349.
          There are    48 degrees of freedom in the 1st order CPHF.  IDoFFX=6 NUNeed=     3.
     45 vectors produced by pass  0 Test12= 1.11D-14 2.08D-09 XBig12= 8.64D+01 4.28D+00.
 AX will form    45 AO Fock derivatives at one time.
     45 vectors produced by pass  1 Test12= 1.11D-14 2.08D-09 XBig12= 1.45D+01 4.70D-01.
     45 vectors produced by pass  2 Test12= 1.11D-14 2.08D-09 XBig12= 4.05D-01 9.57D-02.
     45 vectors produced by pass  3 Test12= 1.11D-14 2.08D-09 XBig12= 3.13D-03 8.25D-03.
     45 vectors produced by pass  4 Test12= 1.11D-14 2.08D-09 XBig12= 3.00D-05 6.99D-04.
     45 vectors produced by pass  5 Test12= 1.11D-14 2.08D-09 XBig12= 3.06D-07 7.42D-05.
     34 vectors produced by pass  6 Test12= 1.11D-14 2.08D-09 XBig12= 2.34D-09 5.68D-06.
     13 vectors produced by pass  7 Test12= 1.11D-14 2.08D-09 XBig12= 1.58D-11 4.94D-07.
      3 vectors produced by pass  8 Test12= 1.11D-14 2.08D-09 XBig12= 8.16D-14 2.19D-08.
      1 vectors produced by pass  9 Test12= 1.11D-14 2.08D-09 XBig12= 6.92D-16 3.16D-09.
 InvSVY:  IOpt=1 It=  1 EMax= 8.88D-15
 Solved reduced A of dimension   321 with    48 vectors.
 Isotropic polarizability for W=    0.000000       70.97 Bohr**3.
 End of Minotr F.D. properties file   721 does not exist.
 End of Minotr F.D. properties file   722 does not exist.
 End of Minotr F.D. properties file   788 does not exist.

 **********************************************************************

            Population analysis using the SCF density.

 **********************************************************************

 Orbital symmetries:
 Alpha Orbitals:
       Occupied  (A) (A) (A) (A) (A) (A) (A) (A) (A) (A) (A) (A)
                 (A) (A) (A) (A) (A) (A) (A) (A) (A) (A) (A) (A)
                 (A) (A) (A) (A) (A) (A) (A)
       Virtual   (A) (A) (A) (A) (A) (A) (A) (A) (A) (A) (A) (A)
                 (A) (A) (A) (A) (A) (A) (A) (A) (A) (A) (A) (A)
                 (A) (A) (A) (A) (A) (A) (A) (A) (A) (A) (A) (A)
                 (A) (A) (A) (A) (A) (A) (A) (A) (A) (A) (A) (A)
                 (A) (A) (A) (A) (A) (A) (A) (A) (A) (A) (A) (A)
                 (A) (A) (A) (A) (A) (A) (A) (A) (A) (A) (A) (A)
                 (A) (A) (A) (A) (A) (A) (A) (A) (A) (A) (A) (A)
                 (A) (A) (A)
 Beta  Orbitals:
       Occupied  (A) (A) (A) (A) (A) (A) (A) (A) (A) (A) (A) (A)
                 (A) (A) (A) (A) (A) (A) (A) (A) (A) (A) (A) (A)
                 (A) (A) (A) (A) (A) (A)
       Virtual   (A) (A) (A) (A) (A) (A) (A) (A) (A) (A) (A) (A)
                 (A) (A) (A) (A) (A) (A) (A) (A) (A) (A) (A) (A)
                 (A) (A) (A) (A) (A) (A) (A) (A) (A) (A) (A) (A)
                 (A) (A) (A) (A) (A) (A) (A) (A) (A) (A) (A) (A)
                 (A) (A) (A) (A) (A) (A) (A) (A) (A) (A) (A) (A)
                 (A) (A) (A) (A) (A) (A) (A) (A) (A) (A) (A) (A)
                 (A) (A) (A) (A) (A) (A) (A) (A) (A) (A) (A) (A)
                 (A) (A) (A) (A)
 The electronic state is 2-A.
 Alpha  occ. eigenvalues --  -19.70571 -19.67410 -19.66410 -10.73102 -10.62916
 Alpha  occ. eigenvalues --  -10.61404 -10.60989 -10.54164  -1.28197  -1.18849
 Alpha  occ. eigenvalues --   -1.12306  -0.92258  -0.88358  -0.78717  -0.71503
 Alpha  occ. eigenvalues --   -0.64803  -0.62953  -0.59017  -0.57515  -0.53739
 Alpha  occ. eigenvalues --   -0.53245  -0.49919  -0.48229  -0.46296  -0.45113
 Alpha  occ. eigenvalues --   -0.41803  -0.40516  -0.39714  -0.38162  -0.36969
 Alpha  occ. eigenvalues --   -0.32720
 Alpha virt. eigenvalues --   -0.00535   0.01745   0.02352   0.03033   0.03732
 Alpha virt. eigenvalues --    0.04306   0.05583   0.05926   0.07701   0.07798
 Alpha virt. eigenvalues --    0.08871   0.08915   0.09917   0.11641   0.12111
 Alpha virt. eigenvalues --    0.13382   0.14006   0.14640   0.15399   0.16151
 Alpha virt. eigenvalues --    0.16867   0.19032   0.19452   0.20128   0.22706
 Alpha virt. eigenvalues --    0.23299   0.24191   0.24838   0.26197   0.27159
 Alpha virt. eigenvalues --    0.28230   0.29774   0.30351   0.31177   0.32256
 Alpha virt. eigenvalues --    0.33144   0.33358   0.35437   0.36084   0.36938
 Alpha virt. eigenvalues --    0.38516   0.40275   0.41113   0.42421   0.45092
 Alpha virt. eigenvalues --    0.46767   0.56942   0.58550   0.68609   0.69992
 Alpha virt. eigenvalues --    0.70894   0.72505   0.73810   0.75129   0.76971
 Alpha virt. eigenvalues --    0.80240   0.83018   0.83572   0.88520   0.89435
 Alpha virt. eigenvalues --    0.92723   0.96492   0.99972   1.06853   1.10799
 Alpha virt. eigenvalues --    1.12040   1.14140   1.16366   1.18044   1.20698
 Alpha virt. eigenvalues --    1.23238   1.24133   1.27836   1.28702   1.32504
 Alpha virt. eigenvalues --    1.36684   1.38573   1.40488   1.42124   1.45592
 Alpha virt. eigenvalues --    1.48198   1.53246   1.66159   1.71572   1.84243
 Alpha virt. eigenvalues --    2.01460   2.03036
  Beta  occ. eigenvalues --  -19.70571 -19.66432 -19.66245 -10.73051 -10.63054
  Beta  occ. eigenvalues --  -10.61403 -10.60570 -10.54165  -1.28189  -1.18874
  Beta  occ. eigenvalues --   -1.08238  -0.91351  -0.87803  -0.78374  -0.71074
  Beta  occ. eigenvalues --   -0.64618  -0.62203  -0.58817  -0.57251  -0.53688
  Beta  occ. eigenvalues --   -0.51333  -0.49122  -0.46760  -0.45249  -0.41743
  Beta  occ. eigenvalues --   -0.40776  -0.39517  -0.38296  -0.38047  -0.35582
  Beta virt. eigenvalues --   -0.10184   0.00781   0.01729   0.02361   0.03031
  Beta virt. eigenvalues --    0.03804   0.04403   0.05579   0.05865   0.07696
  Beta virt. eigenvalues --    0.07754   0.08813   0.08928   0.10088   0.11592
  Beta virt. eigenvalues --    0.12168   0.13624   0.14229   0.15212   0.15609
  Beta virt. eigenvalues --    0.16204   0.16786   0.18937   0.19919   0.20220
  Beta virt. eigenvalues --    0.22599   0.23544   0.24182   0.25046   0.26135
  Beta virt. eigenvalues --    0.27274   0.28192   0.29772   0.30418   0.31199
  Beta virt. eigenvalues --    0.32343   0.33154   0.33302   0.35375   0.36026
  Beta virt. eigenvalues --    0.36992   0.38529   0.40350   0.41006   0.42567
  Beta virt. eigenvalues --    0.45115   0.46737   0.57127   0.58602   0.68985
  Beta virt. eigenvalues --    0.70364   0.71695   0.72768   0.74185   0.76581
  Beta virt. eigenvalues --    0.77291   0.80230   0.82567   0.83488   0.88316
  Beta virt. eigenvalues --    0.89575   0.92552   0.96961   1.00152   1.06532
  Beta virt. eigenvalues --    1.10866   1.12072   1.14422   1.17346   1.18581
  Beta virt. eigenvalues --    1.20737   1.23875   1.24801   1.28145   1.29876
  Beta virt. eigenvalues --    1.32536   1.37044   1.39634   1.41045   1.43205
  Beta virt. eigenvalues --    1.45811   1.48516   1.53719   1.66516   1.71478
  Beta virt. eigenvalues --    1.85937   2.01396   2.03218
          Condensed to atoms (all electrons):
               1          2          3          4          5          6
     1  C   15.977468   0.515981  -4.329916  -6.169254  -0.060617  -0.012878
     2  H    0.515981   0.374185  -0.177935  -0.018774   0.000078   0.000090
     3  C   -4.329916  -0.177935  13.272222  -1.977198   0.040514  -0.583856
     4  C   -6.169254  -0.018774  -1.977198  14.022540   0.232838   0.061790
     5  O   -0.060617   0.000078   0.040514   0.232838   8.456782  -0.263765
     6  O   -0.012878   0.000090  -0.583856   0.061790  -0.263765   9.061255
     7  C   -0.092425   0.000162  -0.423528   0.360118   0.003766  -0.016521
     8  C    0.074715  -0.000032   0.094272  -0.280705  -0.056596   0.029085
     9  H   -0.003762  -0.000000  -0.017332   0.032532  -0.000160  -0.071828
    10  H   -0.003512   0.000000  -0.000623  -0.000217   0.002366  -0.033766
    11  H    0.000365   0.000000   0.003372   0.001249  -0.000107   0.008167
    12  H    0.000752   0.000000   0.005227  -0.002690  -0.000328  -0.001109
    13  H   -0.000780  -0.000000  -0.008190   0.009194   0.001606  -0.010386
    14  O   -0.400098  -0.000725   0.563492  -0.209639  -0.012019  -0.000579
    15  H    0.087373  -0.000260  -0.034548  -0.039466   0.000291   0.000452
               7          8          9         10         11         12
     1  C   -0.092425   0.074715  -0.003762  -0.003512   0.000365   0.000752
     2  H    0.000162  -0.000032  -0.000000   0.000000   0.000000   0.000000
     3  C   -0.423528   0.094272  -0.017332  -0.000623   0.003372   0.005227
     4  C    0.360118  -0.280705   0.032532  -0.000217   0.001249  -0.002690
     5  O    0.003766  -0.056596  -0.000160   0.002366  -0.000107  -0.000328
     6  O   -0.016521   0.029085  -0.071828  -0.033766   0.008167  -0.001109
     7  C    5.942269  -0.171770   0.427560   0.419740  -0.075856  -0.051180
     8  C   -0.171770   5.782233  -0.054470  -0.076446   0.403045   0.394754
     9  H    0.427560  -0.054470   0.501080  -0.033277  -0.000750  -0.004580
    10  H    0.419740  -0.076446  -0.033277   0.492789  -0.000722   0.003732
    11  H   -0.075856   0.403045  -0.000750  -0.000722   0.505945  -0.025501
    12  H   -0.051180   0.394754  -0.004580   0.003732  -0.025501   0.476565
    13  H   -0.045458   0.401844   0.003576  -0.004734  -0.023819  -0.025777
    14  O   -0.017057   0.014208   0.000041   0.000045   0.000044  -0.000197
    15  H    0.000449  -0.000014   0.000001   0.000002   0.000000   0.000003
              13         14         15
     1  C   -0.000780  -0.400098   0.087373
     2  H   -0.000000  -0.000725  -0.000260
     3  C   -0.008190   0.563492  -0.034548
     4  C    0.009194  -0.209639  -0.039466
     5  O    0.001606  -0.012019   0.000291
     6  O   -0.010386  -0.000579   0.000452
     7  C   -0.045458  -0.017057   0.000449
     8  C    0.401844   0.014208  -0.000014
     9  H    0.003576   0.000041   0.000001
    10  H   -0.004734   0.000045   0.000002
    11  H   -0.023819   0.000044   0.000000
    12  H   -0.025777  -0.000197   0.000003
    13  H    0.467754  -0.000376   0.000028
    14  O   -0.000376   8.402933   0.144860
    15  H    0.000028   0.144860   0.432644
          Atomic-Atomic Spin Densities.
               1          2          3          4          5          6
     1  C    0.956423   0.003238  -0.072819   0.028700   0.009777  -0.000324
     2  H    0.003238  -0.019373  -0.005883  -0.002215  -0.000007  -0.000008
     3  C   -0.072819  -0.005883  -0.424467   0.219408   0.015747   0.001606
     4  C    0.028700  -0.002215   0.219408  -0.267133  -0.023430  -0.005573
     5  O    0.009777  -0.000007   0.015747  -0.023430  -0.013698   0.000683
     6  O   -0.000324  -0.000008   0.001606  -0.005573   0.000683   0.001440
     7  C   -0.019702  -0.000041  -0.009448   0.020095  -0.001355   0.001077
     8  C    0.016247   0.000026   0.013968  -0.021216   0.001428  -0.001310
     9  H    0.000139   0.000000   0.000375  -0.000460  -0.000008   0.000127
    10  H   -0.000071  -0.000000  -0.000558   0.000530  -0.000150   0.000003
    11  H   -0.000039   0.000000  -0.000256   0.000298  -0.000005  -0.000028
    12  H   -0.000147  -0.000000  -0.000632   0.000768  -0.000016  -0.000052
    13  H   -0.000062  -0.000000  -0.000669   0.001036  -0.000061  -0.000104
    14  O   -0.252443  -0.000733  -0.025977   0.120137   0.000923   0.002294
    15  H    0.016177   0.000060  -0.002575  -0.009115  -0.000068   0.000094
               7          8          9         10         11         12
     1  C   -0.019702   0.016247   0.000139  -0.000071  -0.000039  -0.000147
     2  H   -0.000041   0.000026   0.000000  -0.000000   0.000000  -0.000000
     3  C   -0.009448   0.013968   0.000375  -0.000558  -0.000256  -0.000632
     4  C    0.020095  -0.021216  -0.000460   0.000530   0.000298   0.000768
     5  O   -0.001355   0.001428  -0.000008  -0.000150  -0.000005  -0.000016
     6  O    0.001077  -0.001310   0.000127   0.000003  -0.000028  -0.000052
     7  C    0.018754  -0.015184  -0.000039   0.000493  -0.000076   0.000449
     8  C   -0.015184   0.011365  -0.000068  -0.000306   0.000260  -0.000374
     9  H   -0.000039  -0.000068  -0.000089   0.000006   0.000001   0.000000
    10  H    0.000493  -0.000306   0.000006  -0.000112  -0.000008  -0.000001
    11  H   -0.000076   0.000260   0.000001  -0.000008  -0.000191  -0.000030
    12  H    0.000449  -0.000374   0.000000  -0.000001  -0.000030   0.000056
    13  H    0.000134  -0.000267  -0.000000   0.000003  -0.000006  -0.000003
    14  O    0.005131  -0.003749   0.000002   0.000007  -0.000003  -0.000033
    15  H   -0.000204   0.000209  -0.000000  -0.000000   0.000000  -0.000001
              13         14         15
     1  C   -0.000062  -0.252443   0.016177
     2  H   -0.000000  -0.000733   0.000060
     3  C   -0.000669  -0.025977  -0.002575
     4  C    0.001036   0.120137  -0.009115
     5  O   -0.000061   0.000923  -0.000068
     6  O   -0.000104   0.002294   0.000094
     7  C    0.000134   0.005131  -0.000204
     8  C   -0.000267  -0.003749   0.000209
     9  H   -0.000000   0.000002  -0.000000
    10  H    0.000003   0.000007  -0.000000
    11  H   -0.000006  -0.000003   0.000000
    12  H   -0.000003  -0.000033  -0.000001
    13  H    0.000038  -0.000003  -0.000002
    14  O   -0.000003   0.752423   0.001322
    15  H   -0.000002   0.001322  -0.025563
 Mulliken charges and spin densities:
               1          2
     1  C    0.416589   0.685093
     2  H    0.307228  -0.024938
     3  C   -0.425971  -0.292181
     4  C   -0.022318   0.061832
     5  O   -0.344649  -0.010239
     6  O   -0.166150  -0.000074
     7  C   -0.260266   0.000082
     8  C   -0.554122   0.001030
     9  H    0.221370  -0.000013
    10  H    0.234623  -0.000163
    11  H    0.204568  -0.000081
    12  H    0.230329  -0.000017
    13  H    0.235518   0.000034
    14  O   -0.484933   0.599300
    15  H    0.408185  -0.019664
 Sum of Mulliken charges =  -0.00000   1.00000
 Mulliken charges and spin densities with hydrogens summed into heavy atoms:
               1          2
     1  C    0.723817   0.660155
     3  C   -0.425971  -0.292181
     4  C   -0.022318   0.061832
     5  O   -0.344649  -0.010239
     6  O   -0.166150  -0.000074
     7  C    0.195727  -0.000094
     8  C    0.116292   0.000966
    14  O   -0.076748   0.579636
 APT charges:
               1
     1  C   -0.134288
     2  H    0.255214
     3  C   -0.354306
     4  C    1.419331
     5  O   -0.749624
     6  O   -0.924244
     7  C    0.500162
     8  C   -0.060575
     9  H   -0.002744
    10  H   -0.005035
    11  H    0.016176
    12  H    0.029262
    13  H    0.036782
    14  O   -0.256994
    15  H    0.230883
 Sum of APT charges =   0.00000
 APT charges with hydrogens summed into heavy atoms:
               1
     1  C    0.120926
     3  C   -0.354306
     4  C    1.419331
     5  O   -0.749624
     6  O   -0.924244
     7  C    0.492383
     8  C    0.021645
    14  O   -0.026111
 Electronic spatial extent (au):  <R**2>=           1058.1609
 Charge=              0.0000 electrons
 Dipole moment (field-independent basis, Debye):
    X=             -0.8524    Y=             -0.5851    Z=             -0.5743  Tot=              1.1827
 Quadrupole moment (field-independent basis, Debye-Ang):
   XX=            -29.0748   YY=            -50.2013   ZZ=            -52.1612
   XY=              0.7459   XZ=             -1.8337   YZ=              5.5816
 Traceless Quadrupole moment (field-independent basis, Debye-Ang):
   XX=             14.7376   YY=             -6.3889   ZZ=             -8.3487
   XY=              0.7459   XZ=             -1.8337   YZ=              5.5816
 Octapole moment (field-independent basis, Debye-Ang**2):
  XXX=            -35.6757  YYY=              0.4760  ZZZ=             -2.0043  XYY=              1.5614
  XXY=             -2.6993  XXZ=             -6.3114  XZZ=             -0.4252  YZZ=              7.3335
  YYZ=              3.1231  XYZ=             -6.9406
 Hexadecapole moment (field-independent basis, Debye-Ang**3):
 XXXX=           -742.9204 YYYY=           -264.4581 ZZZZ=           -177.4172 XXXY=             -0.7428
 XXXZ=             20.0566 YYYX=            -15.8694 YYYZ=             10.6601 ZZZX=            -10.1645
 ZZZY=              8.3099 XXYY=           -199.6031 XXZZ=           -181.0018 YYZZ=            -72.9284
 XXYZ=             20.8772 YYXZ=            -13.2135 ZZXY=             -7.7881
 N-N= 3.637031749118D+02 E-N=-1.710081195716D+03  KE= 4.177752343395D+02
  Exact polarizability:  86.013   7.745  69.766   3.945   2.506  57.145
 Approx polarizability:  89.479  10.845  74.145   7.251  -0.471  71.663
                          Isotropic Fermi Contact Couplings
        Atom                 a.u.       MegaHertz       Gauss      10(-4) cm-1
     1  C(13)              0.06926      77.86544      27.78433      25.97312
     2  H(1)              -0.01055     -47.14496     -16.82249     -15.72587
     3  C(13)             -0.01385     -15.56541      -5.55412      -5.19206
     4  C(13)              0.02717      30.54441      10.89900      10.18852
     5  O(17)             -0.00296       1.79356       0.63999       0.59827
     6  O(17)              0.00303      -1.83445      -0.65458      -0.61191
     7  C(13)              0.00008       0.09268       0.03307       0.03091
     8  C(13)             -0.00058      -0.65487      -0.23367      -0.21844
     9  H(1)               0.00004       0.16651       0.05941       0.05554
    10  H(1)              -0.00003      -0.14528      -0.05184      -0.04846
    11  H(1)              -0.00001      -0.04158      -0.01484      -0.01387
    12  H(1)               0.00002       0.08789       0.03136       0.02932
    13  H(1)               0.00002       0.07439       0.02654       0.02481
    14  O(17)              0.09352     -56.69434     -20.22995     -18.91120
    15  H(1)              -0.01078     -48.20007     -17.19899     -16.07781
 --------------------------------------------------------
       Center         ----  Spin Dipole Couplings  ----
                      3XX-RR        3YY-RR        3ZZ-RR
 --------------------------------------------------------
     1   Atom       -0.330538      0.561675     -0.231137
     2   Atom        0.046153     -0.010711     -0.035442
     3   Atom        0.112372     -0.062677     -0.049695
     4   Atom        0.015019      0.007185     -0.022204
     5   Atom        0.032745     -0.043459      0.010714
     6   Atom        0.005716     -0.009773      0.004057
     7   Atom        0.003428     -0.001149     -0.002279
     8   Atom        0.002754     -0.001292     -0.001462
     9   Atom        0.001360     -0.000646     -0.000713
    10   Atom        0.001349     -0.000123     -0.001226
    11   Atom        0.001507     -0.000702     -0.000806
    12   Atom        0.003574     -0.001749     -0.001825
    13   Atom        0.003145     -0.001592     -0.001552
    14   Atom       -0.654111      1.700912     -1.046801
    15   Atom        0.002727     -0.037855      0.035127
 --------------------------------------------------------
                        XY            XZ            YZ
 --------------------------------------------------------
     1   Atom       -0.105012     -0.038504      0.056869
     2   Atom        0.006851      0.024003      0.005319
     3   Atom       -0.004782      0.043140      0.004552
     4   Atom       -0.019064      0.009134     -0.001195
     5   Atom       -0.063848     -0.015317     -0.023489
     6   Atom       -0.014946     -0.009243      0.009169
     7   Atom       -0.002714     -0.000124      0.000115
     8   Atom       -0.001103      0.000095      0.000124
     9   Atom       -0.000839     -0.000783      0.000352
    10   Atom       -0.001187      0.000146     -0.000136
    11   Atom       -0.000226      0.000165      0.000023
    12   Atom        0.000191     -0.000749      0.000080
    13   Atom       -0.000875      0.001660     -0.000209
    14   Atom        1.144967      0.198461      0.462300
    15   Atom       -0.001500     -0.090847      0.031998
 --------------------------------------------------------


 ---------------------------------------------------------------------------------
              Anisotropic Spin Dipole Couplings in Principal Axis System
 ---------------------------------------------------------------------------------

       Atom             a.u.   MegaHertz   Gauss  10(-4) cm-1        Axes

              Baa    -0.3514   -47.151   -16.825   -15.728  0.9602  0.0941  0.2630
     1 C(13)  Bbb    -0.2271   -30.473   -10.874   -10.165 -0.2534 -0.1031  0.9619
              Bcc     0.5785    77.624    27.698    25.893 -0.1176  0.9902  0.0751
 
              Baa    -0.0423   -22.589    -8.060    -7.535 -0.2526 -0.1070  0.9616
     2 H(1)   Bbb    -0.0114    -6.056    -2.161    -2.020 -0.1472  0.9865  0.0711
              Bcc     0.0537    28.645    10.221     9.555  0.9563  0.1236  0.2649
 
              Baa    -0.0673    -9.030    -3.222    -3.012  0.1671  0.7746 -0.6099
     3 C(13)  Bbb    -0.0559    -7.503    -2.677    -2.503 -0.1755  0.6321  0.7547
              Bcc     0.1232    16.533     5.899     5.515  0.9702 -0.0190  0.2416
 
              Baa    -0.0247    -3.321    -1.185    -1.108 -0.2819 -0.1327  0.9502
     4 C(13)  Bbb    -0.0070    -0.935    -0.334    -0.312  0.5618  0.7800  0.2756
              Bcc     0.0317     4.256     1.519     1.420  0.7778 -0.6115  0.1453
 
              Baa    -0.0877     6.344     2.264     2.116  0.4775  0.8349  0.2737
     5 O(17)  Bbb     0.0186    -1.347    -0.481    -0.449 -0.1065 -0.2542  0.9613
              Bcc     0.0691    -4.997    -1.783    -1.667  0.8722 -0.4882 -0.0324
 
              Baa    -0.0194     1.400     0.500     0.467  0.4615  0.8727 -0.1596
     6 O(17)  Bbb    -0.0039     0.282     0.101     0.094  0.5583 -0.1459  0.8167
              Bcc     0.0233    -1.683    -0.600    -0.561  0.6894 -0.4660 -0.5546
 
              Baa    -0.0024    -0.326    -0.116    -0.109  0.3905  0.8579 -0.3339
     7 C(13)  Bbb    -0.0023    -0.304    -0.108    -0.101  0.1605  0.2937  0.9423
              Bcc     0.0047     0.630     0.225     0.210  0.9065 -0.4216 -0.0231
 
              Baa    -0.0017    -0.224    -0.080    -0.075  0.2108  0.7971 -0.5658
     8 C(13)  Bbb    -0.0014    -0.183    -0.065    -0.061  0.1286  0.5512  0.8244
              Bcc     0.0030     0.407     0.145     0.136  0.9690 -0.2466  0.0137
 
              Baa    -0.0010    -0.551    -0.197    -0.184  0.0269 -0.6397  0.7682
     9 H(1)   Bbb    -0.0009    -0.484    -0.173    -0.161  0.4508  0.6936  0.5618
              Bcc     0.0019     1.035     0.369     0.345  0.8922 -0.3312 -0.3070
 
              Baa    -0.0012    -0.663    -0.237    -0.221 -0.0008  0.1201  0.9928
    10 H(1)   Bbb    -0.0008    -0.415    -0.148    -0.139  0.4899  0.8655 -0.1043
              Bcc     0.0020     1.078     0.385     0.360  0.8718 -0.4863  0.0596
 
              Baa    -0.0008    -0.444    -0.158    -0.148 -0.0984 -0.3358  0.9368
    11 H(1)   Bbb    -0.0007    -0.379    -0.135    -0.126  0.0698  0.9367  0.3431
              Bcc     0.0015     0.822     0.293     0.274  0.9927 -0.0991  0.0687
 
              Baa    -0.0020    -1.055    -0.376    -0.352  0.1353 -0.4282  0.8935
    12 H(1)   Bbb    -0.0017    -0.910    -0.325    -0.304  0.0282  0.9031  0.4286
              Bcc     0.0037     1.965     0.701     0.655  0.9904  0.0328 -0.1343
 
              Baa    -0.0021    -1.116    -0.398    -0.372 -0.3244 -0.1795  0.9287
    13 H(1)   Bbb    -0.0017    -0.923    -0.329    -0.308  0.0986  0.9701  0.2220
              Bcc     0.0038     2.039     0.727     0.680  0.9408 -0.1636  0.2970
 
              Baa    -1.1315    81.874    29.215    27.310 -0.6184  0.1233  0.7761
    14 O(17)  Bbb    -1.1112    80.408    28.692    26.821  0.6921 -0.3824  0.6122
              Bcc     2.2427  -162.281   -57.906   -54.131  0.3723  0.9157  0.1512
 
              Baa    -0.0825   -44.002   -15.701   -14.677  0.6569 -0.4247  0.6230
    15 H(1)   Bbb    -0.0330   -17.624    -6.289    -5.879  0.4292  0.8900  0.1542
              Bcc     0.1155    61.626    21.990    20.556 -0.6200  0.1661  0.7669
 

 ---------------------------------------------------------------------------------

 Calling FoFJK, ICntrl=    100127 FMM=F ISym2X=0 I1Cent= 0 IOpClX= 1 NMat=1 NMatS=1 NMatT=0.
 Full mass-weighted force constant matrix:
 Low frequencies --- -703.2322 -460.0384 -133.6575  -86.1232  -55.9864  -42.5934
 Low frequencies ---   -0.0013   -0.0010   -0.0009
 ******    4 imaginary frequencies (negative Signs) ****** 
 Diagonal vibrational polarizability:
       58.3461717     412.7854881      59.8442847
 Harmonic frequencies (cm**-1), IR intensities (KM/Mole), Raman scattering
 activities (A**4/AMU), depolarization ratios for plane and unpolarized
 incident light, reduced masses (AMU), force constants (mDyne/A),
 and normal coordinates:
                      1                      2                      3
                      A                      A                      A
 Frequencies --   -703.2123              -459.1350               -80.8497
 Red. masses --     12.8096                 1.0777                 7.2165
 Frc consts  --      3.7321                 0.1338                 0.0278
 IR Inten    --     17.8534               112.7611                 6.8840
  Atom  AN      X      Y      Z        X      Y      Z        X      Y      Z
     1   6     0.06  -0.14  -0.00     0.00   0.00  -0.01     0.09   0.01  -0.32
     2   1     0.04  -0.00  -0.01    -0.00   0.04  -0.01     0.14   0.03  -0.50
     3   6     0.03   0.84   0.12     0.00   0.00  -0.00     0.02   0.00  -0.03
     4   6     0.00   0.01  -0.00    -0.00  -0.00  -0.01     0.02   0.04   0.01
     5   8    -0.02  -0.03  -0.01    -0.00   0.01   0.00     0.06   0.36   0.10
     6   8    -0.00  -0.01  -0.00     0.00  -0.01   0.00    -0.01  -0.20  -0.06
     7   6     0.00  -0.01  -0.00     0.00  -0.00   0.01    -0.00  -0.09  -0.06
     8   6    -0.00  -0.00  -0.00    -0.00   0.00   0.00    -0.06  -0.07  -0.06
     9   1     0.00   0.00  -0.00     0.01  -0.00   0.01    -0.00  -0.07  -0.06
    10   1     0.01  -0.01  -0.01     0.00   0.00   0.01     0.05  -0.08  -0.06
    11   1    -0.00  -0.01   0.00    -0.00   0.00   0.01    -0.05  -0.01  -0.11
    12   1    -0.00  -0.00   0.00    -0.00  -0.00   0.00    -0.12  -0.07  -0.04
    13   1    -0.00  -0.00  -0.00     0.00   0.00   0.01    -0.02  -0.11  -0.04
    14   8    -0.04  -0.48  -0.06    -0.05   0.01  -0.04    -0.08  -0.05   0.35
    15   1     0.06   0.01  -0.09     0.72  -0.21   0.66    -0.23  -0.29   0.26
                      4                      5                      6
                      A                      A                      A
 Frequencies --    -14.9125                27.2012               118.0795
 Red. masses --      2.8913                 3.2108                 2.6771
 Frc consts  --      0.0004                 0.0014                 0.0220
 IR Inten    --      2.3069                 4.3480                 6.3126
  Atom  AN      X      Y      Z        X      Y      Z        X      Y      Z
     1   6     0.00   0.11  -0.06     0.03  -0.08  -0.07    -0.06  -0.03   0.19
     2   1     0.01   0.19  -0.10     0.05  -0.15  -0.12    -0.12  -0.08   0.43
     3   6     0.01   0.01  -0.01    -0.01   0.01  -0.01     0.01   0.02  -0.11
     4   6    -0.01  -0.08   0.01    -0.01   0.05   0.03     0.01   0.03  -0.14
     5   8    -0.07  -0.12   0.01    -0.06  -0.06   0.00    -0.04   0.10  -0.09
     6   8     0.02  -0.09   0.03     0.02   0.15   0.07     0.08  -0.04  -0.10
     7   6     0.01   0.01   0.10     0.01  -0.07   0.06     0.06  -0.05   0.08
     8   6    -0.09   0.19  -0.17     0.23  -0.04  -0.15    -0.01  -0.01   0.06
     9   1     0.06  -0.20   0.15    -0.02  -0.30   0.07     0.18  -0.13   0.15
    10   1     0.02   0.16   0.31    -0.14   0.00   0.20    -0.04  -0.00   0.18
    11   1    -0.11   0.24   0.01     0.21  -0.24  -0.06    -0.07  -0.13   0.45
    12   1    -0.01   0.03  -0.44     0.46  -0.11  -0.34     0.32  -0.06  -0.15
    13   1    -0.24   0.45  -0.27     0.18   0.25  -0.21    -0.34   0.20  -0.13
    14   8     0.11  -0.02   0.08    -0.18   0.04   0.06    -0.03  -0.00   0.07
    15   1     0.10  -0.01   0.07    -0.20  -0.10   0.07    -0.09  -0.12   0.05
                      7                      8                      9
                      A                      A                      A
 Frequencies --    179.7707               195.5258               254.2814
 Red. masses --      1.4874                 6.0171                 3.7811
 Frc consts  --      0.0283                 0.1355                 0.1440
 IR Inten    --      2.2486                 0.4538                 3.2006
  Atom  AN      X      Y      Z        X      Y      Z        X      Y      Z
     1   6     0.01  -0.02  -0.06    -0.15  -0.07  -0.00    -0.11   0.31   0.02
     2   1     0.03  -0.01  -0.14    -0.19  -0.05   0.10    -0.15   0.77   0.03
     3   6    -0.02  -0.03   0.06    -0.10  -0.14  -0.13    -0.00  -0.10   0.01
     4   6    -0.01   0.00   0.04    -0.09   0.02  -0.05     0.03  -0.08   0.01
     5   8     0.08   0.02   0.01    -0.15   0.17   0.03     0.08   0.03   0.03
     6   8    -0.06   0.06  -0.00    -0.03   0.16   0.04     0.03  -0.01   0.02
     7   6    -0.06   0.02  -0.04    -0.04   0.07   0.03     0.05   0.04  -0.01
     8   6    -0.02  -0.02   0.02     0.17   0.02  -0.03     0.10   0.02   0.01
     9   1    -0.07   0.05  -0.05    -0.07  -0.01   0.02     0.02   0.07  -0.02
    10   1    -0.08  -0.00  -0.07    -0.11   0.07   0.05     0.08   0.03  -0.03
    11   1    -0.10  -0.31   0.52     0.21  -0.02  -0.37     0.09  -0.08   0.06
    12   1     0.49  -0.02  -0.17     0.01   0.06   0.09     0.20   0.04   0.01
    13   1    -0.43   0.20  -0.20     0.47  -0.03   0.12     0.07   0.05  -0.00
    14   8     0.07  -0.04  -0.02     0.30  -0.26   0.06    -0.17  -0.20  -0.07
    15   1     0.11   0.06  -0.00     0.34  -0.10   0.07    -0.21  -0.16  -0.11
                     10                     11                     12
                      A                      A                      A
 Frequencies --    307.6076               423.5059               542.4358
 Red. masses --      2.9594                 3.5678                 1.4576
 Frc consts  --      0.1650                 0.3770                 0.2527
 IR Inten    --     14.3255                 6.3177                24.0415
  Atom  AN      X      Y      Z        X      Y      Z        X      Y      Z
     1   6    -0.01   0.02  -0.03     0.07   0.05   0.04     0.07  -0.14   0.02
     2   1     0.00   0.05  -0.10     0.03   0.16   0.15    -0.03   0.96   0.05
     3   6    -0.03  -0.03   0.07     0.12  -0.04  -0.10     0.06   0.01  -0.03
     4   6     0.00   0.04  -0.04     0.07   0.07   0.04    -0.00  -0.04  -0.01
     5   8     0.21   0.02  -0.11    -0.07   0.01   0.07    -0.02   0.01   0.01
     6   8    -0.04   0.11  -0.07     0.07   0.22   0.09    -0.04   0.01  -0.02
     7   6    -0.08  -0.11   0.19     0.04  -0.14  -0.09    -0.06   0.02   0.01
     8   6    -0.07  -0.02   0.01    -0.20  -0.10  -0.07     0.00   0.00   0.00
     9   1     0.09  -0.40   0.31    -0.02  -0.13  -0.12    -0.03  -0.02   0.04
    10   1    -0.37   0.00   0.43    -0.04  -0.18  -0.12    -0.09   0.04   0.04
    11   1    -0.03   0.15  -0.25    -0.21   0.27   0.12     0.00  -0.08  -0.05
    12   1    -0.34  -0.11  -0.01    -0.42  -0.20  -0.13     0.04   0.03   0.02
    13   1     0.14  -0.00   0.11    -0.42  -0.21  -0.16     0.06   0.03   0.03
    14   8     0.01  -0.04  -0.01    -0.01  -0.07  -0.01     0.01   0.04   0.00
    15   1     0.03   0.07  -0.01    -0.04  -0.23  -0.01    -0.05  -0.07  -0.02
                     13                     14                     15
                      A                      A                      A
 Frequencies --    562.3248               613.6728               712.3907
 Red. masses --      2.6578                 6.1129                 8.9685
 Frc consts  --      0.4952                 1.3564                 2.6817
 IR Inten    --     36.5261                13.6816                38.0709
  Atom  AN      X      Y      Z        X      Y      Z        X      Y      Z
     1   6    -0.11  -0.11  -0.05     0.24   0.11   0.07    -0.02  -0.02  -0.00
     2   1    -0.11   0.52  -0.28     0.39  -0.15  -0.38    -0.08   0.38   0.09
     3   6    -0.17  -0.02   0.18     0.15  -0.14   0.36    -0.00  -0.10  -0.08
     4   6    -0.01   0.05  -0.03     0.06   0.05  -0.10     0.06   0.73   0.21
     5   8    -0.03   0.01  -0.04    -0.30   0.03  -0.01    -0.00  -0.17  -0.08
     6   8     0.11   0.02   0.02    -0.01   0.02  -0.22    -0.02  -0.20  -0.04
     7   6     0.18  -0.06  -0.03    -0.04   0.03  -0.00    -0.05   0.01   0.01
     8   6     0.00  -0.01  -0.01     0.01   0.00   0.02    -0.00   0.02   0.02
     9   1     0.11   0.02  -0.08     0.16  -0.15   0.11    -0.05   0.09   0.00
    10   1     0.21  -0.09  -0.10    -0.24   0.09   0.15     0.07   0.01  -0.03
    11   1    -0.01   0.25   0.13     0.01  -0.10  -0.04     0.00  -0.14  -0.05
    12   1    -0.14  -0.08  -0.06     0.06   0.07   0.09     0.11   0.05   0.03
    13   1    -0.16  -0.09  -0.08     0.08  -0.02   0.06     0.11   0.08   0.06
    14   8     0.00   0.01   0.01    -0.03  -0.10  -0.03     0.02  -0.12  -0.00
    15   1     0.11   0.51   0.01     0.05   0.28  -0.02    -0.01  -0.28   0.00
                     16                     17                     18
                      A                      A                      A
 Frequencies --    726.2598               779.2486               816.6219
 Red. masses --      1.2183                 1.3601                 1.3046
 Frc consts  --      0.3786                 0.4866                 0.5126
 IR Inten    --     65.8248                64.0088                 8.4166
  Atom  AN      X      Y      Z        X      Y      Z        X      Y      Z
     1   6     0.05   0.01  -0.12    -0.00   0.00   0.07     0.05   0.01   0.01
     2   1    -0.22  -0.02   0.86     0.11  -0.01  -0.33     0.05   0.00   0.01
     3   6     0.01  -0.02   0.03     0.05  -0.01  -0.13     0.03  -0.01   0.03
     4   6     0.01  -0.00   0.00     0.01   0.00   0.01    -0.04   0.00  -0.05
     5   8    -0.01  -0.00   0.01     0.01  -0.00   0.01    -0.01   0.02  -0.06
     6   8    -0.00  -0.00  -0.00     0.00  -0.01   0.02     0.01  -0.00   0.05
     7   6    -0.01   0.00  -0.00    -0.04   0.01   0.00    -0.04  -0.03   0.08
     8   6    -0.00  -0.00  -0.00    -0.01  -0.01  -0.01    -0.01  -0.02   0.02
     9   1     0.00  -0.01   0.01    -0.03   0.01   0.01    -0.12   0.52  -0.04
    10   1    -0.02   0.01   0.01    -0.02   0.01   0.01     0.15  -0.30  -0.39
    11   1    -0.00  -0.02  -0.01    -0.01  -0.07  -0.04     0.01   0.02  -0.18
    12   1     0.01   0.01   0.01     0.03   0.01  -0.00    -0.04  -0.27  -0.33
    13   1     0.01  -0.00   0.00     0.03   0.01   0.01     0.12   0.43   0.03
    14   8    -0.02  -0.01   0.01    -0.04  -0.03   0.03    -0.00  -0.01  -0.00
    15   1     0.09   0.43   0.02     0.20   0.89   0.06    -0.00  -0.00  -0.01
                     19                     20                     21
                      A                      A                      A
 Frequencies --    894.9704               940.7355              1105.7536
 Red. masses --      3.2478                 2.4961                 4.2014
 Frc consts  --      1.5327                 1.3015                 3.0266
 IR Inten    --     22.4052                 5.5202                13.1411
  Atom  AN      X      Y      Z        X      Y      Z        X      Y      Z
     1   6     0.08   0.02   0.02     0.09   0.02   0.03     0.07   0.01   0.02
     2   1     0.09   0.01   0.01     0.10   0.02   0.03     0.07   0.01   0.04
     3   6     0.04  -0.03   0.07     0.06  -0.02  -0.02     0.04  -0.01  -0.03
     4   6    -0.11   0.02  -0.11    -0.14   0.01  -0.00    -0.17   0.01   0.05
     5   8     0.01   0.06  -0.18     0.01   0.02  -0.07     0.02  -0.00  -0.01
     6   8     0.08  -0.05   0.25    -0.16  -0.02   0.03    -0.18   0.02  -0.05
     7   6    -0.07   0.06  -0.01     0.06  -0.11  -0.04     0.29   0.20   0.16
     8   6    -0.06  -0.02  -0.09     0.16   0.11   0.06    -0.04  -0.21  -0.12
     9   1    -0.28  -0.21  -0.07    -0.21  -0.21  -0.15     0.30   0.31   0.15
    10   1     0.20   0.29   0.25    -0.02  -0.14  -0.06     0.38   0.26   0.19
    11   1    -0.09  -0.35   0.03     0.14   0.67   0.39    -0.05  -0.14  -0.06
    12   1     0.13   0.29   0.31    -0.18   0.02   0.06    -0.10  -0.25  -0.14
    13   1    -0.06  -0.43  -0.03    -0.22  -0.09  -0.09    -0.12  -0.32  -0.15
    14   8     0.00  -0.01  -0.00    -0.01  -0.02   0.00    -0.00  -0.01   0.00
    15   1    -0.02  -0.05  -0.01     0.02   0.07   0.00     0.01   0.03   0.00
                     22                     23                     24
                      A                      A                      A
 Frequencies --   1158.1310              1228.2029              1322.5175
 Red. masses --      2.0584                 1.7454                 2.0884
 Frc consts  --      1.6267                 1.5512                 2.1522
 IR Inten    --     17.7144                 6.5325               319.2188
  Atom  AN      X      Y      Z        X      Y      Z        X      Y      Z
     1   6    -0.02  -0.00  -0.01    -0.02  -0.00  -0.01    -0.04  -0.01  -0.01
     2   1    -0.02  -0.00  -0.01    -0.02  -0.00  -0.01    -0.05  -0.01  -0.02
     3   6    -0.01   0.00   0.01    -0.00   0.00  -0.00    -0.00   0.01   0.01
     4   6     0.06   0.00  -0.01     0.08  -0.00  -0.01     0.23   0.00  -0.08
     5   8    -0.00  -0.00   0.00    -0.01  -0.01   0.03    -0.03   0.01  -0.02
     6   8     0.07  -0.05   0.01    -0.00   0.02  -0.06    -0.13  -0.00   0.04
     7   6    -0.14   0.18   0.03    -0.05  -0.06   0.17     0.08   0.03   0.01
     8   6     0.11  -0.13  -0.02     0.03   0.04  -0.12    -0.02  -0.03   0.07
     9   1    -0.13   0.04   0.06    -0.42   0.32  -0.04    -0.68  -0.31  -0.28
    10   1    -0.30   0.13   0.01     0.31  -0.23  -0.19     0.28   0.21   0.22
    11   1     0.09   0.52   0.22    -0.03  -0.05   0.27     0.00   0.01  -0.12
    12   1    -0.37  -0.35  -0.16    -0.01   0.30   0.28     0.02  -0.18  -0.16
    13   1    -0.32  -0.13  -0.22    -0.09  -0.45  -0.11     0.04   0.18   0.07
    14   8    -0.00   0.00  -0.00    -0.00   0.00   0.00    -0.00   0.01   0.00
    15   1    -0.00  -0.01  -0.00    -0.00   0.00  -0.00     0.00   0.01  -0.00
                     25                     26                     27
                      A                      A                      A
 Frequencies --   1367.7705              1441.1208              1458.7972
 Red. masses --      1.6946                 1.3770                 1.2504
 Frc consts  --      1.8678                 1.6849                 1.5678
 IR Inten    --    244.1280                28.1503                20.1566
  Atom  AN      X      Y      Z        X      Y      Z        X      Y      Z
     1   6     0.02   0.00   0.01    -0.01  -0.00  -0.00     0.00   0.00   0.00
     2   1     0.03   0.01   0.02    -0.02  -0.00  -0.01     0.00   0.00   0.00
     3   6    -0.00  -0.00  -0.00     0.00   0.00   0.00    -0.00  -0.00  -0.00
     4   6    -0.14  -0.00   0.06     0.08  -0.00  -0.02    -0.02  -0.00   0.01
     5   8     0.02  -0.01   0.03    -0.01   0.01  -0.02     0.00  -0.00   0.00
     6   8     0.10   0.04  -0.10    -0.06   0.01   0.04     0.01  -0.00  -0.01
     7   6    -0.07  -0.02  -0.02    -0.08  -0.08  -0.05     0.03   0.03   0.02
     8   6     0.01  -0.03   0.05     0.03  -0.04  -0.02    -0.06  -0.11  -0.06
     9   1    -0.40  -0.18  -0.15     0.53   0.36   0.19    -0.13  -0.11  -0.04
    10   1     0.73   0.30   0.22     0.48   0.28   0.29    -0.13  -0.08  -0.10
    11   1     0.02   0.07  -0.03     0.03   0.22   0.12    -0.05   0.51   0.19
    12   1    -0.05  -0.11  -0.06    -0.02   0.09   0.17     0.34   0.30   0.35
    13   1    -0.00   0.18   0.02     0.01   0.17  -0.04     0.34   0.41   0.08
    14   8     0.00  -0.00  -0.00    -0.00   0.00   0.00     0.00  -0.00  -0.00
    15   1    -0.00  -0.00   0.00     0.00   0.00  -0.00     0.00   0.00   0.00
                     28                     29                     30
                      A                      A                      A
 Frequencies --   1526.4182              1536.8111              1545.2016
 Red. masses --      1.0411                 1.0535                 1.0904
 Frc consts  --      1.4292                 1.4660                 1.5340
 IR Inten    --     15.2196                 2.6194                26.8595
  Atom  AN      X      Y      Z        X      Y      Z        X      Y      Z
     1   6    -0.00  -0.00  -0.00     0.00   0.00   0.00     0.00   0.00   0.00
     2   1    -0.00  -0.00   0.00     0.00   0.00   0.00     0.01   0.00   0.00
     3   6     0.00  -0.00   0.00    -0.00   0.00  -0.00    -0.00  -0.00  -0.00
     4   6     0.00  -0.00   0.00    -0.01   0.00  -0.00    -0.02   0.00  -0.00
     5   8    -0.00   0.00  -0.00     0.00  -0.00   0.01     0.00  -0.00   0.01
     6   8    -0.00  -0.00   0.00     0.01  -0.00  -0.00     0.02  -0.00  -0.01
     7   6     0.01   0.02  -0.01     0.00  -0.03  -0.02     0.05  -0.05  -0.01
     8   6     0.02   0.01  -0.04    -0.04   0.02  -0.01     0.02  -0.02  -0.00
     9   1     0.01  -0.10  -0.00    -0.12   0.37  -0.12    -0.26   0.46  -0.21
    10   1     0.01  -0.00  -0.04    -0.20   0.18   0.32    -0.38   0.15   0.39
    11   1    -0.08  -0.36   0.57    -0.05   0.17   0.28     0.03  -0.16  -0.14
    12   1    -0.55  -0.09   0.05     0.22  -0.17  -0.37    -0.21   0.13   0.29
    13   1     0.36   0.26   0.11     0.39  -0.35   0.23    -0.23   0.30  -0.15
    14   8    -0.00  -0.00   0.00     0.00  -0.00   0.00    -0.00  -0.00  -0.00
    15   1    -0.00   0.00  -0.00    -0.00  -0.00  -0.00     0.00  -0.00   0.00
                     31                     32                     33
                      A                      A                      A
 Frequencies --   1913.0434              2070.8386              3108.7242
 Red. masses --     11.9604                 6.6525                 1.0351
 Frc consts  --     25.7896                16.8085                 5.8937
 IR Inten    --    318.5542                69.5166                11.5834
  Atom  AN      X      Y      Z        X      Y      Z        X      Y      Z
     1   6    -0.12  -0.02  -0.03    -0.39  -0.07  -0.10    -0.00  -0.00  -0.00
     2   1    -0.19  -0.04  -0.03    -0.66  -0.12  -0.19    -0.00  -0.00  -0.00
     3   6     0.14   0.01   0.02     0.55   0.00   0.14     0.00   0.00   0.00
     4   6     0.16  -0.23   0.72    -0.12   0.06  -0.10     0.00   0.00  -0.00
     5   8    -0.15   0.16  -0.47     0.02  -0.02   0.05     0.00   0.00   0.00
     6   8     0.04   0.02  -0.07    -0.01  -0.00   0.00    -0.00  -0.00   0.00
     7   6     0.02  -0.01   0.01     0.00   0.00  -0.00     0.00   0.00   0.00
     8   6    -0.01   0.01   0.00    -0.00  -0.00  -0.00    -0.02  -0.04  -0.02
     9   1    -0.14   0.07  -0.08     0.02  -0.01   0.00    -0.00  -0.00  -0.00
    10   1    -0.12  -0.02   0.08     0.01   0.00  -0.01     0.00  -0.01   0.00
    11   1    -0.00  -0.03  -0.05     0.00   0.00   0.00     0.63  -0.04   0.08
    12   1     0.03   0.01  -0.01    -0.00  -0.00  -0.00    -0.13   0.44  -0.32
    13   1    -0.03  -0.05   0.00     0.01   0.00   0.00    -0.23   0.04   0.47
    14   8    -0.00   0.02   0.00     0.00   0.03   0.01     0.00  -0.00  -0.00
    15   1     0.02   0.01   0.02    -0.00   0.03  -0.01    -0.00  -0.00   0.00
                     34                     35                     36
                      A                      A                      A
 Frequencies --   3139.4727              3190.4471              3191.1438
 Red. masses --      1.0602                 1.1036                 1.0993
 Frc consts  --      6.1566                 6.6187                 6.5954
 IR Inten    --     21.1220                 0.1778                19.3574
  Atom  AN      X      Y      Z        X      Y      Z        X      Y      Z
     1   6    -0.00  -0.00  -0.00     0.00   0.00   0.00     0.00   0.00   0.00
     2   1     0.00   0.00   0.00     0.00  -0.00   0.00     0.00   0.00   0.00
     3   6     0.00  -0.00  -0.00     0.00  -0.00   0.00    -0.00  -0.00  -0.00
     4   6    -0.00  -0.00   0.00    -0.00   0.00   0.00     0.00   0.00  -0.00
     5   8    -0.00   0.00  -0.00     0.00  -0.00   0.00     0.00  -0.00   0.00
     6   8     0.00   0.00  -0.00     0.00   0.00  -0.00     0.00  -0.00   0.00
     7   6     0.03  -0.06  -0.00     0.02   0.02  -0.06    -0.01   0.01   0.00
     8   6    -0.01   0.01  -0.00    -0.02  -0.02   0.06    -0.08   0.04  -0.01
     9   1    -0.23   0.05   0.50    -0.25   0.07   0.54     0.04  -0.01  -0.09
    10   1    -0.13   0.66  -0.47     0.07  -0.32   0.22     0.02  -0.08   0.06
    11   1     0.11  -0.01   0.01     0.07  -0.01   0.02     0.74  -0.03   0.09
    12   1     0.01  -0.06   0.04    -0.10   0.34  -0.23     0.10  -0.43   0.31
    13   1     0.01   0.00  -0.03     0.24  -0.06  -0.49     0.13  -0.02  -0.32
    14   8     0.00  -0.00  -0.00     0.00   0.00   0.00    -0.00   0.00   0.00
    15   1     0.00   0.00   0.00     0.00  -0.00  -0.00     0.00  -0.00  -0.00
                     37                     38                     39
                      A                      A                      A
 Frequencies --   3212.7929              3506.6129              3846.6665
 Red. masses --      1.1054                 1.1421                 1.0673
 Frc consts  --      6.7225                 8.2743                 9.3052
 IR Inten    --     16.5601                65.6930                26.3219
  Atom  AN      X      Y      Z        X      Y      Z        X      Y      Z
     1   6    -0.00   0.00  -0.00    -0.10  -0.01  -0.03    -0.00  -0.00  -0.00
     2   1     0.00  -0.00   0.00     0.96   0.08   0.26     0.00   0.00   0.00
     3   6     0.00  -0.00   0.00     0.02   0.00   0.01     0.00   0.00   0.00
     4   6    -0.00   0.00  -0.00    -0.00   0.00  -0.00     0.00   0.00  -0.00
     5   8     0.00  -0.00   0.00     0.00  -0.00  -0.00    -0.00   0.00  -0.00
     6   8    -0.00   0.00  -0.00     0.00  -0.00  -0.00    -0.00  -0.00   0.00
     7   6     0.01   0.02  -0.06    -0.00  -0.00   0.00     0.00   0.00   0.00
     8   6     0.02   0.03  -0.06     0.00  -0.00   0.00    -0.00   0.00  -0.00
     9   1    -0.23   0.07   0.52     0.00  -0.00  -0.00    -0.00   0.00   0.00
    10   1     0.06  -0.32   0.21     0.00   0.00   0.00    -0.00  -0.00   0.00
    11   1    -0.05   0.01  -0.02     0.00   0.00   0.00     0.00  -0.00   0.00
    12   1     0.11  -0.37   0.25    -0.00   0.00  -0.00    -0.00  -0.00   0.00
    13   1    -0.24   0.06   0.49    -0.00  -0.00   0.00     0.00   0.00  -0.00
    14   8    -0.00  -0.00   0.00     0.00   0.00   0.00     0.04  -0.01  -0.05
    15   1     0.00  -0.00  -0.00     0.00  -0.00  -0.00    -0.64   0.14   0.75

 -------------------
 - Thermochemistry -
 -------------------
 Temperature   298.150 Kelvin.  Pressure   1.00000 Atm.
 Atom     1 has atomic number  6 and mass  12.00000
 Atom     2 has atomic number  1 and mass   1.00783
 Atom     3 has atomic number  6 and mass  12.00000
 Atom     4 has atomic number  6 and mass  12.00000
 Atom     5 has atomic number  8 and mass  15.99491
 Atom     6 has atomic number  8 and mass  15.99491
 Atom     7 has atomic number  6 and mass  12.00000
 Atom     8 has atomic number  6 and mass  12.00000
 Atom     9 has atomic number  1 and mass   1.00783
 Atom    10 has atomic number  1 and mass   1.00783
 Atom    11 has atomic number  1 and mass   1.00783
 Atom    12 has atomic number  1 and mass   1.00783
 Atom    13 has atomic number  1 and mass   1.00783
 Atom    14 has atomic number  8 and mass  15.99491
 Atom    15 has atomic number  1 and mass   1.00783
 Molecular mass:   115.03952 amu.
 Principal axes and moments of inertia in atomic units:
                           1         2         3
     Eigenvalues --   487.710091376.408131505.39930
           X            0.99993   0.01151  -0.00025
           Y           -0.01145   0.99618   0.08660
           Z            0.00124  -0.08659   0.99624
 This molecule is an asymmetric top.
 Rotational symmetry number  1.
 Warning -- assumption of classical behavior for rotation
           may cause significant error
 Rotational temperatures (Kelvin)      0.17759     0.06293     0.05754
 Rotational constants (GHZ):           3.70044     1.31120     1.19885
    4 imaginary frequencies ignored.
 Zero-point vibrational energy     292876.3 (Joules/Mol)
                                   69.99912 (Kcal/Mol)
 Warning -- explicit consideration of  10 degrees of freedom as
           vibrations may cause significant error
 Vibrational temperatures:     39.14   169.89   258.65   281.32   365.85
          (Kelvin)            442.58   609.33   780.44   809.06   882.94
                             1024.97  1044.93  1121.16  1174.94  1287.66
                             1353.51  1590.93  1666.29  1767.11  1902.81
                             1967.92  2073.45  2098.88  2196.18  2211.13
                             2223.20  2752.44  2979.47  4472.76  4517.00
                             4590.34  4591.34  4622.49  5045.23  5534.50
 
 Zero-point correction=                           0.111551 (Hartree/Particle)
 Thermal correction to Energy=                    0.119410
 Thermal correction to Enthalpy=                  0.120354
 Thermal correction to Gibbs Free Energy=         0.077334
 Sum of electronic and zero-point Energies=           -419.842610
 Sum of electronic and thermal Energies=              -419.834751
 Sum of electronic and thermal Enthalpies=            -419.833807
 Sum of electronic and thermal Free Energies=         -419.876827
 
                     E (Thermal)             CV                S
                      KCal/Mol        Cal/Mol-Kelvin    Cal/Mol-Kelvin
 Total                   74.931             26.902             90.543
 Electronic               0.000              0.000              1.377
 Translational            0.889              2.981             40.136
 Rotational               0.889              2.981             28.404
 Vibrational             73.153             20.940             20.626
 Vibration     1          0.593              1.984              6.024
 Vibration     2          0.608              1.934              3.132
 Vibration     3          0.629              1.867              2.331
 Vibration     4          0.636              1.846              2.175
 Vibration     5          0.665              1.756              1.701
 Vibration     6          0.697              1.659              1.375
 Vibration     7          0.786              1.419              0.880
 Vibration     8          0.898              1.156              0.560
 Vibration     9          0.918              1.113              0.519
 Vibration    10          0.973              1.003              0.427
                       Q            Log10(Q)             Ln(Q)
 Total Bot       0.268470D-35        -35.571105        -81.905495
 Total V=0       0.547787D+16         15.738611         36.239492
 Vib (Bot)       0.769157D-49        -49.113985       -113.089130
 Vib (Bot)    1  0.761274D+01          0.881541          2.029824
 Vib (Bot)    2  0.173144D+01          0.238407          0.548953
 Vib (Bot)    3  0.111735D+01          0.048188          0.110958
 Vib (Bot)    4  0.102152D+01          0.009245          0.021287
 Vib (Bot)    5  0.765973D+00         -0.115786         -0.266608
 Vib (Bot)    6  0.615571D+00         -0.210722         -0.485204
 Vib (Bot)    7  0.413495D+00         -0.383530         -0.883110
 Vib (Bot)    8  0.291407D+00         -0.535500         -1.233035
 Vib (Bot)    9  0.275766D+00         -0.559459         -1.288203
 Vib (Bot)   10  0.239893D+00         -0.619982         -1.427561
 Vib (V=0)       0.156939D+03          2.195731          5.055858
 Vib (V=0)    1  0.812915D+01          0.910045          2.095456
 Vib (V=0)    2  0.230219D+01          0.362141          0.833860
 Vib (V=0)    3  0.172412D+01          0.236567          0.544716
 Vib (V=0)    4  0.163732D+01          0.214133          0.493060
 Vib (V=0)    5  0.141472D+01          0.150671          0.346932
 Vib (V=0)    6  0.129305D+01          0.111615          0.257004
 Vib (V=0)    7  0.114883D+01          0.060255          0.138743
 Vib (V=0)    8  0.107872D+01          0.032909          0.075776
 Vib (V=0)    9  0.107101D+01          0.029792          0.068598
 Vib (V=0)   10  0.105457D+01          0.023076          0.053134
 Electronic      0.200000D+01          0.301030          0.693147
 Translational   0.484981D+08          7.685724         17.697035
 Rotational      0.359854D+06          5.556126         12.793453
 ***** Axes restored to original set *****
 -------------------------------------------------------------------
 Center     Atomic                   Forces (Hartrees/Bohr)
 Number     Number              X              Y              Z
 -------------------------------------------------------------------
      1        6          -0.015444454   -0.005055415   -0.004219112
      2        1          -0.000536562   -0.000600968   -0.000362852
      3        6           0.021024155    0.015849739    0.006660056
      4        6          -0.041901664    0.016790369   -0.030165187
      5        8           0.015555758   -0.016516250    0.044976769
      6        8           0.002543426    0.001865465   -0.015255417
      7        6           0.017766214   -0.001417372   -0.003440746
      8        6           0.000272981    0.000147662    0.000040548
      9        1           0.000422462   -0.000156951   -0.000610667
     10        1           0.000634605   -0.001194786    0.001047114
     11        1           0.001356573    0.000339194    0.000523936
     12        1          -0.000375735    0.001005010   -0.000472005
     13        1          -0.000299182    0.000760749    0.001549898
     14        8           0.010034229   -0.016679890   -0.012964348
     15        1          -0.011052807    0.004863445    0.012692013
 -------------------------------------------------------------------
 Cartesian Forces:  Max     0.044976769 RMS     0.013284794

 GradGradGradGradGradGradGradGradGradGradGradGradGradGradGradGradGradGrad
 Berny optimization.
 Search for a local minimum.
 Step number   1 out of a maximum of    2
 All quantities printed in internal units (Hartrees-Bohrs-Radians)
 Second derivative matrix not updated -- analytic derivatives used.
 ITU=  0
     Eigenvalues ---   -0.24436  -0.01167  -0.00349  -0.00015   0.00019
     Eigenvalues ---    0.00120   0.00370   0.00792   0.01274   0.01779
     Eigenvalues ---    0.02811   0.03305   0.03626   0.05056   0.05994
     Eigenvalues ---    0.06760   0.07687   0.08785   0.10259   0.10543
     Eigenvalues ---    0.12239   0.14887   0.17617   0.18052   0.20956
     Eigenvalues ---    0.24531   0.29700   0.42768   0.49873   0.64070
     Eigenvalues ---    0.71987   0.77830   0.80512   0.88765   0.94643
     Eigenvalues ---    0.96419   1.00647   1.87271   2.31643
 Eigenvalue     1 is  -2.44D-01 should be greater than     0.000000 Eigenvector:
                          Y3        Y14       Y1        Z3        X14
   1                    0.80351  -0.55905  -0.12523   0.10448  -0.06906
                          Z15       X15       Z14       X1        X3
   1                   -0.04978   0.04344  -0.04303   0.04047   0.02637
 Eigenvalue     2 is  -1.17D-02 should be greater than     0.000000 Eigenvector:
                          X15       Z15       X14       Z14       Y15
   1                    0.63310   0.61382  -0.29263  -0.23608  -0.22069
                          Y5        Y14       Z12       Y13       Y1
   1                    0.09643   0.06367   0.04779  -0.04408  -0.04128
 Eigenvalue     3 is  -3.49D-03 should be greater than     0.000000 Eigenvector:
                          Y5        Z14       Y6        Z2        Y13
   1                    0.59642   0.28790  -0.27053  -0.25468  -0.23128
                          X15       Z1        Z10       Y15       X12
   1                   -0.21498  -0.18662  -0.17804  -0.17610  -0.14941
 Eigenvalue     4 is  -1.53D-04 should be greater than     0.000000 Eigenvector:
                          Z12       Z2        Y13       Z14       X12
   1                    0.35309   0.34292  -0.28582  -0.27265  -0.26490
                          Y9        Z15       X15       Z13       Z10
   1                    0.26045  -0.25450   0.22459   0.21726  -0.21726
 Quadratic step=1.294D+00 exceeds max=3.000D-01 adjusted using Lamda=-1.034D-03.
 Angle between NR and scaled steps=  39.26 degrees.
 Angle between quadratic step and forces=  70.90 degrees.
 Linear search not attempted -- first point.
 B after Tr=     0.000990   -0.014421    0.004938
         Rot=    1.000000   -0.000498   -0.000327    0.000238 Ang=  -0.07 deg.
 Variable       Old X    -DE/DX   Delta X   Delta X   Delta X     New X
                                 (Linear)    (Quad)   (Total)
    X1       -5.14350  -0.01544   0.00000  -0.04324  -0.04323  -5.18672
    Y1       -0.89598  -0.00506   0.00000   0.02890   0.01781  -0.87817
    Z1       -0.84465  -0.00422   0.00000  -0.02774  -0.02027  -0.86492
    X2       -7.08073  -0.00054   0.00000  -0.04043  -0.04085  -7.12158
    Y2       -1.05674  -0.00060   0.00000   0.03377   0.02415  -1.03259
    Z2       -1.37146  -0.00036   0.00000  -0.05267  -0.04409  -1.41556
    X3       -2.95084   0.02102   0.00000  -0.02145  -0.02078  -2.97161
    Y3       -0.39503   0.01585   0.00000   0.04581   0.03304  -0.36199
    Z3       -0.25568   0.00666   0.00000   0.02106   0.02759  -0.22809
    X4       -0.30917  -0.04190   0.00000  -0.05200  -0.05122  -0.36039
    Y4       -1.01501   0.01679   0.00000  -0.02064  -0.03531  -1.05033
    Z4        0.42690  -0.03017   0.00000   0.00318   0.00733   0.43423
    X5        0.31164   0.01556   0.00000  -0.00552  -0.00369   0.30795
    Y5       -1.69048  -0.01652   0.00000  -0.01932  -0.03642  -1.72690
    Z5        2.49494   0.04498   0.00000   0.04563   0.04867   2.54361
    X6        1.20514   0.00254   0.00000  -0.00307  -0.00343   1.20171
    Y6       -0.64127   0.00187   0.00000  -0.06008  -0.07352  -0.71479
    Z6       -1.53159  -0.01526   0.00000  -0.01930  -0.01584  -1.54743
    X7        3.87941   0.01777   0.00000   0.05275   0.05269   3.93210
    Y7       -0.80294  -0.00142   0.00000   0.00015  -0.01511  -0.81805
    Z7       -1.01958  -0.00344   0.00000  -0.01166  -0.01009  -1.02967
    X8        4.80114   0.00027   0.00000  -0.01997  -0.01805   4.78310
    Y8        1.59399   0.00015   0.00000   0.03229   0.01535   1.60935
    Z8        0.24905   0.00004   0.00000  -0.00832  -0.00489   0.24416
    X9        4.72781   0.00042   0.00000   0.03332   0.03192   4.75973
    Y9       -1.06455  -0.00016   0.00000   0.01853   0.00474  -1.05981
    Z9       -2.87465  -0.00061   0.00000  -0.02347  -0.02269  -2.89734
   X10        4.23300   0.00063   0.00000   0.07616   0.07607   4.30907
   Y10       -2.46785  -0.00119   0.00000   0.00653  -0.01008  -2.47793
   Z10        0.14216   0.00105   0.00000  -0.00350  -0.00383   0.13833
   X11        6.84557   0.00136   0.00000  -0.01272  -0.01064   6.83493
   Y11        1.49777   0.00034   0.00000   0.10087   0.08270   1.58047
   Z11        0.50878   0.00052   0.00000  -0.00491  -0.00284   0.50593
   X12        4.35517  -0.00038   0.00000  -0.07444  -0.07250   4.28267
   Y12        3.23572   0.00101   0.00000   0.02307   0.00753   3.24325
   Z12       -0.91417  -0.00047   0.00000  -0.00581  -0.00042  -0.91460
   X13        3.91655  -0.00030   0.00000  -0.02577  -0.02254   3.89401
   Y13        1.82315   0.00076   0.00000   0.00747  -0.01089   1.81226
   Z13        2.09573   0.00155   0.00000  -0.00309   0.00113   2.09685
   X14       -2.56030   0.01003   0.00000   0.08404   0.08660  -2.47369
   Y14        3.13034  -0.01668   0.00000  -0.11007  -0.12352   3.00682
   Z14        0.17424  -0.01296   0.00000   0.03097   0.04053   0.21477
   X15       -3.73484  -0.01105   0.00000   0.03596   0.03964  -3.69519
   Y15        3.39685   0.00486   0.00000   0.13373   0.11953   3.51637
   Z15        1.55212   0.01269   0.00000  -0.01114  -0.00027   1.55185
         Item               Value     Threshold  Converged?
 Maximum Force            0.044977     0.000450     NO 
 RMS     Force            0.013285     0.000300     NO 
 Maximum Displacement     0.123517     0.001800     NO 
 RMS     Displacement     0.043891     0.001200     NO 
 Predicted change in Energy=-6.403836D-03
 GradGradGradGradGradGradGradGradGradGradGradGradGradGradGradGradGradGrad


 ----------------------------------------------------------------------

 Electric dipole moment (input orientation):
 (Debye = 10**-18 statcoulomb cm , SI units = C m)
                  (au)            (Debye)         (10**-30 SI)
   Tot        0.465330D+00      0.118275D+01      0.394523D+01
   x         -0.335554D+00     -0.852893D+00     -0.284495D+01
   y         -0.231943D+00     -0.589540D+00     -0.196649D+01
   z         -0.223914D+00     -0.569133D+00     -0.189842D+01

 Dipole polarizability, Alpha (input orientation).
 (esu units = cm**3 , SI units = C**2 m**2 J**-1)
 Alpha(0;0):
               (au)            (10**-24 esu)      (10**-40 SI)
   iso        0.709749D+02      0.105174D+02      0.117022D+02
   aniso      0.295603D+02      0.438038D+01      0.487383D+01
   xx         0.860232D+02      0.127473D+02      0.141833D+02
   yx         0.777120D+01      0.115157D+01      0.128130D+01
   yy         0.697999D+02      0.103433D+02      0.115085D+02
   zx         0.387180D+01      0.573742D+00      0.638374D+00
   zy         0.239528D+01      0.354944D+00      0.394928D+00
   zz         0.571016D+02      0.846159D+01      0.941479D+01

 ----------------------------------------------------------------------

 Dipole orientation:
     6         -2.51127212         -0.92347610          4.56206784
     1         -3.34950030         -1.52237586          6.29265965
     6         -1.63465464         -0.51474531          2.44781449
     6         -0.26216563          0.98251996          0.52345853
     8         -1.18667332          2.72615471         -0.58266244
     8          2.04211676          0.06273462          0.18759367
     6          3.44754967          1.10145509         -1.90664510
     6          2.54921507         -0.03740806         -4.37651783
     1          5.39930005          0.60039934         -1.49538556
     1          3.24328252          3.15196852         -1.89076565
     1          3.71196714          0.66825001         -5.92779735
     1          2.70023075         -2.09178075         -4.31350252
     1          0.58790793          0.47768465         -4.74146718
     8         -2.54673394         -3.13971291          0.20209816
     1         -4.36720283         -2.95973800          0.25320530

 Electric dipole moment (dipole orientation):
 (Debye = 10**-18 statcoulomb cm , SI units = C m)
                  (au)            (Debye)         (10**-30 SI)
   Tot        0.465330D+00      0.118275D+01      0.394523D+01
   x          0.000000D+00      0.000000D+00      0.000000D+00
   y          0.000000D+00      0.000000D+00      0.000000D+00
   z          0.465330D+00      0.118275D+01      0.394523D+01

 Dipole polarizability, Alpha (dipole orientation).
 (esu units = cm**3 , SI units = C**2 m**2 J**-1)
 Alpha(0;0):
               (au)            (10**-24 esu)      (10**-40 SI)
   iso        0.709749D+02      0.105174D+02      0.117022D+02
   aniso      0.295603D+02      0.438038D+01      0.487383D+01
   xx         0.647958D+02      0.960175D+01      0.106834D+02
   yx         0.418692D+01      0.620438D+00      0.690330D+00
   yy         0.634107D+02      0.939650D+01      0.104550D+02
   zx        -0.112068D+02     -0.166067D+01     -0.184775D+01
   zy         0.245110D+01      0.363215D+00      0.404131D+00
   zz         0.847183D+02      0.125540D+02      0.139682D+02

 ----------------------------------------------------------------------
 1\1\GINC-AJ\Freq\UM062X\6-31+G\C5H7O3(2)\AAYUSH\20-Jun-2025\0\\# freq 
 6-31+g m062x\\Title Card Required\\0,2\C,-2.721821,-0.474132,-0.446967
 \H,-3.746961,-0.559202,-0.725747\C,-1.561515,-0.209041,-0.135302\C,-0.
 163608,-0.537122,0.225906\O,0.164913,-0.894566,1.320268\O,0.637734,-0.
 339346,-0.810483\C,2.052897,-0.424898,-0.539537\C,2.540655,0.843505,0.
 13179\H,2.501851,-0.563334,-1.5212\H,2.240006,-1.305932,0.075226\H,3.6
 22521,0.792587,0.269233\H,2.304658,1.712267,-0.48376\H,2.07255,0.96477
 1,1.10901\O,-1.35485,1.656504,0.092205\H,-1.97639,1.797533,0.821345\\V
 ersion=ES64L-G16RevA.03\State=2-A\HF=-419.9541607\S2=0.78461\S2-1=0.\S
 2A=0.75047\RMSD=3.805e-09\RMSF=1.328e-02\ZeroPoint=0.1115507\Thermal=0
 .1194097\Dipole=-0.3355541,-0.2319429,-0.2239143\DipoleDeriv=-0.229930
 9,0.4228008,0.0458417,0.0298189,-0.0276837,0.0312027,0.0489331,0.13323
 19,-0.1452486,0.2673728,0.0139004,0.005754,0.0425278,0.2375049,0.00399
 03,-0.0024278,-0.0068394,0.2607628,-0.3568005,-0.4212557,-0.0926539,-0
 .0218191,-0.6079236,-0.0743564,-0.1142,-0.1113156,-0.0981947,2.0243635
 ,-0.2953979,-0.1456151,-0.0972881,0.6451248,-0.3447188,-0.4923314,-0.4
 489844,1.5885036,-0.7764481,0.1553902,-0.1637463,0.0366265,-0.4729468,
 0.2273412,0.049897,0.3059066,-0.999476,-1.5466449,-0.0496478,0.3766272
 ,-0.0714585,-0.383927,0.0425178,0.5031085,0.0867159,-0.8421609,0.90272
 37,0.0695008,-0.0983267,0.008402,0.3125342,0.0693099,0.0313258,0.01020
 72,0.2852267,-0.0878373,-0.0262313,0.0351245,-0.0501528,-0.0765196,-0.
 0846143,-0.0316047,-0.0539918,-0.0173683,-0.0102177,-0.0012238,0.03207
 77,-0.0065611,0.0736791,-0.0303945,0.076748,-0.0554606,-0.0716921,-0.0
 088255,-0.0346326,0.0203459,0.0264392,-0.0560412,0.0332364,-0.0673974,
 0.0738264,0.0497631,-0.1458157,-0.009659,-0.0273029,0.018648,0.0835234
 ,0.0028465,-0.0265337,-0.0113056,0.1108216,0.1105188,0.0515838,-0.0409
 828,0.0029638,-0.0383734,0.0447352,-0.0298831,0.0805164,0.0156408,0.09
 09585,0.0214883,0.0876834,-0.0053885,0.0556203,0.0009923,0.0682668,-0.
 0310357,-0.0362331,-0.4081271,0.1916942,-0.1533499,0.0884276,-0.068962
 9,0.0713482,-0.1619937,-0.023239,-0.2938921,0.1747106,-0.0883105,0.118
 5231,-0.0011856,0.3243914,0.0065636,0.1480927,0.0517677,0.1935471\Pola
 r=86.0232388,7.7712008,69.7999216,3.8718021,2.3952783,57.1016451\Quadr
 upole=10.9566778,-4.6809389,-6.2757389,0.5371482,-1.3715623,4.1374647\
 PG=C01 [X(C5H7O3)]\NImag=4\\1.26731664,0.18625033,0.06482954,0.3265891
 1,0.04984339,0.13729895,-0.40152579,-0.03595573,-0.10207616,0.39134383
 ,-0.02359963,-0.01539329,-0.00621507,0.03293866,0.01215778,-0.10162055
 ,-0.00935860,-0.05438396,0.10221655,0.00904675,0.04397468,-0.85891317,
 -0.14428892,-0.21904120,0.00969902,-0.01015262,0.00129847,1.16288028,-
 0.04418966,0.01424224,-0.00625351,0.00192112,-0.00091901,0.00049683,-0
 .00597545,-0.13100845,-0.21071021,-0.03103625,-0.08835621,0.00101178,-
 0.00275695,0.00586536,0.25069599,-0.03221365,0.19195802,0.01125249,0.0
 0858421,0.00047960,-0.00078969,0.00056052,-0.00173749,-0.23017646,0.01
 532139,-0.03865592,0.65214582,-0.03387087,-0.00832579,-0.00917390,-0.0
 0022792,0.00405746,-0.00041795,0.05512241,-0.03282083,0.01497750,-0.07
 873079,0.26936225,-0.00448332,0.00010574,0.00313932,-0.00119057,0.0003
 9468,0.00502668,-0.02556455,0.00430674,-0.06945468,0.09321827,-0.24898
 188,0.99124699,-0.00318591,-0.00035749,0.00032695,0.00010365,-0.000160
 72,0.00138795,-0.02077781,0.01961942,-0.04887090,-0.15379550,0.0720910
 4,-0.20585268,0.15163100,0.00374186,0.00156107,0.00099066,0.00012969,-
 0.00066328,-0.00053392,0.01301904,0.00710526,0.01909480,0.06621978,-0.
 12648415,0.21225931,-0.08023122,0.09793856,0.00038752,0.00041517,0.001
 10459,-0.00006601,-0.00026961,0.00014688,-0.03048313,0.01574862,-0.025
 11581,-0.19610737,0.21242536,-0.69973456,0.21251617,-0.26118887,0.8201
 8385,-0.00692925,-0.00030241,-0.00172266,0.00091292,0.00029902,-0.0012
 0475,-0.05464675,0.00265510,0.03631466,-0.21384259,-0.02400029,0.13966
 433,0.02405100,-0.00503570,0.02432172,0.54753649,0.00113915,0.00082073
 ,-0.00033370,-0.00003781,-0.00037744,0.00015180,0.00499912,0.00745963,
 0.00002819,-0.01676437,-0.06678044,0.03842633,-0.01009112,0.02213469,0
 .03160863,0.00985583,0.09512884,0.00153689,0.00034571,0.00008330,-0.00
 004253,-0.00022651,-0.00059261,0.00443578,0.00011595,0.00249974,0.1008
 8072,0.03730620,-0.23261798,0.03414600,0.03116339,-0.09842021,-0.12504
 095,-0.07717280,0.40886031,0.00198068,0.00027869,0.00059066,-0.0003127
 9,-0.00001344,0.00004784,0.00287128,-0.00358375,-0.00013304,-0.0613151
 3,-0.00230744,0.02762594,-0.00008403,0.00561959,-0.01757223,-0.1981738
 5,0.01223383,-0.01103937,0.48505128,0.00185050,0.00064685,0.00058534,0
 .00002626,-0.00014042,0.00008843,0.00010300,0.00283906,0.00067066,-0.0
 0614872,0.00443369,-0.00868230,0.00257113,-0.00532143,0.00121854,0.016
 11272,-0.06555892,0.01159721,-0.02339783,0.56581841,0.00096010,-0.0001
 3674,0.00052061,-0.00002173,0.00000147,0.00023551,0.00422100,0.0017928
 3,-0.00340082,0.04204538,-0.00479494,0.00483555,0.00176607,-0.00081128
 ,-0.00222354,-0.04588130,0.01069598,-0.08616041,-0.06618805,-0.0389461
 5,0.63635078,0.00009609,0.00010180,0.00005733,0.00008777,-0.00001409,-
 0.00000388,-0.00044889,0.00109128,0.00068315,0.00223665,-0.00112675,-0
 .00940370,0.00072296,-0.00148286,0.00274145,-0.03863727,-0.03605497,-0
 .01863485,-0.08299430,-0.02027436,-0.00708764,0.59108740,0.00023125,-0
 .00006727,0.00007860,-0.00000991,-0.00000003,-0.00001327,-0.00043317,-
 0.00016627,-0.00019660,-0.00040098,-0.00056968,0.00405365,-0.00121246,
 -0.00025669,-0.00164823,-0.00017696,0.00526026,-0.00244417,-0.03226438
 ,-0.18548831,-0.04933035,-0.03033212,0.53411880,0.00012550,0.00004739,
 0.00000936,0.00001407,-0.00002123,0.00000488,-0.00047959,0.00030580,0.
 00009326,0.00157903,0.00097858,0.00235147,-0.00121742,-0.00155334,-0.0
 0045251,-0.00819036,-0.00535759,-0.00104097,-0.01217924,-0.04817293,-0
 .11412456,-0.01556384,-0.03628780,0.58353198,-0.00063201,0.00002220,-0
 .00020704,0.00003781,0.00002506,-0.00005771,-0.00110222,-0.00041729,0.
 00108908,-0.00447457,0.00352093,-0.00476193,0.00155709,-0.00045366,0.0
 0087658,-0.03523404,0.00187731,0.03441580,-0.08720353,0.01416618,0.094
 68372,0.00699140,-0.00213275,-0.01152121,0.11511423,0.00001079,0.00002
 805,0.00003475,0.00000659,-0.00000097,0.00000472,0.00020864,0.00004720
 ,-0.00013818,-0.00000798,-0.00047294,0.00252754,-0.00155461,0.00055954
 ,-0.00036401,0.00298629,0.00091173,-0.00289560,0.01385205,-0.05782159,
 -0.02706430,0.01116044,-0.00499429,-0.02939168,-0.01336311,0.05928371,
 -0.00005769,0.00005321,-0.00003125,-0.00000936,-0.00000626,-0.00003383
 ,-0.00005623,-0.00039374,0.00027215,-0.00334570,0.00066793,-0.00033937
 ,0.00133456,-0.00039987,0.00076662,-0.00816441,0.00193338,0.00801632,0
 .10948281,-0.02847951,-0.28676581,0.00460224,-0.00118954,-0.01169261,-
 0.10983099,0.03370102,0.30334551,-0.00040830,0.00006021,-0.00009086,0.
 00003078,0.00002048,-0.00004292,0.00010674,-0.00051686,0.00027006,0.00
 252690,0.00352315,-0.00852309,0.00063396,-0.00114242,0.00368114,-0.029
 01056,0.03104930,-0.02184542,-0.05551018,0.02811085,-0.01652542,0.0042
 3267,-0.01047333,0.00675704,0.00461007,-0.01163060,0.00743009,0.072943
 00,-0.00017538,-0.00007616,-0.00005953,-0.00000650,0.00001369,0.000019
 74,0.00003336,0.00006430,-0.00023951,-0.00015331,-0.00030208,0.0035369
 2,-0.00251684,0.00061430,-0.00102663,0.00341697,0.00188869,0.00015558,
 0.03718396,-0.23100460,0.12453727,0.00297739,-0.02344983,0.01603061,-0
 .00131240,0.00477625,-0.00373124,-0.03771375,0.24907400,-0.00003860,-0
 .00002021,0.00001329,0.00002616,0.00000917,0.00000697,-0.00022632,0.00
 042318,-0.00005653,0.00272827,-0.00008644,-0.00016105,0.00134881,-0.00
 085688,-0.00064811,-0.00690067,0.00300258,-0.00265502,-0.02538784,0.12
 775962,-0.14239458,0.00277286,-0.01615676,0.00982652,-0.00456695,0.024
 62253,-0.01496348,0.03069813,-0.13679529,0.15099797,-0.00004883,0.0000
 1985,0.00000916,0.00003229,0.00001497,0.00000769,-0.00008124,0.0001280
 4,-0.00000556,0.00166060,0.00060003,-0.00124731,-0.00009339,-0.0004344
 3,0.00041170,-0.00031918,-0.00284149,-0.00028923,-0.01109901,0.0040232
 2,0.00029909,-0.31837570,0.01275584,-0.03424624,0.00029296,-0.00009293
 ,-0.00038707,0.00015605,-0.00046305,0.00021056,0.34808952,-0.00019119,
 -0.00000461,-0.00004709,0.00001271,-0.00001141,-0.00000618,0.00003278,
 0.00046175,0.00027991,0.00085584,-0.00018734,-0.00280444,0.00029592,-0
 .00034276,0.00094290,-0.00582347,-0.00551834,-0.00235179,-0.02897537,0
 .00289528,-0.00237442,0.01526483,-0.05009469,0.00145409,0.00061028,0.0
 0117623,-0.00002662,0.00058113,0.00048067,0.00113269,-0.01385301,0.051
 72052,-0.00008270,-0.00001596,-0.00001775,0.00000567,0.00000317,-0.000
 00025,-0.00002178,0.00005538,0.00008824,0.00034300,-0.00006965,-0.0025
 1530,0.00047148,0.00027595,0.00101172,-0.00351591,-0.00363447,-0.00021
 708,-0.01501476,0.00255952,-0.00216293,-0.03286415,0.00085072,-0.05213
 634,0.00038766,0.00061285,-0.00017158,0.00023488,0.00028163,0.00045417
 ,0.03845118,0.00028100,0.05298246,-0.00014681,-0.00004245,-0.00004625,
 -0.00002989,-0.00001780,-0.00000276,0.00021956,0.00023348,0.00000941,-
 0.00049197,-0.00071212,0.00162107,-0.00046172,0.00002448,-0.00075023,0
 .00203103,0.00083798,0.00045188,0.00117716,-0.01236572,0.00547114,-0.0
 6285498,0.05007534,-0.03406163,0.00006437,0.00084796,0.00021503,-0.000
 24846,-0.00215510,-0.00108075,-0.00633342,0.02758113,-0.01961239,0.063
 28500,-0.00011555,-0.00002524,-0.00004208,-0.00000521,-0.00000389,0.00
 000414,-0.00000221,0.00009632,0.00003780,-0.00005531,-0.00056229,0.000
 79375,-0.00019567,0.00023704,-0.00049005,0.00133376,0.00324264,0.00032
 174,0.00672108,-0.02792801,0.01747300,0.04701180,-0.22171127,0.1246533
 2,0.00022131,0.00111453,-0.00000455,-0.00195518,-0.00315687,-0.0035731
 9,-0.00077085,-0.00004848,0.00001208,-0.05161837,0.24537179,0.00023382
 ,0.00004243,0.00004719,0.00000173,0.00001037,0.00000605,-0.00017148,-0
 .00044810,-0.00002330,-0.00059035,0.00052759,-0.00029067,0.00056832,0.
 00034681,0.00029357,0.00210867,0.00113210,0.00017690,0.00250250,-0.017
 58393,0.00967599,-0.03441215,0.12762510,-0.14226939,0.00057827,0.00050
 730,0.00094726,-0.00170437,-0.00302930,-0.00112011,0.00045180,0.002359
 70,-0.00261787,0.03887489,-0.13593323,0.15110880,0.00007500,-0.0000145
 2,-0.00002642,-0.00003005,-0.00001796,-0.00000080,0.00005883,-0.000006
 76,0.00002710,-0.00118229,-0.00063004,-0.00076861,-0.00047855,-0.00051
 019,0.00046336,0.00147268,0.00123948,0.00043485,0.00469196,-0.00385921
 ,-0.01311491,-0.10195926,0.01437780,0.10892520,-0.00008356,-0.00242701
 ,-0.00131043,0.00000896,0.00083774,0.00047856,-0.01367688,0.00348259,0
 .03119950,0.00348352,-0.00064755,-0.00829381,0.10721010,0.00025438,0.0
 0005125,0.00002961,-0.00000550,0.00000400,-0.00000838,-0.00024035,-0.0
 0053367,0.00012360,-0.00147456,0.00096346,-0.00260929,0.00092062,-0.00
 036018,0.00159752,0.00028044,0.00157874,0.00270917,0.01474080,-0.00577
 586,-0.03153263,0.01121071,-0.05248179,-0.02270537,-0.00262869,-0.0046
 5412,-0.00202201,0.00052074,0.00116638,0.00035637,0.00082755,-0.000585
 45,-0.00121172,-0.01261310,0.00341257,0.02437366,-0.01172278,0.0572505
 6,-0.00016850,-0.00007678,-0.00005781,-0.00001922,-0.00000691,-0.00001
 541,0.00018053,0.00009425,0.00011208,-0.00078788,-0.00051028,-0.001491
 92,0.00085288,0.00090742,0.00070703,-0.00067521,0.00092577,0.00107609,
 0.00751148,-0.00277670,-0.01449330,0.10719844,-0.02547672,-0.27381639,
 -0.00101297,-0.00221044,0.00062768,-0.00039474,0.00036265,0.00067115,-
 0.00363045,0.00115218,0.00520480,0.00896494,-0.00318743,-0.01588644,-0
 .11825608,0.03097226,0.29722768,-0.01179545,-0.01421653,-0.00519072,0.
 00041999,0.00069197,-0.00029876,-0.00782417,0.02085530,0.01279865,-0.0
 0229903,0.00684269,-0.00415151,0.00027531,0.00067911,0.00107302,-0.000
 00567,0.00156787,0.00145392,0.00085304,-0.00076993,-0.00058927,-0.0001
 5771,0.00010341,-0.00012686,0.00004946,0.00002954,0.00011943,-0.000052
 51,0.00001067,-0.00004766,-0.00021296,0.00009616,0.00006812,0.00020525
 ,0.00002506,-0.00012954,0.00047602,-0.00010139,0.00026655,0.23744343,-
 0.09016265,-0.05659127,-0.02903527,0.00144753,0.00132528,0.00068683,0.
 07668240,0.13669491,0.04272761,0.01077822,-0.03937896,-0.00188006,0.00
 096321,0.00299887,-0.00000218,-0.00050242,0.00023195,0.00094300,-0.000
 43044,0.00233298,0.00027841,0.00056194,-0.00009799,0.00013228,-0.00006
 473,0.00006241,-0.00010651,-0.00044551,-0.00007380,0.00022487,0.000111
 33,0.00007807,-0.00000282,-0.00008125,-0.00004307,0.00000459,-0.000180
 40,-0.00010653,-0.00017752,-0.05132130,-0.02600297,-0.00937749,-0.0091
 6800,0.00069512,0.00017605,0.00041978,-0.00006228,0.01223136,0.0089405
 9,-0.01417934,-0.00352014,-0.00229620,-0.00190948,0.00222285,0.0001430
 8,0.00398627,0.00036693,-0.00146747,0.00043534,-0.00052584,0.00007417,
 -0.00000502,-0.00000653,0.00010346,-0.00034285,-0.00001252,0.00005621,
 0.00004502,0.00009237,-0.00001425,0.00003225,-0.00004839,0.00008194,0.
 00013040,0.00001103,-0.00001403,-0.00012117,0.00028952,-0.00015374,0.0
 0021149,-0.26447680,0.05258440,0.30734265,0.00286461,-0.00013924,0.000
 34850,0.00002014,-0.00057441,0.00001114,-0.00186499,-0.00713536,-0.004
 52426,-0.00145523,-0.00009402,0.00381766,-0.00009806,-0.00014309,-0.00
 149369,0.00079503,0.00098987,-0.00086351,0.00006742,-0.00014808,-0.000
 03818,-0.00002682,-0.00010757,0.00018555,0.00001254,-0.00002606,-0.000
 02229,-0.00001911,0.00003623,-0.00001456,0.00000917,0.00002966,-0.0000
 4981,0.00010136,0.00005289,-0.00001830,-0.00006647,0.00003113,-0.00002
 977,-0.21737500,0.05264408,0.26257760,0.21703541,-0.00117333,-0.001696
 08,-0.00040220,-0.00023400,-0.00004848,-0.00016092,0.01089198,-0.00356
 244,-0.01135891,0.00141605,-0.00293234,-0.00144670,-0.00014122,0.00027
 916,0.00103285,-0.00109888,-0.00042276,0.00043292,0.00034264,0.0000728
 7,0.00021186,-0.00009503,-0.00000095,-0.00011212,-0.00007064,-0.000015
 74,0.00000429,0.00001179,-0.00001496,-0.00004224,-0.00002507,-0.000019
 45,0.00000230,0.00000554,0.00000422,0.00006493,0.00007880,0.00007065,0
 .00000824,0.03550738,-0.02142988,-0.04928994,-0.04541602,0.02971616,-0
 .00329388,-0.00104050,-0.00006474,-0.00002643,-0.00038284,-0.00017868,
 0.00298112,0.00702884,-0.00030217,0.00347059,-0.00055192,0.00191499,-0
 .00100105,0.00016272,-0.00160578,-0.00148009,0.00006127,0.00055628,0.0
 0027915,0.00008803,0.00011251,-0.00007874,0.00003193,0.00005813,-0.000
 05979,-0.00000272,-0.00002263,-0.00003690,-0.00002865,-0.00000343,0.00
 001308,-0.00007386,-0.00003268,-0.00006538,-0.00005126,0.00007319,-0.0
 0004704,0.00008097,-0.00007674,0.25923144,-0.06637763,-0.29625840,-0.2
 5988607,0.06105564,0.29583015\\0.01544445,0.00505542,0.00421911,0.0005
 3656,0.00060097,0.00036285,-0.02102416,-0.01584974,-0.00666006,0.04190
 166,-0.01679037,0.03016519,-0.01555576,0.01651625,-0.04497677,-0.00254
 343,-0.00186547,0.01525542,-0.01776621,0.00141737,0.00344075,-0.000272
 98,-0.00014766,-0.00004055,-0.00042246,0.00015695,0.00061067,-0.000634
 61,0.00119479,-0.00104711,-0.00135657,-0.00033919,-0.00052394,0.000375
 73,-0.00100501,0.00047200,0.00029918,-0.00076075,-0.00154990,-0.010034
 23,0.01667989,0.01296435,0.01105281,-0.00486344,-0.01269201\\\@


      LET US REMEMBER, PLEASE, THAT THE SEARCH FOR THE CONSTITUTION
      OF THE WORLD IS ONE OF THE GREATEST AND NOBLEST PROBLEMS PRESENTED 
      BY NATURE.

                                                  -- GALILEO
 Job cpu time:       0 days  0 hours 19 minutes 19.5 seconds.
 Elapsed time:       0 days  0 hours  0 minutes 48.4 seconds.
 File lengths (MBytes):  RWF=     59 Int=      0 D2E=      0 Chk=      8 Scr=      1
 Normal termination of Gaussian 16 at Fri Jun 20 14:08:13 2025.
