 Entering Gaussian System, Link 0=g16
 Initial command:
 /opt/g16/l1.exe "/home/aayush/scratches/g16/Gau-71930.inp" -scrdir="/home/aayush/scratches/g16/"
 Entering Link 1 = /opt/g16/l1.exe PID=     71933.
  
 Copyright (c) 1988,1990,1992,1993,1995,1998,2003,2009,2016,
            Gaussian, Inc.  All Rights Reserved.
  
 This is part of the Gaussian(R) 16 program.  It is based on
 the Gaussian(R) 09 system (copyright 2009, Gaussian, Inc.),
 the Gaussian(R) 03 system (copyright 2003, Gaussian, Inc.),
 the Gaussian(R) 98 system (copyright 1998, Gaussian, Inc.),
 the Gaussian(R) 94 system (copyright 1995, Gaussian, Inc.),
 the Gaussian 92(TM) system (copyright 1992, Gaussian, Inc.),
 the Gaussian 90(TM) system (copyright 1990, Gaussian, Inc.),
 the Gaussian 88(TM) system (copyright 1988, Gaussian, Inc.),
 the Gaussian 86(TM) system (copyright 1986, Carnegie Mellon
 University), and the Gaussian 82(TM) system (copyright 1983,
 Carnegie Mellon University). Gaussian is a federally registered
 trademark of Gaussian, Inc.
  
 This software contains proprietary and confidential information,
 including trade secrets, belonging to Gaussian, Inc.
  
 This software is provided under written license and may be
 used, copied, transmitted, or stored only in accord with that
 written license.
  
 The following legend is applicable only to US Government
 contracts under FAR:
  
                    RESTRICTED RIGHTS LEGEND
  
 Use, reproduction and disclosure by the US Government is
 subject to restrictions as set forth in subparagraphs (a)
 and (c) of the Commercial Computer Software - Restricted
 Rights clause in FAR 52.227-19.
  
 Gaussian, Inc.
 340 Quinnipiac St., Bldg. 40, Wallingford CT 06492
  
  
 ---------------------------------------------------------------
 Warning -- This program may not be used in any manner that
 competes with the business of Gaussian, Inc. or will provide
 assistance to any competitor of Gaussian, Inc.  The licensee
 of this program is prohibited from giving any competitor of
 Gaussian, Inc. access to this program.  By using this program,
 the user acknowledges that Gaussian, Inc. is engaged in the
 business of creating and licensing software in the field of
 computational chemistry and represents and warrants to the
 licensee that it is not a competitor of Gaussian, Inc. and that
 it will not use this program in any manner prohibited above.
 ---------------------------------------------------------------
  

 Cite this work as:
 Gaussian 16, Revision A.03,
 M. J. Frisch, G. W. Trucks, H. B. Schlegel, G. E. Scuseria, 
 M. A. Robb, J. R. Cheeseman, G. Scalmani, V. Barone, 
 G. A. Petersson, H. Nakatsuji, X. Li, M. Caricato, A. V. Marenich, 
 J. Bloino, B. G. Janesko, R. Gomperts, B. Mennucci, H. P. Hratchian, 
 J. V. Ortiz, A. F. Izmaylov, J. L. Sonnenberg, D. Williams-Young, 
 F. Ding, F. Lipparini, F. Egidi, J. Goings, B. Peng, A. Petrone, 
 T. Henderson, D. Ranasinghe, V. G. Zakrzewski, J. Gao, N. Rega, 
 G. Zheng, W. Liang, M. Hada, M. Ehara, K. Toyota, R. Fukuda, 
 J. Hasegawa, M. Ishida, T. Nakajima, Y. Honda, O. Kitao, H. Nakai, 
 T. Vreven, K. Throssell, J. A. Montgomery, Jr., J. E. Peralta, 
 F. Ogliaro, M. J. Bearpark, J. J. Heyd, E. N. Brothers, K. N. Kudin, 
 V. N. Staroverov, T. A. Keith, R. Kobayashi, J. Normand, 
 K. Raghavachari, A. P. Rendell, J. C. Burant, S. S. Iyengar, 
 J. Tomasi, M. Cossi, J. M. Millam, M. Klene, C. Adamo, R. Cammi, 
 J. W. Ochterski, R. L. Martin, K. Morokuma, O. Farkas, 
 J. B. Foresman, and D. J. Fox, Gaussian, Inc., Wallingford CT, 2016.
 
 ******************************************
 Gaussian 16:  ES64L-G16RevA.03 25-Dec-2016
                23-Jun-2025 
 ******************************************
 %nprocshared=24
 Will use up to   24 processors via shared memory.
 %mem=12GB
 %chk=ethyl_propiolate_ts1.chk
 --------------------------
 # freq 6-311++g(d,p) m062x
 --------------------------
 1/10=4,30=1,38=1/1,3;
 2/12=2,17=6,18=5,40=1/2;
 3/5=4,6=6,7=1111,11=2,25=1,30=1,71=2,74=-55,140=1/1,2,3;
 4//1;
 5/5=2,38=5,98=1/2;
 8/6=4,10=90,11=11/1;
 11/6=1,8=1,9=11,15=111,16=1/1,2,10;
 10/6=1/2;
 6/7=2,8=2,9=2,10=2,28=1/1;
 7/8=1,10=1,25=1/1,2,3,16;
 1/10=4,30=1/3;
 99//99;
 -------------------
 Title Card Required
 -------------------
 Symbolic Z-matrix:
 Charge =  0 Multiplicity = 2
 C                    -2.78893  -0.49143  -0.43817 
 H                    -3.81733  -0.54762  -0.70963 
 C                    -1.62483  -0.37749  -0.14662 
 C                    -0.22316  -0.56977   0.23368 
 O                     0.11294  -0.89777   1.33653 
 O                     0.58033  -0.36995  -0.80294 
 C                     1.99426  -0.45444  -0.53184 
 C                     2.48544   0.8199    0.12517 
 H                     2.44303  -0.60462  -1.51199 
 H                     2.18057  -1.32872   0.09293 
 H                     3.56742   0.76968   0.26192 
 H                     2.25049   1.68228  -0.49991 
 H                     2.01862   0.95169   1.1016 
 O                    -1.40145   1.72983   0.09024 
 H                    -2.03405   1.81981   0.82122 
 

 GradGradGradGradGradGradGradGradGradGradGradGradGradGradGradGradGradGrad
 Berny optimization.
 Initialization pass.
 Trust Radius=3.00D-01 FncErr=1.00D-07 GrdErr=1.00D-07 EigMax=2.50D+02 EigMin=1.00D-04
 Number of steps in this run=      2 maximum allowed number of steps=      2.
 GradGradGradGradGradGradGradGradGradGradGradGradGradGradGradGradGradGrad

                          Input orientation:                          
 ---------------------------------------------------------------------
 Center     Atomic      Atomic             Coordinates (Angstroms)
 Number     Number       Type             X           Y           Z
 ---------------------------------------------------------------------
      1          6           0       -2.788932   -0.491430   -0.438172
      2          1           0       -3.817325   -0.547621   -0.709633
      3          6           0       -1.624831   -0.377491   -0.146622
      4          6           0       -0.223159   -0.569765    0.233677
      5          8           0        0.112942   -0.897766    1.336526
      6          8           0        0.580327   -0.369954   -0.802940
      7          6           0        1.994260   -0.454440   -0.531842
      8          6           0        2.485441    0.819897    0.125169
      9          1           0        2.443027   -0.604622   -1.511992
     10          1           0        2.180572   -1.328723    0.092926
     11          1           0        3.567420    0.769681    0.261916
     12          1           0        2.250485    1.682281   -0.499911
     13          1           0        2.018621    0.951693    1.101602
     14          8           0       -1.401448    1.729829    0.090240
     15          1           0       -2.034047    1.819809    0.821218
 ---------------------------------------------------------------------
                    Distance matrix (angstroms):
                    1          2          3          4          5
     1  C    0.000000
     2  H    1.065101   0.000000
     3  C    1.205452   2.270012   0.000000
     4  C    2.653433   3.715959   1.465019   0.000000
     5  O    3.425717   4.444813   2.343132   1.198676   0.000000
     6  O    3.391123   4.402228   2.300768   1.326683   2.252632
     7  C    4.784252   5.815051   3.640348   2.348673   2.688251
     8  C    5.464059   6.503219   4.289749   3.046219   3.169622
     9  H    5.342218   6.311817   4.296893   3.187024   3.691786
    10  H    5.067454   6.101556   3.929799   2.524629   2.450991
    11  H    6.517955   7.563971   5.333140   4.020373   3.983539
    12  H    5.488584   6.467980   4.402902   3.424730   3.820763
    13  H    5.250340   6.291803   4.074253   2.844944   2.665952
    14  O    2.671764   3.415119   2.132323   2.587870   3.278851
    15  H    2.738200   3.335912   2.435631   3.055255   3.501474
                    6          7          8          9         10
     6  O    0.000000
     7  C    1.442165   0.000000
     8  C    2.430348   1.515539   0.000000
     9  H    2.006857   1.088412   2.170564   0.000000
    10  H    2.069444   1.090604   2.170381   1.780159   0.000000
    11  H    3.369779   2.145543   1.091742   2.509924   2.520953
    12  H    2.663254   2.152266   1.090704   2.508248   3.069607
    13  H    2.728135   2.155445   1.090281   3.071337   2.498790
    14  O    3.022299   4.085199   3.992130   4.774599   4.710161
    15  H    3.777288   4.819776   4.680820   5.600529   5.310996
                   11         12         13         14         15
    11  H    0.000000
    12  H    1.774130   0.000000
    13  H    1.771152   1.775490   0.000000
    14  O    5.063695   3.699615   3.650373   0.000000
    15  H    5.726432   4.485701   4.154077   0.970879   0.000000
 Stoichiometry    C5H7O3(2)
 Framework group  C1[X(C5H7O3)]
 Deg. of freedom    39
 Full point group                 C1      NOp   1
 Largest Abelian subgroup         C1      NOp   1
 Largest concise Abelian subgroup C1      NOp   1
                         Standard orientation:                         
 ---------------------------------------------------------------------
 Center     Atomic      Atomic             Coordinates (Angstroms)
 Number     Number       Type             X           Y           Z
 ---------------------------------------------------------------------
      1          6           0       -2.788932   -0.491430   -0.438172
      2          1           0       -3.817325   -0.547621   -0.709633
      3          6           0       -1.624831   -0.377491   -0.146622
      4          6           0       -0.223159   -0.569765    0.233677
      5          8           0        0.112942   -0.897766    1.336526
      6          8           0        0.580327   -0.369954   -0.802940
      7          6           0        1.994260   -0.454440   -0.531842
      8          6           0        2.485441    0.819897    0.125169
      9          1           0        2.443027   -0.604622   -1.511992
     10          1           0        2.180572   -1.328723    0.092926
     11          1           0        3.567420    0.769681    0.261916
     12          1           0        2.250485    1.682281   -0.499911
     13          1           0        2.018621    0.951693    1.101602
     14          8           0       -1.401448    1.729829    0.090240
     15          1           0       -2.034047    1.819809    0.821218
 ---------------------------------------------------------------------
 Rotational constants (GHZ):           3.5364970           1.3077044           1.1805090
 Standard basis: 6-311++G(d,p) (5D, 7F)
 There are   233 symmetry adapted cartesian basis functions of A   symmetry.
 There are   225 symmetry adapted basis functions of A   symmetry.
   225 basis functions,   351 primitive gaussians,   233 cartesian basis functions
    31 alpha electrons       30 beta electrons
       nuclear repulsion energy       361.1706832253 Hartrees.
 NAtoms=   15 NActive=   15 NUniq=   15 SFac= 1.00D+00 NAtFMM=   60 NAOKFM=F Big=F
 Integral buffers will be    131072 words long.
 Raffenetti 2 integral format.
 Two-electron integral symmetry is turned on.
 One-electron integrals computed using PRISM.
 NBasis=   225 RedAO= T EigKep=  1.44D-06  NBF=   225
 NBsUse=   225 1.00D-06 EigRej= -1.00D+00 NBFU=   225
 ExpMin= 3.60D-02 ExpMax= 8.59D+03 ExpMxC= 1.30D+03 IAcc=3 IRadAn=         5 AccDes= 0.00D+00
 Harris functional with IExCor= 1009 and IRadAn=       5 diagonalized for initial guess.
 HarFok:  IExCor= 1009 AccDes= 0.00D+00 IRadAn=         5 IDoV= 1 UseB2=F ITyADJ=14
 ICtDFT=  3500011 ScaDFX=  1.000000  1.000000  1.000000  1.000000
 FoFCou: FMM=F IPFlag=           0 FMFlag=      100000 FMFlg1=           0
         NFxFlg=           0 DoJE=T BraDBF=F KetDBF=T FulRan=T
         wScrn=  0.000000 ICntrl=       500 IOpCl=  0 I1Cent=   200000004 NGrid=           0
         NMat0=    1 NMatS0=      1 NMatT0=    0 NMatD0=    1 NMtDS0=    0 NMtDT0=    0
 Petite list used in FoFCou.
 Initial guess <Sx>= 0.0000 <Sy>= 0.0000 <Sz>= 0.5000 <S**2>= 0.7500 S= 0.5000
 Requested convergence on RMS density matrix=1.00D-08 within 128 cycles.
 Requested convergence on MAX density matrix=1.00D-06.
 Requested convergence on             energy=1.00D-06.
 No special actions if energy rises.
 Restarting incremental Fock formation.
 SCF Done:  E(UM062X) =  -420.204202232     A.U. after   24 cycles
            NFock= 24  Conv=0.54D-08     -V/T= 2.0032
 <Sx>= 0.0000 <Sy>= 0.0000 <Sz>= 0.5000 <S**2>= 0.7635 S= 0.5067
 <L.S>=  0.00000000000    
 Annihilation of the first spin contaminant:
 S**2 before annihilation     0.7635,   after     0.7501
 DoSCS=F DFT=T ScalE2(SS,OS)=  1.000000  1.000000
 Range of M.O.s used for correlation:     1   225
 NBasis=   225 NAE=    31 NBE=    30 NFC=     0 NFV=     0
 NROrb=    225 NOA=    31 NOB=    30 NVA=   194 NVB=   195

 **** Warning!!: The largest alpha MO coefficient is  0.29304970D+03


 **** Warning!!: The largest beta MO coefficient is  0.24213055D+03

 Symmetrizing basis deriv contribution to polar:
 IMax=3 JMax=2 DiffMx= 0.00D+00
 G2DrvN: will do    16 centers at a time, making    1 passes.
 Calling FoFCou, ICntrl=  3107 FMM=F I1Cent=   0 AccDes= 0.00D+00.
 End of G2Drv F.D. properties file   721 does not exist.
 End of G2Drv F.D. properties file   722 does not exist.
 End of G2Drv F.D. properties file   788 does not exist.
          IDoAtm=111111111111111
          Differentiating once with respect to electric field.
                with respect to dipole field.
          Differentiating once with respect to nuclear coordinates.
 Keep R1 and R2 ints in memory in canonical form, NReq=671901991.
          There are    48 degrees of freedom in the 1st order CPHF.  IDoFFX=6 NUNeed=     3.
     45 vectors produced by pass  0 Test12= 2.47D-14 2.08D-09 XBig12= 9.42D+01 3.30D+00.
 AX will form    45 AO Fock derivatives at one time.
     45 vectors produced by pass  1 Test12= 2.47D-14 2.08D-09 XBig12= 2.04D+01 5.10D-01.
     45 vectors produced by pass  2 Test12= 2.47D-14 2.08D-09 XBig12= 7.16D-01 1.47D-01.
     45 vectors produced by pass  3 Test12= 2.47D-14 2.08D-09 XBig12= 1.05D-02 1.42D-02.
     45 vectors produced by pass  4 Test12= 2.47D-14 2.08D-09 XBig12= 9.80D-05 1.33D-03.
     45 vectors produced by pass  5 Test12= 2.47D-14 2.08D-09 XBig12= 7.67D-07 8.10D-05.
     39 vectors produced by pass  6 Test12= 2.47D-14 2.08D-09 XBig12= 7.20D-09 1.27D-05.
     20 vectors produced by pass  7 Test12= 2.47D-14 2.08D-09 XBig12= 4.99D-11 6.42D-07.
      4 vectors produced by pass  8 Test12= 2.47D-14 2.08D-09 XBig12= 3.92D-13 5.88D-08.
      3 vectors produced by pass  9 Test12= 2.47D-14 2.08D-09 XBig12= 5.09D-15 7.13D-09.
      2 vectors produced by pass 10 Test12= 2.47D-14 2.08D-09 XBig12= 6.77D-16 6.52D-09.
 InvSVY:  IOpt=1 It=  1 EMax= 9.77D-15
 Solved reduced A of dimension   338 with    48 vectors.
 Isotropic polarizability for W=    0.000000       73.20 Bohr**3.
 End of Minotr F.D. properties file   721 does not exist.
 End of Minotr F.D. properties file   722 does not exist.
 End of Minotr F.D. properties file   788 does not exist.

 **********************************************************************

            Population analysis using the SCF density.

 **********************************************************************

 Orbital symmetries:
 Alpha Orbitals:
       Occupied  (A) (A) (A) (A) (A) (A) (A) (A) (A) (A) (A) (A)
                 (A) (A) (A) (A) (A) (A) (A) (A) (A) (A) (A) (A)
                 (A) (A) (A) (A) (A) (A) (A)
       Virtual   (A) (A) (A) (A) (A) (A) (A) (A) (A) (A) (A) (A)
                 (A) (A) (A) (A) (A) (A) (A) (A) (A) (A) (A) (A)
                 (A) (A) (A) (A) (A) (A) (A) (A) (A) (A) (A) (A)
                 (A) (A) (A) (A) (A) (A) (A) (A) (A) (A) (A) (A)
                 (A) (A) (A) (A) (A) (A) (A) (A) (A) (A) (A) (A)
                 (A) (A) (A) (A) (A) (A) (A) (A) (A) (A) (A) (A)
                 (A) (A) (A) (A) (A) (A) (A) (A) (A) (A) (A) (A)
                 (A) (A) (A) (A) (A) (A) (A) (A) (A) (A) (A) (A)
                 (A) (A) (A) (A) (A) (A) (A) (A) (A) (A) (A) (A)
                 (A) (A) (A) (A) (A) (A) (A) (A) (A) (A) (A) (A)
                 (A) (A) (A) (A) (A) (A) (A) (A) (A) (A) (A) (A)
                 (A) (A) (A) (A) (A) (A) (A) (A) (A) (A) (A) (A)
                 (A) (A) (A) (A) (A) (A) (A) (A) (A) (A) (A) (A)
                 (A) (A) (A) (A) (A) (A) (A) (A) (A) (A) (A) (A)
                 (A) (A) (A) (A) (A) (A) (A) (A) (A) (A) (A) (A)
                 (A) (A) (A) (A) (A) (A) (A) (A) (A) (A) (A) (A)
                 (A) (A)
 Beta  Orbitals:
       Occupied  (A) (A) (A) (A) (A) (A) (A) (A) (A) (A) (A) (A)
                 (A) (A) (A) (A) (A) (A) (A) (A) (A) (A) (A) (A)
                 (A) (A) (A) (A) (A) (A)
       Virtual   (A) (A) (A) (A) (A) (A) (A) (A) (A) (A) (A) (A)
                 (A) (A) (A) (A) (A) (A) (A) (A) (A) (A) (A) (A)
                 (A) (A) (A) (A) (A) (A) (A) (A) (A) (A) (A) (A)
                 (A) (A) (A) (A) (A) (A) (A) (A) (A) (A) (A) (A)
                 (A) (A) (A) (A) (A) (A) (A) (A) (A) (A) (A) (A)
                 (A) (A) (A) (A) (A) (A) (A) (A) (A) (A) (A) (A)
                 (A) (A) (A) (A) (A) (A) (A) (A) (A) (A) (A) (A)
                 (A) (A) (A) (A) (A) (A) (A) (A) (A) (A) (A) (A)
                 (A) (A) (A) (A) (A) (A) (A) (A) (A) (A) (A) (A)
                 (A) (A) (A) (A) (A) (A) (A) (A) (A) (A) (A) (A)
                 (A) (A) (A) (A) (A) (A) (A) (A) (A) (A) (A) (A)
                 (A) (A) (A) (A) (A) (A) (A) (A) (A) (A) (A) (A)
                 (A) (A) (A) (A) (A) (A) (A) (A) (A) (A) (A) (A)
                 (A) (A) (A) (A) (A) (A) (A) (A) (A) (A) (A) (A)
                 (A) (A) (A) (A) (A) (A) (A) (A) (A) (A) (A) (A)
                 (A) (A) (A) (A) (A) (A) (A) (A) (A) (A) (A) (A)
                 (A) (A) (A)
 The electronic state is 2-A.
 Alpha  occ. eigenvalues --  -19.68025 -19.66826 -19.62927 -10.70543 -10.60315
 Alpha  occ. eigenvalues --  -10.58338 -10.57882 -10.53363  -1.25551  -1.16251
 Alpha  occ. eigenvalues --   -1.12769  -0.90762  -0.87269  -0.78004  -0.70546
 Alpha  occ. eigenvalues --   -0.64357  -0.61822  -0.58445  -0.57122  -0.54330
 Alpha  occ. eigenvalues --   -0.53235  -0.50417  -0.48548  -0.46133  -0.45045
 Alpha  occ. eigenvalues --   -0.41843  -0.41708  -0.39521  -0.38265  -0.36493
 Alpha  occ. eigenvalues --   -0.35174
 Alpha virt. eigenvalues --   -0.00842  -0.00205   0.00511   0.01472   0.02528
 Alpha virt. eigenvalues --    0.02791   0.03620   0.04382   0.05642   0.06191
 Alpha virt. eigenvalues --    0.07144   0.07649   0.08464   0.09820   0.10722
 Alpha virt. eigenvalues --    0.11000   0.11530   0.12664   0.12821   0.13717
 Alpha virt. eigenvalues --    0.14339   0.14779   0.15522   0.15705   0.15896
 Alpha virt. eigenvalues --    0.16903   0.17539   0.18564   0.18999   0.20731
 Alpha virt. eigenvalues --    0.21246   0.21726   0.23447   0.24174   0.24424
 Alpha virt. eigenvalues --    0.25589   0.26132   0.28342   0.29385   0.30511
 Alpha virt. eigenvalues --    0.31263   0.32192   0.32258   0.33746   0.34508
 Alpha virt. eigenvalues --    0.34630   0.35588   0.37035   0.38762   0.40483
 Alpha virt. eigenvalues --    0.40999   0.43341   0.45140   0.46813   0.49513
 Alpha virt. eigenvalues --    0.50213   0.53531   0.55314   0.56160   0.58785
 Alpha virt. eigenvalues --    0.59533   0.60897   0.63342   0.66514   0.67195
 Alpha virt. eigenvalues --    0.70072   0.70572   0.70731   0.72316   0.72921
 Alpha virt. eigenvalues --    0.74158   0.75715   0.77365   0.78129   0.80018
 Alpha virt. eigenvalues --    0.84480   0.87501   0.91241   0.94615   0.98762
 Alpha virt. eigenvalues --    1.02210   1.05316   1.06533   1.09291   1.10001
 Alpha virt. eigenvalues --    1.14602   1.17651   1.18926   1.20248   1.23417
 Alpha virt. eigenvalues --    1.24712   1.26039   1.29614   1.32304   1.35285
 Alpha virt. eigenvalues --    1.35416   1.36903   1.37888   1.41009   1.44873
 Alpha virt. eigenvalues --    1.46069   1.49104   1.51595   1.53000   1.55417
 Alpha virt. eigenvalues --    1.58559   1.59856   1.61784   1.62594   1.65411
 Alpha virt. eigenvalues --    1.66666   1.67848   1.70590   1.73219   1.75018
 Alpha virt. eigenvalues --    1.78836   1.81453   1.83760   1.87040   1.89222
 Alpha virt. eigenvalues --    1.91057   1.95490   1.99481   2.03534   2.05312
 Alpha virt. eigenvalues --    2.09711   2.10196   2.14326   2.21364   2.31877
 Alpha virt. eigenvalues --    2.35870   2.39972   2.46861   2.51998   2.52678
 Alpha virt. eigenvalues --    2.54546   2.56104   2.62165   2.62462   2.63594
 Alpha virt. eigenvalues --    2.65471   2.66543   2.71959   2.73678   2.75949
 Alpha virt. eigenvalues --    2.81098   2.83015   2.84534   2.90442   2.93257
 Alpha virt. eigenvalues --    2.94647   2.96089   2.99246   3.02644   3.06461
 Alpha virt. eigenvalues --    3.08297   3.12282   3.15813   3.17267   3.18216
 Alpha virt. eigenvalues --    3.25314   3.27105   3.31999   3.36598   3.38580
 Alpha virt. eigenvalues --    3.45052   3.51886   3.66078   3.77207   3.85616
 Alpha virt. eigenvalues --    3.86322   3.88628   3.91215   4.03600   4.13538
 Alpha virt. eigenvalues --    4.19682   4.28582   5.10333   5.13213   5.16578
 Alpha virt. eigenvalues --    5.20369   5.32834   5.47550   5.58248   5.73906
 Alpha virt. eigenvalues --    5.95057  23.62037  23.93373  23.94501  24.06218
 Alpha virt. eigenvalues --   25.09814  49.95055  50.01295  50.11611
  Beta  occ. eigenvalues --  -19.68029 -19.65315 -19.62944 -10.70524 -10.60315
  Beta  occ. eigenvalues --  -10.58351 -10.57727 -10.53363  -1.25557  -1.16287
  Beta  occ. eigenvalues --   -1.05977  -0.90353  -0.86926  -0.77838  -0.70376
  Beta  occ. eigenvalues --   -0.64287  -0.61459  -0.58394  -0.56637  -0.53210
  Beta  occ. eigenvalues --   -0.51811  -0.49012  -0.46532  -0.45093  -0.41702
  Beta  occ. eigenvalues --   -0.39441  -0.39036  -0.38387  -0.38069  -0.36003
  Beta virt. eigenvalues --   -0.09288  -0.00257   0.00184   0.00574   0.01764
  Beta virt. eigenvalues --    0.02640   0.02824   0.03638   0.04465   0.05713
  Beta virt. eigenvalues --    0.06191   0.07240   0.07628   0.08498   0.09907
  Beta virt. eigenvalues --    0.10814   0.11214   0.11727   0.12717   0.12900
  Beta virt. eigenvalues --    0.13744   0.14396   0.14984   0.15580   0.15740
  Beta virt. eigenvalues --    0.16174   0.16922   0.17694   0.18635   0.19100
  Beta virt. eigenvalues --    0.20861   0.21420   0.21879   0.23340   0.24165
  Beta virt. eigenvalues --    0.24520   0.25658   0.26227   0.28553   0.29230
  Beta virt. eigenvalues --    0.30560   0.31222   0.32239   0.32323   0.33793
  Beta virt. eigenvalues --    0.34536   0.34619   0.35694   0.37046   0.38828
  Beta virt. eigenvalues --    0.40461   0.41116   0.43285   0.45149   0.46833
  Beta virt. eigenvalues --    0.49627   0.50236   0.53551   0.55413   0.56521
  Beta virt. eigenvalues --    0.59269   0.59738   0.61253   0.63379   0.66666
  Beta virt. eigenvalues --    0.67212   0.70078   0.70565   0.70825   0.72258
  Beta virt. eigenvalues --    0.72963   0.74172   0.75706   0.77365   0.78212
  Beta virt. eigenvalues --    0.80044   0.84597   0.87545   0.91417   0.94889
  Beta virt. eigenvalues --    0.98820   1.02348   1.05669   1.07264   1.09427
  Beta virt. eigenvalues --    1.11720   1.15232   1.17871   1.19537   1.20604
  Beta virt. eigenvalues --    1.23864   1.25117   1.26189   1.29793   1.33251
  Beta virt. eigenvalues --    1.35443   1.35813   1.37039   1.38624   1.41522
  Beta virt. eigenvalues --    1.45375   1.46577   1.49250   1.51840   1.53597
  Beta virt. eigenvalues --    1.55832   1.58572   1.59867   1.61874   1.62606
  Beta virt. eigenvalues --    1.65422   1.66680   1.67868   1.70663   1.73507
  Beta virt. eigenvalues --    1.75127   1.79244   1.81484   1.84032   1.87131
  Beta virt. eigenvalues --    1.89495   1.91146   1.95967   1.99496   2.03633
  Beta virt. eigenvalues --    2.05391   2.10035   2.11238   2.14338   2.21376
  Beta virt. eigenvalues --    2.31890   2.35878   2.40297   2.46919   2.51999
  Beta virt. eigenvalues --    2.52650   2.54560   2.56178   2.62243   2.62854
  Beta virt. eigenvalues --    2.64071   2.65612   2.66655   2.72166   2.73762
  Beta virt. eigenvalues --    2.76295   2.81856   2.83136   2.86843   2.90919
  Beta virt. eigenvalues --    2.94774   2.96648   2.97633   2.99718   3.03769
  Beta virt. eigenvalues --    3.07162   3.10533   3.12793   3.16368   3.19222
  Beta virt. eigenvalues --    3.20016   3.26599   3.27271   3.32082   3.37035
  Beta virt. eigenvalues --    3.38536   3.45007   3.52371   3.66067   3.77260
  Beta virt. eigenvalues --    3.85674   3.86392   3.91210   3.91851   4.03593
  Beta virt. eigenvalues --    4.13494   4.19635   4.28578   5.12100   5.16071
  Beta virt. eigenvalues --    5.20571   5.21819   5.32904   5.47568   5.60559
  Beta virt. eigenvalues --    5.73891   5.95047  23.62087  23.93378  23.94506
  Beta virt. eigenvalues --   24.06218  25.10093  49.94597  50.01264  50.11633
          Condensed to atoms (all electrons):
               1          2          3          4          5          6
     1  C   38.009384   0.705615 -13.617202 -17.298106   0.003529  -0.046506
     2  H    0.705615   0.433515  -0.232746  -0.082586  -0.001452  -0.003237
     3  C  -13.617202  -0.232746  20.191724  -1.757549   0.174990  -0.183981
     4  C  -17.298106  -0.082586  -1.757549  25.093730   0.232788   0.074788
     5  O    0.003529  -0.001452   0.174990   0.232788   7.982980  -0.146093
     6  O   -0.046506  -0.003237  -0.183981   0.074788  -0.146093   8.256923
     7  C   -0.322922  -0.001140  -0.498370   0.698865   0.044460   0.123035
     8  C    0.115808   0.000126   0.132303  -0.370125  -0.069008  -0.024715
     9  H   -0.024445  -0.000016  -0.029849   0.062493   0.004026  -0.093896
    10  H   -0.031120  -0.000248  -0.053812   0.068650  -0.017315  -0.006501
    11  H   -0.008851  -0.000032  -0.011621   0.024137  -0.002142   0.015107
    12  H    0.003750   0.000050   0.012140  -0.016082   0.001585  -0.001536
    13  H    0.036885  -0.000111   0.021736  -0.074688   0.001442  -0.021436
    14  O   -0.180934  -0.001776   0.489733  -0.378789  -0.009898  -0.001121
    15  H   -0.141003  -0.002584   0.089367   0.073341  -0.000587  -0.000650
               7          8          9         10         11         12
     1  C   -0.322922   0.115808  -0.024445  -0.031120  -0.008851   0.003750
     2  H   -0.001140   0.000126  -0.000016  -0.000248  -0.000032   0.000050
     3  C   -0.498370   0.132303  -0.029849  -0.053812  -0.011621   0.012140
     4  C    0.698865  -0.370125   0.062493   0.068650   0.024137  -0.016082
     5  O    0.044460  -0.069008   0.004026  -0.017315  -0.002142   0.001585
     6  O    0.123035  -0.024715  -0.093896  -0.006501   0.015107  -0.001536
     7  C    5.467475   0.005966   0.451776   0.415830  -0.043475  -0.037178
     8  C    0.005966   5.503234  -0.058513  -0.036228   0.396728   0.417941
     9  H    0.451776  -0.058513   0.532731  -0.037941   0.000284  -0.010917
    10  H    0.415830  -0.036228  -0.037941   0.519970  -0.004140   0.004833
    11  H   -0.043475   0.396728   0.000284  -0.004140   0.531123  -0.030431
    12  H   -0.037178   0.417941  -0.010917   0.004833  -0.030431   0.529783
    13  H   -0.009035   0.386296   0.009069  -0.010189  -0.037490  -0.043605
    14  O   -0.027144   0.020699   0.000228  -0.000797   0.000617  -0.001525
    15  H    0.004575  -0.004562   0.000125   0.000178   0.000108  -0.000219
              13         14         15
     1  C    0.036885  -0.180934  -0.141003
     2  H   -0.000111  -0.001776  -0.002584
     3  C    0.021736   0.489733   0.089367
     4  C   -0.074688  -0.378789   0.073341
     5  O    0.001442  -0.009898  -0.000587
     6  O   -0.021436  -0.001121  -0.000650
     7  C   -0.009035  -0.027144   0.004575
     8  C    0.386296   0.020699  -0.004562
     9  H    0.009069   0.000228   0.000125
    10  H   -0.010189  -0.000797   0.000178
    11  H   -0.037490   0.000617   0.000108
    12  H   -0.043605  -0.001525  -0.000219
    13  H    0.550091   0.002153  -0.000175
    14  O    0.002153   8.075269   0.238921
    15  H   -0.000175   0.238921   0.508600
          Atomic-Atomic Spin Densities.
               1          2          3          4          5          6
     1  C    1.560649   0.051196  -0.481834  -0.569554   0.006973  -0.017809
     2  H    0.051196  -0.007319  -0.031134  -0.020683  -0.000000  -0.000214
     3  C   -0.481834  -0.031134   0.313095   0.112111   0.002421   0.002932
     4  C   -0.569554  -0.020683   0.112111   0.284805  -0.007355   0.020936
     5  O    0.006973  -0.000000   0.002421  -0.007355  -0.012133   0.000185
     6  O   -0.017809  -0.000214   0.002932   0.020936   0.000185  -0.005243
     7  C   -0.022720  -0.000099  -0.026981   0.043927  -0.000005  -0.002238
     8  C    0.022729   0.000087   0.030664  -0.045706   0.000771   0.000645
     9  H   -0.002236  -0.000027  -0.001760   0.003653   0.000049   0.000017
    10  H   -0.000212  -0.000031  -0.000585  -0.000248  -0.000340   0.000122
    11  H    0.001332   0.000009   0.002077  -0.002938   0.000018   0.000089
    12  H   -0.000145  -0.000000  -0.001107   0.001056  -0.000051  -0.000044
    13  H   -0.008031   0.000000  -0.013794   0.022416  -0.000306  -0.000963
    14  O   -0.319910  -0.003745  -0.010098   0.217946   0.001862   0.001682
    15  H    0.017688   0.000235  -0.006208  -0.011136  -0.000194   0.000340
               7          8          9         10         11         12
     1  C   -0.022720   0.022729  -0.002236  -0.000212   0.001332  -0.000145
     2  H   -0.000099   0.000087  -0.000027  -0.000031   0.000009  -0.000000
     3  C   -0.026981   0.030664  -0.001760  -0.000585   0.002077  -0.001107
     4  C    0.043927  -0.045706   0.003653  -0.000248  -0.002938   0.001056
     5  O   -0.000005   0.000771   0.000049  -0.000340   0.000018  -0.000051
     6  O   -0.002238   0.000645   0.000017   0.000122   0.000089  -0.000044
     7  C    0.008387  -0.007709   0.000619   0.001342  -0.001402   0.000411
     8  C   -0.007709   0.005183  -0.000985  -0.001157   0.001496  -0.000474
     9  H    0.000619  -0.000985   0.000025   0.000291  -0.000095   0.000028
    10  H    0.001342  -0.001157   0.000291   0.000091  -0.000222   0.000070
    11  H   -0.001402   0.001496  -0.000095  -0.000222   0.000515  -0.000297
    12  H    0.000411  -0.000474   0.000028   0.000070  -0.000297   0.000356
    13  H    0.001045  -0.000496   0.000254   0.000538  -0.000464   0.000008
    14  O    0.005474  -0.003800   0.000302   0.000383  -0.000077  -0.000023
    15  H   -0.000579   0.000713  -0.000019  -0.000045   0.000034  -0.000056
              13         14         15
     1  C   -0.008031  -0.319910   0.017688
     2  H    0.000000  -0.003745   0.000235
     3  C   -0.013794  -0.010098  -0.006208
     4  C    0.022416   0.217946  -0.011136
     5  O   -0.000306   0.001862  -0.000194
     6  O   -0.000963   0.001682   0.000340
     7  C    0.001045   0.005474  -0.000579
     8  C   -0.000496  -0.003800   0.000713
     9  H    0.000254   0.000302  -0.000019
    10  H    0.000538   0.000383  -0.000045
    11  H   -0.000464  -0.000077   0.000034
    12  H    0.000008  -0.000023  -0.000056
    13  H   -0.000971  -0.000040  -0.000204
    14  O   -0.000040   0.959062   0.012536
    15  H   -0.000204   0.012536  -0.032762
 Mulliken charges and spin densities:
               1          2
     1  C   -1.203882   0.238117
     2  H    0.186623  -0.011726
     3  C    1.273137  -0.110201
     4  C   -0.350866   0.049231
     5  O   -0.199307  -0.008105
     6  O    0.059819   0.000437
     7  C   -0.272719  -0.000527
     8  C   -0.415952   0.001961
     9  H    0.194845   0.000117
    10  H    0.188828  -0.000003
    11  H    0.170077   0.000075
    12  H    0.171411  -0.000267
    13  H    0.189054  -0.001008
    14  O   -0.225635   0.861554
    15  H    0.234565  -0.019658
 Sum of Mulliken charges =  -0.00000   1.00000
 Mulliken charges and spin densities with hydrogens summed into heavy atoms:
               1          2
     1  C   -1.017259   0.226392
     3  C    1.273137  -0.110201
     4  C   -0.350866   0.049231
     5  O   -0.199307  -0.008105
     6  O    0.059819   0.000437
     7  C    0.110954  -0.000412
     8  C    0.114590   0.000761
    14  O    0.008931   0.841897
 APT charges:
               1
     1  C   -0.179027
     2  H    0.235230
     3  C   -0.412236
     4  C    1.471526
     5  O   -0.778186
     6  O   -0.940597
     7  C    0.533634
     8  C   -0.041956
     9  H   -0.013615
    10  H   -0.011584
    11  H    0.009129
    12  H    0.015242
    13  H    0.027997
    14  O   -0.172060
    15  H    0.256502
 Sum of APT charges =   0.00000
 APT charges with hydrogens summed into heavy atoms:
               1
     1  C    0.056203
     3  C   -0.412236
     4  C    1.471526
     5  O   -0.778186
     6  O   -0.940597
     7  C    0.508435
     8  C    0.010413
    14  O    0.084442
 Electronic spatial extent (au):  <R**2>=           1069.9952
 Charge=             -0.0000 electrons
 Dipole moment (field-independent basis, Debye):
    X=             -0.6483    Y=              0.0836    Z=             -0.6584  Tot=              0.9278
 Quadrupole moment (field-independent basis, Debye-Ang):
   XX=            -30.1806   YY=            -48.7246   ZZ=            -51.2262
   XY=             -0.2403   XZ=             -1.8185   YZ=              5.1070
 Traceless Quadrupole moment (field-independent basis, Debye-Ang):
   XX=             13.1965   YY=             -5.3474   ZZ=             -7.8491
   XY=             -0.2403   XZ=             -1.8185   YZ=              5.1070
 Octapole moment (field-independent basis, Debye-Ang**2):
  XXX=            -34.9356  YYY=              3.6995  ZZZ=             -1.6388  XYY=              0.8105
  XXY=             -1.2345  XXZ=             -5.7260  XZZ=              0.0287  YZZ=              7.0682
  YYZ=              3.8042  XYZ=             -6.7735
 Hexadecapole moment (field-independent basis, Debye-Ang**3):
 XXXX=           -744.0613 YYYY=           -269.3961 ZZZZ=           -175.1514 XXXY=             -4.6154
 XXXZ=             20.2668 YYYX=            -20.5727 YYYZ=             10.2149 ZZZX=            -10.6374
 ZZZY=              7.6955 XXYY=           -202.0883 XXZZ=           -181.6361 YYZZ=            -73.4759
 XXYZ=             19.9716 YYXZ=            -13.4127 ZZXY=             -8.8590
 N-N= 3.611706832253D+02 E-N=-1.707235677597D+03  KE= 4.188744501384D+02
  Exact polarizability:  91.451   6.176  68.703   4.490   1.955  59.443
 Approx polarizability:  98.914   5.983  72.856   7.493  -1.206  76.745
                          Isotropic Fermi Contact Couplings
        Atom                 a.u.       MegaHertz       Gauss      10(-4) cm-1
     1  C(13)              0.03615      40.64002      14.50137      13.55605
     2  H(1)              -0.00398     -17.80161      -6.35206      -5.93798
     3  C(13)              0.01647      18.51981       6.60833       6.17754
     4  C(13)              0.01143      12.84831       4.58460       4.28573
     5  O(17)             -0.00302       1.82834       0.65240       0.60987
     6  O(17)             -0.00064       0.38718       0.13815       0.12915
     7  C(13)             -0.00002      -0.02049      -0.00731      -0.00684
     8  C(13)             -0.00044      -0.49115      -0.17526      -0.16383
     9  H(1)               0.00002       0.06955       0.02482       0.02320
    10  H(1)              -0.00005      -0.20247      -0.07225      -0.06754
    11  H(1)              -0.00000      -0.00843      -0.00301      -0.00281
    12  H(1)               0.00001       0.04376       0.01561       0.01460
    13  H(1)               0.00001       0.04468       0.01594       0.01490
    14  O(17)              0.13008     -78.85438     -28.13720     -26.30299
    15  H(1)              -0.01440     -64.35791     -22.96450     -21.46749
 --------------------------------------------------------
       Center         ----  Spin Dipole Couplings  ----
                      3XX-RR        3YY-RR        3ZZ-RR
 --------------------------------------------------------
     1   Atom       -0.151976      0.261950     -0.109974
     2   Atom        0.020335     -0.003476     -0.016860
     3   Atom        0.037803     -0.000239     -0.037564
     4   Atom        0.003598      0.012097     -0.015695
     5   Atom        0.023064     -0.033869      0.010805
     6   Atom        0.007074     -0.009522      0.002448
     7   Atom        0.002454     -0.000512     -0.001942
     8   Atom        0.003575     -0.001644     -0.001932
     9   Atom        0.001238     -0.000409     -0.000829
    10   Atom        0.001082      0.000209     -0.001291
    11   Atom        0.001831     -0.000848     -0.000983
    12   Atom        0.004708     -0.002399     -0.002309
    13   Atom        0.004065     -0.002047     -0.002018
    14   Atom       -1.027983      2.537363     -1.509379
    15   Atom        0.005553     -0.051401      0.045848
 --------------------------------------------------------
                        XY            XZ            YZ
 --------------------------------------------------------
     1   Atom        0.004540     -0.010359      0.032500
     2   Atom        0.005848      0.010910      0.002890
     3   Atom       -0.003458      0.019695      0.005847
     4   Atom       -0.017330      0.003394     -0.001728
     5   Atom       -0.031239     -0.005254     -0.019518
     6   Atom       -0.009043     -0.005557      0.003293
     7   Atom       -0.002626     -0.000560      0.000391
     8   Atom       -0.001535      0.000073      0.000008
     9   Atom       -0.001269     -0.000895      0.000534
    10   Atom       -0.001660      0.000103     -0.000030
    11   Atom       -0.000525      0.000122     -0.000003
    12   Atom       -0.000209     -0.001160      0.000109
    13   Atom       -0.001594      0.002018     -0.000438
    14   Atom        1.671001      0.370631      0.914218
    15   Atom        0.004982     -0.129870      0.039226
 --------------------------------------------------------


 ---------------------------------------------------------------------------------
              Anisotropic Spin Dipole Couplings in Principal Axis System
 ---------------------------------------------------------------------------------

       Atom             a.u.   MegaHertz   Gauss  10(-4) cm-1        Axes

              Baa    -0.1547   -20.765    -7.410    -6.926  0.9689 -0.0297  0.2458
     1 C(13)  Bbb    -0.1101   -14.769    -5.270    -4.926 -0.2474 -0.0813  0.9655
              Bcc     0.2648    35.534    12.679    11.853  0.0087  0.9962  0.0862
 
              Baa    -0.0199   -10.631    -3.793    -3.546 -0.2497 -0.0808  0.9649
     2 H(1)   Bbb    -0.0048    -2.576    -0.919    -0.859 -0.2348  0.9718  0.0206
              Bcc     0.0248    13.207     4.713     4.405  0.9394  0.2214  0.2617
 
              Baa    -0.0434    -5.821    -2.077    -1.942 -0.2391 -0.1492  0.9595
     3 C(13)  Bbb     0.0007     0.087     0.031     0.029  0.0093  0.9877  0.1559
              Bcc     0.0427     5.734     2.046     1.913  0.9709 -0.0462  0.2348
 
              Baa    -0.0164    -2.198    -0.784    -0.733 -0.2400 -0.0874  0.9668
     4 C(13)  Bbb    -0.0096    -1.288    -0.459    -0.430  0.7487  0.6173  0.2417
              Bcc     0.0260     3.486     1.244     1.163 -0.6180  0.7818 -0.0827
 
              Baa    -0.0538     3.896     1.390     1.300  0.3768  0.8779  0.2956
     5 O(17)  Bbb     0.0166    -1.198    -0.427    -0.400 -0.2498 -0.2110  0.9450
              Bcc     0.0373    -2.699    -0.963    -0.900  0.8920 -0.4299  0.1398
 
              Baa    -0.0135     0.980     0.350     0.327  0.3888  0.9197 -0.0543
     6 O(17)  Bbb    -0.0009     0.068     0.024     0.023  0.4532 -0.1396  0.8804
              Bcc     0.0145    -1.047    -0.374    -0.349  0.8021 -0.3669 -0.4711
 
              Baa    -0.0021    -0.280    -0.100    -0.094  0.3355  0.7118 -0.6170
     7 C(13)  Bbb    -0.0020    -0.265    -0.095    -0.088  0.3898  0.4914  0.7789
              Bcc     0.0041     0.545     0.195     0.182  0.8576 -0.5018 -0.1126
 
              Baa    -0.0021    -0.277    -0.099    -0.093  0.2598  0.9456 -0.1960
     8 C(13)  Bbb    -0.0019    -0.259    -0.092    -0.086  0.0406  0.1921  0.9805
              Bcc     0.0040     0.536     0.191     0.179  0.9648 -0.2627  0.0115
 
              Baa    -0.0012    -0.637    -0.227    -0.213  0.0739 -0.4760  0.8763
     9 H(1)   Bbb    -0.0011    -0.577    -0.206    -0.193  0.5511  0.7519  0.3620
              Bcc     0.0023     1.215     0.433     0.405  0.8312 -0.4562 -0.3179
 
              Baa    -0.0013    -0.694    -0.248    -0.232 -0.1238 -0.1164  0.9855
    10 H(1)   Bbb    -0.0011    -0.568    -0.203    -0.189  0.5980  0.7837  0.1677
              Bcc     0.0024     1.262     0.450     0.421  0.7919 -0.6101  0.0274
 
              Baa    -0.0010    -0.532    -0.190    -0.177 -0.1069 -0.3609  0.9265
    11 H(1)   Bbb    -0.0009    -0.501    -0.179    -0.167  0.1568  0.9140  0.3741
              Bcc     0.0019     1.032     0.368     0.344  0.9818 -0.1853  0.0411
 
              Baa    -0.0025    -1.354    -0.483    -0.452  0.1238 -0.4920  0.8618
    12 H(1)   Bbb    -0.0024    -1.261    -0.450    -0.421  0.1047  0.8701  0.4817
              Bcc     0.0049     2.615     0.933     0.872  0.9868 -0.0306 -0.1592
 
              Baa    -0.0026    -1.405    -0.501    -0.469 -0.3238 -0.1867  0.9275
    13 H(1)   Bbb    -0.0024    -1.293    -0.462    -0.431  0.1579  0.9559  0.2476
              Bcc     0.0051     2.699     0.963     0.900  0.9329 -0.2266  0.2801
 
              Baa    -1.7109   123.797    44.174    41.294 -0.3952 -0.0420  0.9176
    14 O(17)  Bbb    -1.6856   121.966    43.521    40.684  0.8448 -0.4090  0.3451
              Bcc     3.3964  -245.764   -87.695   -81.978  0.3608  0.9116  0.1971
 
              Baa    -0.1189   -63.460   -22.644   -21.168  0.6660 -0.4108  0.6227
    15 H(1)   Bbb    -0.0416   -22.175    -7.913    -7.397  0.3917  0.9030  0.1767
              Bcc     0.1605    85.635    30.557    28.565 -0.6348  0.1262  0.7623
 

 ---------------------------------------------------------------------------------

 Calling FoFJK, ICntrl=    100127 FMM=F ISym2X=0 I1Cent= 0 IOpClX= 1 NMat=1 NMatS=1 NMatT=0.
 Full mass-weighted force constant matrix:
 Low frequencies --- -186.6740  -63.2066  -40.4003   -9.5005    0.0009    0.0009
 Low frequencies ---    0.0011   30.9267   50.9991
 ******    2 imaginary frequencies (negative Signs) ****** 
 Diagonal vibrational polarizability:
      114.8131183     314.8697451      41.2781202
 Harmonic frequencies (cm**-1), IR intensities (KM/Mole), Raman scattering
 activities (A**4/AMU), depolarization ratios for plane and unpolarized
 incident light, reduced masses (AMU), force constants (mDyne/A),
 and normal coordinates:
                      1                      2                      3
                      A                      A                      A
 Frequencies --   -186.6733               -24.5972                45.9794
 Red. masses --     11.6253                 4.8927                 4.0033
 Frc consts  --      0.2387                 0.0017                 0.0050
 IR Inten    --     22.5486                 7.6450                 1.0530
  Atom  AN      X      Y      Z        X      Y      Z        X      Y      Z
     1   6     0.06   0.02   0.04     0.06  -0.01  -0.18    -0.00   0.08  -0.09
     2   1     0.08  -0.29   0.01     0.08  -0.04  -0.26     0.00   0.15  -0.12
     3   6     0.03   0.69   0.11     0.03   0.03  -0.09    -0.01   0.02  -0.04
     4   6     0.02   0.14   0.02     0.01   0.07  -0.01    -0.03  -0.06  -0.00
     5   8    -0.03  -0.06  -0.03    -0.03   0.21   0.05    -0.07  -0.02   0.02
     6   8     0.01   0.04   0.00     0.05  -0.07  -0.01     0.00  -0.14   0.00
     7   6     0.01  -0.02  -0.01     0.04  -0.12   0.04    -0.00   0.02   0.08
     8   6     0.03  -0.03   0.00     0.11  -0.06  -0.15    -0.18   0.20  -0.14
     9   1    -0.00  -0.02  -0.01     0.05  -0.30   0.07     0.06  -0.11   0.13
    10   1    -0.02  -0.03  -0.02    -0.03  -0.04   0.17     0.05   0.16   0.25
    11   1     0.02  -0.05   0.01     0.11  -0.12  -0.11    -0.18   0.33  -0.02
    12   1     0.04  -0.03   0.00     0.19  -0.14  -0.28    -0.20   0.05  -0.33
    13   1     0.02  -0.03  -0.00     0.09   0.12  -0.18    -0.28   0.35  -0.21
    14   8    -0.08  -0.55  -0.09    -0.23  -0.01   0.27     0.25  -0.10   0.13
    15   1    -0.11  -0.10  -0.18    -0.08  -0.28   0.44     0.23  -0.05   0.11
                      4                      5                      6
                      A                      A                      A
 Frequencies --    115.3859               134.4370               160.2878
 Red. masses --      3.8538                 4.8837                 2.5627
 Frc consts  --      0.0302                 0.0520                 0.0388
 IR Inten    --      1.7061                11.5314                10.2310
  Atom  AN      X      Y      Z        X      Y      Z        X      Y      Z
     1   6    -0.01  -0.05   0.03    -0.05  -0.26  -0.11    -0.09  -0.06   0.21
     2   1    -0.02  -0.09   0.08    -0.02  -0.46  -0.17    -0.15  -0.11   0.46
     3   6     0.00  -0.00  -0.03    -0.09  -0.06  -0.02    -0.02  -0.00  -0.11
     4   6     0.02   0.06  -0.06    -0.08   0.10   0.04    -0.01   0.03  -0.13
     5   8     0.06   0.27  -0.01    -0.08   0.09   0.03    -0.08   0.03  -0.10
     6   8    -0.02  -0.12  -0.12    -0.09   0.21   0.05     0.07   0.03  -0.06
     7   6    -0.01  -0.00  -0.09    -0.09   0.03  -0.03     0.05  -0.02   0.11
     8   6    -0.16  -0.09   0.20     0.15  -0.06  -0.05     0.04   0.02   0.03
     9   1     0.03   0.25  -0.11    -0.16  -0.03  -0.05     0.15  -0.16   0.18
    10   1     0.07  -0.12  -0.27    -0.17  -0.00  -0.04    -0.08   0.04   0.23
    11   1    -0.14   0.02   0.11     0.15  -0.25  -0.09    -0.01  -0.13   0.36
    12   1    -0.31   0.02   0.41     0.28  -0.01  -0.04     0.36  -0.05  -0.18
    13   1    -0.11  -0.39   0.26     0.21   0.03  -0.03    -0.23   0.25  -0.13
    14   8     0.09  -0.06   0.05     0.27  -0.07   0.09     0.01  -0.01   0.01
    15   1     0.20  -0.09   0.15    -0.20   0.16  -0.35     0.14  -0.08   0.13
                      7                      8                      9
                      A                      A                      A
 Frequencies --    209.4518               226.3267               255.9008
 Red. masses --      1.5958                 1.4131                 1.9111
 Frc consts  --      0.0412                 0.0426                 0.0737
 IR Inten    --     36.1992                 2.2234                32.8233
  Atom  AN      X      Y      Z        X      Y      Z        X      Y      Z
     1   6    -0.05   0.07   0.01     0.01   0.05  -0.05     0.05  -0.17  -0.03
     2   1    -0.06   0.21   0.04     0.03   0.15  -0.13     0.08  -0.37  -0.08
     3   6    -0.02  -0.08  -0.04    -0.00  -0.06   0.06     0.01   0.12   0.03
     4   6    -0.02  -0.01   0.00     0.01  -0.01   0.03    -0.01   0.03   0.01
     5   8    -0.05   0.03   0.02     0.08   0.02   0.02    -0.02  -0.06  -0.01
     6   8    -0.00   0.05   0.03    -0.05   0.04  -0.00    -0.02   0.00   0.01
     7   6     0.00   0.04   0.01    -0.04   0.02  -0.03    -0.02  -0.02   0.00
     8   6     0.08   0.01  -0.01    -0.02  -0.02   0.02    -0.05  -0.01  -0.01
     9   1    -0.03   0.03  -0.01    -0.05   0.04  -0.04    -0.02  -0.03   0.00
    10   1     0.01   0.03  -0.01    -0.05  -0.00  -0.06    -0.03  -0.02   0.01
    11   1     0.12   0.06  -0.29    -0.09  -0.28   0.50    -0.05   0.03   0.01
    12   1    -0.12   0.05   0.12     0.47  -0.02  -0.17    -0.07  -0.02  -0.02
    13   1     0.33  -0.09   0.12    -0.40   0.19  -0.19    -0.07  -0.01  -0.02
    14   8     0.00  -0.10  -0.06    -0.01  -0.05  -0.03     0.01   0.13  -0.03
    15   1     0.58  -0.29   0.47     0.24  -0.11   0.19     0.66  -0.10   0.56
                     10                     11                     12
                      A                      A                      A
 Frequencies --    336.1962               427.7054               558.8419
 Red. masses --      2.9076                 3.7602                 3.5428
 Frc consts  --      0.1936                 0.4053                 0.6519
 IR Inten    --      9.7735                 3.5679                 9.5749
  Atom  AN      X      Y      Z        X      Y      Z        X      Y      Z
     1   6     0.00   0.02  -0.04     0.09   0.03   0.06    -0.17  -0.01  -0.07
     2   1     0.02   0.06  -0.11     0.05   0.10   0.20    -0.11  -0.01  -0.31
     3   6    -0.02  -0.04   0.08     0.13  -0.07  -0.13    -0.21  -0.04   0.21
     4   6     0.01   0.04  -0.05     0.06   0.07   0.04    -0.02   0.06  -0.03
     5   8     0.20   0.01  -0.11    -0.09  -0.01   0.07    -0.01   0.01  -0.05
     6   8    -0.03   0.12  -0.06     0.06   0.22   0.09     0.14   0.04   0.04
     7   6    -0.09  -0.11   0.19     0.03  -0.13  -0.09     0.24  -0.08  -0.05
     8   6    -0.07  -0.03   0.01    -0.20  -0.10  -0.07    -0.00  -0.01  -0.02
     9   1     0.07  -0.39   0.31    -0.04  -0.13  -0.12     0.14   0.02  -0.11
    10   1    -0.37   0.00   0.42    -0.05  -0.17  -0.12     0.28  -0.13  -0.12
    11   1    -0.03   0.14  -0.26    -0.21   0.26   0.11    -0.01   0.35   0.18
    12   1    -0.35  -0.12  -0.02    -0.41  -0.20  -0.13    -0.20  -0.11  -0.08
    13   1     0.14  -0.00   0.10    -0.43  -0.22  -0.17    -0.24  -0.13  -0.12
    14   8     0.00  -0.03  -0.01     0.00  -0.03  -0.01    -0.01  -0.02   0.00
    15   1     0.02   0.02   0.00    -0.06  -0.18  -0.04     0.14   0.44   0.08
                     13                     14                     15
                      A                      A                      A
 Frequencies --    607.5355               640.7325               719.7979
 Red. masses --      6.1096                 1.1529                 1.3303
 Frc consts  --      1.3286                 0.2789                 0.4061
 IR Inten    --     14.2968                76.9877                34.3859
  Atom  AN      X      Y      Z        X      Y      Z        X      Y      Z
     1   6    -0.26  -0.00  -0.05     0.01  -0.01  -0.01    -0.03  -0.11   0.10
     2   1    -0.35  -0.25   0.32    -0.02   0.02   0.12     0.13   0.72  -0.66
     3   6    -0.14   0.13  -0.36     0.03  -0.01  -0.07     0.01   0.05  -0.06
     4   6    -0.04  -0.01   0.12     0.00  -0.03   0.01    -0.01  -0.02  -0.00
     5   8     0.32  -0.03   0.01     0.02   0.00   0.01     0.01   0.01  -0.00
     6   8     0.00  -0.03   0.21    -0.01   0.00   0.01     0.00   0.00   0.01
     7   6     0.04  -0.03   0.01    -0.03   0.01   0.00    -0.00  -0.00   0.00
     8   6    -0.01  -0.01  -0.01    -0.01  -0.00  -0.00    -0.00  -0.00  -0.00
     9   1    -0.16   0.15  -0.11    -0.03   0.01   0.00    -0.01   0.01  -0.00
    10   1     0.22  -0.10  -0.15    -0.02   0.01   0.00     0.01  -0.01  -0.01
    11   1    -0.01   0.08   0.05    -0.00  -0.03  -0.02    -0.00   0.00  -0.00
    12   1    -0.04  -0.06  -0.08     0.01   0.00   0.00    -0.00  -0.01  -0.01
    13   1    -0.07   0.03  -0.05     0.01   0.01   0.01    -0.00   0.01  -0.00
    14   8     0.01   0.04  -0.00    -0.03  -0.04   0.02     0.00   0.01   0.00
    15   1    -0.05  -0.36  -0.01     0.23   0.95   0.13    -0.00   0.02  -0.00
                     16                     17                     18
                      A                      A                      A
 Frequencies --    743.5972               774.3215               803.0780
 Red. masses --      1.3250                 7.7239                 1.2065
 Frc consts  --      0.4317                 2.7285                 0.4584
 IR Inten    --     21.4038                58.4785                 5.2391
  Atom  AN      X      Y      Z        X      Y      Z        X      Y      Z
     1   6     0.03  -0.10  -0.10     0.01  -0.03  -0.01     0.03   0.01   0.01
     2   1    -0.22   0.67   0.68    -0.06   0.45   0.16     0.04  -0.03  -0.01
     3   6    -0.02   0.04   0.05     0.02  -0.17  -0.05     0.02  -0.00   0.02
     4   6    -0.00  -0.03  -0.01     0.03   0.67   0.16    -0.02  -0.03  -0.04
     5   8    -0.00   0.01   0.00    -0.01  -0.18  -0.08    -0.01   0.02  -0.04
     6   8    -0.00   0.01   0.00    -0.00  -0.18  -0.02     0.01   0.01   0.03
     7   6     0.01  -0.00   0.00    -0.04  -0.00   0.03    -0.03  -0.02   0.07
     8   6     0.00   0.00   0.00    -0.02   0.01   0.01    -0.01  -0.02   0.03
     9   1     0.00  -0.00  -0.00    -0.05   0.22  -0.01    -0.08   0.52  -0.04
    10   1     0.00  -0.01  -0.00     0.12  -0.07  -0.11     0.12  -0.31  -0.38
    11   1     0.00   0.02   0.01    -0.01  -0.13  -0.10     0.02   0.03  -0.19
    12   1    -0.01  -0.01  -0.00     0.08  -0.02  -0.07    -0.05  -0.29  -0.34
    13   1    -0.01  -0.00  -0.00     0.12   0.19   0.05     0.11   0.44   0.02
    14   8     0.00   0.01  -0.00    -0.00  -0.04  -0.00     0.00  -0.00   0.00
    15   1    -0.03  -0.06  -0.02     0.04   0.12   0.02    -0.01  -0.00  -0.00
                     19                     20                     21
                      A                      A                      A
 Frequencies --    897.5795               929.2798              1075.9956
 Red. masses --      3.2319                 2.7539                 4.1337
 Frc consts  --      1.5341                 1.4012                 2.8198
 IR Inten    --     15.7914                 5.8871                23.1059
  Atom  AN      X      Y      Z        X      Y      Z        X      Y      Z
     1   6     0.05   0.01   0.01     0.11   0.01   0.03     0.07   0.01   0.02
     2   1     0.06  -0.00  -0.02     0.12   0.00   0.03     0.07   0.01   0.04
     3   6     0.01  -0.02   0.07     0.07  -0.02   0.00     0.04  -0.01  -0.03
     4   6    -0.04   0.01  -0.11    -0.15   0.02  -0.05    -0.15   0.01   0.03
     5   8    -0.00   0.05  -0.16     0.01   0.03  -0.13     0.02   0.00  -0.02
     6   8     0.13  -0.04   0.24    -0.14  -0.04   0.11    -0.22   0.02  -0.04
     7   6    -0.09   0.09   0.02     0.03  -0.10  -0.02     0.31   0.16   0.14
     8   6    -0.12  -0.06  -0.10     0.15   0.10   0.04    -0.06  -0.17  -0.09
     9   1    -0.23  -0.02  -0.03    -0.34  -0.21  -0.17     0.33   0.28   0.14
    10   1     0.25   0.27   0.17     0.04  -0.11  -0.04     0.40   0.25   0.21
    11   1    -0.13  -0.58  -0.12     0.12   0.60   0.38    -0.06  -0.26  -0.12
    12   1     0.18   0.23   0.21    -0.15   0.08   0.12    -0.05  -0.22  -0.15
    13   1     0.04  -0.33   0.01    -0.22  -0.15  -0.10    -0.07  -0.29  -0.09
    14   8     0.00  -0.00   0.00     0.00  -0.01  -0.00     0.00  -0.00  -0.00
    15   1    -0.01  -0.02  -0.01    -0.00   0.01  -0.01     0.00   0.01   0.00
                     22                     23                     24
                      A                      A                      A
 Frequencies --   1129.7640              1204.5196              1291.5928
 Red. masses --      2.0924                 1.7712                 3.6197
 Frc consts  --      1.5735                 1.5141                 3.5577
 IR Inten    --     22.6406                 5.6014               536.3938
  Atom  AN      X      Y      Z        X      Y      Z        X      Y      Z
     1   6    -0.02  -0.00  -0.00    -0.02  -0.00  -0.00    -0.08  -0.01  -0.02
     2   1    -0.02  -0.00  -0.01    -0.02  -0.00  -0.01    -0.08  -0.01  -0.05
     3   6    -0.01   0.00   0.01    -0.01   0.00  -0.00    -0.01   0.01   0.01
     4   6     0.03   0.00  -0.00     0.06  -0.00  -0.01     0.37   0.01  -0.14
     5   8    -0.00  -0.00   0.00    -0.01  -0.01   0.04    -0.05   0.00  -0.01
     6   8     0.06  -0.05  -0.01    -0.00   0.02  -0.07    -0.18  -0.02   0.08
     7   6    -0.12   0.19   0.04    -0.04  -0.06   0.18     0.10   0.04   0.03
     8   6     0.11  -0.15  -0.03     0.03   0.05  -0.13    -0.02  -0.02   0.06
     9   1    -0.09   0.10   0.08    -0.33   0.37  -0.02    -0.69  -0.28  -0.27
    10   1    -0.22   0.17   0.03     0.30  -0.26  -0.21     0.05   0.13   0.15
    11   1     0.09   0.46   0.20    -0.03  -0.07   0.28     0.00  -0.03  -0.13
    12   1    -0.40  -0.37  -0.15    -0.02   0.32   0.28     0.01  -0.19  -0.18
    13   1    -0.36  -0.20  -0.25    -0.07  -0.45  -0.10     0.01   0.09   0.05
    14   8    -0.00   0.00   0.00    -0.00   0.00   0.00    -0.00   0.01   0.00
    15   1    -0.00  -0.00  -0.00     0.00   0.00   0.00     0.01   0.02   0.00
                     25                     26                     27
                      A                      A                      A
 Frequencies --   1346.4980              1402.0760              1431.3818
 Red. masses --      1.2578                 1.2855                 1.3842
 Frc consts  --      1.3436                 1.4889                 1.6710
 IR Inten    --    102.9658                28.2234                12.8662
  Atom  AN      X      Y      Z        X      Y      Z        X      Y      Z
     1   6     0.01   0.00   0.00    -0.01  -0.00  -0.00    -0.01  -0.00  -0.00
     2   1     0.01   0.00   0.01    -0.01  -0.00  -0.01    -0.01  -0.00  -0.01
     3   6     0.00  -0.00  -0.00    -0.00   0.00   0.00    -0.00   0.00   0.00
     4   6    -0.07  -0.00   0.03     0.06  -0.00  -0.01     0.06   0.00  -0.01
     5   8     0.01  -0.01   0.02    -0.01   0.00  -0.01    -0.01   0.00  -0.01
     6   8     0.05   0.03  -0.08    -0.04   0.01   0.03    -0.04   0.01   0.02
     7   6    -0.04  -0.01  -0.00    -0.04  -0.04  -0.02    -0.08  -0.08  -0.05
     8   6    -0.00  -0.03   0.05    -0.02  -0.11  -0.05     0.07   0.07   0.04
     9   1    -0.50  -0.21  -0.18     0.32   0.25   0.11     0.44   0.28   0.14
    10   1     0.69   0.28   0.21     0.24   0.18   0.19     0.41   0.23   0.24
    11   1     0.01   0.07  -0.04    -0.02   0.48   0.21     0.07  -0.32  -0.10
    12   1    -0.02  -0.11  -0.05     0.18   0.25   0.34    -0.32  -0.17  -0.14
    13   1     0.02   0.19   0.03     0.22   0.39   0.00    -0.29  -0.18  -0.10
    14   8     0.00  -0.00  -0.00    -0.00   0.00   0.00    -0.00   0.00   0.00
    15   1    -0.00  -0.00   0.00     0.00   0.00   0.00     0.00   0.00   0.00
                     28                     29                     30
                      A                      A                      A
 Frequencies --   1491.1531              1502.4773              1515.0871
 Red. masses --      1.0401                 1.0550                 1.0932
 Frc consts  --      1.3625                 1.4032                 1.4785
 IR Inten    --     10.8678                 1.1043                21.3586
  Atom  AN      X      Y      Z        X      Y      Z        X      Y      Z
     1   6    -0.00  -0.00  -0.00     0.00   0.00   0.00     0.00   0.00   0.00
     2   1    -0.00  -0.00   0.00     0.00   0.00   0.00     0.01   0.00   0.00
     3   6     0.00  -0.00   0.00    -0.00   0.00  -0.00    -0.00  -0.00  -0.00
     4   6     0.00  -0.00   0.00    -0.01   0.00  -0.00    -0.03   0.00  -0.00
     5   8    -0.00   0.00  -0.01     0.00  -0.00   0.01     0.01  -0.00   0.01
     6   8    -0.00  -0.00   0.00     0.01  -0.00  -0.00     0.02  -0.00  -0.01
     7   6     0.01   0.02  -0.02     0.00  -0.04  -0.03     0.05  -0.05  -0.01
     8   6     0.01   0.01  -0.04    -0.03   0.03  -0.01     0.02  -0.02   0.00
     9   1    -0.00  -0.12  -0.01    -0.13   0.39  -0.14    -0.29   0.42  -0.23
    10   1    -0.00  -0.00  -0.04    -0.20   0.20   0.35    -0.38   0.14   0.36
    11   1    -0.08  -0.36   0.56    -0.04   0.14   0.28     0.03  -0.18  -0.17
    12   1    -0.55  -0.09   0.05     0.17  -0.19  -0.37    -0.20   0.14   0.29
    13   1     0.36   0.28   0.10     0.37  -0.35   0.23    -0.25   0.30  -0.17
    14   8    -0.00  -0.00   0.00     0.00  -0.00   0.00    -0.00  -0.00  -0.00
    15   1     0.00   0.00  -0.00    -0.00  -0.00  -0.00     0.00  -0.00   0.00
                     31                     32                     33
                      A                      A                      A
 Frequencies --   1844.1688              2208.3612              3075.8089
 Red. masses --     11.9972                 5.9844                 1.0353
 Frc consts  --     24.0398                17.1954                 5.7706
 IR Inten    --    340.7487                73.9523                 9.5434
  Atom  AN      X      Y      Z        X      Y      Z        X      Y      Z
     1   6    -0.07  -0.00  -0.02    -0.37  -0.03  -0.09     0.00   0.00   0.00
     2   1    -0.11  -0.02  -0.00    -0.71  -0.06  -0.19    -0.00  -0.00  -0.00
     3   6     0.05   0.00  -0.00     0.52   0.01   0.13    -0.00   0.00   0.00
     4   6     0.21  -0.21   0.73    -0.10   0.02  -0.04     0.00   0.00  -0.00
     5   8    -0.15   0.14  -0.47     0.00  -0.00   0.01     0.00   0.00   0.00
     6   8     0.02   0.02  -0.07    -0.00  -0.00   0.00    -0.00  -0.00   0.00
     7   6     0.03  -0.01   0.02     0.00   0.00  -0.00    -0.00   0.00   0.00
     8   6    -0.01   0.01   0.00    -0.00  -0.00  -0.00    -0.02  -0.04  -0.02
     9   1    -0.18   0.08  -0.09     0.01  -0.00  -0.00     0.00  -0.00  -0.01
    10   1    -0.14  -0.02   0.09     0.00  -0.00  -0.00     0.00  -0.02   0.01
    11   1     0.00  -0.04  -0.06     0.00   0.00   0.00     0.62  -0.03   0.08
    12   1     0.04   0.01  -0.01     0.00   0.00  -0.00    -0.13   0.45  -0.34
    13   1    -0.04  -0.05  -0.00     0.00   0.00   0.00    -0.23   0.05   0.47
    14   8    -0.00   0.01  -0.00     0.00   0.01   0.00    -0.00   0.00  -0.00
    15   1     0.03  -0.00   0.02    -0.00   0.00  -0.00    -0.00  -0.00   0.00
                     34                     35                     36
                      A                      A                      A
 Frequencies --   3107.3688              3152.4953              3154.2676
 Red. masses --      1.0607                 1.1020                 1.1044
 Frc consts  --      6.0345                 6.4528                 6.4740
 IR Inten    --     19.8633                13.0379                 4.1555
  Atom  AN      X      Y      Z        X      Y      Z        X      Y      Z
     1   6    -0.00   0.00  -0.00     0.00   0.00   0.00    -0.00   0.00  -0.00
     2   1     0.00   0.00   0.00    -0.00   0.00  -0.00    -0.00   0.00  -0.00
     3   6     0.00  -0.00  -0.00    -0.00  -0.00  -0.00     0.00  -0.00  -0.00
     4   6    -0.00  -0.00   0.00     0.00   0.00  -0.00     0.00  -0.00   0.00
     5   8    -0.00   0.00  -0.00    -0.00   0.00   0.00    -0.00   0.00  -0.00
     6   8     0.00   0.00  -0.00     0.00  -0.00   0.00    -0.00  -0.00  -0.00
     7   6     0.03  -0.06  -0.00    -0.01  -0.00   0.03    -0.01  -0.02   0.05
     8   6    -0.01   0.01  -0.00    -0.06   0.05  -0.04     0.06  -0.00  -0.05
     9   1    -0.23   0.06   0.50     0.15  -0.05  -0.33     0.16  -0.05  -0.36
    10   1    -0.13   0.65  -0.48    -0.02   0.07  -0.05    -0.06   0.28  -0.20
    11   1     0.12  -0.01   0.01     0.58  -0.02   0.07    -0.48   0.02  -0.07
    12   1     0.01  -0.05   0.04     0.14  -0.56   0.41     0.03  -0.06   0.04
    13   1     0.01  -0.00  -0.03    -0.04   0.02   0.06    -0.29   0.08   0.62
    14   8     0.00  -0.00   0.00    -0.00   0.00   0.00     0.00  -0.00  -0.00
    15   1     0.00   0.00  -0.00     0.00   0.00  -0.00    -0.00  -0.00  -0.00
                     37                     38                     39
                      A                      A                      A
 Frequencies --   3175.0733              3484.4841              3806.1366
 Red. masses --      1.1073                 1.1617                 1.0673
 Frc consts  --      6.5771                 8.3101                 9.1101
 IR Inten    --     14.8615                68.6970                41.5042
  Atom  AN      X      Y      Z        X      Y      Z        X      Y      Z
     1   6    -0.00  -0.00  -0.00    -0.11  -0.01  -0.03    -0.00   0.00  -0.00
     2   1     0.00   0.00   0.00     0.96   0.05   0.25    -0.00   0.00   0.00
     3   6     0.00  -0.00   0.00     0.03   0.00   0.01     0.00   0.00   0.00
     4   6    -0.00   0.00  -0.00    -0.00   0.00  -0.00     0.00  -0.00  -0.00
     5   8     0.00  -0.00   0.00     0.00   0.00  -0.00    -0.00   0.00  -0.00
     6   8     0.00  -0.00   0.00     0.00  -0.00  -0.00    -0.00  -0.00   0.00
     7   6     0.02   0.02  -0.07    -0.00   0.00   0.00     0.00  -0.00   0.00
     8   6     0.02   0.02  -0.05     0.00  -0.00   0.00    -0.00   0.00  -0.00
     9   1    -0.26   0.09   0.58     0.00  -0.00  -0.00    -0.00   0.00   0.00
    10   1     0.07  -0.34   0.24     0.00   0.00   0.00    -0.00  -0.00  -0.00
    11   1    -0.06   0.01  -0.02     0.00   0.00   0.00    -0.00  -0.00   0.00
    12   1     0.09  -0.31   0.22    -0.00   0.00  -0.00    -0.00  -0.00   0.00
    13   1    -0.21   0.06   0.45    -0.00  -0.00  -0.00     0.00   0.00   0.00
    14   8    -0.00  -0.00   0.00     0.00   0.00   0.00     0.04  -0.01  -0.05
    15   1     0.00   0.00  -0.00     0.00  -0.00  -0.00    -0.65   0.09   0.75

 -------------------
 - Thermochemistry -
 -------------------
 Temperature   298.150 Kelvin.  Pressure   1.00000 Atm.
 Atom     1 has atomic number  6 and mass  12.00000
 Atom     2 has atomic number  1 and mass   1.00783
 Atom     3 has atomic number  6 and mass  12.00000
 Atom     4 has atomic number  6 and mass  12.00000
 Atom     5 has atomic number  8 and mass  15.99491
 Atom     6 has atomic number  8 and mass  15.99491
 Atom     7 has atomic number  6 and mass  12.00000
 Atom     8 has atomic number  6 and mass  12.00000
 Atom     9 has atomic number  1 and mass   1.00783
 Atom    10 has atomic number  1 and mass   1.00783
 Atom    11 has atomic number  1 and mass   1.00783
 Atom    12 has atomic number  1 and mass   1.00783
 Atom    13 has atomic number  1 and mass   1.00783
 Atom    14 has atomic number  8 and mass  15.99491
 Atom    15 has atomic number  1 and mass   1.00783
 Molecular mass:   115.03952 amu.
 Principal axes and moments of inertia in atomic units:
                           1         2         3
     Eigenvalues --   510.318881380.083461528.78227
           X            0.99994   0.01074  -0.00089
           Y           -0.01064   0.99726   0.07321
           Z            0.00167  -0.07319   0.99732
 This molecule is an asymmetric top.
 Rotational symmetry number  1.
 Warning -- assumption of classical behavior for rotation
           may cause significant error
 Rotational temperatures (Kelvin)      0.16973     0.06276     0.05666
 Rotational constants (GHZ):           3.53650     1.30770     1.18051
    2 imaginary frequencies ignored.
 Zero-point vibrational energy     292996.2 (Joules/Mol)
                                   70.02778 (Kcal/Mol)
 Warning -- explicit consideration of  11 degrees of freedom as
           vibrations may cause significant error
 Vibrational temperatures:     66.15   166.01   193.42   230.62   301.35
          (Kelvin)            325.63   368.18   483.71   615.37   804.05
                              874.11   921.87  1035.63  1069.87  1114.08
                             1155.45  1291.42  1337.03  1548.12  1625.48
                             1733.04  1858.31  1937.31  2017.27  2059.44
                             2145.44  2161.73  2179.87  2653.35  3177.34
                             4425.40  4470.81  4535.74  4538.29  4568.22
                             5013.40  5476.18
 
 Zero-point correction=                           0.111596 (Hartree/Particle)
 Thermal correction to Energy=                    0.120543
 Thermal correction to Enthalpy=                  0.121487
 Thermal correction to Gibbs Free Energy=         0.076736
 Sum of electronic and zero-point Energies=           -420.092606
 Sum of electronic and thermal Energies=              -420.083660
 Sum of electronic and thermal Enthalpies=            -420.082715
 Sum of electronic and thermal Free Energies=         -420.127466
 
                     E (Thermal)             CV                S
                      KCal/Mol        Cal/Mol-Kelvin    Cal/Mol-Kelvin
 Total                   75.642             30.495             94.186
 Electronic               0.000              0.000              1.377
 Translational            0.889              2.981             40.136
 Rotational               0.889              2.981             28.467
 Vibrational             73.864             24.534             24.206
 Vibration     1          0.595              1.979              4.983
 Vibration     2          0.608              1.937              3.176
 Vibration     3          0.613              1.919              2.882
 Vibration     4          0.622              1.891              2.546
 Vibration     5          0.642              1.826              2.048
 Vibration     6          0.650              1.801              1.908
 Vibration     7          0.666              1.753              1.690
 Vibration     8          0.717              1.603              1.230
 Vibration     9          0.789              1.410              0.866
 Vibration    10          0.914              1.120              0.526
 Vibration    11          0.966              1.016              0.437
                       Q            Log10(Q)             Ln(Q)
 Total Bot       0.505603D-35        -35.296190        -81.272482
 Total V=0       0.108276D+17         16.034531         36.920873
 Vib (Bot)       0.140334D-48        -48.852837       -112.487814
 Vib (Bot)    1  0.449767D+01          0.652988          1.503559
 Vib (Bot)    2  0.177293D+01          0.248693          0.572636
 Vib (Bot)    3  0.151472D+01          0.180333          0.415232
 Vib (Bot)    4  0.126115D+01          0.100768          0.232027
 Vib (Bot)    5  0.948474D+00         -0.022974         -0.052901
 Vib (Bot)    6  0.871627D+00         -0.059669         -0.137394
 Vib (Bot)    7  0.760531D+00         -0.118883         -0.273738
 Vib (Bot)    8  0.553633D+00         -0.256778         -0.591253
 Vib (Bot)    9  0.408108D+00         -0.389225         -0.896224
 Vib (Bot)   10  0.278428D+00         -0.555287         -1.278595
 Vib (Bot)   11  0.243872D+00         -0.612838         -1.411111
 Vib (V=0)       0.300528D+03          2.477885          5.705541
 Vib (V=0)    1  0.502538D+01          0.701169          1.614500
 Vib (V=0)    2  0.234209D+01          0.369604          0.851044
 Vib (V=0)    3  0.209511D+01          0.321207          0.739607
 Vib (V=0)    4  0.185665D+01          0.268731          0.618775
 Vib (V=0)    5  0.157220D+01          0.196507          0.452473
 Vib (V=0)    6  0.150485D+01          0.177495          0.408696
 Vib (V=0)    7  0.141017D+01          0.149271          0.343709
 Vib (V=0)    8  0.124600D+01          0.095517          0.219935
 Vib (V=0)    9  0.114541D+01          0.058960          0.135761
 Vib (V=0)   10  0.107230D+01          0.030315          0.069802
 Vib (V=0)   11  0.105630D+01          0.023789          0.054776
 Electronic      0.200000D+01          0.301030          0.693147
 Translational   0.484981D+08          7.685724         17.697035
 Rotational      0.371443D+06          5.569892         12.825150
 ***** Axes restored to original set *****
 -------------------------------------------------------------------
 Center     Atomic                   Forces (Hartrees/Bohr)
 Number     Number              X              Y              Z
 -------------------------------------------------------------------
      1        6          -0.001219978    0.000082324   -0.000386834
      2        1          -0.000077873    0.000406212    0.000040207
      3        6          -0.000344247   -0.011230164   -0.001493698
      4        6          -0.000192611   -0.001934620   -0.000286683
      5        8           0.000708285    0.000991155    0.000411996
      6        8          -0.000071117    0.000196344    0.000089849
      7        6          -0.000089718    0.000253793    0.000091209
      8        6           0.000111178    0.000128122    0.000068354
      9        1          -0.000008460    0.000013631    0.000005465
     10        1          -0.000014444    0.000017284    0.000014819
     11        1           0.000010912    0.000004024   -0.000003266
     12        1           0.000015449    0.000013580    0.000007020
     13        1           0.000017629    0.000011811    0.000005784
     14        8           0.001049439    0.010903611    0.001441482
     15        1           0.000105556    0.000142894   -0.000005703
 -------------------------------------------------------------------
 Cartesian Forces:  Max     0.011230164 RMS     0.002394749

 GradGradGradGradGradGradGradGradGradGradGradGradGradGradGradGradGradGrad
 Berny optimization.
 Search for a local minimum.
 Step number   1 out of a maximum of    2
 All quantities printed in internal units (Hartrees-Bohrs-Radians)
 Second derivative matrix not updated -- analytic derivatives used.
 ITU=  0
     Eigenvalues ---   -0.01696  -0.00019   0.00026   0.00165   0.00225
     Eigenvalues ---    0.00431   0.00462   0.00572   0.01095   0.02054
     Eigenvalues ---    0.02374   0.03225   0.03533   0.05258   0.06335
     Eigenvalues ---    0.07594   0.07772   0.08718   0.09504   0.10205
     Eigenvalues ---    0.11508   0.14137   0.17047   0.17365   0.19907
     Eigenvalues ---    0.28745   0.29482   0.43718   0.49440   0.62806
     Eigenvalues ---    0.70905   0.76567   0.79237   0.86801   0.89917
     Eigenvalues ---    0.92996   0.97849   1.73383   2.60248
 Eigenvalue     1 is  -1.70D-02 should be greater than     0.000000 Eigenvector:
                          Y3        Y14       Y4        Y2        Z3
   1                    0.70969  -0.63065   0.12584  -0.11165   0.10897
                          Z14       X14       Y15       Z15       Y5
   1                   -0.09496  -0.09294  -0.09006  -0.08264  -0.08006
 Eigenvalue     2 is  -1.93D-04 should be greater than     0.000000 Eigenvector:
                          Z15       Z14       Z12       Y15       Y9
   1                    0.45095   0.31483  -0.27556  -0.27181  -0.26603
                          Z2        X14       Y5        Z1        Z10
   1                   -0.26380  -0.25415   0.20960  -0.19225   0.18880
 Quadratic step=2.867D+00 exceeds max=3.000D-01 adjusted using Lamda=-3.616D-02.
 Angle between NR and scaled steps=  67.17 degrees.
 Angle between quadratic step and forces=   6.06 degrees.
 Linear search not attempted -- first point.
 B after Tr=     0.001398    0.001691   -0.000292
         Rot=    1.000000    0.000266    0.000039    0.000073 Ang=   0.03 deg.
 Variable       Old X    -DE/DX   Delta X   Delta X   Delta X     New X
                                 (Linear)    (Quad)   (Total)
    X1       -5.27032  -0.00122   0.00000  -0.01419  -0.01286  -5.28318
    Y1       -0.92867   0.00008   0.00000  -0.01384  -0.01182  -0.94049
    Z1       -0.82803  -0.00039   0.00000  -0.00630  -0.00650  -0.83453
    X2       -7.21370  -0.00008   0.00000  -0.01443  -0.01308  -7.22678
    Y2       -1.03485   0.00041   0.00000   0.01025   0.01229  -1.02257
    Z2       -1.34101   0.00004   0.00000   0.00097   0.00066  -1.34035
    X3       -3.07049  -0.00034   0.00000  -0.00806  -0.00677  -3.07726
    Y3       -0.71335  -0.01123   0.00000  -0.21078  -0.20880  -0.92215
    Z3       -0.27708  -0.00149   0.00000  -0.02870  -0.02874  -0.30582
    X4       -0.42171  -0.00019   0.00000  -0.00446  -0.00326  -0.42497
    Y4       -1.07670  -0.00193   0.00000  -0.03683  -0.03484  -1.11154
    Z4        0.44159  -0.00029   0.00000  -0.00535  -0.00508   0.43651
    X5        0.21343   0.00071   0.00000   0.01240   0.01336   0.22679
    Y5       -1.69653   0.00099   0.00000   0.01254   0.01555  -1.68098
    Z5        2.52567   0.00041   0.00000   0.00663   0.00725   2.53292
    X6        1.09666  -0.00007   0.00000  -0.00243  -0.00101   1.09565
    Y6       -0.69911   0.00020   0.00000   0.00226   0.00299  -0.69612
    Z6       -1.51734   0.00009   0.00000   0.00113   0.00129  -1.51605
    X7        3.76861  -0.00009   0.00000  -0.00320  -0.00185   3.76675
    Y7       -0.85877   0.00025   0.00000   0.00355   0.00416  -0.85461
    Z7       -1.00504   0.00009   0.00000   0.00032   0.00077  -1.00426
    X8        4.69680   0.00011   0.00000   0.00124   0.00284   4.69964
    Y8        1.54938   0.00013   0.00000   0.00032   0.00145   1.55083
    Z8        0.23654   0.00007   0.00000   0.00221   0.00146   0.23799
    X9        4.61665  -0.00001   0.00000  -0.00305  -0.00160   4.61505
    Y9       -1.14257   0.00001   0.00000   0.00233   0.00182  -1.14075
    Z9       -2.85725   0.00001   0.00000   0.00005   0.00072  -2.85653
   X10        4.12068  -0.00001   0.00000  -0.00370  -0.00268   4.11800
   Y10       -2.51092   0.00002   0.00000   0.00135   0.00254  -2.50839
   Z10        0.17560   0.00001   0.00000  -0.00153  -0.00016   0.17544
   X11        6.74145   0.00001   0.00000   0.00127   0.00285   6.74429
   Y11        1.45449   0.00000   0.00000  -0.00185  -0.00089   1.45360
   Z11        0.49495  -0.00000   0.00000   0.00087   0.00033   0.49528
   X12        4.25280   0.00002   0.00000   0.00211   0.00405   4.25685
   Y12        3.17905   0.00001   0.00000   0.00065   0.00121   3.18027
   Z12       -0.94469   0.00001   0.00000   0.00238   0.00073  -0.94397
   X13        3.81464   0.00002   0.00000   0.00131   0.00281   3.81745
   Y13        1.79844   0.00001   0.00000  -0.00141   0.00083   1.79927
   Z13        2.08173   0.00001   0.00000   0.00204   0.00109   2.08281
   X14       -2.64835   0.00105   0.00000   0.02459   0.02648  -2.62187
   Y14        3.26890   0.01090   0.00000   0.20208   0.20425   3.47316
   Z14        0.17053   0.00144   0.00000   0.01913   0.01678   0.18731
   X15       -3.84379   0.00011   0.00000  -0.01103  -0.00925  -3.85304
   Y15        3.43894   0.00014   0.00000   0.00617   0.00925   3.44819
   Z15        1.55188  -0.00001   0.00000   0.01183   0.00940   1.56128
         Item               Value     Threshold  Converged?
 Maximum Force            0.011230     0.000450     NO 
 RMS     Force            0.002395     0.000300     NO 
 Maximum Displacement     0.208799     0.001800     NO 
 RMS     Displacement     0.044703     0.001200     NO 
 Predicted change in Energy=-5.516288D-03
 GradGradGradGradGradGradGradGradGradGradGradGradGradGradGradGradGradGrad


 ----------------------------------------------------------------------

 Electric dipole moment (input orientation):
 (Debye = 10**-18 statcoulomb cm , SI units = C m)
                  (au)            (Debye)         (10**-30 SI)
   Tot        0.365016D+00      0.927777D+00      0.309473D+01
   x         -0.255049D+00     -0.648270D+00     -0.216240D+01
   y          0.329069D-01      0.836409D-01      0.278996D+00
   z         -0.259043D+00     -0.658422D+00     -0.219626D+01

 Dipole polarizability, Alpha (input orientation).
 (esu units = cm**3 , SI units = C**2 m**2 J**-1)
 Alpha(0;0):
               (au)            (10**-24 esu)      (10**-40 SI)
   iso        0.731992D+02      0.108470D+02      0.120689D+02
   aniso      0.316271D+02      0.468665D+01      0.521460D+01
   xx         0.914515D+02      0.135517D+02      0.150783D+02
   yx         0.617622D+01      0.915221D+00      0.101832D+01
   yy         0.687029D+02      0.101807D+02      0.113276D+02
   zx         0.448991D+01      0.665336D+00      0.740286D+00
   zy         0.195526D+01      0.289740D+00      0.322379D+00
   zz         0.594431D+02      0.880856D+01      0.980085D+01

 ----------------------------------------------------------------------

 Dipole orientation:
     6         -3.22092521          1.19308413          4.18646501
     1         -4.25480757          1.41661478          5.89885587
     6         -2.02633140          0.84807311          2.27777970
     6         -0.64950414          1.04730935         -0.11578673
     8         -1.67480014          1.45290934         -2.09448580
     8          1.81794522          0.79217328          0.24751910
     6          3.36302162          0.80643807         -1.99742493
     6          3.24735298         -1.73639121         -3.31000458
     1          5.25264355          1.22462668         -1.30109515
     1          2.72872979          2.33133033         -3.23025345
     1          4.52405074         -1.74057842         -4.93061473
     1          3.81555505         -3.23546446         -2.01455437
     1          1.33698591         -2.11811029         -3.98064429
     8         -1.89077891         -3.17115960          2.02417447
     1         -3.70376907         -3.42087465          1.89448712

 Electric dipole moment (dipole orientation):
 (Debye = 10**-18 statcoulomb cm , SI units = C m)
                  (au)            (Debye)         (10**-30 SI)
   Tot        0.365016D+00      0.927777D+00      0.309473D+01
   x          0.000000D+00      0.000000D+00      0.000000D+00
   y          0.000000D+00      0.000000D+00      0.000000D+00
   z          0.365016D+00      0.927777D+00      0.309473D+01

 Dipole polarizability, Alpha (dipole orientation).
 (esu units = cm**3 , SI units = C**2 m**2 J**-1)
 Alpha(0;0):
               (au)            (10**-24 esu)      (10**-40 SI)
   iso        0.731992D+02      0.108470D+02      0.120689D+02
   aniso      0.316271D+02      0.468665D+01      0.521460D+01
   xx         0.715349D+02      0.106004D+02      0.117945D+02
   yx        -0.440237D+01     -0.652363D+00     -0.725852D+00
   yy         0.694922D+02      0.102977D+02      0.114577D+02
   zx        -0.159676D+02     -0.236615D+01     -0.263270D+01
   zy         0.603308D+01      0.894011D+00      0.994721D+00
   zz         0.785704D+02      0.116429D+02      0.129545D+02

 ----------------------------------------------------------------------
 1\1\GINC-AJ\Freq\UM062X\6-311++G(d,p)\C5H7O3(2)\AAYUSH\23-Jun-2025\0\\
 # freq 6-311++g(d,p) m062x\\Title Card Required\\0,2\C,-2.788932,-0.49
 143,-0.438172\H,-3.817325,-0.547621,-0.709633\C,-1.624831,-0.377491,-0
 .146622\C,-0.223159,-0.569765,0.233677\O,0.112942,-0.897766,1.336526\O
 ,0.580327,-0.369954,-0.80294\C,1.99426,-0.45444,-0.531842\C,2.485441,0
 .819897,0.125169\H,2.443027,-0.604622,-1.511992\H,2.180572,-1.328723,0
 .092926\H,3.56742,0.769681,0.261916\H,2.250485,1.682281,-0.499911\H,2.
 018621,0.951693,1.101602\O,-1.401448,1.729829,0.09024\H,-2.034047,1.81
 9809,0.821218\\Version=ES64L-G16RevA.03\State=2-A\HF=-420.2042022\S2=0
 .763471\S2-1=0.\S2A=0.750087\RMSD=5.383e-09\RMSF=2.395e-03\ZeroPoint=0
 .1115964\Thermal=0.1205427\Dipole=-0.2550491,0.0329069,-0.2590433\Dipo
 leDeriv=-0.2796754,0.3192217,0.0229043,0.03519,-0.1325726,0.0093378,0.
 0172698,0.0775371,-0.1248322,0.2770118,0.0252441,0.0185613,0.0168908,0
 .2029389,-0.0026237,0.010427,-0.0008633,0.2257387,-0.4986039,-0.347657
 ,-0.1398455,-0.0708821,-0.5880838,-0.1064262,-0.1128218,-0.1073055,-0.
 1500193,2.1497838,-0.2519374,-0.1020668,0.0029351,0.5973368,-0.3317769
 ,-0.4769346,-0.4559985,1.667458,-0.8198856,0.1434268,-0.207161,0.02304
 56,-0.4526412,0.2266049,0.0094099,0.308147,-1.0620314,-1.6337401,-0.08
 22598,0.3784129,-0.0849897,-0.3382434,0.0669197,0.5112742,0.105456,-0.
 849809,0.9913029,0.081827,-0.070578,0.0235623,0.3203271,0.0723719,0.06
 83954,0.0265912,0.2892707,-0.062213,-0.0220068,0.0364817,-0.0465475,-0
 .0552726,-0.0792816,-0.0265016,-0.0499244,-0.0083819,-0.0248932,-0.002
 9448,0.0307146,-0.0079494,0.055055,-0.0309049,0.0705552,-0.0558288,-0.
 0710056,-0.0172772,-0.0348396,0.0201068,0.0222662,-0.0558435,0.0262416
 ,-0.066426,0.0636925,0.0383699,-0.1320127,-0.0074764,-0.0231875,0.0051
 848,0.0644259,0.0015663,-0.0249587,-0.0115337,0.0949746,0.0833373,0.04
 2571,-0.0387524,-0.0019604,-0.0432584,0.0397084,-0.0304569,0.0691957,0
 .0056468,0.0743808,0.0182566,0.0721776,-0.0035517,0.0400142,-0.0042724
 ,0.0547862,-0.0328409,-0.0304034,-0.3177237,0.1835246,-0.0512123,0.093
 6399,0.0561142,0.1020971,-0.0846454,-0.003392,-0.2545711,0.2102081,-0.
 0649499,0.0534445,-0.006834,0.3297036,0.0104378,0.0806272,0.0670676,0.
 2295951\Polar=91.4514985,6.176218,68.7029042,4.4899117,1.9552629,59.44
 31264\Quadrupole=9.8112836,-3.9756895,-5.8355941,-0.1786343,-1.3519919
 ,3.7969615\PG=C01 [X(C5H7O3)]\NImag=2\\1.41305572,0.09976189,0.0670328
 7,0.34634951,0.02741425,0.14304639,-0.39685664,-0.02144692,-0.09755226
 ,0.38727280,-0.01578700,-0.02730729,-0.00506515,0.02048998,0.01721705,
 -0.09801636,-0.00645591,-0.05184170,0.09787591,0.00599651,0.04201706,-
 1.01548516,-0.07816563,-0.24601019,0.00915268,-0.00462715,0.00215377,1
 .33060803,-0.04158629,-0.02694733,-0.01000708,0.00119306,0.00672146,0.
 00111640,0.01259704,0.02784511,-0.24490406,-0.01894361,-0.09558344,0.0
 0104381,-0.00054441,0.00476073,0.29907432,-0.00950771,0.18436607,0.015
 66195,0.00465008,0.00114107,-0.00072636,0.00014518,-0.00201254,-0.2531
 1751,0.00770051,-0.04739088,0.66119648,-0.01425944,0.00064061,-0.00373
 205,-0.00054692,0.00457993,-0.00018199,0.03014840,-0.05810564,0.005402
 42,-0.05865603,0.27222746,0.00007441,0.00117932,0.00287839,-0.00122801
 ,0.00020858,0.00519747,-0.03345960,-0.00258268,-0.06747153,0.11113900,
 -0.20222925,0.92670253,-0.00536522,-0.00018856,-0.00026456,0.00020454,
 -0.00028004,0.00152981,-0.01927609,0.01766007,-0.04652260,-0.17025416,
 0.05934003,-0.18831564,0.16682789,0.00199808,0.00065186,0.00015907,0.0
 0016437,-0.00066349,-0.00049328,0.01187799,0.01313815,0.01627142,0.054
 66317,-0.13092721,0.17167778,-0.06487924,0.09906177,-0.00120615,-0.000
 55291,0.00116627,0.00001036,-0.00034097,0.00036462,-0.03811225,0.01800
 726,-0.02788953,-0.17808560,0.17067300,-0.65230320,0.19828547,-0.21699
 134,0.77811195,-0.00826465,0.00015437,-0.00226940,0.00100680,0.0002234
 0,-0.00115812,-0.05344662,0.00108703,0.03399946,-0.19626193,-0.0189402
 9,0.10126909,0.02666946,-0.00604393,0.03083882,0.50391603,0.00047497,0
 .00071010,0.00020955,0.00001357,-0.00035722,0.00006497,0.00104661,0.00
 973070,-0.00033773,-0.01391363,-0.07481798,0.03426203,-0.00793250,0.02
 351351,0.03077579,0.00990001,0.10379682,0.00049830,0.00003909,-0.00002
 900,-0.00006390,-0.00009608,-0.00060724,0.00889057,-0.00020073,0.00591
 980,0.07813201,0.03439257,-0.22267470,0.03050480,0.03036212,-0.0984895
 7,-0.09534119,-0.07289437,0.40545888,0.00239600,-0.00014053,0.00054593
 ,-0.00036381,0.00001887,0.00000036,0.00199270,-0.00241909,0.00017734,-
 0.05499867,-0.00437521,0.03444544,-0.00051658,0.00564224,-0.01970597,-
 0.17729290,0.01230575,-0.01989506,0.45351341,0.00087598,-0.00011335,0.
 00015682,0.00004393,-0.00017477,0.00002977,-0.00037548,0.00442049,0.00
 118816,-0.00489058,0.00246865,-0.00833986,0.00240964,-0.00565800,0.000
 73060,0.01558143,-0.06894863,0.01164960,-0.02331606,0.56072922,0.00117
 077,0.00003246,0.00067887,-0.00003376,-0.00004443,0.00024267,0.0042744
 5,0.00107464,-0.00363190,0.03438462,-0.00543314,0.01283342,0.00112953,
 -0.00053596,-0.00404992,-0.04214095,0.01116424,-0.09744587,-0.06052342
 ,-0.03868006,0.63230184,-0.00025947,-0.00001734,-0.00002100,0.00009045
 ,-0.00004747,-0.00002220,-0.00053461,0.00154460,0.00071114,0.00193790,
 -0.00114978,-0.00911463,0.00079939,-0.00158480,0.00269108,-0.03754096,
 -0.03512975,-0.01731124,-0.07989979,-0.02177987,-0.00795447,0.57788634
 ,0.00019565,-0.00006190,0.00006109,-0.00001195,0.00000588,-0.00001313,
 -0.00028989,-0.00025758,-0.00019872,-0.00066241,-0.00039170,0.00359585
 ,-0.00109462,-0.00024813,-0.00182456,-0.00143290,0.00590569,-0.0011066
 1,-0.03321838,-0.18576650,-0.05041418,-0.02945563,0.52118249,0.0000239
 2,-0.00001932,-0.00004278,0.00001088,-0.00001795,0.00000475,-0.0003678
 8,0.00037794,0.00010091,0.00144668,0.00100714,0.00229317,-0.00121713,-
 0.00160215,-0.00051036,-0.00801607,-0.00449301,-0.00142715,-0.01273496
 ,-0.04903122,-0.10984650,-0.01496116,-0.03437682,0.57109942,-0.0006621
 7,0.00004125,-0.00024963,0.00004820,0.00002391,-0.00004961,-0.00115203
 ,-0.00037211,0.00111990,-0.00371046,0.00343571,-0.00559508,0.00152151,
 -0.00055333,0.00133273,-0.03419226,0.00234092,0.03409438,-0.08577793,0
 .01466260,0.09200119,0.00684364,-0.00098009,-0.01114989,0.11254640,-0.
 00003086,-0.00000518,0.00001994,0.00000829,-0.00000904,0.00000075,0.00
 016289,0.00017999,-0.00004368,-0.00003531,-0.00065191,0.00249960,-0.00
 163444,0.00064770,-0.00040513,0.00297861,0.00064961,-0.00254517,0.0146
 2393,-0.05750987,-0.02947160,0.01140874,-0.00390268,-0.02754461,-0.014
 49721,0.05748407,-0.00007230,0.00002295,-0.00006177,-0.00001476,0.0000
 0336,-0.00002542,-0.00021281,-0.00024683,0.00027166,-0.00250125,0.0006
 4919,-0.00103260,0.00142968,-0.00045992,0.00096192,-0.00629435,0.00181
 793,0.00947914,0.10576639,-0.03075771,-0.28225831,0.00409688,-0.001279
 81,-0.01091599,-0.10705004,0.03600956,0.29615690,-0.00026239,0.0000895
 5,-0.00002209,0.00003048,0.00003765,-0.00002239,-0.00012123,-0.0007065
 9,0.00005938,0.00275302,0.00332917,-0.00876704,0.00042512,-0.00100023,
 0.00395984,-0.02713377,0.02966955,-0.02063824,-0.05463953,0.02618104,-
 0.01648281,0.00383062,-0.00945622,0.00732804,0.00420378,-0.01114251,0.
 00648861,0.07102015,-0.00015228,0.00001790,-0.00002154,-0.00000393,0.0
 0001041,0.00001664,0.00013585,-0.00012353,-0.00022730,-0.00046386,-0.0
 0003825,0.00359709,-0.00221371,0.00054856,-0.00098534,0.00486068,0.002
 20321,-0.00088988,0.03458958,-0.22530515,0.12398873,0.00319384,-0.0218
 5971,0.01578392,-0.00206188,0.00570792,-0.00329440,-0.03588517,0.24066
 407,-0.00009197,-0.00006833,0.00000135,0.00002535,-0.00000540,0.000002
 33,-0.00027833,0.00055282,-0.00004350,0.00269649,-0.00032045,-0.000293
 26,0.00158664,-0.00078547,-0.00071357,-0.00756034,0.00254837,-0.002643
 89,-0.02483879,0.12695282,-0.14296029,0.00325975,-0.01402450,0.0103618
 2,-0.00436289,0.02250446,-0.01399318,0.02991261,-0.13525970,0.15018555
 ,-0.00006977,0.00001144,0.00000283,0.00003532,0.00000418,0.00000838,-0
 .00012607,0.00014032,-0.00001582,0.00147016,0.00048613,-0.00130073,-0.
 00007839,-0.00042226,0.00041491,-0.00059198,-0.00275146,-0.00030888,-0
 .01011062,0.00315820,0.00027891,-0.31400653,0.01274340,-0.03371212,0.0
 0028347,-0.00018215,-0.00034291,0.00019335,-0.00041970,0.00015043,0.34
 024659,-0.00023439,0.00001125,-0.00005428,0.00001793,-0.00001037,-0.00
 000727,-0.00004607,0.00050718,0.00028607,0.00105213,-0.00003084,-0.002
 92967,0.00022243,-0.00036605,0.00105622,-0.00638634,-0.00556247,-0.002
 28474,-0.02637161,0.00488041,-0.00063959,0.01459143,-0.04859436,0.0010
 9876,0.00064939,0.00104693,-0.00015539,0.00061376,0.00046630,0.0010772
 7,-0.01343546,0.04905118,-0.00007702,0.00001762,0.00000567,0.00000768,
 -0.00000053,-0.00000522,-0.00005667,0.00004835,0.00008815,0.00043253,-
 0.00003320,-0.00278217,0.00054690,0.00031114,0.00112061,-0.00392117,-0
 .00364033,0.00021656,-0.01302624,0.00375923,-0.00250311,-0.03257370,0.
 00063932,-0.05027055,0.00040803,0.00059738,-0.00006492,0.00020318,0.00
 009768,0.00041742,0.03744257,0.00006797,0.05051765,-0.00010390,0.00001
 106,-0.00002382,-0.00002510,-0.00000965,0.00000036,0.00016762,0.000164
 84,0.00000148,-0.00028611,-0.00046800,0.00152046,-0.00051605,-0.000014
 62,-0.00071081,0.00209257,0.00056363,0.00044231,0.00055982,-0.01043087
 ,0.00639176,-0.06014849,0.04842261,-0.03405028,0.00010144,0.00079783,0
 .00002147,-0.00019887,-0.00223719,-0.00103053,-0.00504595,0.02573130,-
 0.01849032,0.06014866,-0.00009670,0.00002163,-0.00003142,-0.00000212,-
 0.00000326,0.00000420,0.00000603,0.00004833,0.00002646,-0.00009235,-0.
 00039651,0.00074346,-0.00015747,0.00022583,-0.00038908,0.00105155,0.00
 299734,0.00012462,0.00695533,-0.02559654,0.01729884,0.04599172,-0.2148
 3576,0.12383328,0.00025762,0.00104705,-0.00007962,-0.00213240,-0.00337
 810,-0.00358686,0.00002072,0.00014737,-0.00086356,-0.04995267,0.235791
 78,0.00014415,-0.00001695,0.00002920,0.00000450,0.00000621,0.00000126,
 -0.00008114,-0.00030325,-0.00001997,-0.00044958,0.00048775,-0.00050059
 ,0.00054311,0.00031375,0.00043304,0.00159110,0.00098061,0.00033268,0.0
 0382273,-0.01492001,0.01000219,-0.03446777,0.12625772,-0.14177771,0.00
 056715,0.00057338,0.00091301,-0.00176851,-0.00300303,-0.00098031,-0.00
 002906,0.00135706,-0.00277698,0.03833640,-0.13415967,0.14911626,0.0000
 5885,-0.00003500,-0.00000952,-0.00003136,-0.00000512,-0.00000472,0.000
 08854,0.00011664,0.00004915,-0.00082775,-0.00059002,-0.00103641,-0.000
 67850,-0.00065167,0.00063265,0.00131888,0.00115481,0.00065731,0.004396
 54,-0.00185171,-0.01219880,-0.09897415,0.01528116,0.10733845,-0.000032
 20,-0.00247391,-0.00134638,0.00001738,0.00065325,0.00053001,-0.0120847
 1,0.00351175,0.02908906,0.00309403,-0.00186493,-0.00813118,0.10334191,
 0.00019890,-0.00001032,0.00001997,-0.00000914,0.00000419,-0.00001373,-
 0.00017072,-0.00036792,0.00014958,-0.00101682,0.00082301,-0.00296226,0
 .00061800,-0.00052047,0.00183371,-0.00014681,0.00161790,0.00285735,0.0
 1542210,-0.00458315,-0.02894839,0.01242330,-0.05111075,-0.02494037,-0.
 00277685,-0.00469512,-0.00215446,0.00055406,0.00112917,0.00037132,0.00
 060465,-0.00150921,-0.00097987,-0.01251953,0.00396634,0.02234331,-0.01
 311888,0.05522482,-0.00005041,0.00000635,-0.00000281,-0.00002349,0.000
 00830,-0.00001470,0.00007975,-0.00006015,0.00006024,-0.00047484,-0.000
 40556,-0.00140148,0.00092715,0.00107148,0.00059439,-0.00046075,0.00087
 511,0.00116161,0.00615589,-0.00271616,-0.01337762,0.10575055,-0.027422
 45,-0.26888019,-0.00103267,-0.00222166,0.00055012,-0.00033297,0.000238
 99,0.00065755,-0.00256208,0.00114108,0.00597535,0.00764334,-0.00287708
 ,-0.01476864,-0.11573524,0.03244092,0.28938873,-0.00501224,-0.00369459
 ,-0.00113738,0.00011411,0.00021442,-0.00015937,0.00253491,0.00567786,0
 .00482503,-0.00219997,0.00194212,-0.00243575,0.00037049,0.00106510,0.0
 0076644,-0.00073532,0.00169347,0.00097680,0.00063891,-0.00024115,-0.00
 028482,0.00001665,0.00002178,-0.00008884,-0.00001935,0.00003314,0.0000
 5567,-0.00008692,-0.00000764,-0.00000099,-0.00013696,0.00007745,0.0000
 5944,0.00013024,-0.00001226,-0.00008422,0.00038901,-0.00009767,0.00016
 064,0.22777375,-0.03189246,-0.01393780,-0.00852858,0.00036619,-0.00010
 124,0.00004357,0.02492287,0.02632979,0.01093172,0.00899112,-0.01494714
 ,0.00254347,-0.00110021,0.00041938,-0.00213424,-0.00189058,-0.00083664
 ,0.00012795,-0.00012416,0.00115408,0.00048884,0.00012360,-0.00011486,0
 .00001272,-0.00009859,0.00003477,-0.00008464,-0.00017023,-0.00001610,0
 .00009697,0.00006364,0.00002835,-0.00001429,-0.00002383,-0.00001957,-0
 .00000189,-0.00017238,-0.00004756,-0.00006826,-0.02945954,0.01502899,-
 0.00253889,-0.00254441,0.00007211,0.00009122,0.00014067,-0.00000563,0.
 00373898,-0.00102967,-0.00116110,-0.00162697,0.00054172,-0.00361046,0.
 00081545,0.00055194,0.00288252,0.00073753,-0.00157621,0.00051315,-0.00
 063798,-0.00004190,-0.00007462,0.00000031,0.00008448,-0.00024560,0.000
 03251,0.00003495,0.00003781,0.00013468,-0.00002752,0.00001604,-0.00001
 592,0.00003861,0.00008610,-0.00003802,-0.00002062,-0.00003884,0.000174
 15,-0.00006405,0.00008035,-0.25663491,0.03444759,0.29643327,0.00116908
 ,-0.00103109,-0.00047948,0.00004790,-0.00040116,-0.00012330,-0.0012851
 7,-0.00279789,-0.00222766,-0.00063659,0.00030412,0.00280450,-0.0001334
 1,-0.00026089,-0.00111153,0.00045664,0.00056403,-0.00063796,0.00010246
 ,-0.00002711,-0.00001219,-0.00004099,-0.00006251,0.00015036,-0.0000020
 6,-0.00001704,-0.00002388,-0.00003119,0.00001215,0.00000256,0.00002207
 ,0.00000628,-0.00004428,0.00003008,0.00002793,0.00000232,-0.00007648,0
 .00003542,-0.00004487,-0.22377730,0.03046458,0.25576784,0.22415496,0.0
 0053394,-0.00070304,-0.00060059,-0.00027635,0.00008776,-0.00010750,0.0
 0277726,-0.00311920,-0.00445268,0.00252880,-0.00043248,-0.00126346,-0.
 00076938,0.00017658,0.00054697,-0.00099624,-0.00060192,0.00046429,0.00
 040723,0.00000311,0.00011962,-0.00011259,0.00004989,-0.00008832,-0.000
 07135,-0.00002426,0.00000979,0.00001856,-0.00002671,-0.00005332,-0.000
 02165,-0.00006566,-0.00000692,-0.00003489,-0.00001590,0.00008503,0.000
 04600,0.00007908,-0.00001090,0.02278751,-0.01297443,-0.03053557,-0.026
 81684,0.01756718,-0.00130391,-0.00011061,-0.00031673,-0.00015354,-0.00
 024871,-0.00009096,0.00036703,0.00276070,0.00023343,0.00316928,-0.0008
 1815,0.00216502,-0.00097861,0.00014942,-0.00167917,-0.00127366,0.00024
 306,0.00023561,0.00044834,0.00001992,0.00008914,-0.00008355,0.00002232
 ,0.00005675,-0.00006607,-0.00000817,-0.00001837,-0.00005229,-0.0000143
 5,-0.00001404,-0.00001051,-0.00005210,-0.00002457,-0.00001381,-0.00002
 294,0.00003540,-0.00000853,0.00004698,-0.00002290,0.25398226,-0.037860
 94,-0.29498511,-0.25402243,0.03589356,0.29433650\\0.00121998,-0.000082
 32,0.00038683,0.00007787,-0.00040621,-0.00004021,0.00034425,0.01123016
 ,0.00149370,0.00019261,0.00193462,0.00028668,-0.00070828,-0.00099115,-
 0.00041200,0.00007112,-0.00019634,-0.00008985,0.00008972,-0.00025379,-
 0.00009121,-0.00011118,-0.00012812,-0.00006835,0.00000846,-0.00001363,
 -0.00000547,0.00001444,-0.00001728,-0.00001482,-0.00001091,-0.00000402
 ,0.00000327,-0.00001545,-0.00001358,-0.00000702,-0.00001763,-0.0000118
 1,-0.00000578,-0.00104944,-0.01090361,-0.00144148,-0.00010556,-0.00014
 289,0.00000570\\\@


 UNLESS WE CHANGE DIRECTIONS, WE WILL WIND UP WHERE WE ARE HEADED.
     -- CONFUCIUS
 Job cpu time:       0 days  1 hours  0 minutes 13.0 seconds.
 Elapsed time:       0 days  0 hours  2 minutes 30.6 seconds.
 File lengths (MBytes):  RWF=    153 Int=      0 D2E=      0 Chk=      9 Scr=      1
 Normal termination of Gaussian 16 at Mon Jun 23 05:50:44 2025.
