 Entering Gaussian System, Link 0=g16
 Initial command:
 /opt/g16/l1.exe "/home/aayush/scratches/g16/Gau-73894.inp" -scrdir="/home/aayush/scratches/g16/"
 Entering Link 1 = /opt/g16/l1.exe PID=     73897.
  
 Copyright (c) 1988,1990,1992,1993,1995,1998,2003,2009,2016,
            Gaussian, Inc.  All Rights Reserved.
  
 This is part of the Gaussian(R) 16 program.  It is based on
 the Gaussian(R) 09 system (copyright 2009, Gaussian, Inc.),
 the Gaussian(R) 03 system (copyright 2003, Gaussian, Inc.),
 the Gaussian(R) 98 system (copyright 1998, Gaussian, Inc.),
 the Gaussian(R) 94 system (copyright 1995, Gaussian, Inc.),
 the Gaussian 92(TM) system (copyright 1992, Gaussian, Inc.),
 the Gaussian 90(TM) system (copyright 1990, Gaussian, Inc.),
 the Gaussian 88(TM) system (copyright 1988, Gaussian, Inc.),
 the Gaussian 86(TM) system (copyright 1986, Carnegie Mellon
 University), and the Gaussian 82(TM) system (copyright 1983,
 Carnegie Mellon University). Gaussian is a federally registered
 trademark of Gaussian, Inc.
  
 This software contains proprietary and confidential information,
 including trade secrets, belonging to Gaussian, Inc.
  
 This software is provided under written license and may be
 used, copied, transmitted, or stored only in accord with that
 written license.
  
 The following legend is applicable only to US Government
 contracts under FAR:
  
                    RESTRICTED RIGHTS LEGEND
  
 Use, reproduction and disclosure by the US Government is
 subject to restrictions as set forth in subparagraphs (a)
 and (c) of the Commercial Computer Software - Restricted
 Rights clause in FAR 52.227-19.
  
 Gaussian, Inc.
 340 Quinnipiac St., Bldg. 40, Wallingford CT 06492
  
  
 ---------------------------------------------------------------
 Warning -- This program may not be used in any manner that
 competes with the business of Gaussian, Inc. or will provide
 assistance to any competitor of Gaussian, Inc.  The licensee
 of this program is prohibited from giving any competitor of
 Gaussian, Inc. access to this program.  By using this program,
 the user acknowledges that Gaussian, Inc. is engaged in the
 business of creating and licensing software in the field of
 computational chemistry and represents and warrants to the
 licensee that it is not a competitor of Gaussian, Inc. and that
 it will not use this program in any manner prohibited above.
 ---------------------------------------------------------------
  

 Cite this work as:
 Gaussian 16, Revision A.03,
 M. J. Frisch, G. W. Trucks, H. B. Schlegel, G. E. Scuseria, 
 M. A. Robb, J. R. Cheeseman, G. Scalmani, V. Barone, 
 G. A. Petersson, H. Nakatsuji, X. Li, M. Caricato, A. V. Marenich, 
 J. Bloino, B. G. Janesko, R. Gomperts, B. Mennucci, H. P. Hratchian, 
 J. V. Ortiz, A. F. Izmaylov, J. L. Sonnenberg, D. Williams-Young, 
 F. Ding, F. Lipparini, F. Egidi, J. Goings, B. Peng, A. Petrone, 
 T. Henderson, D. Ranasinghe, V. G. Zakrzewski, J. Gao, N. Rega, 
 G. Zheng, W. Liang, M. Hada, M. Ehara, K. Toyota, R. Fukuda, 
 J. Hasegawa, M. Ishida, T. Nakajima, Y. Honda, O. Kitao, H. Nakai, 
 T. Vreven, K. Throssell, J. A. Montgomery, Jr., J. E. Peralta, 
 F. Ogliaro, M. J. Bearpark, J. J. Heyd, E. N. Brothers, K. N. Kudin, 
 V. N. Staroverov, T. A. Keith, R. Kobayashi, J. Normand, 
 K. Raghavachari, A. P. Rendell, J. C. Burant, S. S. Iyengar, 
 J. Tomasi, M. Cossi, J. M. Millam, M. Klene, C. Adamo, R. Cammi, 
 J. W. Ochterski, R. L. Martin, K. Morokuma, O. Farkas, 
 J. B. Foresman, and D. J. Fox, Gaussian, Inc., Wallingford CT, 2016.
 
 ******************************************
 Gaussian 16:  ES64L-G16RevA.03 25-Dec-2016
                23-Jun-2025 
 ******************************************
 %nprocshared=24
 Will use up to   24 processors via shared memory.
 %mem=12GB
 %chk=ethyl_propiolate_ts1.chk
 --------------------------
 # freq 6-311++g(d,p) m062x
 --------------------------
 1/10=4,30=1,38=1/1,3;
 2/12=2,17=6,18=5,40=1/2;
 3/5=4,6=6,7=1111,11=2,25=1,30=1,71=2,74=-55,140=1/1,2,3;
 4//1;
 5/5=2,38=5,98=1/2;
 8/6=4,10=90,11=11/1;
 11/6=1,8=1,9=11,15=111,16=1/1,2,10;
 10/6=1/2;
 6/7=2,8=2,9=2,10=2,28=1/1;
 7/8=1,10=1,25=1/1,2,3,16;
 1/10=4,30=1/3;
 99//99;
 -------------------
 Title Card Required
 -------------------
 Symbolic Z-matrix:
 Charge =  0 Multiplicity = 2
 C                    -2.78352  -0.49136  -0.44227 
 H                    -3.80987  -0.56595  -0.71798 
 C                    -1.6221   -0.31649  -0.14207 
 C                    -0.22175  -0.56411   0.23032 
 O                     0.11023  -0.91146   1.32774 
 O                     0.58088  -0.36366  -0.80579 
 C                     1.99525  -0.44946  -0.53472 
 C                     2.48428   0.82027   0.13302 
 H                     2.44435  -0.59095  -1.51595 
 H                     2.18207  -1.32879   0.08265 
 H                     3.56618   0.76974   0.27025 
 H                     2.24873   1.68746  -0.48505 
 H                     2.01659   0.94393   1.11014 
 O                    -1.40685   1.68664   0.09825 
 H                    -2.03515   1.7993    0.8287 
 

 GradGradGradGradGradGradGradGradGradGradGradGradGradGradGradGradGradGrad
 Berny optimization.
 Initialization pass.
 Trust Radius=3.00D-01 FncErr=1.00D-07 GrdErr=1.00D-07 EigMax=2.50D+02 EigMin=1.00D-04
 Number of steps in this run=      2 maximum allowed number of steps=      2.
 GradGradGradGradGradGradGradGradGradGradGradGradGradGradGradGradGradGrad

                          Input orientation:                          
 ---------------------------------------------------------------------
 Center     Atomic      Atomic             Coordinates (Angstroms)
 Number     Number       Type             X           Y           Z
 ---------------------------------------------------------------------
      1          6           0       -2.783515   -0.491358   -0.442267
      2          1           0       -3.809868   -0.565953   -0.717978
      3          6           0       -1.622096   -0.316486   -0.142074
      4          6           0       -0.221745   -0.564112    0.230318
      5          8           0        0.110227   -0.911464    1.327740
      6          8           0        0.580878   -0.363656   -0.805788
      7          6           0        1.995251   -0.449456   -0.534721
      8          6           0        2.484281    0.820265    0.133021
      9          1           0        2.444349   -0.590947   -1.515953
     10          1           0        2.182074   -1.328792    0.082653
     11          1           0        3.566184    0.769738    0.270251
     12          1           0        2.248733    1.687460   -0.485050
     13          1           0        2.016591    0.943930    1.110138
     14          8           0       -1.406851    1.686638    0.098245
     15          1           0       -2.035154    1.799297    0.828701
 ---------------------------------------------------------------------
                    Distance matrix (angstroms):
                    1          2          3          4          5
     1  C    0.000000
     2  H    1.065355   0.000000
     3  C    1.212267   2.276015   0.000000
     4  C    2.649590   3.711320   1.470026   0.000000
     5  O    3.418063   4.435255   2.348467   1.197996   0.000000
     6  O    3.386384   4.396281   2.301268   1.325859   2.252454
     7  C    4.779844   5.809179   3.641023   2.348085   2.689894
     8  C    5.459028   6.500932   4.269685   3.041142   3.172124
     9  H    5.337910   6.304968   4.301029   3.187199   3.692891
    10  H    5.062994   6.093136   3.942965   2.526833   2.452948
    11  H    6.512812   7.560874   5.316779   4.016112   3.986021
    12  H    5.483849   6.468290   4.372270   3.418273   3.822803
    13  H    5.245096   6.290420   4.049287   2.838736   2.669094
    14  O    2.632684   3.393358   2.028938   2.547115   3.250126
    15  H    2.724427   3.337100   2.364225   3.038456   3.492839
                    6          7          8          9         10
     6  O    0.000000
     7  C    1.442668   0.000000
     8  C    2.430221   1.515659   0.000000
     9  H    2.007117   1.088359   2.170767   0.000000
    10  H    2.069938   1.090544   2.170786   1.780097   0.000000
    11  H    3.369643   2.145284   1.091741   2.510080   2.520869
    12  H    2.663023   2.152471   1.090652   2.508419   3.069936
    13  H    2.727971   2.155816   1.090314   3.071674   2.499675
    14  O    2.995338   4.066675   3.986567   4.756550   4.687584
    15  H    3.767432   4.812481   4.676298   5.592550   5.303446
                   11         12         13         14         15
    11  H    0.000000
    12  H    1.774365   0.000000
    13  H    1.771155   1.775205   0.000000
    14  O    5.059780   3.701828   3.646299   0.000000
    15  H    5.722486   4.482202   4.150602   0.970063   0.000000
 Stoichiometry    C5H7O3(2)
 Framework group  C1[X(C5H7O3)]
 Deg. of freedom    39
 Full point group                 C1      NOp   1
 Largest Abelian subgroup         C1      NOp   1
 Largest concise Abelian subgroup C1      NOp   1
                         Standard orientation:                         
 ---------------------------------------------------------------------
 Center     Atomic      Atomic             Coordinates (Angstroms)
 Number     Number       Type             X           Y           Z
 ---------------------------------------------------------------------
      1          6           0       -2.783515   -0.491357   -0.442267
      2          1           0       -3.809868   -0.565952   -0.717978
      3          6           0       -1.622096   -0.316486   -0.142074
      4          6           0       -0.221745   -0.564112    0.230318
      5          8           0        0.110227   -0.911464    1.327740
      6          8           0        0.580878   -0.363656   -0.805788
      7          6           0        1.995251   -0.449456   -0.534721
      8          6           0        2.484281    0.820265    0.133021
      9          1           0        2.444349   -0.590947   -1.515953
     10          1           0        2.182074   -1.328792    0.082653
     11          1           0        3.566184    0.769738    0.270251
     12          1           0        2.248733    1.687460   -0.485050
     13          1           0        2.016591    0.943930    1.110138
     14          8           0       -1.406851    1.686638    0.098245
     15          1           0       -2.035154    1.799297    0.828701
 ---------------------------------------------------------------------
 Rotational constants (GHZ):           3.6098123           1.3094047           1.1889412
 Standard basis: 6-311++G(d,p) (5D, 7F)
 There are   233 symmetry adapted cartesian basis functions of A   symmetry.
 There are   225 symmetry adapted basis functions of A   symmetry.
   225 basis functions,   351 primitive gaussians,   233 cartesian basis functions
    31 alpha electrons       30 beta electrons
       nuclear repulsion energy       362.3178233287 Hartrees.
 NAtoms=   15 NActive=   15 NUniq=   15 SFac= 1.00D+00 NAtFMM=   60 NAOKFM=F Big=F
 Integral buffers will be    131072 words long.
 Raffenetti 2 integral format.
 Two-electron integral symmetry is turned on.
 One-electron integrals computed using PRISM.
 NBasis=   225 RedAO= T EigKep=  2.21D-06  NBF=   225
 NBsUse=   225 1.00D-06 EigRej= -1.00D+00 NBFU=   225
 ExpMin= 3.60D-02 ExpMax= 8.59D+03 ExpMxC= 1.30D+03 IAcc=3 IRadAn=         5 AccDes= 0.00D+00
 Harris functional with IExCor= 1009 and IRadAn=       5 diagonalized for initial guess.
 HarFok:  IExCor= 1009 AccDes= 0.00D+00 IRadAn=         5 IDoV= 1 UseB2=F ITyADJ=14
 ICtDFT=  3500011 ScaDFX=  1.000000  1.000000  1.000000  1.000000
 FoFCou: FMM=F IPFlag=           0 FMFlag=      100000 FMFlg1=           0
         NFxFlg=           0 DoJE=T BraDBF=F KetDBF=T FulRan=T
         wScrn=  0.000000 ICntrl=       500 IOpCl=  0 I1Cent=   200000004 NGrid=           0
         NMat0=    1 NMatS0=      1 NMatT0=    0 NMatD0=    1 NMtDS0=    0 NMtDT0=    0
 Petite list used in FoFCou.
 Initial guess <Sx>= 0.0000 <Sy>= 0.0000 <Sz>= 0.5000 <S**2>= 0.7500 S= 0.5000
 Requested convergence on RMS density matrix=1.00D-08 within 128 cycles.
 Requested convergence on MAX density matrix=1.00D-06.
 Requested convergence on             energy=1.00D-06.
 No special actions if energy rises.
 Restarting incremental Fock formation.
 SCF Done:  E(UM062X) =  -420.202401365     A.U. after   23 cycles
            NFock= 23  Conv=0.70D-08     -V/T= 2.0033
 <Sx>= 0.0000 <Sy>= 0.0000 <Sz>= 0.5000 <S**2>= 0.7722 S= 0.5110
 <L.S>=  0.00000000000    
 Annihilation of the first spin contaminant:
 S**2 before annihilation     0.7722,   after     0.7502
 DoSCS=F DFT=T ScalE2(SS,OS)=  1.000000  1.000000
 Range of M.O.s used for correlation:     1   225
 NBasis=   225 NAE=    31 NBE=    30 NFC=     0 NFV=     0
 NROrb=    225 NOA=    31 NOB=    30 NVA=   194 NVB=   195

 **** Warning!!: The largest alpha MO coefficient is  0.20640822D+03


 **** Warning!!: The largest beta MO coefficient is  0.17321221D+03

 Symmetrizing basis deriv contribution to polar:
 IMax=3 JMax=2 DiffMx= 0.00D+00
 G2DrvN: will do    16 centers at a time, making    1 passes.
 Calling FoFCou, ICntrl=  3107 FMM=F I1Cent=   0 AccDes= 0.00D+00.
 End of G2Drv F.D. properties file   721 does not exist.
 End of G2Drv F.D. properties file   722 does not exist.
 End of G2Drv F.D. properties file   788 does not exist.
          IDoAtm=111111111111111
          Differentiating once with respect to electric field.
                with respect to dipole field.
          Differentiating once with respect to nuclear coordinates.
 Keep R1 and R2 ints in memory in canonical form, NReq=671901991.
          There are    48 degrees of freedom in the 1st order CPHF.  IDoFFX=6 NUNeed=     3.
     45 vectors produced by pass  0 Test12= 2.47D-14 2.08D-09 XBig12= 9.33D+01 3.06D+00.
 AX will form    45 AO Fock derivatives at one time.
     45 vectors produced by pass  1 Test12= 2.47D-14 2.08D-09 XBig12= 1.93D+01 5.52D-01.
     45 vectors produced by pass  2 Test12= 2.47D-14 2.08D-09 XBig12= 7.36D-01 1.38D-01.
     45 vectors produced by pass  3 Test12= 2.47D-14 2.08D-09 XBig12= 1.14D-02 1.65D-02.
     45 vectors produced by pass  4 Test12= 2.47D-14 2.08D-09 XBig12= 1.11D-04 1.33D-03.
     45 vectors produced by pass  5 Test12= 2.47D-14 2.08D-09 XBig12= 9.54D-07 9.39D-05.
     38 vectors produced by pass  6 Test12= 2.47D-14 2.08D-09 XBig12= 9.30D-09 1.03D-05.
     21 vectors produced by pass  7 Test12= 2.47D-14 2.08D-09 XBig12= 6.96D-11 7.54D-07.
      5 vectors produced by pass  8 Test12= 2.47D-14 2.08D-09 XBig12= 5.79D-13 5.77D-08.
      3 vectors produced by pass  9 Test12= 2.47D-14 2.08D-09 XBig12= 7.74D-15 8.59D-09.
      2 vectors produced by pass 10 Test12= 2.47D-14 2.08D-09 XBig12= 2.58D-16 2.49D-09.
      1 vectors produced by pass 11 Test12= 2.47D-14 2.08D-09 XBig12= 2.12D-16 2.18D-09.
 InvSVY:  IOpt=1 It=  1 EMax= 8.88D-15
 Solved reduced A of dimension   340 with    48 vectors.
 Isotropic polarizability for W=    0.000000       74.83 Bohr**3.
 End of Minotr F.D. properties file   721 does not exist.
 End of Minotr F.D. properties file   722 does not exist.
 End of Minotr F.D. properties file   788 does not exist.

 **********************************************************************

            Population analysis using the SCF density.

 **********************************************************************

 Orbital symmetries:
 Alpha Orbitals:
       Occupied  (A) (A) (A) (A) (A) (A) (A) (A) (A) (A) (A) (A)
                 (A) (A) (A) (A) (A) (A) (A) (A) (A) (A) (A) (A)
                 (A) (A) (A) (A) (A) (A) (A)
       Virtual   (A) (A) (A) (A) (A) (A) (A) (A) (A) (A) (A) (A)
                 (A) (A) (A) (A) (A) (A) (A) (A) (A) (A) (A) (A)
                 (A) (A) (A) (A) (A) (A) (A) (A) (A) (A) (A) (A)
                 (A) (A) (A) (A) (A) (A) (A) (A) (A) (A) (A) (A)
                 (A) (A) (A) (A) (A) (A) (A) (A) (A) (A) (A) (A)
                 (A) (A) (A) (A) (A) (A) (A) (A) (A) (A) (A) (A)
                 (A) (A) (A) (A) (A) (A) (A) (A) (A) (A) (A) (A)
                 (A) (A) (A) (A) (A) (A) (A) (A) (A) (A) (A) (A)
                 (A) (A) (A) (A) (A) (A) (A) (A) (A) (A) (A) (A)
                 (A) (A) (A) (A) (A) (A) (A) (A) (A) (A) (A) (A)
                 (A) (A) (A) (A) (A) (A) (A) (A) (A) (A) (A) (A)
                 (A) (A) (A) (A) (A) (A) (A) (A) (A) (A) (A) (A)
                 (A) (A) (A) (A) (A) (A) (A) (A) (A) (A) (A) (A)
                 (A) (A) (A) (A) (A) (A) (A) (A) (A) (A) (A) (A)
                 (A) (A) (A) (A) (A) (A) (A) (A) (A) (A) (A) (A)
                 (A) (A) (A) (A) (A) (A) (A) (A) (A) (A) (A) (A)
                 (A) (A)
 Beta  Orbitals:
       Occupied  (A) (A) (A) (A) (A) (A) (A) (A) (A) (A) (A) (A)
                 (A) (A) (A) (A) (A) (A) (A) (A) (A) (A) (A) (A)
                 (A) (A) (A) (A) (A) (A)
       Virtual   (A) (A) (A) (A) (A) (A) (A) (A) (A) (A) (A) (A)
                 (A) (A) (A) (A) (A) (A) (A) (A) (A) (A) (A) (A)
                 (A) (A) (A) (A) (A) (A) (A) (A) (A) (A) (A) (A)
                 (A) (A) (A) (A) (A) (A) (A) (A) (A) (A) (A) (A)
                 (A) (A) (A) (A) (A) (A) (A) (A) (A) (A) (A) (A)
                 (A) (A) (A) (A) (A) (A) (A) (A) (A) (A) (A) (A)
                 (A) (A) (A) (A) (A) (A) (A) (A) (A) (A) (A) (A)
                 (A) (A) (A) (A) (A) (A) (A) (A) (A) (A) (A) (A)
                 (A) (A) (A) (A) (A) (A) (A) (A) (A) (A) (A) (A)
                 (A) (A) (A) (A) (A) (A) (A) (A) (A) (A) (A) (A)
                 (A) (A) (A) (A) (A) (A) (A) (A) (A) (A) (A) (A)
                 (A) (A) (A) (A) (A) (A) (A) (A) (A) (A) (A) (A)
                 (A) (A) (A) (A) (A) (A) (A) (A) (A) (A) (A) (A)
                 (A) (A) (A) (A) (A) (A) (A) (A) (A) (A) (A) (A)
                 (A) (A) (A) (A) (A) (A) (A) (A) (A) (A) (A) (A)
                 (A) (A) (A) (A) (A) (A) (A) (A) (A) (A) (A) (A)
                 (A) (A) (A)
 The electronic state is 2-A.
 Alpha  occ. eigenvalues --  -19.68096 -19.65938 -19.63025 -10.70624 -10.60357
 Alpha  occ. eigenvalues --  -10.59307 -10.58485 -10.53372  -1.25652  -1.16356
 Alpha  occ. eigenvalues --   -1.12008  -0.91053  -0.87457  -0.78111  -0.70675
 Alpha  occ. eigenvalues --   -0.64476  -0.62125  -0.58564  -0.57243  -0.53768
 Alpha  occ. eigenvalues --   -0.53237  -0.50224  -0.48439  -0.46057  -0.45074
 Alpha  occ. eigenvalues --   -0.41734  -0.41136  -0.39684  -0.38318  -0.36660
 Alpha  occ. eigenvalues --   -0.34299
 Alpha virt. eigenvalues --   -0.00644  -0.00224   0.00498   0.01478   0.02535
 Alpha virt. eigenvalues --    0.02778   0.03434   0.04326   0.05672   0.06178
 Alpha virt. eigenvalues --    0.07108   0.07613   0.08428   0.09839   0.10659
 Alpha virt. eigenvalues --    0.11016   0.11415   0.12459   0.12839   0.13700
 Alpha virt. eigenvalues --    0.14283   0.14655   0.15220   0.15646   0.15809
 Alpha virt. eigenvalues --    0.16978   0.17402   0.18357   0.19079   0.20640
 Alpha virt. eigenvalues --    0.21271   0.21649   0.23557   0.24296   0.24467
 Alpha virt. eigenvalues --    0.25347   0.26594   0.27721   0.29612   0.30748
 Alpha virt. eigenvalues --    0.31242   0.32043   0.32486   0.33976   0.34554
 Alpha virt. eigenvalues --    0.34751   0.35852   0.36972   0.38808   0.40518
 Alpha virt. eigenvalues --    0.41092   0.43319   0.44913   0.46781   0.48859
 Alpha virt. eigenvalues --    0.50063   0.53619   0.55156   0.56056   0.58503
 Alpha virt. eigenvalues --    0.59230   0.60577   0.63239   0.66148   0.67080
 Alpha virt. eigenvalues --    0.69588   0.70030   0.70392   0.72207   0.72234
 Alpha virt. eigenvalues --    0.73838   0.75516   0.77338   0.78673   0.79767
 Alpha virt. eigenvalues --    0.84026   0.86695   0.91510   0.93769   0.98300
 Alpha virt. eigenvalues --    1.01357   1.04833   1.06551   1.08676   1.11106
 Alpha virt. eigenvalues --    1.15501   1.17987   1.19243   1.20348   1.23648
 Alpha virt. eigenvalues --    1.25054   1.26329   1.29504   1.32760   1.35317
 Alpha virt. eigenvalues --    1.35658   1.36710   1.38323   1.41611   1.45605
 Alpha virt. eigenvalues --    1.47424   1.49133   1.51493   1.53278   1.56697
 Alpha virt. eigenvalues --    1.58546   1.59820   1.62005   1.62661   1.65477
 Alpha virt. eigenvalues --    1.66477   1.67919   1.70653   1.73446   1.74782
 Alpha virt. eigenvalues --    1.78991   1.81219   1.83901   1.86928   1.89249
 Alpha virt. eigenvalues --    1.90477   1.94904   1.99378   2.03818   2.05129
 Alpha virt. eigenvalues --    2.09978   2.11023   2.14286   2.21165   2.31813
 Alpha virt. eigenvalues --    2.35686   2.37289   2.45528   2.52027   2.53383
 Alpha virt. eigenvalues --    2.54502   2.55755   2.61033   2.62173   2.63478
 Alpha virt. eigenvalues --    2.65696   2.66547   2.72053   2.73749   2.75911
 Alpha virt. eigenvalues --    2.80294   2.82997   2.84710   2.89925   2.91709
 Alpha virt. eigenvalues --    2.94586   2.96870   2.99301   3.02566   3.05548
 Alpha virt. eigenvalues --    3.11254   3.14586   3.16209   3.18529   3.20442
 Alpha virt. eigenvalues --    3.26271   3.27242   3.31742   3.36694   3.37899
 Alpha virt. eigenvalues --    3.45367   3.49377   3.65613   3.76733   3.85661
 Alpha virt. eigenvalues --    3.86322   3.89515   3.91033   4.03208   4.12639
 Alpha virt. eigenvalues --    4.19287   4.28472   5.12322   5.14152   5.16978
 Alpha virt. eigenvalues --    5.20456   5.32600   5.47578   5.59909   5.73757
 Alpha virt. eigenvalues --    5.94914  23.60868  23.92970  23.94432  24.06127
 Alpha virt. eigenvalues --   25.03404  49.96438  50.01466  50.11321
  Beta  occ. eigenvalues --  -19.68100 -19.64531 -19.63045 -10.70597 -10.60357
  Beta  occ. eigenvalues --  -10.59361 -10.58246 -10.53372  -1.25654  -1.16396
  Beta  occ. eigenvalues --   -1.06187  -0.90439  -0.86996  -0.77865  -0.70410
  Beta  occ. eigenvalues --   -0.64364  -0.61633  -0.58502  -0.56809  -0.53204
  Beta  occ. eigenvalues --   -0.51476  -0.48982  -0.46601  -0.45140  -0.41719
  Beta  occ. eigenvalues --   -0.39540  -0.39341  -0.38426  -0.37928  -0.35863
  Beta virt. eigenvalues --   -0.09831  -0.00189   0.00427   0.00695   0.01774
  Beta virt. eigenvalues --    0.02642   0.02816   0.03457   0.04392   0.05737
  Beta virt. eigenvalues --    0.06150   0.07210   0.07538   0.08481   0.09916
  Beta virt. eigenvalues --    0.10786   0.11249   0.11648   0.12558   0.12804
  Beta virt. eigenvalues --    0.13701   0.14370   0.14967   0.15475   0.15701
  Beta virt. eigenvalues --    0.16107   0.16983   0.17402   0.18369   0.19171
  Beta virt. eigenvalues --    0.20868   0.21587   0.21758   0.23623   0.24158
  Beta virt. eigenvalues --    0.24571   0.25396   0.26750   0.27821   0.29536
  Beta virt. eigenvalues --    0.30761   0.31221   0.32037   0.32544   0.34050
  Beta virt. eigenvalues --    0.34539   0.34752   0.35956   0.36992   0.38875
  Beta virt. eigenvalues --    0.40497   0.41239   0.43260   0.44918   0.46806
  Beta virt. eigenvalues --    0.48999   0.50084   0.53627   0.55227   0.56346
  Beta virt. eigenvalues --    0.58997   0.59555   0.60833   0.63320   0.66350
  Beta virt. eigenvalues --    0.67042   0.69794   0.70091   0.70351   0.72072
  Beta virt. eigenvalues --    0.72252   0.73846   0.75498   0.77256   0.78654
  Beta virt. eigenvalues --    0.79766   0.84082   0.86751   0.91535   0.94131
  Beta virt. eigenvalues --    0.98305   1.01417   1.05113   1.07068   1.08730
  Beta virt. eigenvalues --    1.12744   1.16164   1.18376   1.19869   1.21036
  Beta virt. eigenvalues --    1.23886   1.25541   1.26601   1.29742   1.33675
  Beta virt. eigenvalues --    1.35546   1.36322   1.36903   1.38978   1.42286
  Beta virt. eigenvalues --    1.46230   1.47734   1.49408   1.51850   1.53793
  Beta virt. eigenvalues --    1.57084   1.58599   1.59833   1.62095   1.62699
  Beta virt. eigenvalues --    1.65488   1.66481   1.67928   1.70689   1.73632
  Beta virt. eigenvalues --    1.74879   1.79218   1.81271   1.84217   1.87051
  Beta virt. eigenvalues --    1.89404   1.90718   1.95451   1.99402   2.03948
  Beta virt. eigenvalues --    2.05254   2.10133   2.12089   2.14309   2.21186
  Beta virt. eigenvalues --    2.31831   2.35710   2.37500   2.45613   2.52031
  Beta virt. eigenvalues --    2.53470   2.54514   2.55859   2.61638   2.62339
  Beta virt. eigenvalues --    2.63782   2.65941   2.66705   2.72387   2.73788
  Beta virt. eigenvalues --    2.76177   2.81029   2.83133   2.87245   2.90798
  Beta virt. eigenvalues --    2.93765   2.94673   2.97478   2.99688   3.03724
  Beta virt. eigenvalues --    3.07309   3.11669   3.16362   3.18350   3.20080
  Beta virt. eigenvalues --    3.21585   3.27206   3.28236   3.31828   3.37212
  Beta virt. eigenvalues --    3.37829   3.45318   3.50066   3.65596   3.76779
  Beta virt. eigenvalues --    3.85693   3.86362   3.90998   3.92568   4.03199
  Beta virt. eigenvalues --    4.12560   4.19198   4.28468   5.13768   5.16338
  Beta virt. eigenvalues --    5.20853   5.22634   5.32694   5.47573   5.62350
  Beta virt. eigenvalues --    5.73742   5.94901  23.60938  23.92977  23.94437
  Beta virt. eigenvalues --   24.06127  25.03815  49.95961  50.01397  50.11348
          Condensed to atoms (all electrons):
               1          2          3          4          5          6
     1  C   26.850159   0.588877  -8.943690 -11.199190  -0.057467  -0.054131
     2  H    0.588877   0.428426  -0.154712  -0.048803  -0.001451  -0.002688
     3  C   -8.943690  -0.154712  15.958003  -1.870347   0.103575  -0.200349
     4  C  -11.199190  -0.048803  -1.870347  19.139354   0.372684   0.108248
     5  O   -0.057467  -0.001451   0.103575   0.372684   7.975631  -0.149940
     6  O   -0.054131  -0.002688  -0.200349   0.108248  -0.149940   8.256601
     7  C   -0.201821  -0.000934  -0.380666   0.470009   0.049245   0.120532
     8  C    0.080233   0.000193   0.105465  -0.304042  -0.071025  -0.027207
     9  H   -0.014504  -0.000018  -0.021706   0.044923   0.004394  -0.093352
    10  H   -0.032099  -0.000210  -0.054079   0.073158  -0.016261  -0.008088
    11  H   -0.008096  -0.000021  -0.008692   0.022125  -0.002215   0.015125
    12  H    0.002098   0.000042   0.008239  -0.011333   0.001638  -0.001331
    13  H    0.031016  -0.000174   0.019613  -0.064867   0.001437  -0.022536
    14  O   -0.276675  -0.003066   0.489798  -0.304412  -0.009216   0.003594
    15  H   -0.106017  -0.002596   0.080438   0.050577  -0.000131  -0.001044
               7          8          9         10         11         12
     1  C   -0.201821   0.080233  -0.014504  -0.032099  -0.008096   0.002098
     2  H   -0.000934   0.000193  -0.000018  -0.000210  -0.000021   0.000042
     3  C   -0.380666   0.105465  -0.021706  -0.054079  -0.008692   0.008239
     4  C    0.470009  -0.304042   0.044923   0.073158   0.022125  -0.011333
     5  O    0.049245  -0.071025   0.004394  -0.016261  -0.002215   0.001638
     6  O    0.120532  -0.027207  -0.093352  -0.008088   0.015125  -0.001331
     7  C    5.445729   0.022071   0.447828   0.415325  -0.047182  -0.035296
     8  C    0.022071   5.491352  -0.055566  -0.039673   0.399551   0.415454
     9  H    0.447828  -0.055566   0.532222  -0.038045  -0.000235  -0.010774
    10  H    0.415325  -0.039673  -0.038045   0.522029  -0.004312   0.005142
    11  H   -0.047182   0.399551  -0.000235  -0.004312   0.534752  -0.031522
    12  H   -0.035296   0.415454  -0.010774   0.005142  -0.031522   0.529588
    13  H   -0.009043   0.385529   0.009053  -0.010202  -0.038966  -0.042396
    14  O   -0.021643   0.017334   0.000667  -0.001068   0.000467  -0.001839
    15  H    0.003713  -0.004136   0.000048   0.000224   0.000175  -0.000214
              13         14         15
     1  C    0.031016  -0.276675  -0.106017
     2  H   -0.000174  -0.003066  -0.002596
     3  C    0.019613   0.489798   0.080438
     4  C   -0.064867  -0.304412   0.050577
     5  O    0.001437  -0.009216  -0.000131
     6  O   -0.022536   0.003594  -0.001044
     7  C   -0.009043  -0.021643   0.003713
     8  C    0.385529   0.017334  -0.004136
     9  H    0.009053   0.000667   0.000048
    10  H   -0.010202  -0.001068   0.000224
    11  H   -0.038966   0.000467   0.000175
    12  H   -0.042396  -0.001839  -0.000214
    13  H    0.549968   0.002774  -0.000223
    14  O    0.002774   8.107976   0.234532
    15  H   -0.000223   0.234532   0.510958
          Atomic-Atomic Spin Densities.
               1          2          3          4          5          6
     1  C    1.709776   0.059487  -0.534167  -0.492184   0.004243  -0.019768
     2  H    0.059487  -0.010105  -0.038110  -0.023538  -0.000028  -0.000272
     3  C   -0.534167  -0.038110   0.250965   0.179498   0.003277   0.002768
     4  C   -0.492184  -0.023538   0.179498   0.129701  -0.005361   0.021073
     5  O    0.004243  -0.000028   0.003277  -0.005361  -0.014209   0.000433
     6  O   -0.019768  -0.000272   0.002768   0.021073   0.000433  -0.004495
     7  C   -0.031644  -0.000190  -0.035340   0.059850   0.000023  -0.002724
     8  C    0.033273   0.000218   0.039504  -0.063031   0.000625   0.001286
     9  H   -0.001832  -0.000023  -0.001875   0.003061   0.000043   0.000049
    10  H   -0.000625  -0.000057   0.000533  -0.001481  -0.000370   0.000192
    11  H    0.001618   0.000015   0.002000  -0.003012  -0.000034   0.000135
    12  H   -0.001533  -0.000014  -0.002645   0.003744  -0.000048  -0.000115
    13  H   -0.010163  -0.000031  -0.016703   0.025931  -0.000212  -0.000940
    14  O   -0.336717  -0.004232  -0.018363   0.218230   0.002150   0.002784
    15  H    0.026214   0.000445  -0.007295  -0.016924  -0.000221   0.000271
               7          8          9         10         11         12
     1  C   -0.031644   0.033273  -0.001832  -0.000625   0.001618  -0.001533
     2  H   -0.000190   0.000218  -0.000023  -0.000057   0.000015  -0.000014
     3  C   -0.035340   0.039504  -0.001875   0.000533   0.002000  -0.002645
     4  C    0.059850  -0.063031   0.003061  -0.001481  -0.003012   0.003744
     5  O    0.000023   0.000625   0.000043  -0.000370  -0.000034  -0.000048
     6  O   -0.002724   0.001286   0.000049   0.000192   0.000135  -0.000115
     7  C    0.012575  -0.012084   0.000732   0.002161  -0.001791   0.001077
     8  C   -0.012084   0.009883  -0.001030  -0.001911   0.002056  -0.001275
     9  H    0.000732  -0.001030   0.000170   0.000286  -0.000063   0.000040
    10  H    0.002161  -0.001911   0.000286   0.000091  -0.000205   0.000159
    11  H   -0.001791   0.002056  -0.000063  -0.000205   0.000332  -0.000407
    12  H    0.001077  -0.001275   0.000040   0.000159  -0.000407   0.000540
    13  H    0.002213  -0.001641   0.000365   0.000692  -0.000564   0.000129
    14  O    0.004949  -0.003140   0.000261   0.000574  -0.000054  -0.000059
    15  H   -0.000596   0.000712  -0.000023  -0.000063   0.000030  -0.000058
              13         14         15
     1  C   -0.010163  -0.336717   0.026214
     2  H   -0.000031  -0.004232   0.000445
     3  C   -0.016703  -0.018363  -0.007295
     4  C    0.025931   0.218230  -0.016924
     5  O   -0.000212   0.002150  -0.000221
     6  O   -0.000940   0.002784   0.000271
     7  C    0.002213   0.004949  -0.000596
     8  C   -0.001641  -0.003140   0.000712
     9  H    0.000365   0.000261  -0.000023
    10  H    0.000692   0.000574  -0.000063
    11  H   -0.000564  -0.000054   0.000030
    12  H    0.000129  -0.000059  -0.000058
    13  H   -0.000186   0.000096  -0.000273
    14  O    0.000096   0.899397   0.010928
    15  H   -0.000273   0.010928  -0.031186
 Mulliken charges and spin densities:
               1          2
     1  C   -0.658692   0.405980
     2  H    0.197134  -0.016434
     3  C    0.869110  -0.175952
     4  C   -0.478084   0.035558
     5  O   -0.200898  -0.009689
     6  O    0.056567   0.000677
     7  C   -0.277866  -0.000789
     8  C   -0.415533   0.003444
     9  H    0.195065   0.000161
    10  H    0.188158  -0.000024
    11  H    0.169047   0.000055
    12  H    0.172503  -0.000464
    13  H    0.189018  -0.001287
    14  O   -0.239224   0.776803
    15  H    0.233696  -0.018039
 Sum of Mulliken charges =  -0.00000   1.00000
 Mulliken charges and spin densities with hydrogens summed into heavy atoms:
               1          2
     1  C   -0.461557   0.389546
     3  C    0.869110  -0.175952
     4  C   -0.478084   0.035558
     5  O   -0.200898  -0.009689
     6  O    0.056567   0.000677
     7  C    0.105357  -0.000652
     8  C    0.115034   0.001748
    14  O   -0.005528   0.758764
 APT charges:
               1
     1  C   -0.133924
     2  H    0.238723
     3  C   -0.494068
     4  C    1.466638
     5  O   -0.775332
     6  O   -0.936976
     7  C    0.531990
     8  C   -0.042636
     9  H   -0.013288
    10  H   -0.011131
    11  H    0.010168
    12  H    0.016369
    13  H    0.027573
    14  O   -0.135050
    15  H    0.250947
 Sum of APT charges =   0.00000
 APT charges with hydrogens summed into heavy atoms:
               1
     1  C    0.104799
     3  C   -0.494068
     4  C    1.466638
     5  O   -0.775332
     6  O   -0.936976
     7  C    0.507570
     8  C    0.011473
    14  O    0.115897
 Electronic spatial extent (au):  <R**2>=           1064.0888
 Charge=             -0.0000 electrons
 Dipole moment (field-independent basis, Debye):
    X=             -0.6829    Y=             -0.1825    Z=             -0.7275  Tot=              1.0144
 Quadrupole moment (field-independent basis, Debye-Ang):
   XX=            -29.8935   YY=            -49.1176   ZZ=            -51.1239
   XY=              0.3433   XZ=             -1.6422   YZ=              5.0804
 Traceless Quadrupole moment (field-independent basis, Debye-Ang):
   XX=             13.4849   YY=             -5.7393   ZZ=             -7.7456
   XY=              0.3433   XZ=             -1.6422   YZ=              5.0804
 Octapole moment (field-independent basis, Debye-Ang**2):
  XXX=            -35.4947  YYY=              2.3355  ZZZ=             -1.5821  XYY=              1.1042
  XXY=             -2.4964  XXZ=             -6.1015  XZZ=             -0.0485  YZZ=              6.8294
  YYZ=              3.3550  XYZ=             -6.7608
 Hexadecapole moment (field-independent basis, Debye-Ang**3):
 XXXX=           -741.2404 YYYY=           -265.6883 ZZZZ=           -174.5144 XXXY=             -0.8704
 XXXZ=             21.1319 YYYX=            -18.3304 YYYZ=              9.6123 ZZZX=            -10.5196
 ZZZY=              7.5938 XXYY=           -200.9010 XXZZ=           -180.9119 YYZZ=            -72.6718
 XXYZ=             20.1410 YYXZ=            -12.7812 ZZXY=             -8.4061
 N-N= 3.623178233287D+02 E-N=-1.709475656400D+03  KE= 4.188399160834D+02
  Exact polarizability:  91.224   7.674  73.639   4.698   3.163  59.640
 Approx polarizability:  98.102   8.333  77.880   7.550  -0.105  76.899
                          Isotropic Fermi Contact Couplings
        Atom                 a.u.       MegaHertz       Gauss      10(-4) cm-1
     1  C(13)              0.05023      56.46336      20.14753      18.83415
     2  H(1)              -0.00606     -27.07630      -9.66150      -9.03168
     3  C(13)              0.01180      13.27075       4.73533       4.42665
     4  C(13)              0.01664      18.70311       6.67374       6.23869
     5  O(17)             -0.00362       2.19428       0.78297       0.73193
     6  O(17)              0.00017      -0.10110      -0.03608      -0.03372
     7  C(13)             -0.00002      -0.01998      -0.00713      -0.00667
     8  C(13)             -0.00057      -0.63588      -0.22690      -0.21211
     9  H(1)               0.00003       0.12951       0.04621       0.04320
    10  H(1)              -0.00005      -0.20352      -0.07262      -0.06789
    11  H(1)              -0.00001      -0.03425      -0.01222      -0.01142
    12  H(1)               0.00002       0.06796       0.02425       0.02267
    13  H(1)               0.00001       0.06050       0.02159       0.02018
    14  O(17)              0.13189     -79.94839     -28.52757     -26.66791
    15  H(1)              -0.01334     -59.60658     -21.26911     -19.88261
 --------------------------------------------------------
       Center         ----  Spin Dipole Couplings  ----
                      3XX-RR        3YY-RR        3ZZ-RR
 --------------------------------------------------------
     1   Atom       -0.224671      0.382825     -0.158153
     2   Atom        0.028734     -0.005278     -0.023456
     3   Atom        0.069829     -0.027224     -0.042604
     4   Atom        0.006670      0.011526     -0.018196
     5   Atom        0.027870     -0.040038      0.012168
     6   Atom        0.007679     -0.011625      0.003946
     7   Atom        0.002693     -0.000686     -0.002007
     8   Atom        0.003303     -0.001539     -0.001764
     9   Atom        0.001272     -0.000485     -0.000787
    10   Atom        0.001159      0.000095     -0.001253
    11   Atom        0.001717     -0.000799     -0.000918
    12   Atom        0.004326     -0.002192     -0.002134
    13   Atom        0.003766     -0.001907     -0.001859
    14   Atom       -0.915294      2.326382     -1.411088
    15   Atom        0.003557     -0.045848      0.042291
 --------------------------------------------------------
                        XY            XZ            YZ
 --------------------------------------------------------
     1   Atom       -0.030052     -0.020387      0.044700
     2   Atom        0.006350      0.015383      0.003863
     3   Atom       -0.004699      0.029388      0.004739
     4   Atom       -0.019303      0.004684     -0.001847
     5   Atom       -0.046506     -0.009849     -0.023107
     6   Atom       -0.011944     -0.007480      0.005319
     7   Atom       -0.002664     -0.000460      0.000316
     8   Atom       -0.001426      0.000070      0.000038
     9   Atom       -0.001122     -0.000845      0.000466
    10   Atom       -0.001493      0.000115     -0.000056
    11   Atom       -0.000425      0.000133      0.000006
    12   Atom       -0.000059     -0.001018      0.000095
    13   Atom       -0.001353      0.001893     -0.000366
    14   Atom        1.554003      0.312487      0.749542
    15   Atom        0.001146     -0.118369      0.040080
 --------------------------------------------------------


 ---------------------------------------------------------------------------------
              Anisotropic Spin Dipole Couplings in Principal Axis System
 ---------------------------------------------------------------------------------

       Atom             a.u.   MegaHertz   Gauss  10(-4) cm-1        Axes

              Baa    -0.2309   -30.986   -11.056   -10.336  0.9670  0.0289  0.2532
     1 C(13)  Bbb    -0.1572   -21.097    -7.528    -7.037 -0.2496 -0.0937  0.9638
              Bcc     0.3881    52.083    18.584    17.373 -0.0516  0.9952  0.0834
 
              Baa    -0.0278   -14.858    -5.302    -4.956 -0.2513 -0.0942  0.9633
     2 H(1)   Bbb    -0.0064    -3.403    -1.214    -1.135 -0.1966  0.9795  0.0445
              Bcc     0.0342    18.261     6.516     6.091  0.9477  0.1782  0.2647
 
              Baa    -0.0512    -6.870    -2.451    -2.291 -0.2380 -0.2331  0.9429
     3 C(13)  Bbb    -0.0260    -3.484    -1.243    -1.162 -0.0242  0.9719  0.2341
              Bcc     0.0772    10.354     3.695     3.454  0.9710 -0.0330  0.2370
 
              Baa    -0.0192    -2.578    -0.920    -0.860 -0.2469 -0.0971  0.9641
     4 C(13)  Bbb    -0.0098    -1.311    -0.468    -0.437  0.7070  0.6623  0.2478
              Bcc     0.0290     3.889     1.388     1.297 -0.6627  0.7429 -0.0949
 
              Baa    -0.0712     5.152     1.838     1.719  0.4302  0.8556  0.2880
     5 O(17)  Bbb     0.0196    -1.420    -0.507    -0.474 -0.1754 -0.2337  0.9564
              Bcc     0.0516    -3.732    -1.332    -1.245  0.8855 -0.4620  0.0496
 
              Baa    -0.0175     1.264     0.451     0.421  0.4072  0.9095 -0.0837
     6 O(17)  Bbb    -0.0014     0.103     0.037     0.034  0.5050 -0.1478  0.8504
              Bcc     0.0189    -1.366    -0.488    -0.456  0.7610 -0.3885 -0.5195
 
              Baa    -0.0022    -0.292    -0.104    -0.097  0.4054  0.8132 -0.4176
     7 C(13)  Bbb    -0.0020    -0.273    -0.097    -0.091  0.2731  0.3282  0.9043
              Bcc     0.0042     0.565     0.201     0.188  0.8724 -0.4806 -0.0890
 
              Baa    -0.0019    -0.261    -0.093    -0.087  0.2543  0.9215 -0.2934
     8 C(13)  Bbb    -0.0017    -0.235    -0.084    -0.078  0.0674  0.2857  0.9559
              Bcc     0.0037     0.495     0.177     0.165  0.9648 -0.2629  0.0105
 
              Baa    -0.0011    -0.602    -0.215    -0.201  0.0611 -0.5140  0.8556
     9 H(1)   Bbb    -0.0010    -0.538    -0.192    -0.180  0.5206  0.7478  0.4120
              Bcc     0.0021     1.140     0.407     0.380  0.8516 -0.4202 -0.3133
 
              Baa    -0.0013    -0.672    -0.240    -0.224 -0.0692 -0.0352  0.9970
    10 H(1)   Bbb    -0.0010    -0.510    -0.182    -0.170  0.5728  0.8169  0.0686
              Bcc     0.0022     1.182     0.422     0.394  0.8168 -0.5758  0.0363
 
              Baa    -0.0009    -0.499    -0.178    -0.167 -0.1049 -0.3656  0.9249
    11 H(1)   Bbb    -0.0009    -0.458    -0.163    -0.153  0.1317  0.9167  0.3773
              Bcc     0.0018     0.957     0.341     0.319  0.9857 -0.1614  0.0480
 
              Baa    -0.0023    -1.248    -0.445    -0.416  0.1264 -0.5003  0.8566
    12 H(1)   Bbb    -0.0021    -1.144    -0.408    -0.382  0.0855  0.8658  0.4930
              Bcc     0.0045     2.392     0.854     0.798  0.9883 -0.0110 -0.1522
 
              Baa    -0.0024    -1.305    -0.466    -0.435 -0.3222 -0.1785  0.9297
    13 H(1)   Bbb    -0.0022    -1.173    -0.419    -0.391  0.1437  0.9615  0.2344
              Bcc     0.0046     2.478     0.884     0.826  0.9357 -0.2092  0.2842
 
              Baa    -1.5621   113.031    40.332    37.703 -0.4492  0.0073  0.8934
    14 O(17)  Bbb    -1.5352   111.084    39.638    37.054  0.8144 -0.4079  0.4128
              Bcc     3.0972  -224.115   -79.970   -74.757  0.3674  0.9130  0.1773
 
              Baa    -0.1091   -58.196   -20.766   -19.412  0.6629 -0.4094  0.6268
    15 H(1)   Bbb    -0.0385   -20.519    -7.322    -6.844  0.4096  0.8992  0.1541
              Bcc     0.1475    78.715    28.087    26.257 -0.6267  0.1546  0.7638
 

 ---------------------------------------------------------------------------------

 Calling FoFJK, ICntrl=    100127 FMM=F ISym2X=0 I1Cent= 0 IOpClX= 1 NMat=1 NMatS=1 NMatT=0.
 Full mass-weighted force constant matrix:
 Low frequencies --- -489.4610  -36.2129  -20.3498   -5.6397   -0.0010   -0.0004
 Low frequencies ---    0.0006   39.0512   56.4388
 ******    1 imaginary frequencies (negative Signs) ****** 
 Diagonal vibrational polarizability:
       72.3631684     140.3153960      40.2431533
 Harmonic frequencies (cm**-1), IR intensities (KM/Mole), Raman scattering
 activities (A**4/AMU), depolarization ratios for plane and unpolarized
 incident light, reduced masses (AMU), force constants (mDyne/A),
 and normal coordinates:
                      1                      2                      3
                      A                      A                      A
 Frequencies --   -489.4608                35.8362                56.0316
 Red. masses --     11.9493                 4.7099                 3.7497
 Frc consts  --      1.6867                 0.0036                 0.0069
 IR Inten    --     66.7166                 6.4499                 1.8257
  Atom  AN      X      Y      Z        X      Y      Z        X      Y      Z
     1   6     0.05  -0.04   0.01     0.06  -0.02  -0.21    -0.00   0.11  -0.07
     2   1     0.07  -0.24  -0.02     0.09  -0.04  -0.31    -0.00   0.20  -0.11
     3   6     0.03   0.77   0.11     0.02   0.01  -0.08     0.00  -0.00  -0.03
     4   6     0.02   0.07   0.01     0.01   0.06   0.00    -0.02  -0.08   0.00
     5   8    -0.03  -0.04  -0.02    -0.03   0.20   0.05    -0.05  -0.05   0.02
     6   8    -0.00  -0.01  -0.00     0.04  -0.07  -0.00     0.00  -0.15   0.00
     7   6     0.01  -0.01  -0.00     0.03  -0.12   0.03    -0.00   0.03   0.08
     8   6    -0.01  -0.00  -0.00     0.10  -0.04  -0.16    -0.18   0.21  -0.13
     9   1     0.00  -0.01  -0.01     0.04  -0.30   0.06     0.06  -0.10   0.12
    10   1     0.01  -0.01  -0.01    -0.04  -0.03   0.17     0.06   0.16   0.24
    11   1    -0.01  -0.00   0.00     0.09  -0.10  -0.12    -0.19   0.35  -0.02
    12   1    -0.01  -0.01  -0.00     0.18  -0.12  -0.30    -0.22   0.06  -0.31
    13   1    -0.01  -0.00  -0.00     0.08   0.14  -0.19    -0.29   0.34  -0.19
    14   8    -0.05  -0.52  -0.07    -0.20  -0.01   0.28     0.22  -0.05   0.10
    15   1     0.01  -0.18  -0.08    -0.07  -0.27   0.42     0.24  -0.03   0.11
                      4                      5                      6
                      A                      A                      A
 Frequencies --    116.6067               154.5526               165.5195
 Red. masses --      3.5263                 4.6276                 2.8113
 Frc consts  --      0.0283                 0.0651                 0.0454
 IR Inten    --      1.5152                20.4382                 4.3978
  Atom  AN      X      Y      Z        X      Y      Z        X      Y      Z
     1   6     0.00  -0.01   0.01    -0.00  -0.18  -0.19    -0.10  -0.11   0.17
     2   1    -0.01  -0.00   0.05     0.05  -0.32  -0.35    -0.15  -0.20   0.40
     3   6     0.02  -0.01  -0.02    -0.08  -0.06   0.02    -0.04  -0.02  -0.11
     4   6     0.03   0.03  -0.05    -0.07   0.07   0.08    -0.03   0.05  -0.12
     5   8     0.08   0.24   0.00    -0.03   0.09   0.08    -0.09   0.09  -0.09
     6   8    -0.01  -0.15  -0.11    -0.12   0.15   0.06     0.05   0.06  -0.06
     7   6    -0.01  -0.00  -0.09    -0.11   0.05  -0.08     0.02  -0.02   0.09
     8   6    -0.18  -0.08   0.18     0.07  -0.05  -0.03     0.05   0.00   0.03
     9   1     0.03   0.25  -0.11    -0.21   0.09  -0.14     0.12  -0.15   0.15
    10   1     0.10  -0.11  -0.26    -0.10  -0.01  -0.17    -0.12   0.03   0.20
    11   1    -0.16   0.07   0.09     0.09  -0.13  -0.22     0.00  -0.19   0.37
    12   1    -0.36   0.03   0.40     0.03   0.03   0.09     0.41  -0.05  -0.17
    13   1    -0.12  -0.38   0.24     0.24  -0.12   0.06    -0.22   0.24  -0.13
    14   8     0.06  -0.03   0.04     0.29  -0.09   0.08     0.10  -0.05   0.05
    15   1     0.21  -0.10   0.19    -0.21   0.17  -0.39     0.10  -0.06   0.06
                      7                      8                      9
                      A                      A                      A
 Frequencies --    212.6007               228.8023               261.5638
 Red. masses --      1.5263                 1.4475                 2.0264
 Frc consts  --      0.0406                 0.0446                 0.0817
 IR Inten    --     35.0754                 4.8372                26.6539
  Atom  AN      X      Y      Z        X      Y      Z        X      Y      Z
     1   6    -0.05   0.06   0.01     0.01   0.06  -0.06     0.06  -0.18  -0.03
     2   1    -0.07   0.19   0.05     0.03   0.15  -0.14     0.09  -0.41  -0.07
     3   6    -0.02  -0.07  -0.04    -0.00  -0.05   0.06     0.01   0.10   0.03
     4   6    -0.02  -0.01  -0.00     0.01  -0.01   0.04    -0.01   0.03   0.01
     5   8    -0.05   0.02   0.02     0.08   0.01   0.02    -0.03  -0.06  -0.01
     6   8     0.01   0.04   0.03    -0.05   0.04   0.00    -0.02   0.01   0.00
     7   6     0.01   0.03   0.01    -0.04   0.02  -0.04    -0.03  -0.02   0.00
     8   6     0.08   0.02  -0.01    -0.01  -0.02   0.02    -0.05  -0.01  -0.01
     9   1    -0.02   0.03  -0.00    -0.06   0.05  -0.04    -0.02  -0.04   0.01
    10   1     0.02   0.03  -0.00    -0.05   0.00  -0.07    -0.04  -0.02   0.02
    11   1     0.13   0.09  -0.32    -0.08  -0.27   0.47    -0.05   0.03  -0.01
    12   1    -0.16   0.05   0.13     0.45  -0.02  -0.16    -0.09  -0.03  -0.02
    13   1     0.35  -0.10   0.13    -0.38   0.18  -0.18    -0.05  -0.02  -0.01
    14   8    -0.00  -0.09  -0.05    -0.01  -0.05  -0.05     0.02   0.15  -0.03
    15   1     0.56  -0.26   0.46     0.32  -0.12   0.24     0.65  -0.05   0.55
                     10                     11                     12
                      A                      A                      A
 Frequencies --    336.0210               429.3569               561.1139
 Red. masses --      2.9282                 3.7281                 3.8696
 Frc consts  --      0.1948                 0.4049                 0.7178
 IR Inten    --      9.8339                 3.7285                 5.2382
  Atom  AN      X      Y      Z        X      Y      Z        X      Y      Z
     1   6     0.00   0.02  -0.04     0.08   0.03   0.06    -0.18  -0.02  -0.07
     2   1     0.02   0.06  -0.11     0.04   0.10   0.19    -0.11  -0.05  -0.35
     3   6    -0.02  -0.03   0.08     0.13  -0.05  -0.13    -0.23  -0.02   0.23
     4   6     0.01   0.04  -0.04     0.07   0.07   0.05    -0.02   0.06  -0.03
     5   8     0.20   0.01  -0.11    -0.09  -0.01   0.07    -0.00   0.01  -0.05
     6   8    -0.04   0.12  -0.06     0.07   0.22   0.10     0.14   0.03   0.04
     7   6    -0.09  -0.11   0.19     0.04  -0.13  -0.09     0.25  -0.08  -0.05
     8   6    -0.08  -0.03   0.01    -0.19  -0.10  -0.07     0.00  -0.01  -0.02
     9   1     0.07  -0.40   0.31    -0.03  -0.12  -0.13     0.15   0.02  -0.11
    10   1    -0.37  -0.00   0.42    -0.04  -0.18  -0.13     0.30  -0.13  -0.13
    11   1    -0.04   0.15  -0.26    -0.21   0.27   0.12    -0.01   0.36   0.19
    12   1    -0.36  -0.12  -0.02    -0.41  -0.20  -0.14    -0.20  -0.11  -0.08
    13   1     0.14  -0.01   0.10    -0.43  -0.22  -0.17    -0.25  -0.13  -0.12
    14   8     0.00  -0.04  -0.01    -0.00  -0.05  -0.01    -0.00  -0.01   0.00
    15   1     0.02   0.02  -0.00    -0.05  -0.17  -0.03     0.12   0.34   0.05
                     13                     14                     15
                      A                      A                      A
 Frequencies --    607.0475               692.5666               722.0789
 Red. masses --      6.3633                 1.3298                 1.2110
 Frc consts  --      1.3816                 0.3758                 0.3720
 IR Inten    --     13.4037                29.4349                52.3340
  Atom  AN      X      Y      Z        X      Y      Z        X      Y      Z
     1   6     0.25   0.01   0.05    -0.01  -0.15   0.04     0.04  -0.02  -0.11
     2   1     0.36   0.33  -0.38    -0.02   0.95  -0.24    -0.21   0.15   0.75
     3   6     0.13  -0.13   0.39    -0.00   0.05  -0.03     0.00   0.00   0.03
     4   6     0.04   0.03  -0.12    -0.01  -0.03  -0.00     0.00  -0.04  -0.01
     5   8    -0.33   0.04  -0.02     0.01   0.01  -0.00    -0.00   0.01   0.01
     6   8     0.00   0.03  -0.21     0.00   0.01   0.01     0.00   0.01   0.00
     7   6    -0.02   0.02  -0.01     0.00  -0.00   0.00    -0.00   0.00  -0.00
     8   6     0.01   0.01   0.01    -0.00  -0.00  -0.00    -0.00  -0.00  -0.00
     9   1     0.17  -0.15   0.10    -0.01   0.01  -0.01    -0.00  -0.01   0.00
    10   1    -0.21   0.09   0.14     0.01  -0.01  -0.01    -0.01   0.01   0.01
    11   1     0.01  -0.06  -0.04    -0.00   0.01   0.00    -0.00  -0.00  -0.00
    12   1     0.03   0.06   0.08    -0.01  -0.01  -0.01    -0.00   0.00   0.00
    13   1     0.07  -0.03   0.04    -0.01   0.00  -0.00    -0.00  -0.01  -0.00
    14   8    -0.01  -0.05  -0.01     0.00   0.02   0.01    -0.02  -0.02   0.01
    15   1     0.00   0.18  -0.03     0.00   0.08  -0.00     0.13   0.57   0.05
                     16                     17                     18
                      A                      A                      A
 Frequencies --    742.6619               769.9732               802.9454
 Red. masses --      1.2458                 7.0709                 1.2056
 Frc consts  --      0.4049                 2.4699                 0.4580
 IR Inten    --     33.6181                72.6004                 5.0234
  Atom  AN      X      Y      Z        X      Y      Z        X      Y      Z
     1   6    -0.01   0.03   0.08     0.01  -0.01   0.00     0.03   0.01   0.01
     2   1     0.15  -0.20  -0.46    -0.03   0.30   0.07     0.04  -0.02  -0.00
     3   6     0.03  -0.01  -0.08     0.02  -0.13  -0.07     0.02  -0.01   0.02
     4   6     0.00  -0.05  -0.01     0.04   0.63   0.16    -0.02  -0.02  -0.04
     5   8     0.01   0.01   0.01    -0.01  -0.17  -0.08    -0.01   0.02  -0.04
     6   8     0.00   0.01   0.01    -0.00  -0.18  -0.01     0.01   0.01   0.04
     7   6    -0.02   0.01  -0.00    -0.05   0.00   0.03    -0.03  -0.02   0.07
     8   6    -0.01  -0.00  -0.00    -0.02   0.01   0.01    -0.01  -0.02   0.03
     9   1    -0.01  -0.01   0.00    -0.05   0.19  -0.00    -0.09   0.52  -0.04
    10   1    -0.02   0.01   0.01     0.10  -0.05  -0.09     0.12  -0.31  -0.38
    11   1    -0.01  -0.02  -0.01    -0.01  -0.14  -0.09     0.02   0.03  -0.19
    12   1     0.01   0.00   0.01     0.09  -0.00  -0.05    -0.04  -0.29  -0.34
    13   1     0.00  -0.01   0.00     0.12   0.16   0.06     0.11   0.44   0.02
    14   8    -0.03  -0.04   0.02    -0.02  -0.09   0.01     0.00  -0.00  -0.00
    15   1     0.20   0.81   0.09     0.13   0.47   0.05    -0.01  -0.01  -0.00
                     19                     20                     21
                      A                      A                      A
 Frequencies --    897.1008               927.4036              1074.0014
 Red. masses --      3.2549                 2.7372                 4.1160
 Frc consts  --      1.5434                 1.3871                 2.7973
 IR Inten    --     16.4292                 6.6116                25.0309
  Atom  AN      X      Y      Z        X      Y      Z        X      Y      Z
     1   6     0.05   0.01   0.01     0.11   0.01   0.03     0.07   0.01   0.02
     2   1     0.06   0.00  -0.02     0.12   0.01   0.04     0.07   0.01   0.04
     3   6     0.01  -0.02   0.07     0.07  -0.02  -0.00     0.04  -0.01  -0.03
     4   6    -0.05   0.01  -0.11    -0.15   0.02  -0.04    -0.15   0.01   0.04
     5   8     0.00   0.05  -0.16     0.01   0.03  -0.13     0.02  -0.00  -0.01
     6   8     0.12  -0.04   0.24    -0.14  -0.04   0.11    -0.21   0.02  -0.04
     7   6    -0.08   0.09   0.02     0.03  -0.10  -0.02     0.31   0.16   0.14
     8   6    -0.11  -0.06  -0.10     0.15   0.10   0.04    -0.06  -0.17  -0.09
     9   1    -0.24  -0.02  -0.04    -0.33  -0.22  -0.17     0.33   0.28   0.14
    10   1     0.25   0.27   0.18     0.04  -0.11  -0.04     0.40   0.24   0.21
    11   1    -0.13  -0.57  -0.12     0.12   0.60   0.39    -0.06  -0.27  -0.13
    12   1     0.18   0.23   0.22    -0.16   0.07   0.11    -0.04  -0.22  -0.15
    13   1     0.03  -0.34   0.00    -0.22  -0.15  -0.10    -0.06  -0.28  -0.09
    14   8     0.00  -0.00  -0.00    -0.00  -0.01  -0.00    -0.00  -0.01  -0.00
    15   1    -0.02  -0.04  -0.01     0.00   0.03  -0.00     0.01   0.01   0.00
                     22                     23                     24
                      A                      A                      A
 Frequencies --   1129.5154              1204.1945              1288.1111
 Red. masses --      2.0881                 1.7716                 3.7408
 Frc consts  --      1.5696                 1.5136                 3.6569
 IR Inten    --     22.2285                 6.5386               533.8367
  Atom  AN      X      Y      Z        X      Y      Z        X      Y      Z
     1   6    -0.01  -0.00  -0.00    -0.02  -0.00  -0.00    -0.08  -0.01  -0.02
     2   1    -0.02  -0.00  -0.01    -0.02  -0.00  -0.01    -0.08  -0.01  -0.05
     3   6    -0.01   0.00   0.01    -0.00   0.00  -0.00    -0.01   0.01   0.01
     4   6     0.03   0.00  -0.00     0.07  -0.00  -0.01     0.38   0.01  -0.14
     5   8    -0.00  -0.00   0.00    -0.01  -0.01   0.03    -0.05   0.01  -0.01
     6   8     0.06  -0.05  -0.01    -0.01   0.02  -0.07    -0.19  -0.02   0.08
     7   6    -0.12   0.19   0.05    -0.04  -0.06   0.18     0.10   0.04   0.03
     8   6     0.11  -0.15  -0.03     0.03   0.05  -0.13    -0.02  -0.02   0.06
     9   1    -0.09   0.10   0.08    -0.33   0.37  -0.02    -0.68  -0.28  -0.27
    10   1    -0.22   0.17   0.03     0.30  -0.26  -0.21     0.04   0.13   0.15
    11   1     0.09   0.46   0.20    -0.03  -0.08   0.28     0.00  -0.03  -0.14
    12   1    -0.40  -0.37  -0.15    -0.02   0.31   0.28     0.01  -0.19  -0.18
    13   1    -0.36  -0.20  -0.25    -0.07  -0.45  -0.10     0.00   0.10   0.05
    14   8    -0.00   0.00   0.00    -0.00   0.00   0.00    -0.00   0.01   0.00
    15   1    -0.00  -0.01  -0.00     0.00   0.00  -0.00     0.01   0.02   0.00
                     25                     26                     27
                      A                      A                      A
 Frequencies --   1345.6285              1402.0799              1431.0423
 Red. masses --      1.2483                 1.2837                 1.3785
 Frc consts  --      1.3318                 1.4868                 1.6633
 IR Inten    --     94.8269                25.4038                13.6945
  Atom  AN      X      Y      Z        X      Y      Z        X      Y      Z
     1   6     0.01   0.00   0.00    -0.01  -0.00  -0.00    -0.01  -0.00  -0.00
     2   1     0.01   0.00   0.01    -0.01  -0.00  -0.01    -0.01  -0.00  -0.01
     3   6     0.00   0.00  -0.00    -0.00   0.00   0.00     0.00   0.00   0.00
     4   6    -0.06  -0.00   0.03     0.06  -0.00  -0.01     0.05  -0.00  -0.01
     5   8     0.01  -0.01   0.02    -0.01   0.01  -0.01    -0.01   0.00  -0.01
     6   8     0.05   0.03  -0.08    -0.04   0.01   0.03    -0.04   0.01   0.02
     7   6    -0.03  -0.01  -0.00    -0.04  -0.04  -0.03    -0.08  -0.08  -0.05
     8   6    -0.00  -0.03   0.05    -0.02  -0.10  -0.05     0.07   0.07   0.04
     9   1    -0.50  -0.21  -0.18     0.33   0.25   0.11     0.43   0.27   0.14
    10   1     0.69   0.28   0.21     0.25   0.19   0.20     0.41   0.23   0.24
    11   1     0.01   0.07  -0.04    -0.01   0.47   0.21     0.07  -0.33  -0.11
    12   1    -0.02  -0.11  -0.06     0.17   0.24   0.34    -0.32  -0.17  -0.15
    13   1     0.02   0.19   0.03     0.21   0.38   0.00    -0.29  -0.19  -0.10
    14   8     0.00  -0.00  -0.00    -0.00   0.00   0.00    -0.00   0.00   0.00
    15   1    -0.00  -0.00   0.00     0.00   0.00   0.00     0.00   0.00   0.00
                     28                     29                     30
                      A                      A                      A
 Frequencies --   1491.2866              1502.3195              1515.0215
 Red. masses --      1.0400                 1.0543                 1.0935
 Frc consts  --      1.3627                 1.4020                 1.4789
 IR Inten    --     10.9591                 1.2223                21.3247
  Atom  AN      X      Y      Z        X      Y      Z        X      Y      Z
     1   6    -0.00  -0.00  -0.00     0.00   0.00   0.00     0.00   0.00   0.00
     2   1    -0.00  -0.00   0.00     0.00   0.00   0.00     0.01   0.00   0.00
     3   6     0.00  -0.00   0.00    -0.00   0.00  -0.00    -0.00  -0.00  -0.00
     4   6     0.00  -0.00   0.00    -0.01   0.00  -0.00    -0.03   0.00  -0.00
     5   8    -0.00   0.00  -0.01     0.00  -0.00   0.01     0.01  -0.00   0.01
     6   8    -0.00  -0.00   0.00     0.01  -0.00  -0.00     0.02  -0.00  -0.01
     7   6     0.01   0.02  -0.02     0.00  -0.04  -0.03     0.05  -0.05  -0.01
     8   6     0.01   0.01  -0.04    -0.03   0.03  -0.01     0.02  -0.02   0.00
     9   1    -0.00  -0.12  -0.01    -0.12   0.38  -0.13    -0.29   0.43  -0.23
    10   1    -0.00  -0.00  -0.04    -0.19   0.19   0.34    -0.38   0.14   0.37
    11   1    -0.08  -0.36   0.56    -0.05   0.14   0.29     0.03  -0.17  -0.16
    12   1    -0.55  -0.09   0.05     0.18  -0.19  -0.37    -0.20   0.14   0.29
    13   1     0.36   0.29   0.10     0.37  -0.35   0.23    -0.24   0.30  -0.16
    14   8    -0.00   0.00   0.00     0.00  -0.00   0.00    -0.00  -0.00  -0.00
    15   1     0.00   0.00  -0.00    -0.00  -0.00  -0.00    -0.00  -0.00   0.00
                     31                     32                     33
                      A                      A                      A
 Frequencies --   1846.5014              2148.7012              3076.1115
 Red. masses --     11.9776                 6.2312                 1.0353
 Frc consts  --     24.0613                16.9502                 5.7718
 IR Inten    --    346.3406                93.0001                 9.0939
  Atom  AN      X      Y      Z        X      Y      Z        X      Y      Z
     1   6    -0.08  -0.01  -0.02    -0.38  -0.05  -0.10    -0.00   0.00   0.00
     2   1    -0.13  -0.02  -0.01    -0.69  -0.09  -0.19    -0.00  -0.00  -0.00
     3   6     0.07   0.00   0.00     0.53   0.01   0.13    -0.00   0.00   0.00
     4   6     0.20  -0.22   0.72    -0.11   0.03  -0.05     0.00   0.00  -0.00
     5   8    -0.15   0.15  -0.47     0.01  -0.01   0.02     0.00   0.00   0.00
     6   8     0.02   0.02  -0.07    -0.00  -0.00   0.00    -0.00  -0.00   0.00
     7   6     0.03  -0.01   0.02     0.00   0.00  -0.00    -0.00   0.00   0.00
     8   6    -0.01   0.01   0.00    -0.00  -0.00  -0.00    -0.02  -0.04  -0.02
     9   1    -0.17   0.08  -0.09     0.01  -0.00  -0.00     0.00  -0.00  -0.01
    10   1    -0.14  -0.02   0.09     0.00  -0.00  -0.00     0.00  -0.02   0.01
    11   1     0.00  -0.04  -0.06     0.00   0.00   0.00     0.62  -0.03   0.08
    12   1     0.04   0.01  -0.01     0.00  -0.00  -0.00    -0.13   0.45  -0.33
    13   1    -0.04  -0.05  -0.00     0.00   0.00   0.00    -0.23   0.05   0.47
    14   8    -0.00   0.01  -0.00     0.00   0.02   0.00    -0.00  -0.00  -0.00
    15   1     0.02  -0.00   0.02    -0.00   0.01  -0.01    -0.00  -0.00   0.00
                     34                     35                     36
                      A                      A                      A
 Frequencies --   3108.2581              3153.1858              3154.5351
 Red. masses --      1.0608                 1.1016                 1.1047
 Frc consts  --      6.0381                 6.4533                 6.4770
 IR Inten    --     19.7437                14.3832                 2.5009
  Atom  AN      X      Y      Z        X      Y      Z        X      Y      Z
     1   6    -0.00  -0.00  -0.00     0.00   0.00   0.00    -0.00  -0.00  -0.00
     2   1     0.00   0.00   0.00    -0.00   0.00  -0.00    -0.00   0.00  -0.00
     3   6     0.00  -0.00  -0.00    -0.00  -0.00  -0.00     0.00  -0.00  -0.00
     4   6    -0.00  -0.00   0.00     0.00   0.00  -0.00     0.00  -0.00   0.00
     5   8    -0.00   0.00  -0.00    -0.00  -0.00   0.00    -0.00   0.00  -0.00
     6   8     0.00   0.00  -0.00     0.00  -0.00   0.00    -0.00  -0.00  -0.00
     7   6     0.03  -0.06  -0.00    -0.01   0.00   0.03    -0.01  -0.02   0.05
     8   6    -0.01   0.01  -0.00    -0.06   0.05  -0.04     0.05   0.00  -0.06
     9   1    -0.23   0.06   0.50     0.13  -0.04  -0.28     0.18  -0.05  -0.39
    10   1    -0.13   0.66  -0.47    -0.01   0.04  -0.03    -0.06   0.29  -0.20
    11   1     0.12  -0.01   0.01     0.64  -0.02   0.07    -0.40   0.02  -0.06
    12   1     0.01  -0.05   0.04     0.14  -0.55   0.40     0.05  -0.14   0.10
    13   1     0.01  -0.00  -0.03    -0.00   0.01  -0.03    -0.30   0.08   0.63
    14   8     0.00  -0.00   0.00    -0.00   0.00   0.00     0.00  -0.00  -0.00
    15   1     0.00   0.00  -0.00     0.00   0.00  -0.00    -0.00  -0.00  -0.00
                     37                     38                     39
                      A                      A                      A
 Frequencies --   3175.7394              3477.9352              3814.9713
 Red. masses --      1.1074                 1.1533                 1.0675
 Frc consts  --      6.5804                 8.2192                 9.1535
 IR Inten    --     14.6120                69.9287                47.6508
  Atom  AN      X      Y      Z        X      Y      Z        X      Y      Z
     1   6    -0.00  -0.00  -0.00    -0.11  -0.01  -0.03    -0.00   0.00  -0.00
     2   1     0.00   0.00   0.00     0.96   0.07   0.26     0.00   0.00   0.00
     3   6     0.00  -0.00   0.00     0.03   0.00   0.01     0.00   0.00   0.00
     4   6    -0.00   0.00  -0.00    -0.00   0.00  -0.00     0.00  -0.00  -0.00
     5   8     0.00  -0.00   0.00     0.00  -0.00  -0.00    -0.00   0.00  -0.00
     6   8     0.00  -0.00   0.00     0.00  -0.00  -0.00    -0.00  -0.00   0.00
     7   6     0.02   0.02  -0.07    -0.00  -0.00   0.00     0.00   0.00   0.00
     8   6     0.01   0.02  -0.05     0.00  -0.00   0.00    -0.00   0.00  -0.00
     9   1    -0.26   0.08   0.58     0.00  -0.00  -0.00    -0.00   0.00   0.00
    10   1     0.07  -0.35   0.24     0.00   0.00   0.00    -0.00  -0.00  -0.00
    11   1    -0.05   0.01  -0.02     0.00   0.00   0.00    -0.00  -0.00   0.00
    12   1     0.09  -0.31   0.22    -0.00   0.00  -0.00    -0.00  -0.00   0.00
    13   1    -0.21   0.06   0.43    -0.00  -0.00  -0.00     0.00   0.00  -0.00
    14   8     0.00   0.00   0.00     0.00   0.00   0.00     0.04  -0.01  -0.05
    15   1     0.00   0.00  -0.00     0.00  -0.00  -0.00    -0.65   0.11   0.75

 -------------------
 - Thermochemistry -
 -------------------
 Temperature   298.150 Kelvin.  Pressure   1.00000 Atm.
 Atom     1 has atomic number  6 and mass  12.00000
 Atom     2 has atomic number  1 and mass   1.00783
 Atom     3 has atomic number  6 and mass  12.00000
 Atom     4 has atomic number  6 and mass  12.00000
 Atom     5 has atomic number  8 and mass  15.99491
 Atom     6 has atomic number  8 and mass  15.99491
 Atom     7 has atomic number  6 and mass  12.00000
 Atom     8 has atomic number  6 and mass  12.00000
 Atom     9 has atomic number  1 and mass   1.00783
 Atom    10 has atomic number  1 and mass   1.00783
 Atom    11 has atomic number  1 and mass   1.00783
 Atom    12 has atomic number  1 and mass   1.00783
 Atom    13 has atomic number  1 and mass   1.00783
 Atom    14 has atomic number  8 and mass  15.99491
 Atom    15 has atomic number  1 and mass   1.00783
 Molecular mass:   115.03952 amu.
 Principal axes and moments of inertia in atomic units:
                           1         2         3
     Eigenvalues --   499.954301378.291361517.93983
           X            0.99994   0.01112  -0.00061
           Y           -0.01104   0.99682   0.07898
           Z            0.00148  -0.07896   0.99688
 This molecule is an asymmetric top.
 Rotational symmetry number  1.
 Warning -- assumption of classical behavior for rotation
           may cause significant error
 Rotational temperatures (Kelvin)      0.17324     0.06284     0.05706
 Rotational constants (GHZ):           3.60981     1.30940     1.18894
    1 imaginary frequencies ignored.
 Zero-point vibrational energy     293437.5 (Joules/Mol)
                                   70.13325 (Kcal/Mol)
 Warning -- explicit consideration of  12 degrees of freedom as
           vibrations may cause significant error
 Vibrational temperatures:     51.56    80.62   167.77   222.37   238.15
          (Kelvin)            305.88   329.20   376.33   483.46   617.75
                              807.32   873.41   996.45  1038.91  1068.52
                             1107.82  1155.26  1290.73  1334.33  1545.25
                             1625.12  1732.57  1853.30  1936.06  2017.28
                             2058.95  2145.63  2161.50  2179.78  2656.70
                             3091.50  4425.84  4472.09  4536.73  4538.67
                             4569.18  5003.97  5488.89
 
 Zero-point correction=                           0.111764 (Hartree/Particle)
 Thermal correction to Energy=                    0.121468
 Thermal correction to Enthalpy=                  0.122412
 Thermal correction to Gibbs Free Energy=         0.075499
 Sum of electronic and zero-point Energies=           -420.090637
 Sum of electronic and thermal Energies=              -420.080933
 Sum of electronic and thermal Enthalpies=            -420.079989
 Sum of electronic and thermal Free Energies=         -420.126903
 
                     E (Thermal)             CV                S
                      KCal/Mol        Cal/Mol-Kelvin    Cal/Mol-Kelvin
 Total                   76.222             32.330             98.738
 Electronic               0.000              0.000              1.377
 Translational            0.889              2.981             40.136
 Rotational               0.889              2.981             28.438
 Vibrational             74.445             26.369             28.786
 Vibration     1          0.594              1.982              5.477
 Vibration     2          0.596              1.975              4.592
 Vibration     3          0.608              1.936              3.156
 Vibration     4          0.620              1.898              2.615
 Vibration     5          0.624              1.885              2.486
 Vibration     6          0.644              1.822              2.021
 Vibration     7          0.651              1.797              1.888
 Vibration     8          0.669              1.743              1.651
 Vibration     9          0.717              1.604              1.231
 Vibration    10          0.791              1.406              0.861
 Vibration    11          0.917              1.115              0.522
 Vibration    12          0.966              1.017              0.438
                       Q            Log10(Q)             Ln(Q)
 Total Bot       0.187489D-34        -34.727024        -79.961927
 Total V=0       0.479744D+17         16.681009         38.409443
 Vib (Bot)       0.527975D-48        -48.277387       -111.162791
 Vib (Bot)    1  0.577535D+01          0.761578          1.753599
 Vib (Bot)    2  0.368711D+01          0.566686          1.304844
 Vib (Bot)    3  0.175389D+01          0.244003          0.561838
 Vib (Bot)    4  0.131022D+01          0.117346          0.270198
 Vib (Bot)    5  0.121929D+01          0.086108          0.198271
 Vib (Bot)    6  0.933242D+00         -0.030006         -0.069091
 Vib (Bot)    7  0.861272D+00         -0.064860         -0.149345
 Vib (Bot)    8  0.742005D+00         -0.129593         -0.298399
 Vib (Bot)    9  0.553983D+00         -0.256504         -0.590622
 Vib (Bot)   10  0.406016D+00         -0.391457         -0.901362
 Vib (Bot)   11  0.276688D+00         -0.558010         -1.284865
 Vib (Bot)   12  0.244192D+00         -0.612269         -1.409801
 Vib (V=0)       0.135097D+04          3.130646          7.208579
 Vib (V=0)    1  0.629695D+01          0.799131          1.840066
 Vib (V=0)    2  0.422086D+01          0.625401          1.440039
 Vib (V=0)    3  0.232377D+01          0.366193          0.843191
 Vib (V=0)    4  0.190239D+01          0.279299          0.643109
 Vib (V=0)    5  0.181783D+01          0.259553          0.597644
 Vib (V=0)    6  0.155874D+01          0.192775          0.443881
 Vib (V=0)    7  0.149589D+01          0.174899          0.402719
 Vib (V=0)    8  0.139475D+01          0.144495          0.332713
 Vib (V=0)    9  0.124626D+01          0.095607          0.220143
 Vib (V=0)   10  0.114409D+01          0.058459          0.134608
 Vib (V=0)   11  0.107145D+01          0.029972          0.069014
 Vib (V=0)   12  0.105644D+01          0.023846          0.054908
 Electronic      0.200000D+01          0.301030          0.693147
 Translational   0.484981D+08          7.685724         17.697035
 Rotational      0.366107D+06          5.563609         12.810682
 ***** Axes restored to original set *****
 -------------------------------------------------------------------
 Center     Atomic                   Forces (Hartrees/Bohr)
 Number     Number              X              Y              Z
 -------------------------------------------------------------------
      1        6          -0.000591738    0.000210259   -0.000147805
      2        1          -0.000027913    0.000142759    0.000016836
      3        6           0.000037256   -0.005035318   -0.000627607
      4        6          -0.000130836   -0.000522215   -0.000104443
      5        8           0.000250620    0.000330781    0.000163361
      6        8           0.000034326    0.000143905    0.000028989
      7        6          -0.000036876    0.000064900    0.000023538
      8        6           0.000038520    0.000022231    0.000018783
      9        1           0.000000191    0.000002201    0.000004002
     10        1          -0.000006192    0.000004730    0.000007691
     11        1           0.000003653    0.000004470    0.000002518
     12        1           0.000005489    0.000003390    0.000000117
     13        1           0.000004295    0.000001447    0.000002125
     14        8           0.000390311    0.004539425    0.000619577
     15        1           0.000028893    0.000087034   -0.000007682
 -------------------------------------------------------------------
 Cartesian Forces:  Max     0.005035318 RMS     0.001031391

 GradGradGradGradGradGradGradGradGradGradGradGradGradGradGradGradGradGrad
 Berny optimization.
 Search for a local minimum.
 Step number   1 out of a maximum of    2
 All quantities printed in internal units (Hartrees-Bohrs-Radians)
 Second derivative matrix not updated -- analytic derivatives used.
 ITU=  0
     Eigenvalues ---   -0.11859   0.00019   0.00052   0.00163   0.00239
     Eigenvalues ---    0.00427   0.00553   0.00730   0.01254   0.02095
     Eigenvalues ---    0.02788   0.03265   0.03634   0.05267   0.06324
     Eigenvalues ---    0.07442   0.07615   0.08638   0.09839   0.10211
     Eigenvalues ---    0.11550   0.14137   0.17019   0.17328   0.19966
     Eigenvalues ---    0.28480   0.29406   0.43488   0.49396   0.62695
     Eigenvalues ---    0.70443   0.76565   0.79229   0.86786   0.89643
     Eigenvalues ---    0.93176   0.98517   1.73936   2.47243
 Eigenvalue     1 is  -1.19D-01 should be greater than     0.000000 Eigenvector:
                          Y3        Y14       Z3        X14       Z14
   1                    0.76247  -0.61577   0.10570  -0.07383  -0.06411
                          Y4        Z15       Y15       X1        Y2
   1                    0.06239  -0.05656  -0.05096   0.03794  -0.03562
 Angle between quadratic step and forces=  19.17 degrees.
 Linear search not attempted -- first point.
 B after Tr=     0.000146    0.001467   -0.000004
         Rot=    1.000000    0.000087    0.000000    0.000088 Ang=   0.01 deg.
 Variable       Old X    -DE/DX   Delta X   Delta X   Delta X     New X
                                 (Linear)    (Quad)   (Total)
    X1       -5.26008  -0.00059   0.00000  -0.00223  -0.00225  -5.26233
    Y1       -0.92853   0.00021   0.00000  -0.00042   0.00183  -0.92670
    Z1       -0.83576  -0.00015   0.00000   0.00198   0.00214  -0.83363
    X2       -7.19961  -0.00003   0.00000  -0.00065  -0.00070  -7.20030
    Y2       -1.06950   0.00014   0.00000  -0.01028  -0.00777  -1.07727
    Z2       -1.35678   0.00002   0.00000   0.00269   0.00287  -1.35391
    X3       -3.06532   0.00004   0.00000  -0.00168  -0.00164  -3.06696
    Y3       -0.59807  -0.00504   0.00000  -0.04151  -0.03954  -0.63762
    Z3       -0.26848  -0.00063   0.00000  -0.00501  -0.00490  -0.27338
    X4       -0.41904  -0.00013   0.00000  -0.00109  -0.00114  -0.42017
    Y4       -1.06602  -0.00052   0.00000  -0.00195  -0.00033  -1.06635
    Z4        0.43524  -0.00010   0.00000  -0.00036  -0.00017   0.43506
    X5        0.20830   0.00025   0.00000   0.00188   0.00172   0.21002
    Y5       -1.72242   0.00033   0.00000   0.00145   0.00331  -1.71911
    Z5        2.50906   0.00016   0.00000   0.00045   0.00075   2.50981
    X6        1.09770   0.00003   0.00000  -0.00061  -0.00059   1.09711
    Y6       -0.68721   0.00014   0.00000   0.00434   0.00534  -0.68187
    Z6       -1.52272   0.00003   0.00000   0.00047   0.00059  -1.52213
    X7        3.77048  -0.00004   0.00000  -0.00107  -0.00108   3.76940
    Y7       -0.84935   0.00006   0.00000   0.00058   0.00121  -0.84814
    Z7       -1.01048   0.00002   0.00000  -0.00096  -0.00082  -1.01129
    X8        4.69461   0.00004   0.00000   0.00204   0.00246   4.69707
    Y8        1.55008   0.00002   0.00000  -0.00221  -0.00153   1.54855
    Z8        0.25137   0.00002   0.00000   0.00188   0.00160   0.25298
    X9        4.61915   0.00000   0.00000  -0.00180  -0.00185   4.61730
    Y9       -1.11673   0.00000   0.00000   0.00191   0.00206  -1.11466
    Z9       -2.86474   0.00000   0.00000  -0.00164  -0.00145  -2.86619
   X10        4.12352  -0.00001   0.00000  -0.00183  -0.00213   4.12139
   Y10       -2.51105   0.00000   0.00000  -0.00154  -0.00078  -2.51183
   Z10        0.15619   0.00001   0.00000  -0.00347  -0.00304   0.15315
   X11        6.73911   0.00000   0.00000   0.00200   0.00240   6.74151
   Y11        1.45459   0.00000   0.00000  -0.00446  -0.00410   1.45050
   Z11        0.51070   0.00000   0.00000   0.00093   0.00067   0.51137
   X12        4.24949   0.00001   0.00000   0.00302   0.00373   4.25322
   Y12        3.18884   0.00000   0.00000  -0.00042   0.00014   3.18897
   Z12       -0.91661   0.00000   0.00000   0.00393   0.00337  -0.91324
   X13        3.81080   0.00000   0.00000   0.00276   0.00322   3.81403
   Y13        1.78377   0.00000   0.00000  -0.00379  -0.00264   1.78113
   Z13        2.09786   0.00000   0.00000   0.00236   0.00205   2.09990
   X14       -2.65856   0.00039   0.00000   0.00352   0.00423  -2.65433
   Y14        3.18728   0.00454   0.00000   0.04117   0.04314   3.23043
   Z14        0.18566   0.00062   0.00000   0.00062   0.00006   0.18571
   X15       -3.84588   0.00003   0.00000  -0.00713  -0.00639  -3.85227
   Y15        3.40018   0.00009   0.00000  -0.00277  -0.00035   3.39982
   Z15        1.56602  -0.00001   0.00000  -0.00312  -0.00371   1.56230
         Item               Value     Threshold  Converged?
 Maximum Force            0.005035     0.000450     NO 
 RMS     Force            0.001031     0.000300     NO 
 Maximum Displacement     0.043143     0.001800     NO 
 RMS     Displacement     0.009141     0.001200     NO 
 Predicted change in Energy=-5.988219D-04
 GradGradGradGradGradGradGradGradGradGradGradGradGradGradGradGradGradGrad


 ----------------------------------------------------------------------

 Electric dipole moment (input orientation):
 (Debye = 10**-18 statcoulomb cm , SI units = C m)
                  (au)            (Debye)         (10**-30 SI)
   Tot        0.399087D+00      0.101438D+01      0.338360D+01
   x         -0.268671D+00     -0.682894D+00     -0.227789D+01
   y         -0.717858D-01     -0.182461D+00     -0.608625D+00
   z         -0.286239D+00     -0.727547D+00     -0.242684D+01

 Dipole polarizability, Alpha (input orientation).
 (esu units = cm**3 , SI units = C**2 m**2 J**-1)
 Alpha(0;0):
               (au)            (10**-24 esu)      (10**-40 SI)
   iso        0.748340D+02      0.110893D+02      0.123385D+02
   aniso      0.320045D+02      0.474258D+01      0.527684D+01
   xx         0.912237D+02      0.135180D+02      0.150408D+02
   yx         0.767406D+01      0.113718D+01      0.126528D+01
   yy         0.736387D+02      0.109121D+02      0.121414D+02
   zx         0.469791D+01      0.696159D+00      0.774581D+00
   zy         0.316350D+01      0.468782D+00      0.521590D+00
   zz         0.596396D+02      0.883767D+01      0.983324D+01

 ----------------------------------------------------------------------

 Dipole orientation:
     6         -3.24369625          0.38977777          4.30762493
     1         -4.31063817          0.29759768          6.01239181
     6         -2.03338836          0.32235262          2.36376014
     6         -0.52627973          1.09467109          0.16168430
     8         -1.41435647          2.15597174         -1.62999954
     8          1.88156887          0.47776979          0.47677099
     6          3.51552209          0.91746995         -1.66081690
     6          3.17705759         -1.14460387         -3.61959687
     1          5.40738037          0.90612215         -0.85412064
     1          3.10715012          2.78261563         -2.43636755
     1          4.51411661         -0.86010167         -5.16480909
     1          3.52015850         -2.99396859         -2.77698705
     1          1.26694868         -1.10408079         -4.39100383
     8         -2.30665097         -3.28131067          1.08331256
     1         -4.12490301         -3.32562787          0.85429622

 Electric dipole moment (dipole orientation):
 (Debye = 10**-18 statcoulomb cm , SI units = C m)
                  (au)            (Debye)         (10**-30 SI)
   Tot        0.399087D+00      0.101438D+01      0.338360D+01
   x          0.000000D+00      0.000000D+00      0.000000D+00
   y          0.000000D+00      0.000000D+00      0.000000D+00
   z          0.399087D+00      0.101438D+01      0.338360D+01

 Dipole polarizability, Alpha (dipole orientation).
 (esu units = cm**3 , SI units = C**2 m**2 J**-1)
 Alpha(0;0):
               (au)            (10**-24 esu)      (10**-40 SI)
   iso        0.748340D+02      0.110893D+02      0.123385D+02
   aniso      0.320045D+02      0.474258D+01      0.527684D+01
   xx         0.716695D+02      0.106203D+02      0.118167D+02
   yx        -0.523985D+00     -0.776466D-01     -0.863934D-01
   yy         0.712139D+02      0.105528D+02      0.117416D+02
   zx        -0.159333D+02     -0.236107D+01     -0.262704D+01
   zy         0.726023D+01      0.107586D+01      0.119705D+01
   zz         0.816187D+02      0.120946D+02      0.134571D+02

 ----------------------------------------------------------------------
 1\1\GINC-AJ\Freq\UM062X\6-311++G(d,p)\C5H7O3(2)\AAYUSH\23-Jun-2025\0\\
 # freq 6-311++g(d,p) m062x\\Title Card Required\\0,2\C,-2.783515,-0.49
 1358,-0.442267\H,-3.809868,-0.565953,-0.717978\C,-1.622096,-0.316486,-
 0.142074\C,-0.221745,-0.564112,0.230318\O,0.110227,-0.911464,1.32774\O
 ,0.580878,-0.363656,-0.805788\C,1.995251,-0.449456,-0.534721\C,2.48428
 1,0.820265,0.133021\H,2.444349,-0.590947,-1.515953\H,2.182074,-1.32879
 2,0.082653\H,3.566184,0.769738,0.270251\H,2.248733,1.68746,-0.48505\H,
 2.016591,0.94393,1.110138\O,-1.406851,1.686638,0.098245\H,-2.035154,1.
 799297,0.828701\\Version=ES64L-G16RevA.03\State=2-A\HF=-420.2024014\S2
 =0.772191\S2-1=0.\S2A=0.750193\RMSD=6.986e-09\RMSF=1.031e-03\ZeroPoint
 =0.1117645\Thermal=0.1214681\Dipole=-0.2686712,-0.0717858,-0.286239\Di
 poleDeriv=-0.2445887,0.475354,0.0532722,0.0457861,-0.0501282,0.0238737
 ,0.0260025,0.1288503,-0.107056,0.2793153,0.0271064,0.0188777,0.0291545
 ,0.2085961,0.0010399,0.0115479,-0.0008653,0.2282571,-0.4720532,-0.4929
 828,-0.1563938,-0.1227399,-0.8615753,-0.1588904,-0.1202519,-0.175822,-
 0.148574,2.1176585,-0.3313093,-0.1264076,-0.0377945,0.6244592,-0.35028
 71,-0.4872014,-0.477603,1.6577949,-0.8122227,0.1708358,-0.1966808,0.03
 69637,-0.4628137,0.2393156,0.0158583,0.3308726,-1.0509609,-1.6287926,-
 0.0508573,0.3833535,-0.074507,-0.3307395,0.0678358,0.5072683,0.1016242
 ,-0.8513971,0.9929696,0.0749015,-0.0707176,0.0215155,0.3131439,0.07252
 06,0.0705526,0.0239088,0.2898562,-0.0626524,-0.0215762,0.0367059,-0.04
 70614,-0.0557071,-0.0792735,-0.0281668,-0.0506259,-0.00955,-0.0245098,
 -0.0010904,0.0305257,-0.0086001,0.0560304,-0.0296034,0.0698282,-0.0541
 338,-0.0713856,-0.0170354,-0.0332707,0.0199536,0.022975,-0.055607,0.02
 57807,-0.0665885,0.0625327,0.0392487,-0.131105,-0.0074974,-0.023333,0.
 0057677,0.0664973,0.0016398,-0.0247429,-0.0109866,0.0951108,0.0843598,
 0.0443169,-0.0377574,-0.001434,-0.0417323,0.0389945,-0.0308959,0.06598
 3,0.0064796,0.0741322,0.0179556,0.0723837,-0.005301,0.0386276,-0.00365
 16,0.0555568,-0.0297906,-0.0300416,-0.3529226,0.2121108,-0.0545571,0.1
 367481,0.2242288,0.13624,-0.0819405,0.0072404,-0.2764575,0.1974472,-0.
 0839968,0.050775,-0.0014726,0.3267198,0.0144655,0.0831733,0.0788153,0.
 2286754\Polar=91.2237212,7.6740552,73.6387484,4.6979116,3.1634964,59.6
 395833\Quadrupole=10.0256599,-4.2670068,-5.7586531,0.2552569,-1.220922
 8,3.7771402\PG=C01 [X(C5H7O3)]\NImag=1\\1.34459303,0.13944683,0.072131
 90,0.33690645,0.03805370,0.14198254,-0.39456847,-0.02935405,-0.0989467
 6,0.38503025,-0.02082220,-0.02536373,-0.00635664,0.02760569,0.01667301
 ,-0.09903330,-0.00848056,-0.05216093,0.09914868,0.00788404,0.04255684,
 -0.94758019,-0.10928926,-0.23467370,0.00896874,-0.00674749,0.00192858,
 1.25732519,-0.04213430,-0.01851875,-0.00909623,0.00163144,0.00591377,0
 .00120584,0.00488389,-0.04095744,-0.22987553,-0.02572938,-0.09341818,0
 .00109970,-0.00110544,0.00457473,0.27902019,-0.01937184,0.18301503,0.0
 1671798,0.00705445,0.00200139,-0.00067481,0.00013670,-0.00200873,-0.24
 721328,0.00716361,-0.04607087,0.65256615,-0.02133514,-0.00171395,-0.00
 572727,-0.00058261,0.00400088,-0.00024956,0.04053973,-0.04858555,0.009
 15839,-0.06751986,0.28166284,-0.00118099,0.00125895,0.00239435,-0.0012
 5614,0.00020950,0.00521528,-0.03030248,-0.00128141,-0.06625965,0.10619
 533,-0.21405262,0.92398622,-0.00554800,-0.00035912,-0.00047032,0.00020
 758,-0.00025288,0.00151063,-0.01809221,0.01933562,-0.04513143,-0.16865
 570,0.06316224,-0.18617490,0.16450106,0.00280930,0.00083119,0.00048526
 ,0.00016890,-0.00056486,-0.00057854,0.01278223,0.01059916,0.01751133,0
 .05781075,-0.13768515,0.18228408,-0.06945967,0.10764250,-0.00125913,-0
 .00057717,0.00106311,0.00002987,-0.00031319,0.00030424,-0.03633624,0.0
 1905612,-0.02655773,-0.17637038,0.18136040,-0.65000004,0.19471191,-0.2
 3003993,0.77388504,-0.00909091,-0.00025172,-0.00245130,0.00101054,0.00
 021105,-0.00117073,-0.05214437,0.00372323,0.03440025,-0.19622752,-0.01
 821165,0.10224000,0.02640113,-0.00657554,0.03097142,0.50268155,0.00058
 554,0.00062562,0.00016580,-0.00000749,-0.00033425,0.00007786,0.0025511
 1,0.00952959,-0.00067408,-0.01380590,-0.07523234,0.03519325,-0.0085864
 1,0.02305456,0.03169454,0.00840841,0.10484892,0.00120148,0.00029917,0.
 00015067,-0.00004815,-0.00016529,-0.00062224,0.00809400,-0.00098660,0.
 00548593,0.07910095,0.03480817,-0.22313450,0.03057501,0.03144320,-0.09
 814111,-0.09645500,-0.07454935,0.40539853,0.00258183,0.00009259,0.0006
 1291,-0.00037043,-0.00001183,0.00001179,0.00157718,-0.00325862,0.00002
 383,-0.05521420,-0.00432056,0.03473564,-0.00043581,0.00590743,-0.01965
 507,-0.17629383,0.01255000,-0.01993468,0.45269957,0.00139349,0.0000957
 2,0.00029820,0.00003625,-0.00013646,0.00006966,-0.00046093,0.00348381,
 0.00091353,-0.00495517,0.00259924,-0.00885460,0.00246957,-0.00561016,0
 .00090019,0.01546588,-0.06900326,0.01207987,-0.02335799,0.56124214,0.0
 0126103,0.00005894,0.00068054,-0.00004242,-0.00001051,0.00025752,0.004
 33883,0.00087157,-0.00365129,0.03439682,-0.00569951,0.01243600,0.00116
 415,-0.00054699,-0.00396458,-0.04206686,0.01153378,-0.09701847,-0.0610
 4950,-0.03938178,0.63184588,-0.00015943,0.00000189,0.00000256,0.000088
 56,-0.00002825,-0.00000941,-0.00048931,0.00141570,0.00066939,0.0019321
 5,-0.00122856,-0.00931112,0.00081876,-0.00155177,0.00269413,-0.0377493
 8,-0.03492912,-0.01748572,-0.07968705,-0.02147289,-0.00794280,0.578016
 71,0.00024093,-0.00005936,0.00006487,-0.00000813,0.00000350,-0.0000131
 9,-0.00037192,-0.00026579,-0.00019217,-0.00069965,-0.00044050,0.003604
 14,-0.00106918,-0.00019018,-0.00182825,-0.00134090,0.00585038,-0.00110
 805,-0.03288963,-0.18491698,-0.05097262,-0.02945044,0.52176570,0.00006
 616,0.00000626,-0.00002074,0.00001303,-0.00002164,0.00000390,-0.000400
 25,0.00032816,0.00008564,0.00145208,0.00103819,0.00236644,-0.00121860,
 -0.00160160,-0.00055693,-0.00802446,-0.00450586,-0.00149254,-0.0128726
 8,-0.04955098,-0.11071009,-0.01510920,-0.03498568,0.57049547,-0.000716
 76,-0.00000575,-0.00025982,0.00004872,0.00002465,-0.00005387,-0.001111
 99,-0.00021578,0.00114975,-0.00372892,0.00344006,-0.00550959,0.0015017
 3,-0.00054398,0.00130625,-0.03413224,0.00203752,0.03407348,-0.08588493
 ,0.01387419,0.09226295,0.00682836,-0.00089088,-0.01113222,0.11262415,-
 0.00002470,-0.00001025,0.00002569,0.00000865,-0.00000593,0.00000170,0.
 00017689,0.00017214,-0.00005749,-0.00001921,-0.00068094,0.00248327,-0.
 00163025,0.00064986,-0.00040146,0.00301163,0.00064570,-0.00259138,0.01
 368960,-0.05697053,-0.02752582,0.01140722,-0.00362835,-0.02746882,-0.0
 1357576,0.05685954,-0.00009301,0.00000086,-0.00006742,-0.00001385,0.00
 000010,-0.00002801,-0.00022559,-0.00017026,0.00028106,-0.00248689,0.00
 066301,-0.00096473,0.00139354,-0.00045992,0.00094702,-0.00630532,0.001
 71175,0.00944113,0.10608906,-0.02878377,-0.28286769,0.00419446,-0.0012
 2104,-0.01114412,-0.10732956,0.03391162,0.29684797,-0.00036099,0.00003
 707,-0.00004732,0.00003106,0.00003709,-0.00003206,-0.00005561,-0.00049
 002,0.00010757,0.00281916,0.00335498,-0.00868641,0.00039110,-0.0010768
 3,0.00394007,-0.02711793,0.02987390,-0.02044497,-0.05465166,0.02647110
 ,-0.01633150,0.00383414,-0.00947142,0.00721859,0.00423274,-0.01121747,
 0.00641295,0.07097982,-0.00018337,-0.00000837,-0.00003523,-0.00000423,
 0.00000895,0.00001750,0.00015146,-0.00002221,-0.00020142,-0.00042745,-
 0.00013898,0.00359821,-0.00224379,0.00057312,-0.00097272,0.00488225,0.
 00225415,-0.00090917,0.03493011,-0.22751090,0.12339637,0.00319979,-0.0
 2183157,0.01552602,-0.00202928,0.00551764,-0.00311874,-0.03628587,0.24
 299549,-0.00007458,-0.00005169,0.00001522,0.00002774,-0.00000089,0.000
 00120,-0.00024161,0.00049527,-0.00005596,0.00263722,-0.00031661,-0.000
 28889,0.00158383,-0.00077775,-0.00071907,-0.00748322,0.00256991,-0.002
 61152,-0.02468133,0.12631935,-0.14095985,0.00331167,-0.01429472,0.0104
 0766,-0.00440389,0.02267788,-0.01383943,0.02970309,-0.13455508,0.14799
 294,-0.00005191,0.00001946,0.00000848,0.00003459,0.00000954,0.00000855
 ,-0.00010242,0.00010414,-0.00002119,0.00145860,0.00048347,-0.00130526,
 -0.00007172,-0.00040926,0.00040934,-0.00058712,-0.00271480,-0.00031767
 ,-0.01008663,0.00312257,0.00029430,-0.31399164,0.01280569,-0.03384140,
 0.00028250,-0.00018172,-0.00034361,0.00019532,-0.00042202,0.00014358,0
 .34021801,-0.00028048,-0.00000863,-0.00006654,0.00001637,-0.00001027,-
 0.00000585,0.00003614,0.00058950,0.00029843,0.00108626,-0.00004120,-0.
 00294088,0.00020754,-0.00037209,0.00104040,-0.00642162,-0.00549942,-0.
 00230552,-0.02624770,0.00480385,-0.00059625,0.01464167,-0.04857726,0.0
 0111353,0.00064180,0.00103890,-0.00014844,0.00061451,0.00045587,0.0010
 7841,-0.01350818,0.04902263,-0.00010054,0.00000411,-0.00000393,0.00000
 700,-0.00000029,-0.00000434,-0.00002452,0.00009714,0.00009428,0.000461
 56,-0.00002108,-0.00281683,0.00053259,0.00027582,0.00114235,-0.0039876
 1,-0.00367587,0.00016500,-0.01324996,0.00378924,-0.00250221,-0.0326980
 2,0.00066510,-0.05027848,0.00041401,0.00060285,-0.00006068,0.00020765,
 0.00009800,0.00042760,0.03758573,0.00007671,0.05056559,-0.00017213,-0.
 00001987,-0.00004533,-0.00002545,-0.00001265,-0.00000059,0.00022785,0.
 00029090,0.00003429,-0.00025116,-0.00049614,0.00151928,-0.00052450,-0.
 00000571,-0.00071509,0.00207490,0.00054350,0.00044972,0.00055186,-0.01
 045403,0.00629406,-0.06023588,0.04883877,-0.03380191,0.00009682,0.0007
 9558,0.00002564,-0.00019314,-0.00222704,-0.00104983,-0.00504991,0.0258
 6416,-0.01827038,0.06022216,-0.00013071,0.00000733,-0.00004297,-0.0000
 0272,-0.00000483,0.00000365,0.00003350,0.00010354,0.00004643,-0.000082
 99,-0.00041657,0.00075189,-0.00016485,0.00023417,-0.00039596,0.0010456
 6,0.00298047,0.00014716,0.00692386,-0.02560473,0.01700155,0.04637056,-
 0.21695296,0.12332336,0.00024878,0.00104270,-0.00007812,-0.00210269,-0
 .00332139,-0.00360789,0.00001235,0.00019521,-0.00087443,-0.05038494,0.
 23802143,0.00020804,0.00001446,0.00004808,0.00000526,0.00000734,0.0000
 0177,-0.00015428,-0.00042198,-0.00004558,-0.00047198,0.00050959,-0.000
 49725,0.00054582,0.00030267,0.00043824,0.00160644,0.00100482,0.0003394
 7,0.00390198,-0.01522738,0.01004012,-0.03422717,0.12574088,-0.13985668
 ,0.00057104,0.00057428,0.00091773,-0.00178719,-0.00302895,-0.00103944,
 -0.00002809,0.00139055,-0.00278346,0.03805900,-0.13350210,0.14705877,0
 .00002573,-0.00001870,-0.00001840,-0.00003010,-0.00001574,-0.00000508,
 0.00009274,0.00013066,0.00004562,-0.00080458,-0.00057549,-0.00103025,-
 0.00069588,-0.00065900,0.00061870,0.00132110,0.00113296,0.00066574,0.0
 0436821,-0.00173995,-0.01217443,-0.09915474,0.01432802,0.10758831,-0.0
 0003406,-0.00245359,-0.00136808,0.00001708,0.00065055,0.00053498,-0.01
 210730,0.00326701,0.02910628,0.00310059,-0.00178987,-0.00813741,0.1035
 8143,0.00024688,0.00002440,0.00003377,-0.00000724,0.00000007,-0.000013
 06,-0.00024766,-0.00047766,0.00012162,-0.00103540,0.00090516,-0.002920
 20,0.00060849,-0.00056566,0.00182368,-0.00010888,0.00158434,0.00284385
 ,0.01539503,-0.00431753,-0.02887505,0.01148882,-0.05072164,-0.02315663
 ,-0.00276001,-0.00465364,-0.00219437,0.00055551,0.00112229,0.00037746,
 0.00061053,-0.00150940,-0.00099274,-0.01259413,0.00379249,0.02247814,-
 0.01209972,0.05473731,-0.00013293,-0.00002905,-0.00003017,-0.00002391,
 0.00000102,-0.00001491,0.00014349,0.00007849,0.00008668,-0.00045959,-0
 .00038201,-0.00141851,0.00090976,0.00103076,0.00061276,-0.00045355,0.0
 0086808,0.00118617,0.00626970,-0.00264021,-0.01364151,0.10598339,-0.02
 557612,-0.26909140,-0.00103740,-0.00226377,0.00052047,-0.00033373,0.00
 023437,0.00066161,-0.00256982,0.00108426,0.00598755,0.00756882,-0.0027
 2091,-0.01462268,-0.11600107,0.03049150,0.28970718,-0.00754681,-0.0065
 4997,-0.00237692,0.00019128,0.00026114,-0.00021328,0.00014966,0.011644
 32,0.00777277,-0.00170510,0.00309898,-0.00272707,0.00021574,0.00101074
 ,0.00070292,-0.00073401,0.00171183,0.00117706,0.00076648,-0.00032939,-
 0.00038488,-0.00001367,0.00005070,-0.00008602,-0.00001010,0.00002958,0
 .00007096,-0.00009674,-0.00000936,-0.00000906,-0.00015914,0.00006345,0
 .00005702,0.00013509,-0.00000856,-0.00008283,0.00038795,-0.00007959,0.
 00017046,0.23116273,-0.05924804,-0.02718233,-0.01703017,0.00076813,-0.
 00021283,0.00017162,0.05005289,0.07997808,0.02542946,0.01296706,-0.023
 23829,0.00184799,-0.00136294,0.00116721,-0.00198271,-0.00285299,-0.000
 72504,0.00056880,0.00024206,0.00181266,0.00059185,0.00024157,-0.000064
 45,0.00004142,-0.00017351,0.00004418,-0.00011751,-0.00032443,-0.000072
 16,0.00013535,0.00008583,-0.00003580,-0.00003812,-0.00011412,-0.000065
 45,0.00008198,-0.00019955,0.00000804,-0.00016858,-0.03870839,-0.010677
 02,-0.00589606,-0.00432925,-0.00022611,0.00013919,0.00012521,0.0000215
 4,0.00782712,0.00468002,-0.00403429,-0.00182355,-0.00012224,-0.0032127
 0,0.00112031,0.00046279,0.00327896,0.00060836,-0.00165647,0.00052672,-
 0.00067239,0.00004400,-0.00004992,0.00001376,0.00009326,-0.00026200,0.
 00002046,0.00003986,0.00003611,0.00012597,-0.00003242,0.00002260,-0.00
 001313,0.00003659,0.00009404,-0.00005006,-0.00002568,-0.00003797,0.000
 18526,-0.00006843,0.00008198,-0.25774731,0.03896314,0.30033669,0.00187
 703,-0.00080385,-0.00024191,0.00005793,-0.00039483,-0.00008118,-0.0015
 5198,-0.00422479,-0.00322433,-0.00101877,0.00019055,0.00279398,-0.0000
 1329,-0.00020760,-0.00104869,0.00058811,0.00064895,-0.00065127,0.00007
 942,-0.00006270,-0.00001974,-0.00003760,-0.00007195,0.00014857,0.00000
 398,-0.00001646,-0.00002070,-0.00002437,0.00001824,0.00000141,0.000018
 77,0.00001906,-0.00004081,0.00004290,0.00003262,-0.00000864,-0.0000681
 7,0.00002737,-0.00003361,-0.22274337,0.03862641,0.25616206,0.22278943,
 -0.00056403,-0.00085079,-0.00077224,-0.00026897,0.00003299,-0.00009109
 ,0.00590942,-0.00154217,-0.00614736,0.00232680,-0.00099464,-0.00118157
 ,-0.00065438,0.00023634,0.00063606,-0.00098484,-0.00057940,0.00042514,
 0.00035565,0.00003314,0.00015447,-0.00010621,0.00002947,-0.00008574,-0
 .00007205,-0.00002102,0.00000482,0.00002457,-0.00002194,-0.00004899,-0
 .00001759,-0.00005190,-0.00000645,-0.00002428,-0.00001141,0.00007569,0
 .00004241,0.00007143,-0.00000785,0.02781452,-0.02073679,-0.03821038,-0
 .03378102,0.02440672,-0.00199708,-0.00049935,-0.00040703,-0.00013924,-
 0.00025332,-0.00010659,0.00100647,0.00451570,0.00039932,0.00344665,-0.
 00096685,0.00219482,-0.00105229,0.00020882,-0.00173226,-0.00142841,0.0
 0024186,0.00032676,0.00047071,0.00002469,0.00010555,-0.00008589,0.0000
 2357,0.00005388,-0.00007159,-0.00000842,-0.00001940,-0.00005272,-0.000
 01676,-0.00001467,-0.00000982,-0.00005541,-0.00002648,-0.00001762,-0.0
 0002599,0.00003887,-0.00001017,0.00005047,-0.00002522,0.25367616,-0.04
 849452,-0.29657565,-0.25373515,0.04525549,0.29578811\\0.00059174,-0.00
 021026,0.00014781,0.00002791,-0.00014276,-0.00001684,-0.00003726,0.005
 03532,0.00062761,0.00013084,0.00052222,0.00010444,-0.00025062,-0.00033
 078,-0.00016336,-0.00003433,-0.00014390,-0.00002899,0.00003688,-0.0000
 6490,-0.00002354,-0.00003852,-0.00002223,-0.00001878,-0.00000019,-0.00
 000220,-0.00000400,0.00000619,-0.00000473,-0.00000769,-0.00000365,-0.0
 0000447,-0.00000252,-0.00000549,-0.00000339,-0.00000012,-0.00000430,-0
 .00000145,-0.00000213,-0.00039031,-0.00453943,-0.00061958,-0.00002889,
 -0.00008703,0.00000768\\\@


 NO HUMAN INVESTIGATION CAN BECOME REAL SCIENCE
 WITHOUT GOING THROUGH MATHEMATICAL PEOPLE.
 -- LEONARDO DA VINCI, IN "PENSIERI" CA. 1492
 Job cpu time:       0 days  0 hours 59 minutes 37.0 seconds.
 Elapsed time:       0 days  0 hours  2 minutes 29.4 seconds.
 File lengths (MBytes):  RWF=    153 Int=      0 D2E=      0 Chk=      9 Scr=      1
 Normal termination of Gaussian 16 at Mon Jun 23 06:00:39 2025.
