 Entering Gaussian System, Link 0=g16
 Initial command:
 /opt/g16/l1.exe "/home/aayush/scratches/g16/Gau-83783.inp" -scrdir="/home/aayush/scratches/g16/"
 Entering Link 1 = /opt/g16/l1.exe PID=     83786.
  
 Copyright (c) 1988,1990,1992,1993,1995,1998,2003,2009,2016,
            Gaussian, Inc.  All Rights Reserved.
  
 This is part of the Gaussian(R) 16 program.  It is based on
 the Gaussian(R) 09 system (copyright 2009, Gaussian, Inc.),
 the Gaussian(R) 03 system (copyright 2003, Gaussian, Inc.),
 the Gaussian(R) 98 system (copyright 1998, Gaussian, Inc.),
 the Gaussian(R) 94 system (copyright 1995, Gaussian, Inc.),
 the Gaussian 92(TM) system (copyright 1992, Gaussian, Inc.),
 the Gaussian 90(TM) system (copyright 1990, Gaussian, Inc.),
 the Gaussian 88(TM) system (copyright 1988, Gaussian, Inc.),
 the Gaussian 86(TM) system (copyright 1986, Carnegie Mellon
 University), and the Gaussian 82(TM) system (copyright 1983,
 Carnegie Mellon University). Gaussian is a federally registered
 trademark of Gaussian, Inc.
  
 This software contains proprietary and confidential information,
 including trade secrets, belonging to Gaussian, Inc.
  
 This software is provided under written license and may be
 used, copied, transmitted, or stored only in accord with that
 written license.
  
 The following legend is applicable only to US Government
 contracts under FAR:
  
                    RESTRICTED RIGHTS LEGEND
  
 Use, reproduction and disclosure by the US Government is
 subject to restrictions as set forth in subparagraphs (a)
 and (c) of the Commercial Computer Software - Restricted
 Rights clause in FAR 52.227-19.
  
 Gaussian, Inc.
 340 Quinnipiac St., Bldg. 40, Wallingford CT 06492
  
  
 ---------------------------------------------------------------
 Warning -- This program may not be used in any manner that
 competes with the business of Gaussian, Inc. or will provide
 assistance to any competitor of Gaussian, Inc.  The licensee
 of this program is prohibited from giving any competitor of
 Gaussian, Inc. access to this program.  By using this program,
 the user acknowledges that Gaussian, Inc. is engaged in the
 business of creating and licensing software in the field of
 computational chemistry and represents and warrants to the
 licensee that it is not a competitor of Gaussian, Inc. and that
 it will not use this program in any manner prohibited above.
 ---------------------------------------------------------------
  

 Cite this work as:
 Gaussian 16, Revision A.03,
 M. J. Frisch, G. W. Trucks, H. B. Schlegel, G. E. Scuseria, 
 M. A. Robb, J. R. Cheeseman, G. Scalmani, V. Barone, 
 G. A. Petersson, H. Nakatsuji, X. Li, M. Caricato, A. V. Marenich, 
 J. Bloino, B. G. Janesko, R. Gomperts, B. Mennucci, H. P. Hratchian, 
 J. V. Ortiz, A. F. Izmaylov, J. L. Sonnenberg, D. Williams-Young, 
 F. Ding, F. Lipparini, F. Egidi, J. Goings, B. Peng, A. Petrone, 
 T. Henderson, D. Ranasinghe, V. G. Zakrzewski, J. Gao, N. Rega, 
 G. Zheng, W. Liang, M. Hada, M. Ehara, K. Toyota, R. Fukuda, 
 J. Hasegawa, M. Ishida, T. Nakajima, Y. Honda, O. Kitao, H. Nakai, 
 T. Vreven, K. Throssell, J. A. Montgomery, Jr., J. E. Peralta, 
 F. Ogliaro, M. J. Bearpark, J. J. Heyd, E. N. Brothers, K. N. Kudin, 
 V. N. Staroverov, T. A. Keith, R. Kobayashi, J. Normand, 
 K. Raghavachari, A. P. Rendell, J. C. Burant, S. S. Iyengar, 
 J. Tomasi, M. Cossi, J. M. Millam, M. Klene, C. Adamo, R. Cammi, 
 J. W. Ochterski, R. L. Martin, K. Morokuma, O. Farkas, 
 J. B. Foresman, and D. J. Fox, Gaussian, Inc., Wallingford CT, 2016.
 
 ******************************************
 Gaussian 16:  ES64L-G16RevA.03 25-Dec-2016
                16-Aug-2025 
 ******************************************
 %chk=ethyl_propiolate_non_planar.chk
 %mem=12GB
 %nprocshared=24
 Will use up to   24 processors via shared memory.
 --------------------------
 # freq 6-311++g(d,p) m062x
 --------------------------
 1/10=4,30=1,38=1/1,3;
 2/12=2,17=6,18=5,40=1/2;
 3/5=4,6=6,7=1111,11=2,25=1,30=1,71=2,74=-55,140=1/1,2,3;
 4//1;
 5/5=2,38=5,98=1/2;
 8/6=4,10=90,11=11/1;
 11/6=1,8=1,9=11,15=111,16=1/1,2,10;
 10/6=1/2;
 6/7=2,8=2,9=2,10=2,28=1/1;
 7/8=1,10=1,25=1/1,2,3,16;
 1/10=4,30=1/3;
 99//99;
 -------------------
 Title Card Required
 -------------------
 Symbolic Z-matrix:
 Charge =  0 Multiplicity = 2
 C                    -2.72078  -0.47656  -0.44693 
 H                    -3.74601  -0.56081  -0.72601 
 C                    -1.5605   -0.18777  -0.13242 
 C                    -0.16364  -0.53665   0.22594 
 O                     0.16448  -0.89518   1.31998 
 O                     0.6377   -0.33968  -0.81052 
 C                     2.053    -0.42504  -0.5396 
 C                     2.54057   0.84346   0.13176 
 H                     2.50195  -0.56339  -1.52126 
 H                     2.24017  -1.30606   0.07513 
 H                     3.62243   0.79251   0.26923 
 H                     2.3045    1.71221  -0.48376 
 H                     2.07243   0.96478   1.10895 
 O                    -1.356     1.64358   0.09056 
 H                    -1.97573   1.79187   0.8191 
 

 GradGradGradGradGradGradGradGradGradGradGradGradGradGradGradGradGradGrad
 Berny optimization.
 Initialization pass.
 Trust Radius=3.00D-01 FncErr=1.00D-07 GrdErr=1.00D-07 EigMax=2.50D+02 EigMin=1.00D-04
 Number of steps in this run=      2 maximum allowed number of steps=      2.
 GradGradGradGradGradGradGradGradGradGradGradGradGradGradGradGradGradGrad

                          Input orientation:                          
 ---------------------------------------------------------------------
 Center     Atomic      Atomic             Coordinates (Angstroms)
 Number     Number       Type             X           Y           Z
 ---------------------------------------------------------------------
      1          6           0       -2.720782   -0.476556   -0.446933
      2          1           0       -3.746013   -0.560806   -0.726012
      3          6           0       -1.560499   -0.187773   -0.132421
      4          6           0       -0.163635   -0.536652    0.225941
      5          8           0        0.164475   -0.895182    1.319976
      6          8           0        0.637698   -0.339675   -0.810519
      7          6           0        2.052995   -0.425035   -0.539599
      8          6           0        2.540565    0.843456    0.131755
      9          1           0        2.501945   -0.563394   -1.521264
     10          1           0        2.240169   -1.306064    0.075131
     11          1           0        3.622427    0.792514    0.269234
     12          1           0        2.304502    1.712210   -0.483760
     13          1           0        2.072427    0.964775    1.108950
     14          8           0       -1.355998    1.643575    0.090564
     15          1           0       -1.975733    1.791865    0.819095
 ---------------------------------------------------------------------
                    Distance matrix (angstroms):
                    1          2          3          4          5
     1  C    0.000000
     2  H    1.065871   0.000000
     3  C    1.236354   2.295207   0.000000
     4  C    2.644877   3.706782   1.483701   0.000000
     5  O    3.409094   4.426036   2.363349   1.197127   0.000000
     6  O    3.380875   4.390098   2.305420   1.324834   2.252007
     7  C    4.774954   5.803592   3.644095   2.347756   2.691759
     8  C    5.455189   6.498367   4.236974   3.037477   3.174986
     9  H    5.332786   6.298366   4.309690   3.187281   3.694116
    10  H    5.056844   6.085361   3.967207   2.528441   2.454989
    11  H    6.508436   7.557506   5.290086   4.012832   3.988710
    12  H    5.481380   6.467922   4.321066   3.413613   3.825137
    13  H    5.241475   6.288778   4.008431   2.834424   2.672874
    14  O    2.578079   3.352352   1.856173   2.488664   3.204462
    15  H    2.702528   3.325103   2.235345   3.009572   3.471541
                    6          7          8          9         10
     6  O    0.000000
     7  C    1.443520   0.000000
     8  C    2.430758   1.515754   0.000000
     9  H    2.007642   1.088286   2.170988   0.000000
    10  H    2.070313   1.090477   2.171147   1.780046   0.000000
    11  H    3.369915   2.144704   1.091751   2.509950   2.520385
    12  H    2.663689   2.152717   1.090559   2.508739   3.070257
    13  H    2.728442   2.156308   1.090313   3.072102   2.500726
    14  O    2.952974   4.037014   3.978076   4.727835   4.651132
    15  H    3.745548   4.794929   4.665711   5.574417   5.284361
                   11         12         13         14         15
    11  H    0.000000
    12  H    1.774758   0.000000
    13  H    1.771242   1.774611   0.000000
    14  O    5.053805   3.705917   3.640327   0.000000
    15  H    5.713182   4.474839   4.141943   0.967894   0.000000
 Stoichiometry    C5H7O3(2)
 Framework group  C1[X(C5H7O3)]
 Deg. of freedom    39
 Full point group                 C1      NOp   1
 Largest Abelian subgroup         C1      NOp   1
 Largest concise Abelian subgroup C1      NOp   1
                         Standard orientation:                         
 ---------------------------------------------------------------------
 Center     Atomic      Atomic             Coordinates (Angstroms)
 Number     Number       Type             X           Y           Z
 ---------------------------------------------------------------------
      1          6           0       -2.777341   -0.496337   -0.450012
      2          1           0       -3.802400   -0.578091   -0.730461
      3          6           0       -1.617375   -0.210377   -0.131773
      4          6           0       -0.220439   -0.562382    0.223238
      5          8           0        0.107439   -0.932995    1.313308
      6          8           0        0.581204   -0.353244   -0.810597
      7          6           0        1.996441   -0.440750   -0.540049
      8          6           0        2.482918    0.820413    0.145748
      9          1           0        2.445892   -0.567767   -1.523016
     10          1           0        2.183919   -1.328524    0.064807
     11          1           0        3.564754    0.768613    0.283108
     12          1           0        2.246559    1.695890   -0.460051
     13          1           0        2.014291    0.930429    1.124046
     14          8           0       -1.414138    1.618474    0.111897
     15          1           0       -2.034274    1.758162    0.841785
 ---------------------------------------------------------------------
 Rotational constants (GHZ):           3.7219338           1.3116161           1.2011334
 Standard basis: 6-311++G(d,p) (5D, 7F)
 There are   233 symmetry adapted cartesian basis functions of A   symmetry.
 There are   225 symmetry adapted basis functions of A   symmetry.
   225 basis functions,   351 primitive gaussians,   233 cartesian basis functions
    31 alpha electrons       30 beta electrons
       nuclear repulsion energy       364.0333746941 Hartrees.
 NAtoms=   15 NActive=   15 NUniq=   15 SFac= 1.00D+00 NAtFMM=   60 NAOKFM=F Big=F
 Integral buffers will be    131072 words long.
 Raffenetti 2 integral format.
 Two-electron integral symmetry is turned on.
 One-electron integrals computed using PRISM.
 NBasis=   225 RedAO= T EigKep=  4.65D-06  NBF=   225
 NBsUse=   225 1.00D-06 EigRej= -1.00D+00 NBFU=   225
 ExpMin= 3.60D-02 ExpMax= 8.59D+03 ExpMxC= 1.30D+03 IAcc=3 IRadAn=         5 AccDes= 0.00D+00
 Harris functional with IExCor= 1009 and IRadAn=       5 diagonalized for initial guess.
 HarFok:  IExCor= 1009 AccDes= 0.00D+00 IRadAn=         5 IDoV= 1 UseB2=F ITyADJ=14
 ICtDFT=  3500011 ScaDFX=  1.000000  1.000000  1.000000  1.000000
 FoFCou: FMM=F IPFlag=           0 FMFlag=      100000 FMFlg1=           0
         NFxFlg=           0 DoJE=T BraDBF=F KetDBF=T FulRan=T
         wScrn=  0.000000 ICntrl=       500 IOpCl=  0 I1Cent=   200000004 NGrid=           0
         NMat0=    1 NMatS0=      1 NMatT0=    0 NMatD0=    1 NMtDS0=    0 NMtDT0=    0
 Petite list used in FoFCou.
 Initial guess <Sx>= 0.0000 <Sy>= 0.0000 <Sz>= 0.5000 <S**2>= 0.7500 S= 0.5000
 Requested convergence on RMS density matrix=1.00D-08 within 128 cycles.
 Requested convergence on MAX density matrix=1.00D-06.
 Requested convergence on             energy=1.00D-06.
 No special actions if energy rises.
 Restarting incremental Fock formation.
 SCF Done:  E(UM062X) =  -420.206033337     A.U. after   22 cycles
            NFock= 22  Conv=0.38D-08     -V/T= 2.0036
 <Sx>= 0.0000 <Sy>= 0.0000 <Sz>= 0.5000 <S**2>= 0.7865 S= 0.5181
 <L.S>=  0.00000000000    
 Annihilation of the first spin contaminant:
 S**2 before annihilation     0.7865,   after     0.7506
 DoSCS=F DFT=T ScalE2(SS,OS)=  1.000000  1.000000
 Range of M.O.s used for correlation:     1   225
 NBasis=   225 NAE=    31 NBE=    30 NFC=     0 NFV=     0
 NROrb=    225 NOA=    31 NOB=    30 NVA=   194 NVB=   195

 **** Warning!!: The largest alpha MO coefficient is  0.13094800D+03


 **** Warning!!: The largest beta MO coefficient is  0.12074948D+03

 Symmetrizing basis deriv contribution to polar:
 IMax=3 JMax=2 DiffMx= 0.00D+00
 G2DrvN: will do    16 centers at a time, making    1 passes.
 Calling FoFCou, ICntrl=  3107 FMM=F I1Cent=   0 AccDes= 0.00D+00.
 End of G2Drv F.D. properties file   721 does not exist.
 End of G2Drv F.D. properties file   722 does not exist.
 End of G2Drv F.D. properties file   788 does not exist.
          IDoAtm=111111111111111
          Differentiating once with respect to electric field.
                with respect to dipole field.
          Differentiating once with respect to nuclear coordinates.
 Keep R1 and R2 ints in memory in canonical form, NReq=671901991.
          There are    48 degrees of freedom in the 1st order CPHF.  IDoFFX=6 NUNeed=     3.
     45 vectors produced by pass  0 Test12= 2.47D-14 2.08D-09 XBig12= 8.71D+01 4.32D+00.
 AX will form    45 AO Fock derivatives at one time.
     45 vectors produced by pass  1 Test12= 2.47D-14 2.08D-09 XBig12= 1.41D+01 5.15D-01.
     45 vectors produced by pass  2 Test12= 2.47D-14 2.08D-09 XBig12= 6.18D-01 1.13D-01.
     45 vectors produced by pass  3 Test12= 2.47D-14 2.08D-09 XBig12= 9.60D-03 1.42D-02.
     45 vectors produced by pass  4 Test12= 2.47D-14 2.08D-09 XBig12= 1.12D-04 1.45D-03.
     45 vectors produced by pass  5 Test12= 2.47D-14 2.08D-09 XBig12= 1.40D-06 1.28D-04.
     38 vectors produced by pass  6 Test12= 2.47D-14 2.08D-09 XBig12= 1.41D-08 1.06D-05.
     20 vectors produced by pass  7 Test12= 2.47D-14 2.08D-09 XBig12= 1.04D-10 1.09D-06.
      4 vectors produced by pass  8 Test12= 2.47D-14 2.08D-09 XBig12= 9.49D-13 8.20D-08.
      3 vectors produced by pass  9 Test12= 2.47D-14 2.08D-09 XBig12= 1.22D-14 1.02D-08.
      1 vectors produced by pass 10 Test12= 2.47D-14 2.08D-09 XBig12= 2.42D-16 2.33D-09.
 InvSVY:  IOpt=1 It=  1 EMax= 1.07D-14
 Solved reduced A of dimension   336 with    48 vectors.
 Isotropic polarizability for W=    0.000000       73.65 Bohr**3.
 End of Minotr F.D. properties file   721 does not exist.
 End of Minotr F.D. properties file   722 does not exist.
 End of Minotr F.D. properties file   788 does not exist.

 **********************************************************************

            Population analysis using the SCF density.

 **********************************************************************

 Orbital symmetries:
 Alpha Orbitals:
       Occupied  (A) (A) (A) (A) (A) (A) (A) (A) (A) (A) (A) (A)
                 (A) (A) (A) (A) (A) (A) (A) (A) (A) (A) (A) (A)
                 (A) (A) (A) (A) (A) (A) (A)
       Virtual   (A) (A) (A) (A) (A) (A) (A) (A) (A) (A) (A) (A)
                 (A) (A) (A) (A) (A) (A) (A) (A) (A) (A) (A) (A)
                 (A) (A) (A) (A) (A) (A) (A) (A) (A) (A) (A) (A)
                 (A) (A) (A) (A) (A) (A) (A) (A) (A) (A) (A) (A)
                 (A) (A) (A) (A) (A) (A) (A) (A) (A) (A) (A) (A)
                 (A) (A) (A) (A) (A) (A) (A) (A) (A) (A) (A) (A)
                 (A) (A) (A) (A) (A) (A) (A) (A) (A) (A) (A) (A)
                 (A) (A) (A) (A) (A) (A) (A) (A) (A) (A) (A) (A)
                 (A) (A) (A) (A) (A) (A) (A) (A) (A) (A) (A) (A)
                 (A) (A) (A) (A) (A) (A) (A) (A) (A) (A) (A) (A)
                 (A) (A) (A) (A) (A) (A) (A) (A) (A) (A) (A) (A)
                 (A) (A) (A) (A) (A) (A) (A) (A) (A) (A) (A) (A)
                 (A) (A) (A) (A) (A) (A) (A) (A) (A) (A) (A) (A)
                 (A) (A) (A) (A) (A) (A) (A) (A) (A) (A) (A) (A)
                 (A) (A) (A) (A) (A) (A) (A) (A) (A) (A) (A) (A)
                 (A) (A) (A) (A) (A) (A) (A) (A) (A) (A) (A) (A)
                 (A) (A)
 Beta  Orbitals:
       Occupied  (A) (A) (A) (A) (A) (A) (A) (A) (A) (A) (A) (A)
                 (A) (A) (A) (A) (A) (A) (A) (A) (A) (A) (A) (A)
                 (A) (A) (A) (A) (A) (A)
       Virtual   (A) (A) (A) (A) (A) (A) (A) (A) (A) (A) (A) (A)
                 (A) (A) (A) (A) (A) (A) (A) (A) (A) (A) (A) (A)
                 (A) (A) (A) (A) (A) (A) (A) (A) (A) (A) (A) (A)
                 (A) (A) (A) (A) (A) (A) (A) (A) (A) (A) (A) (A)
                 (A) (A) (A) (A) (A) (A) (A) (A) (A) (A) (A) (A)
                 (A) (A) (A) (A) (A) (A) (A) (A) (A) (A) (A) (A)
                 (A) (A) (A) (A) (A) (A) (A) (A) (A) (A) (A) (A)
                 (A) (A) (A) (A) (A) (A) (A) (A) (A) (A) (A) (A)
                 (A) (A) (A) (A) (A) (A) (A) (A) (A) (A) (A) (A)
                 (A) (A) (A) (A) (A) (A) (A) (A) (A) (A) (A) (A)
                 (A) (A) (A) (A) (A) (A) (A) (A) (A) (A) (A) (A)
                 (A) (A) (A) (A) (A) (A) (A) (A) (A) (A) (A) (A)
                 (A) (A) (A) (A) (A) (A) (A) (A) (A) (A) (A) (A)
                 (A) (A) (A) (A) (A) (A) (A) (A) (A) (A) (A) (A)
                 (A) (A) (A) (A) (A) (A) (A) (A) (A) (A) (A) (A)
                 (A) (A) (A) (A) (A) (A) (A) (A) (A) (A) (A) (A)
                 (A) (A) (A)
 The electronic state is 2-A.
 Alpha  occ. eigenvalues --  -19.68234 -19.64451 -19.63231 -10.70659 -10.61858
 Alpha  occ. eigenvalues --  -10.60423 -10.59561 -10.53368  -1.25820  -1.16535
 Alpha  occ. eigenvalues --   -1.10801  -0.91523  -0.87716  -0.78268  -0.70943
 Alpha  occ. eigenvalues --   -0.64697  -0.62503  -0.58771  -0.57541  -0.53302
 Alpha  occ. eigenvalues --   -0.53150  -0.49748  -0.48215  -0.46002  -0.45117
 Alpha  occ. eigenvalues --   -0.41771  -0.40361  -0.39687  -0.38425  -0.36700
 Alpha  occ. eigenvalues --   -0.32333
 Alpha virt. eigenvalues --   -0.00288  -0.00021   0.00476   0.01463   0.02452
 Alpha virt. eigenvalues --    0.02697   0.03074   0.04259   0.05734   0.06128
 Alpha virt. eigenvalues --    0.07046   0.07617   0.08354   0.09913   0.10509
 Alpha virt. eigenvalues --    0.10989   0.11282   0.12102   0.12916   0.13627
 Alpha virt. eigenvalues --    0.14269   0.14464   0.14839   0.15571   0.15677
 Alpha virt. eigenvalues --    0.16340   0.17695   0.18109   0.19008   0.20031
 Alpha virt. eigenvalues --    0.21086   0.22077   0.23528   0.24000   0.24612
 Alpha virt. eigenvalues --    0.25307   0.26699   0.27840   0.29904   0.31102
 Alpha virt. eigenvalues --    0.31161   0.32112   0.32844   0.34192   0.34583
 Alpha virt. eigenvalues --    0.35075   0.36366   0.37127   0.38768   0.40400
 Alpha virt. eigenvalues --    0.41374   0.43162   0.44734   0.46754   0.48103
 Alpha virt. eigenvalues --    0.49892   0.53242   0.54659   0.55464   0.57276
 Alpha virt. eigenvalues --    0.58326   0.60909   0.62935   0.65179   0.66686
 Alpha virt. eigenvalues --    0.67305   0.69766   0.69900   0.71761   0.71914
 Alpha virt. eigenvalues --    0.73620   0.75146   0.77840   0.78446   0.80138
 Alpha virt. eigenvalues --    0.83560   0.85857   0.90167   0.93969   0.97857
 Alpha virt. eigenvalues --    0.98931   1.03668   1.06131   1.07935   1.12662
 Alpha virt. eigenvalues --    1.16279   1.17931   1.20334   1.21362   1.23866
 Alpha virt. eigenvalues --    1.26170   1.27198   1.29334   1.32900   1.35033
 Alpha virt. eigenvalues --    1.36099   1.36484   1.38900   1.42209   1.46295
 Alpha virt. eigenvalues --    1.48339   1.50278   1.51610   1.53686   1.57551
 Alpha virt. eigenvalues --    1.58856   1.59893   1.62000   1.63074   1.65145
 Alpha virt. eigenvalues --    1.66242   1.67870   1.70683   1.73110   1.74101
 Alpha virt. eigenvalues --    1.78225   1.80619   1.84119   1.86780   1.88346
 Alpha virt. eigenvalues --    1.90633   1.94080   1.99307   2.04174   2.05551
 Alpha virt. eigenvalues --    2.10244   2.12834   2.14193   2.20960   2.29747
 Alpha virt. eigenvalues --    2.31576   2.35498   2.41725   2.51619   2.52045
 Alpha virt. eigenvalues --    2.54374   2.55818   2.59916   2.61721   2.63417
 Alpha virt. eigenvalues --    2.65419   2.66592   2.71164   2.73644   2.75047
 Alpha virt. eigenvalues --    2.77399   2.81714   2.83204   2.88005   2.90976
 Alpha virt. eigenvalues --    2.94539   2.96727   2.98690   3.01751   3.05975
 Alpha virt. eigenvalues --    3.10806   3.16201   3.18514   3.19843   3.21557
 Alpha virt. eigenvalues --    3.27381   3.30765   3.34330   3.36403   3.43965
 Alpha virt. eigenvalues --    3.46097   3.49622   3.64734   3.75727   3.85744
 Alpha virt. eigenvalues --    3.86342   3.90558   3.91201   4.02554   4.10595
 Alpha virt. eigenvalues --    4.18343   4.28271   5.14899   5.16490   5.18432
 Alpha virt. eigenvalues --    5.21234   5.32256   5.47457   5.62251   5.73153
 Alpha virt. eigenvalues --    5.94709  23.58407  23.92474  23.94306  24.06075
 Alpha virt. eigenvalues --   24.86730  49.98268  50.02158  50.10760
  Beta  occ. eigenvalues --  -19.68234 -19.63457 -19.63248 -10.70613 -10.61997
  Beta  occ. eigenvalues --  -10.60423 -10.59116 -10.53369  -1.25806  -1.16563
  Beta  occ. eigenvalues --   -1.07201  -0.90435  -0.86952  -0.77781  -0.70370
  Beta  occ. eigenvalues --   -0.64490  -0.61790  -0.58678  -0.57158  -0.53164
  Beta  occ. eigenvalues --   -0.51572  -0.48898  -0.46770  -0.45212  -0.41734
  Beta  occ. eigenvalues --   -0.41060  -0.39508  -0.38502  -0.38089  -0.35335
  Beta virt. eigenvalues --   -0.09883  -0.00182   0.00468   0.01224   0.01857
  Beta virt. eigenvalues --    0.02459   0.02772   0.03234   0.04297   0.05743
  Beta virt. eigenvalues --    0.06071   0.07154   0.07477   0.08426   0.09919
  Beta virt. eigenvalues --    0.10722   0.11296   0.11514   0.12197   0.12590
  Beta virt. eigenvalues --    0.13598   0.14321   0.14887   0.15448   0.15651
  Beta virt. eigenvalues --    0.15803   0.16235   0.17446   0.18093   0.19179
  Beta virt. eigenvalues --    0.20552   0.21122   0.22160   0.23767   0.24095
  Beta virt. eigenvalues --    0.24719   0.25231   0.26757   0.27788   0.29988
  Beta virt. eigenvalues --    0.31043   0.31163   0.32034   0.32938   0.34273
  Beta virt. eigenvalues --    0.34569   0.35056   0.36386   0.37130   0.38794
  Beta virt. eigenvalues --    0.40402   0.41464   0.43091   0.44722   0.46801
  Beta virt. eigenvalues --    0.48325   0.49901   0.53192   0.54666   0.55736
  Beta virt. eigenvalues --    0.57796   0.58812   0.61002   0.63094   0.65391
  Beta virt. eigenvalues --    0.66681   0.67725   0.69666   0.69792   0.71652
  Beta virt. eigenvalues --    0.71844   0.73603   0.75101   0.77673   0.78318
  Beta virt. eigenvalues --    0.80088   0.83578   0.85929   0.90482   0.94110
  Beta virt. eigenvalues --    0.97832   0.99006   1.03848   1.06278   1.08075
  Beta virt. eigenvalues --    1.13408   1.17189   1.18350   1.20731   1.22385
  Beta virt. eigenvalues --    1.24040   1.26665   1.28065   1.29852   1.34104
  Beta virt. eigenvalues --    1.35830   1.36528   1.37093   1.39357   1.43007
  Beta virt. eigenvalues --    1.47001   1.48570   1.50563   1.52353   1.54301
  Beta virt. eigenvalues --    1.57742   1.59123   1.59949   1.62029   1.63365
  Beta virt. eigenvalues --    1.65245   1.66273   1.67914   1.70676   1.73180
  Beta virt. eigenvalues --    1.74145   1.78331   1.80676   1.84336   1.87062
  Beta virt. eigenvalues --    1.88534   1.90888   1.94470   1.99358   2.04294
  Beta virt. eigenvalues --    2.05918   2.10487   2.13385   2.14262   2.20995
  Beta virt. eigenvalues --    2.29872   2.31615   2.35517   2.41892   2.52048
  Beta virt. eigenvalues --    2.52177   2.54384   2.55909   2.60434   2.61849
  Beta virt. eigenvalues --    2.63748   2.65961   2.66758   2.71583   2.73702
  Beta virt. eigenvalues --    2.75208   2.78450   2.82409   2.84181   2.90560
  Beta virt. eigenvalues --    2.91059   2.94673   2.96814   2.98702   3.01602
  Beta virt. eigenvalues --    3.09293   3.11237   3.16354   3.21089   3.21557
  Beta virt. eigenvalues --    3.24036   3.27537   3.30868   3.35061   3.36319
  Beta virt. eigenvalues --    3.44706   3.46143   3.49675   3.64704   3.75718
  Beta virt. eigenvalues --    3.85757   3.86354   3.90649   3.93196   4.02535
  Beta virt. eigenvalues --    4.10455   4.18213   4.28268   5.15618   5.17054
  Beta virt. eigenvalues --    5.21386   5.23701   5.32358   5.47435   5.64162
  Beta virt. eigenvalues --    5.73133   5.94698  23.58506  23.92482  23.94311
  Beta virt. eigenvalues --   24.06075  24.87415  49.97841  50.01890  50.10784
          Condensed to atoms (all electrons):
               1          2          3          4          5          6
     1  C   16.070698   0.511213  -3.939976  -5.808640  -0.116007  -0.112894
     2  H    0.511213   0.418293  -0.100847  -0.032691  -0.001549  -0.002483
     3  C   -3.939976  -0.100847  11.356039  -1.837715   0.027179  -0.209757
     4  C   -5.808640  -0.032691  -1.837715  13.571241   0.524776   0.196954
     5  O   -0.116007  -0.001549   0.027179   0.524776   7.961479  -0.157545
     6  O   -0.112894  -0.002483  -0.209757   0.196954  -0.157545   8.254913
     7  C   -0.082286  -0.000664  -0.282073   0.257222   0.052637   0.113567
     8  C    0.034772   0.000338   0.081228  -0.222724  -0.071530  -0.029454
     9  H   -0.005991   0.000024  -0.017509   0.032032   0.005010  -0.093343
    10  H   -0.028965  -0.000248  -0.043826   0.062844  -0.014320  -0.010341
    11  H   -0.004841   0.000016  -0.003573   0.015776  -0.002181   0.015435
    12  H    0.000645   0.000001   0.006304  -0.008696   0.001634  -0.001246
    13  H    0.013539  -0.000247   0.003171  -0.027043   0.001772  -0.024838
    14  O   -0.340001  -0.004285   0.531479  -0.264703  -0.007635   0.011916
    15  H   -0.056071  -0.002609   0.052630   0.024279   0.000631  -0.001645
               7          8          9         10         11         12
     1  C   -0.082286   0.034772  -0.005991  -0.028965  -0.004841   0.000645
     2  H   -0.000664   0.000338   0.000024  -0.000248   0.000016   0.000001
     3  C   -0.282073   0.081228  -0.017509  -0.043826  -0.003573   0.006304
     4  C    0.257222  -0.222724   0.032032   0.062844   0.015776  -0.008696
     5  O    0.052637  -0.071530   0.005010  -0.014320  -0.002181   0.001634
     6  O    0.113567  -0.029454  -0.093343  -0.010341   0.015435  -0.001246
     7  C    5.435890   0.039384   0.444160   0.411554  -0.054583  -0.033887
     8  C    0.039384   5.465997  -0.052989  -0.041133   0.405621   0.414202
     9  H    0.444160  -0.052989   0.533145  -0.038610  -0.000642  -0.010957
    10  H    0.411554  -0.041133  -0.038610   0.524449  -0.004493   0.005468
    11  H   -0.054583   0.405621  -0.000642  -0.004493   0.540364  -0.033415
    12  H   -0.033887   0.414202  -0.010957   0.005468  -0.033415   0.528410
    13  H   -0.006302   0.382371   0.009193  -0.009480  -0.041133  -0.040381
    14  O   -0.017491   0.015040   0.000965  -0.001396   0.000307  -0.001916
    15  H    0.002926  -0.003882  -0.000054   0.000263   0.000240  -0.000219
              13         14         15
     1  C    0.013539  -0.340001  -0.056071
     2  H   -0.000247  -0.004285  -0.002609
     3  C    0.003171   0.531479   0.052630
     4  C   -0.027043  -0.264703   0.024279
     5  O    0.001772  -0.007635   0.000631
     6  O   -0.024838   0.011916  -0.001645
     7  C   -0.006302  -0.017491   0.002926
     8  C    0.382371   0.015040  -0.003882
     9  H    0.009193   0.000965  -0.000054
    10  H   -0.009480  -0.001396   0.000263
    11  H   -0.041133   0.000307   0.000240
    12  H   -0.040381  -0.001916  -0.000219
    13  H    0.548105   0.001868  -0.000028
    14  O    0.001868   8.122845   0.230990
    15  H   -0.000028   0.230990   0.512947
          Atomic-Atomic Spin Densities.
               1          2          3          4          5          6
     1  C    1.672767   0.064610  -0.562616  -0.083830  -0.000773  -0.016956
     2  H    0.064610  -0.016317  -0.047318  -0.022245  -0.000087  -0.000490
     3  C   -0.562616  -0.047318  -0.020737   0.348659   0.006159   0.000137
     4  C   -0.083830  -0.022245   0.348659  -0.381018  -0.004095   0.012825
     5  O   -0.000773  -0.000087   0.006159  -0.004095  -0.013371   0.001322
     6  O   -0.016956  -0.000490   0.000137   0.012825   0.001322  -0.001308
     7  C   -0.022494  -0.000273  -0.023409   0.036818  -0.000291  -0.000808
     8  C    0.029889   0.000349   0.032201  -0.051784   0.000846   0.000683
     9  H   -0.000302  -0.000015  -0.000720   0.000124   0.000003   0.000272
    10  H   -0.000557  -0.000083   0.004106  -0.005288  -0.000448   0.000555
    11  H    0.001219   0.000020   0.000998  -0.001697  -0.000057   0.000066
    12  H   -0.002671  -0.000035  -0.003470   0.005243  -0.000034  -0.000025
    13  H   -0.008796  -0.000084  -0.013889   0.018820  -0.000162  -0.000214
    14  O   -0.338363  -0.005211  -0.018886   0.208386   0.002505   0.005523
    15  H    0.042522   0.001064  -0.008664  -0.026324  -0.000340  -0.000043
               7          8          9         10         11         12
     1  C   -0.022494   0.029889  -0.000302  -0.000557   0.001219  -0.002671
     2  H   -0.000273   0.000349  -0.000015  -0.000083   0.000020  -0.000035
     3  C   -0.023409   0.032201  -0.000720   0.004106   0.000998  -0.003470
     4  C    0.036818  -0.051784   0.000124  -0.005288  -0.001697   0.005243
     5  O   -0.000291   0.000846   0.000003  -0.000448  -0.000057  -0.000034
     6  O   -0.000808   0.000683   0.000272   0.000555   0.000066  -0.000025
     7  C    0.010742  -0.009715   0.000661   0.002226  -0.001448   0.001304
     8  C   -0.009715   0.008596  -0.000843  -0.002344   0.001911  -0.001744
     9  H    0.000661  -0.000843   0.000260   0.000159  -0.000018   0.000027
    10  H    0.002226  -0.002344   0.000159   0.000111  -0.000131   0.000276
    11  H   -0.001448   0.001911  -0.000018  -0.000131   0.000101  -0.000453
    12  H    0.001304  -0.001744   0.000027   0.000276  -0.000453   0.000807
    13  H    0.003127  -0.002766   0.000450   0.000630  -0.000525   0.000373
    14  O    0.005011  -0.003144   0.000273   0.000779  -0.000091  -0.000043
    15  H   -0.000771   0.000885  -0.000036  -0.000061   0.000032  -0.000072
              13         14         15
     1  C   -0.008796  -0.338363   0.042522
     2  H   -0.000084  -0.005211   0.001064
     3  C   -0.013889  -0.018886  -0.008664
     4  C    0.018820   0.208386  -0.026324
     5  O   -0.000162   0.002505  -0.000340
     6  O   -0.000214   0.005523  -0.000043
     7  C    0.003127   0.005011  -0.000771
     8  C   -0.002766  -0.003144   0.000885
     9  H    0.000450   0.000273  -0.000036
    10  H    0.000630   0.000779  -0.000061
    11  H   -0.000525  -0.000091   0.000032
    12  H    0.000373  -0.000043  -0.000072
    13  H    0.001436   0.000998  -0.000497
    14  O    0.000998   0.656236   0.004810
    15  H   -0.000497   0.004810  -0.020916
 Mulliken charges and spin densities:
               1          2
     1  C   -0.135192   0.773648
     2  H    0.215737  -0.026116
     3  C    0.377247  -0.307449
     4  C   -0.482913   0.054596
     5  O   -0.204350  -0.008825
     6  O    0.050762   0.001538
     7  C   -0.280054   0.000680
     8  C   -0.417242   0.003019
     9  H    0.195568   0.000297
    10  H    0.188232  -0.000069
    11  H    0.167100  -0.000075
    12  H    0.174054  -0.000518
    13  H    0.189433  -0.001099
    14  O   -0.277982   0.518782
    15  H    0.239602  -0.008410
 Sum of Mulliken charges =  -0.00000   1.00000
 Mulliken charges and spin densities with hydrogens summed into heavy atoms:
               1          2
     1  C    0.080545   0.747533
     3  C    0.377247  -0.307449
     4  C   -0.482913   0.054596
     5  O   -0.204350  -0.008825
     6  O    0.050762   0.001538
     7  C    0.103746   0.000908
     8  C    0.113344   0.001327
    14  O   -0.038380   0.510372
 APT charges:
               1
     1  C   -0.150524
     2  H    0.242133
     3  C   -0.215108
     4  C    1.421080
     5  O   -0.770261
     6  O   -0.941124
     7  C    0.534395
     8  C   -0.042313
     9  H   -0.013595
    10  H   -0.011679
    11  H    0.010469
    12  H    0.017633
    13  H    0.027663
    14  O   -0.343251
    15  H    0.234483
 Sum of APT charges =   0.00000
 APT charges with hydrogens summed into heavy atoms:
               1
     1  C    0.091609
     3  C   -0.215108
     4  C    1.421080
     5  O   -0.770261
     6  O   -0.941124
     7  C    0.509121
     8  C    0.013453
    14  O   -0.108769
 Electronic spatial extent (au):  <R**2>=           1055.9200
 Charge=             -0.0000 electrons
 Dipole moment (field-independent basis, Debye):
    X=             -0.7393    Y=             -0.6248    Z=             -0.8349  Tot=              1.2783
 Quadrupole moment (field-independent basis, Debye-Ang):
   XX=            -29.6487   YY=            -49.9264   ZZ=            -50.9844
   XY=              1.1124   XZ=             -1.4203   YZ=              4.9878
 Traceless Quadrupole moment (field-independent basis, Debye-Ang):
   XX=             13.8711   YY=             -6.4066   ZZ=             -7.4646
   XY=              1.1124   XZ=             -1.4203   YZ=              4.9878
 Octapole moment (field-independent basis, Debye-Ang**2):
  XXX=            -35.2199  YYY=              0.0573  ZZZ=             -1.3931  XYY=              1.8860
  XXY=             -3.7229  XXZ=             -6.4393  XZZ=             -0.0902  YZZ=              6.5827
  YYZ=              2.6765  XYZ=             -6.6002
 Hexadecapole moment (field-independent basis, Debye-Ang**3):
 XXXX=           -742.5643 YYYY=           -261.4673 ZZZZ=           -173.6766 XXXY=              2.2150
 XXXZ=             21.5102 YYYX=            -15.2625 YYYZ=              8.5339 ZZZX=            -10.5744
 ZZZY=              7.3616 XXYY=           -200.1983 XXZZ=           -180.2502 YYZZ=            -71.6140
 XXYZ=             19.8934 YYXZ=            -11.9558 ZZXY=             -8.0085
 N-N= 3.640333746941D+02 E-N=-1.712725511277D+03  KE= 4.187188029498D+02
  Exact polarizability:  89.600   7.258  71.871   4.202   2.933  59.469
 Approx polarizability:  94.280   9.732  83.019   6.679   0.858  76.929
                          Isotropic Fermi Contact Couplings
        Atom                 a.u.       MegaHertz       Gauss      10(-4) cm-1
     1  C(13)              0.09864     110.89279      39.56931      36.98985
     2  H(1)              -0.01141     -50.98937     -18.19428     -17.00822
     3  C(13)             -0.01426     -16.02983      -5.71984      -5.34698
     4  C(13)              0.03026      34.01956      12.13902      11.34770
     5  O(17)             -0.00356       2.15629       0.76942       0.71926
     6  O(17)              0.00243      -1.47087      -0.52484      -0.49063
     7  C(13)              0.00004       0.04207       0.01501       0.01403
     8  C(13)             -0.00062      -0.69933      -0.24954      -0.23327
     9  H(1)               0.00005       0.23120       0.08250       0.07712
    10  H(1)              -0.00003      -0.12198      -0.04353      -0.04069
    11  H(1)              -0.00002      -0.07129      -0.02544      -0.02378
    12  H(1)               0.00002       0.10036       0.03581       0.03348
    13  H(1)               0.00002       0.07470       0.02666       0.02492
    14  O(17)              0.10248     -62.12306     -22.16705     -20.72202
    15  H(1)              -0.00895     -39.98930     -14.26917     -13.33899
 --------------------------------------------------------
       Center         ----  Spin Dipole Couplings  ----
                      3XX-RR        3YY-RR        3ZZ-RR
 --------------------------------------------------------
     1   Atom       -0.393206      0.676401     -0.283195
     2   Atom        0.049230     -0.009076     -0.040154
     3   Atom        0.130875     -0.068199     -0.062676
     4   Atom        0.018065      0.003909     -0.021974
     5   Atom        0.026333     -0.036053      0.009720
     6   Atom        0.006763     -0.011981      0.005218
     7   Atom        0.003276     -0.001112     -0.002163
     8   Atom        0.002526     -0.001170     -0.001357
     9   Atom        0.001388     -0.000688     -0.000701
    10   Atom        0.001451     -0.000277     -0.001174
    11   Atom        0.001406     -0.000655     -0.000751
    12   Atom        0.003181     -0.001537     -0.001644
    13   Atom        0.002869     -0.001446     -0.001424
    14   Atom       -0.629657      1.629355     -0.999698
    15   Atom       -0.000769     -0.029549      0.030318
 --------------------------------------------------------
                        XY            XZ            YZ
 --------------------------------------------------------
     1   Atom       -0.146575     -0.046829      0.071624
     2   Atom        0.006130      0.026321      0.006203
     3   Atom       -0.007075      0.050566      0.003146
     4   Atom       -0.019584      0.009899     -0.002187
     5   Atom       -0.065458     -0.015273     -0.021102
     6   Atom       -0.015349     -0.010949      0.009082
     7   Atom       -0.002427     -0.000178      0.000122
     8   Atom       -0.000898      0.000091      0.000109
     9   Atom       -0.000692     -0.000728      0.000273
    10   Atom       -0.001040      0.000152     -0.000123
    11   Atom       -0.000143      0.000157      0.000027
    12   Atom        0.000298     -0.000638      0.000064
    13   Atom       -0.000635      0.001498     -0.000142
    14   Atom        1.097656      0.199600      0.465191
    15   Atom       -0.000610     -0.079960      0.032857
 --------------------------------------------------------


 ---------------------------------------------------------------------------------
              Anisotropic Spin Dipole Couplings in Principal Axis System
 ---------------------------------------------------------------------------------

       Atom             a.u.   MegaHertz   Gauss  10(-4) cm-1        Axes

              Baa    -0.4230   -56.766   -20.256   -18.935  0.9581  0.1105  0.2642
     1 C(13)  Bbb    -0.2792   -37.460   -13.367   -12.495 -0.2523 -0.1108  0.9613
              Bcc     0.7022    94.226    33.622    31.431 -0.1355  0.9877  0.0782
 
              Baa    -0.0478   -25.519    -9.106    -8.512 -0.2533 -0.1137  0.9607
     2 H(1)   Bbb    -0.0094    -5.035    -1.797    -1.679 -0.1391  0.9870  0.0801
              Bcc     0.0573    30.554    10.902    10.192  0.9573  0.1133  0.2659
 
              Baa    -0.0775   -10.405    -3.713    -3.471 -0.2241 -0.4592  0.8596
     3 C(13)  Bbb    -0.0659    -8.846    -3.157    -2.951 -0.0843  0.8879  0.4523
              Bcc     0.1435    19.252     6.870     6.422  0.9709 -0.0289  0.2377
 
              Baa    -0.0246    -3.296    -1.176    -1.099 -0.2748 -0.1157  0.9545
     4 C(13)  Bbb    -0.0088    -1.187    -0.423    -0.396  0.5093  0.8245  0.2466
              Bcc     0.0334     4.482     1.599     1.495  0.8155 -0.5539  0.1676
 
              Baa    -0.0845     6.117     2.183     2.041  0.5170  0.8136  0.2659
     5 O(17)  Bbb     0.0168    -1.219    -0.435    -0.406 -0.1154 -0.2415  0.9635
              Bcc     0.0677    -4.899    -1.748    -1.634  0.8482 -0.5288 -0.0310
 
              Baa    -0.0209     1.513     0.540     0.505  0.4439  0.8877 -0.1225
     6 O(17)  Bbb    -0.0043     0.313     0.112     0.104  0.5633 -0.1701  0.8086
              Bcc     0.0252    -1.826    -0.651    -0.609  0.6969 -0.4279 -0.5755
 
              Baa    -0.0022    -0.298    -0.106    -0.099  0.3019  0.7288 -0.6146
     7 C(13)  Bbb    -0.0021    -0.287    -0.102    -0.096  0.2730  0.5516  0.7882
              Bcc     0.0044     0.585     0.209     0.195  0.9134 -0.4058 -0.0324
 
              Baa    -0.0015    -0.201    -0.072    -0.067  0.1745  0.7117 -0.6804
     8 C(13)  Bbb    -0.0012    -0.166    -0.059    -0.055  0.1411  0.6658  0.7326
              Bcc     0.0027     0.367     0.131     0.122  0.9745 -0.2238  0.0158
 
              Baa    -0.0010    -0.518    -0.185    -0.173  0.0703 -0.5996  0.7972
     9 H(1)   Bbb    -0.0009    -0.461    -0.165    -0.154  0.4005  0.7489  0.5280
              Bcc     0.0018     0.979     0.349     0.327  0.9136 -0.2821 -0.2928
 
              Baa    -0.0012    -0.635    -0.227    -0.212 -0.0080  0.1244  0.9922
    10 H(1)   Bbb    -0.0008    -0.406    -0.145    -0.135  0.4293  0.8966 -0.1089
              Bcc     0.0020     1.041     0.371     0.347  0.9031 -0.4250  0.0606
 
              Baa    -0.0008    -0.413    -0.148    -0.138 -0.0890 -0.3207  0.9430
    11 H(1)   Bbb    -0.0007    -0.348    -0.124    -0.116  0.0411  0.9448  0.3252
              Bcc     0.0014     0.761     0.272     0.254  0.9952 -0.0677  0.0709
 
              Baa    -0.0018    -0.946    -0.338    -0.316  0.1407 -0.4195  0.8968
    12 H(1)   Bbb    -0.0015    -0.804    -0.287    -0.268  0.0002  0.9058  0.4237
              Bcc     0.0033     1.751     0.625     0.584  0.9900  0.0595 -0.1276
 
              Baa    -0.0019    -1.015    -0.362    -0.339 -0.3137 -0.1434  0.9386
    13 H(1)   Bbb    -0.0015    -0.813    -0.290    -0.271  0.0813  0.9808  0.1771
              Bcc     0.0034     1.828     0.652     0.610  0.9460 -0.1319  0.2960
 
              Baa    -1.0883    78.748    28.099    26.268 -0.6043  0.1090  0.7893
    14 O(17)  Bbb    -1.0677    77.260    27.568    25.771  0.7047 -0.3891  0.5933
              Bcc     2.1560  -156.008   -55.668   -52.039  0.3718  0.9147  0.1584
 
              Baa    -0.0764   -40.757   -14.543   -13.595  0.6549 -0.4282  0.6226
    15 H(1)   Bbb    -0.0250   -13.340    -4.760    -4.450  0.4527  0.8821  0.1305
              Bcc     0.1014    54.097    19.303    18.045 -0.6051  0.1964  0.7716
 

 ---------------------------------------------------------------------------------

 Calling FoFJK, ICntrl=    100127 FMM=F ISym2X=0 I1Cent= 0 IOpClX= 1 NMat=1 NMatS=1 NMatT=0.
 Full mass-weighted force constant matrix:
 Low frequencies --- -687.5319   -0.0013   -0.0009    0.0004   12.6271   20.5863
 Low frequencies ---   35.5269   82.1690   98.8087
 ******    1 imaginary frequencies (negative Signs) ****** 
 Diagonal vibrational polarizability:
       49.3363735      37.1374363      41.0238696
 Harmonic frequencies (cm**-1), IR intensities (KM/Mole), Raman scattering
 activities (A**4/AMU), depolarization ratios for plane and unpolarized
 incident light, reduced masses (AMU), force constants (mDyne/A),
 and normal coordinates:
                      1                      2                      3
                      A                      A                      A
 Frequencies --   -687.5319                76.8557                85.0730
 Red. masses --     12.3474                 3.2337                 4.5885
 Frc consts  --      3.4388                 0.0113                 0.0196
 IR Inten    --      3.1963                 1.4896                 6.6824
  Atom  AN      X      Y      Z        X      Y      Z        X      Y      Z
     1   6     0.05  -0.11   0.00     0.02   0.13  -0.10     0.08  -0.04  -0.27
     2   1     0.03   0.10   0.01     0.03   0.25  -0.17     0.12  -0.07  -0.44
     3   6     0.04   0.81   0.12     0.02   0.01  -0.01    -0.01  -0.00  -0.02
     4   6    -0.01   0.01  -0.00    -0.01  -0.09   0.01    -0.00   0.07   0.04
     5   8    -0.02  -0.02  -0.01    -0.04  -0.08   0.03     0.01   0.19   0.07
     6   8    -0.00  -0.01  -0.00     0.01  -0.15   0.01    -0.00  -0.01   0.02
     7   6     0.00  -0.01  -0.00     0.01   0.01   0.07     0.00  -0.10  -0.01
     8   6    -0.00  -0.00  -0.00    -0.15   0.19  -0.15     0.14  -0.08  -0.14
     9   1     0.00  -0.00  -0.00     0.06  -0.14   0.12    -0.04  -0.23  -0.01
    10   1     0.01  -0.00  -0.00     0.06   0.14   0.25    -0.06  -0.06   0.07
    11   1    -0.00  -0.00  -0.00    -0.16   0.32  -0.04     0.13  -0.18  -0.15
    12   1    -0.00  -0.00  -0.00    -0.18   0.05  -0.35     0.22  -0.11  -0.22
    13   1    -0.00  -0.00  -0.00    -0.25   0.35  -0.21     0.16   0.06  -0.14
    14   8    -0.05  -0.49  -0.07     0.13  -0.02   0.10    -0.19  -0.02   0.24
    15   1     0.02  -0.19  -0.09     0.22  -0.06   0.19    -0.06  -0.23   0.39
                      4                      5                      6
                      A                      A                      A
 Frequencies --    117.4498               174.4839               205.6647
 Red. masses --      3.2041                 2.0392                 1.3716
 Frc consts  --      0.0260                 0.0366                 0.0342
 IR Inten    --      1.2556                22.9123                58.3801
  Atom  AN      X      Y      Z        X      Y      Z        X      Y      Z
     1   6     0.02   0.02  -0.03    -0.05  -0.01   0.14    -0.01   0.05   0.01
     2   1     0.02   0.07  -0.03    -0.10   0.01   0.31    -0.02   0.18   0.01
     3   6     0.02  -0.00  -0.00     0.00   0.01  -0.06     0.01  -0.01  -0.00
     4   6     0.03   0.01  -0.03     0.01   0.02  -0.11     0.00  -0.02   0.01
     5   8     0.09   0.20   0.02    -0.02   0.06  -0.08    -0.02  -0.05   0.01
     6   8    -0.02  -0.16  -0.10     0.07  -0.03  -0.08     0.02  -0.00   0.03
     7   6    -0.01   0.00  -0.09     0.05  -0.05   0.09     0.02   0.01   0.01
     8   6    -0.19  -0.06   0.16     0.00   0.00   0.03     0.04   0.01  -0.01
     9   1     0.02   0.25  -0.11     0.16  -0.16   0.15    -0.00   0.02  -0.01
    10   1     0.11  -0.09  -0.25    -0.05   0.01   0.20     0.05   0.01  -0.01
    11   1    -0.17   0.11   0.04    -0.05  -0.12   0.39     0.09   0.14  -0.30
    12   1    -0.41   0.03   0.37     0.32  -0.06  -0.19    -0.22   0.03   0.12
    13   1    -0.12  -0.36   0.22    -0.30   0.23  -0.14     0.29  -0.12   0.12
    14   8     0.03  -0.02   0.04    -0.08   0.00   0.03    -0.09   0.01  -0.08
    15   1     0.25  -0.09   0.24     0.26  -0.17   0.35     0.58  -0.19   0.53
                      7                      8                      9
                      A                      A                      A
 Frequencies --    224.2618               236.6831               284.9421
 Red. masses --      4.0646                 1.7895                 2.5504
 Frc consts  --      0.1204                 0.0591                 0.1220
 IR Inten    --      1.0145                 4.5468                 9.5302
  Atom  AN      X      Y      Z        X      Y      Z        X      Y      Z
     1   6    -0.11  -0.02  -0.04     0.06   0.02  -0.06    -0.09   0.23   0.01
     2   1    -0.12   0.09  -0.02     0.09   0.08  -0.19    -0.13   0.68   0.03
     3   6    -0.08  -0.14  -0.05     0.02   0.01   0.09    -0.01  -0.09   0.00
     4   6    -0.06   0.02   0.00     0.02  -0.02   0.07     0.03  -0.06   0.01
     5   8    -0.05   0.13   0.04     0.10  -0.06   0.03     0.08   0.03   0.02
     6   8    -0.07   0.14   0.02    -0.05   0.02   0.02     0.03  -0.04   0.01
     7   6    -0.07   0.08  -0.02    -0.05   0.02  -0.06     0.05   0.03  -0.02
     8   6     0.09   0.01   0.01    -0.05  -0.02   0.02     0.06   0.02   0.02
     9   1    -0.11   0.07  -0.03    -0.08   0.08  -0.08     0.02   0.08  -0.03
    10   1    -0.10   0.05  -0.05    -0.02  -0.02  -0.11     0.09   0.02  -0.05
    11   1     0.06  -0.22   0.13    -0.12  -0.26   0.48     0.05  -0.06   0.08
    12   1     0.34   0.05  -0.03     0.39  -0.02  -0.14     0.15   0.04   0.01
    13   1     0.01   0.11  -0.04    -0.43   0.15  -0.18     0.01   0.04  -0.01
    14   8     0.25  -0.22  -0.01    -0.05   0.04  -0.08    -0.11  -0.14  -0.02
    15   1     0.62  -0.20   0.30     0.29  -0.01   0.21    -0.47  -0.06  -0.34
                     10                     11                     12
                      A                      A                      A
 Frequencies --    338.2499               436.7594               495.2833
 Red. masses --      3.0867                 3.4459                 1.4118
 Frc consts  --      0.2081                 0.3873                 0.2040
 IR Inten    --     10.4479                 3.5583                35.7288
  Atom  AN      X      Y      Z        X      Y      Z        X      Y      Z
     1   6    -0.01   0.03  -0.04     0.06   0.02   0.04     0.04  -0.17   0.00
     2   1     0.01   0.11  -0.12     0.00   0.27   0.18    -0.07   0.97   0.04
     3   6    -0.02  -0.04   0.08     0.11  -0.04  -0.11     0.02   0.01   0.00
     4   6     0.02   0.04  -0.03     0.07   0.07   0.04    -0.01  -0.01  -0.01
     5   8     0.22   0.01  -0.10    -0.09   0.00   0.07    -0.02   0.01  -0.00
     6   8    -0.04   0.14  -0.05     0.09   0.21   0.09    -0.02  -0.01  -0.02
     7   6    -0.10  -0.11   0.18     0.06  -0.13  -0.09    -0.03   0.01   0.01
     8   6    -0.08  -0.03   0.01    -0.18  -0.10  -0.07     0.01   0.00   0.00
     9   1     0.06  -0.39   0.30    -0.01  -0.11  -0.13    -0.01  -0.00   0.02
    10   1    -0.38  -0.01   0.41    -0.01  -0.17  -0.13    -0.04   0.02   0.02
    11   1    -0.04   0.14  -0.25    -0.19   0.28   0.13     0.01  -0.04  -0.03
    12   1    -0.35  -0.12  -0.02    -0.39  -0.20  -0.14     0.03   0.02   0.01
    13   1     0.12  -0.01   0.10    -0.42  -0.21  -0.18     0.04   0.02   0.02
    14   8     0.01  -0.04  -0.03    -0.02  -0.06   0.00     0.02   0.05   0.01
    15   1     0.03   0.03  -0.02    -0.05  -0.17  -0.01    -0.03   0.06  -0.02
                     13                     14                     15
                      A                      A                      A
 Frequencies --    572.2588               614.7925               706.9561
 Red. masses --      3.9056                 6.4870                 1.3421
 Frc consts  --      0.7536                 1.4446                 0.3952
 IR Inten    --      6.1562                12.2670                40.3892
  Atom  AN      X      Y      Z        X      Y      Z        X      Y      Z
     1   6     0.19   0.09   0.08     0.22   0.10   0.06     0.04   0.01  -0.14
     2   1     0.14  -0.14   0.38     0.39   0.02  -0.49    -0.25  -0.05   0.95
     3   6     0.25  -0.00  -0.22     0.11  -0.15   0.43    -0.01  -0.01   0.08
     4   6     0.03  -0.06   0.02     0.04   0.04  -0.11     0.00  -0.01  -0.01
     5   8    -0.02  -0.00   0.06    -0.30   0.04  -0.02    -0.01   0.00   0.00
     6   8    -0.12  -0.02  -0.04     0.01   0.04  -0.20     0.00   0.00  -0.01
     7   6    -0.24   0.07   0.04    -0.00   0.02  -0.02     0.00  -0.00  -0.00
     8   6    -0.01   0.00   0.01     0.01   0.01   0.01     0.00   0.00   0.00
     9   1    -0.13  -0.04   0.11     0.17  -0.14   0.09     0.01  -0.01   0.00
    10   1    -0.29   0.12   0.13    -0.19   0.08   0.13    -0.00   0.00   0.00
    11   1     0.01  -0.34  -0.19     0.01  -0.04  -0.02     0.00   0.01   0.01
    12   1     0.18   0.10   0.07     0.02   0.05   0.08    -0.00   0.00   0.00
    13   1     0.22   0.11   0.11     0.05  -0.05   0.04    -0.00  -0.01  -0.00
    14   8    -0.03  -0.02   0.00    -0.03  -0.09  -0.04    -0.00  -0.00  -0.00
    15   1    -0.13  -0.37  -0.02    -0.00   0.15  -0.06     0.02   0.10  -0.00
                     16                     17                     18
                      A                      A                      A
 Frequencies --    768.9109               802.2301               894.7040
 Red. masses --     10.0405                 1.2115                 3.1117
 Frc consts  --      3.4975                 0.4594                 1.4676
 IR Inten    --     29.1929                 4.9892                17.1516
  Atom  AN      X      Y      Z        X      Y      Z        X      Y      Z
     1   6    -0.01  -0.00  -0.01     0.03   0.01   0.01     0.05   0.01   0.01
     2   1    -0.06   0.19   0.13     0.04   0.00  -0.00     0.06   0.01  -0.03
     3   6    -0.01  -0.11  -0.05     0.02  -0.01   0.02     0.02  -0.02   0.05
     4   6     0.08   0.77   0.22    -0.02  -0.01  -0.04    -0.05   0.01  -0.10
     5   8    -0.02  -0.20  -0.10    -0.01   0.02  -0.05     0.01   0.05  -0.15
     6   8    -0.01  -0.21  -0.03     0.01   0.00   0.04     0.12  -0.04   0.23
     7   6    -0.05   0.00   0.03    -0.03  -0.03   0.07    -0.09   0.09   0.02
     8   6    -0.02   0.01   0.01    -0.01  -0.02   0.03    -0.11  -0.06  -0.10
     9   1    -0.04   0.18   0.01    -0.09   0.52  -0.03    -0.24  -0.03  -0.04
    10   1     0.11  -0.04  -0.08     0.13  -0.30  -0.39     0.24   0.26   0.18
    11   1    -0.01  -0.16  -0.10     0.02   0.04  -0.19    -0.13  -0.55  -0.12
    12   1     0.10   0.01  -0.04    -0.04  -0.28  -0.35     0.17   0.23   0.22
    13   1     0.13   0.16   0.07     0.11   0.44   0.03     0.03  -0.33  -0.00
    14   8     0.01  -0.11  -0.01    -0.00  -0.00  -0.00    -0.01  -0.02   0.00
    15   1     0.01  -0.12  -0.00    -0.01  -0.00  -0.01     0.04   0.22   0.00
                     19                     20                     21
                      A                      A                      A
 Frequencies --    916.7306               941.9911              1070.4232
 Red. masses --      2.1643                 1.2984                 4.0320
 Frc consts  --      1.0716                 0.6788                 2.7219
 IR Inten    --      9.3247                56.8545                28.8904
  Atom  AN      X      Y      Z        X      Y      Z        X      Y      Z
     1   6    -0.08  -0.02  -0.02     0.04   0.01   0.02     0.07   0.01   0.02
     2   1    -0.08  -0.03  -0.05     0.05   0.00  -0.00     0.07   0.02   0.05
     3   6    -0.04   0.02  -0.04     0.04  -0.02  -0.06     0.04  -0.01  -0.04
     4   6     0.13  -0.03   0.03    -0.03   0.00  -0.00    -0.15   0.01   0.04
     5   8    -0.01  -0.03   0.11     0.01   0.01  -0.02     0.02  -0.00  -0.01
     6   8     0.11   0.03  -0.09    -0.05  -0.01   0.02    -0.21   0.03  -0.05
     7   6    -0.04   0.07   0.02    -0.00  -0.04  -0.01     0.31   0.15   0.14
     8   6    -0.11  -0.07  -0.03     0.05   0.04   0.02    -0.07  -0.16  -0.09
     9   1     0.24   0.18   0.14    -0.10  -0.07  -0.05     0.35   0.27   0.14
    10   1    -0.06   0.06   0.01    -0.03  -0.05  -0.03     0.39   0.24   0.22
    11   1    -0.09  -0.45  -0.32     0.05   0.22   0.13    -0.06  -0.29  -0.14
    12   1     0.12  -0.07  -0.10    -0.06   0.01   0.02    -0.03  -0.21  -0.15
    13   1     0.18   0.15   0.08    -0.07  -0.01  -0.03    -0.04  -0.26  -0.08
    14   8    -0.02  -0.01   0.02    -0.04  -0.05   0.02    -0.01  -0.02   0.00
    15   1     0.14   0.60   0.04     0.21   0.91   0.05     0.03   0.10   0.01
                     22                     23                     24
                      A                      A                      A
 Frequencies --   1129.2777              1203.4662              1283.4965
 Red. masses --      2.0798                 1.7715                 3.8807
 Frc consts  --      1.5627                 1.5117                 3.7666
 IR Inten    --     21.4400                 7.9931               522.2409
  Atom  AN      X      Y      Z        X      Y      Z        X      Y      Z
     1   6    -0.01  -0.00  -0.00    -0.02  -0.00  -0.00    -0.08  -0.01  -0.02
     2   1    -0.01  -0.00  -0.01    -0.02  -0.01  -0.01    -0.08  -0.02  -0.05
     3   6    -0.01   0.00   0.01    -0.00   0.01  -0.00    -0.00   0.01   0.01
     4   6     0.03   0.00  -0.00     0.07  -0.00  -0.01     0.38   0.00  -0.15
     5   8    -0.00  -0.00   0.00    -0.01  -0.01   0.03    -0.05   0.01  -0.02
     6   8     0.05  -0.05  -0.01    -0.01   0.02  -0.07    -0.20  -0.02   0.09
     7   6    -0.11   0.19   0.05    -0.04  -0.06   0.18     0.11   0.04   0.02
     8   6     0.11  -0.15  -0.04     0.03   0.05  -0.13    -0.02  -0.02   0.06
     9   1    -0.09   0.10   0.08    -0.34   0.37  -0.01    -0.66  -0.28  -0.27
    10   1    -0.21   0.17   0.04     0.30  -0.25  -0.21     0.03   0.13   0.16
    11   1     0.09   0.45   0.21    -0.03  -0.08   0.28     0.00  -0.03  -0.14
    12   1    -0.39  -0.36  -0.16    -0.02   0.31   0.28     0.01  -0.19  -0.19
    13   1    -0.36  -0.20  -0.26    -0.07  -0.45  -0.11     0.01   0.11   0.05
    14   8     0.00   0.00  -0.00    -0.00   0.00   0.00     0.00   0.01   0.00
    15   1    -0.01  -0.01  -0.00    -0.00   0.00  -0.00     0.00   0.00  -0.00
                     25                     26                     27
                      A                      A                      A
 Frequencies --   1344.7658              1402.2069              1430.7952
 Red. masses --      1.2390                 1.2811                 1.3692
 Frc consts  --      1.3202                 1.4840                 1.6515
 IR Inten    --     86.1684                21.6585                13.1129
  Atom  AN      X      Y      Z        X      Y      Z        X      Y      Z
     1   6     0.01   0.00   0.00    -0.01  -0.00  -0.00    -0.01  -0.00  -0.00
     2   1     0.01   0.00   0.01    -0.01  -0.00  -0.01    -0.01  -0.00  -0.01
     3   6    -0.00  -0.00  -0.00     0.00   0.00   0.00     0.00   0.00   0.00
     4   6    -0.06  -0.00   0.03     0.06  -0.00  -0.01     0.05  -0.00  -0.01
     5   8     0.01  -0.01   0.02    -0.01   0.01  -0.01    -0.01   0.00  -0.01
     6   8     0.04   0.03  -0.07    -0.04   0.01   0.03    -0.04   0.01   0.02
     7   6    -0.03  -0.01  -0.00    -0.05  -0.04  -0.03    -0.08  -0.08  -0.05
     8   6    -0.00  -0.03   0.05    -0.01  -0.10  -0.05     0.07   0.08   0.05
     9   1    -0.50  -0.21  -0.19     0.35   0.26   0.12     0.42   0.26   0.14
    10   1     0.68   0.28   0.21     0.27   0.19   0.21     0.40   0.22   0.23
    11   1     0.01   0.07  -0.04    -0.01   0.46   0.20     0.07  -0.35  -0.12
    12   1    -0.02  -0.11  -0.06     0.16   0.23   0.34    -0.33  -0.18  -0.16
    13   1     0.02   0.19   0.04     0.20   0.37   0.01    -0.30  -0.20  -0.10
    14   8    -0.00  -0.00  -0.00     0.00   0.00   0.00    -0.00   0.00   0.00
    15   1    -0.00   0.00   0.00     0.00   0.00  -0.00    -0.00  -0.00  -0.00
                     28                     29                     30
                      A                      A                      A
 Frequencies --   1491.4483              1501.9697              1514.7160
 Red. masses --      1.0400                 1.0537                 1.0935
 Frc consts  --      1.3630                 1.4006                 1.4782
 IR Inten    --     10.8544                 1.0679                20.1694
  Atom  AN      X      Y      Z        X      Y      Z        X      Y      Z
     1   6     0.00   0.00   0.00    -0.00  -0.00  -0.00     0.01   0.00   0.00
     2   1     0.00   0.00  -0.00    -0.00  -0.00  -0.00     0.01   0.00   0.00
     3   6    -0.00   0.00  -0.00     0.00  -0.00   0.00    -0.00  -0.00  -0.00
     4   6    -0.00   0.00  -0.00     0.01  -0.00   0.00    -0.03   0.00  -0.00
     5   8     0.00  -0.00   0.01    -0.00   0.00  -0.01     0.01  -0.00   0.01
     6   8     0.00   0.00  -0.00    -0.01   0.00   0.00     0.02  -0.00  -0.01
     7   6    -0.01  -0.02   0.02     0.00   0.04   0.03     0.05  -0.05  -0.01
     8   6    -0.01  -0.01   0.04     0.03  -0.03   0.00     0.02  -0.02   0.00
     9   1     0.00   0.12   0.01     0.12  -0.38   0.12    -0.29   0.44  -0.22
    10   1     0.00   0.00   0.05     0.19  -0.19  -0.34    -0.39   0.13   0.38
    11   1     0.08   0.36  -0.55     0.05  -0.14  -0.29     0.03  -0.17  -0.16
    12   1     0.55   0.09  -0.06    -0.18   0.19   0.38    -0.20   0.13   0.29
    13   1    -0.36  -0.29  -0.11    -0.37   0.36  -0.23    -0.24   0.30  -0.15
    14   8     0.00   0.00  -0.00    -0.00   0.00  -0.00    -0.00  -0.00  -0.00
    15   1     0.00  -0.00   0.00     0.00   0.00   0.00    -0.00  -0.00   0.00
                     31                     32                     33
                      A                      A                      A
 Frequencies --   1847.3222              1975.3227              3076.7440
 Red. masses --     11.5852                 7.0323                 1.0353
 Frc consts  --     23.2938                16.1668                 5.7744
 IR Inten    --    333.6077                51.5962                 8.8736
  Atom  AN      X      Y      Z        X      Y      Z        X      Y      Z
     1   6    -0.14  -0.03  -0.04    -0.39  -0.08  -0.10    -0.00  -0.00   0.00
     2   1    -0.22  -0.05  -0.03    -0.63  -0.13  -0.18    -0.00  -0.00  -0.00
     3   6     0.17   0.01   0.03     0.56   0.00   0.14     0.00   0.00   0.00
     4   6     0.17  -0.23   0.69    -0.14   0.07  -0.12     0.00   0.00  -0.00
     5   8    -0.14   0.16  -0.45     0.02  -0.02   0.06     0.00   0.00   0.00
     6   8     0.02   0.02  -0.07    -0.00  -0.00   0.01    -0.00  -0.00   0.00
     7   6     0.03  -0.01   0.02     0.00   0.00  -0.00    -0.00   0.00   0.00
     8   6    -0.01   0.01   0.00     0.00  -0.00  -0.00    -0.02  -0.04  -0.02
     9   1    -0.17   0.08  -0.08     0.02  -0.01   0.01     0.00  -0.00  -0.01
    10   1    -0.13  -0.02   0.09     0.01   0.00  -0.01     0.00  -0.02   0.01
    11   1     0.00  -0.04  -0.06    -0.00   0.00   0.01     0.63  -0.04   0.08
    12   1     0.04   0.01  -0.01    -0.00  -0.00   0.00    -0.13   0.45  -0.32
    13   1    -0.04  -0.05  -0.00     0.01   0.01   0.00    -0.23   0.04   0.47
    14   8    -0.00   0.02   0.00    -0.00   0.04   0.01    -0.00   0.00  -0.00
    15   1     0.03   0.01   0.02    -0.00   0.05  -0.01    -0.00  -0.00   0.00
                     34                     35                     36
                      A                      A                      A
 Frequencies --   3109.2554              3154.1337              3155.3251
 Red. masses --      1.0608                 1.1011                 1.1052
 Frc consts  --      6.0423                 6.4540                 6.4830
 IR Inten    --     19.6415                16.2398                 0.1659
  Atom  AN      X      Y      Z        X      Y      Z        X      Y      Z
     1   6    -0.00  -0.00  -0.00     0.00   0.00   0.00    -0.00  -0.00  -0.00
     2   1     0.00  -0.00   0.00    -0.00   0.00  -0.00    -0.00   0.00  -0.00
     3   6     0.00  -0.00  -0.00    -0.00  -0.00  -0.00     0.00  -0.00  -0.00
     4   6    -0.00  -0.00   0.00     0.00   0.00  -0.00     0.00  -0.00   0.00
     5   8    -0.00   0.00  -0.00     0.00  -0.00   0.00    -0.00   0.00  -0.00
     6   8     0.00   0.00  -0.00     0.00  -0.00   0.00    -0.00  -0.00  -0.00
     7   6     0.03  -0.06  -0.00    -0.01   0.01   0.01    -0.01  -0.02   0.05
     8   6    -0.01   0.01  -0.00    -0.08   0.04  -0.02     0.03   0.02  -0.06
     9   1    -0.23   0.05   0.50     0.07  -0.02  -0.15     0.21  -0.06  -0.46
    10   1    -0.13   0.66  -0.47     0.01  -0.06   0.04    -0.06   0.28  -0.19
    11   1     0.12  -0.01   0.01     0.73  -0.03   0.09    -0.17   0.01  -0.03
    12   1     0.01  -0.06   0.04     0.12  -0.48   0.34     0.09  -0.32   0.22
    13   1     0.01  -0.00  -0.03     0.10  -0.02  -0.24    -0.28   0.07   0.59
    14   8     0.00  -0.00   0.00    -0.00   0.00   0.00    -0.00  -0.00  -0.00
    15   1     0.00   0.00  -0.00     0.00  -0.00  -0.00     0.00   0.00  -0.00
                     37                     38                     39
                      A                      A                      A
 Frequencies --   3176.8080              3459.7038              3837.5536
 Red. masses --      1.1074                 1.1334                 1.0677
 Frc consts  --      6.5850                 7.9931                 9.2643
 IR Inten    --     14.2762                78.9537                60.7474
  Atom  AN      X      Y      Z        X      Y      Z        X      Y      Z
     1   6    -0.00  -0.00  -0.00    -0.10  -0.01  -0.03    -0.00  -0.00  -0.00
     2   1     0.00   0.00   0.00     0.96   0.08   0.26     0.00   0.00   0.00
     3   6    -0.00  -0.00   0.00     0.02   0.00   0.01     0.00   0.00   0.00
     4   6    -0.00   0.00  -0.00    -0.00   0.00  -0.00     0.00  -0.00  -0.00
     5   8     0.00  -0.00   0.00     0.00  -0.00  -0.00    -0.00   0.00  -0.00
     6   8     0.00  -0.00   0.00     0.00  -0.00  -0.00    -0.00  -0.00   0.00
     7   6     0.02   0.02  -0.07    -0.00  -0.00   0.00     0.00   0.00   0.00
     8   6     0.01   0.02  -0.05    -0.00  -0.00   0.00    -0.00   0.00  -0.00
     9   1    -0.26   0.08   0.59     0.00  -0.00  -0.00    -0.00   0.00   0.00
    10   1     0.07  -0.35   0.24     0.00   0.00   0.00    -0.00  -0.00  -0.00
    11   1    -0.05   0.01  -0.01     0.00   0.00   0.00    -0.00  -0.00   0.00
    12   1     0.09  -0.32   0.21    -0.00   0.00  -0.00    -0.00  -0.00   0.00
    13   1    -0.21   0.05   0.43    -0.00  -0.00   0.00     0.00   0.00  -0.00
    14   8     0.00  -0.00   0.00     0.00   0.00   0.00     0.04  -0.01  -0.05
    15   1     0.00  -0.00  -0.00     0.00   0.00  -0.00    -0.64   0.14   0.75

 -------------------
 - Thermochemistry -
 -------------------
 Temperature   298.150 Kelvin.  Pressure   1.00000 Atm.
 Atom     1 has atomic number  6 and mass  12.00000
 Atom     2 has atomic number  1 and mass   1.00783
 Atom     3 has atomic number  6 and mass  12.00000
 Atom     4 has atomic number  6 and mass  12.00000
 Atom     5 has atomic number  8 and mass  15.99491
 Atom     6 has atomic number  8 and mass  15.99491
 Atom     7 has atomic number  6 and mass  12.00000
 Atom     8 has atomic number  6 and mass  12.00000
 Atom     9 has atomic number  1 and mass   1.00783
 Atom    10 has atomic number  1 and mass   1.00783
 Atom    11 has atomic number  1 and mass   1.00783
 Atom    12 has atomic number  1 and mass   1.00783
 Atom    13 has atomic number  1 and mass   1.00783
 Atom    14 has atomic number  8 and mass  15.99491
 Atom    15 has atomic number  1 and mass   1.00783
 Molecular mass:   115.03952 amu.
 Principal axes and moments of inertia in atomic units:
                           1         2         3
     Eigenvalues --   484.893421375.967601502.53180
           X            0.99993   0.01157  -0.00016
           Y           -0.01151   0.99601   0.08846
           Z            0.00119  -0.08846   0.99608
 This molecule is an asymmetric top.
 Rotational symmetry number  1.
 Warning -- assumption of classical behavior for rotation
           may cause significant error
 Rotational temperatures (Kelvin)      0.17862     0.06295     0.05765
 Rotational constants (GHZ):           3.72193     1.31162     1.20113
    1 imaginary frequencies ignored.
 Zero-point vibrational energy     293438.1 (Joules/Mol)
                                   70.13338 (Kcal/Mol)
 Warning -- explicit consideration of  13 degrees of freedom as
           vibrations may cause significant error
 Vibrational temperatures:    110.58   122.40   168.98   251.04   295.91
          (Kelvin)            322.66   340.53   409.97   486.67   628.40
                              712.60   823.35   884.55  1017.15  1106.29
                             1154.23  1287.28  1318.97  1355.32  1540.10
                             1624.78  1731.52  1846.67  1934.82  2017.46
                             2058.60  2145.86  2161.00  2179.34  2657.88
                             2842.05  4426.75  4473.52  4538.09  4539.81
                             4570.72  4977.74  5521.38
 
 Zero-point correction=                           0.111765 (Hartree/Particle)
 Thermal correction to Energy=                    0.121216
 Thermal correction to Enthalpy=                  0.122160
 Thermal correction to Gibbs Free Energy=         0.076743
 Sum of electronic and zero-point Energies=           -420.094269
 Sum of electronic and thermal Energies=              -420.084818
 Sum of electronic and thermal Enthalpies=            -420.083874
 Sum of electronic and thermal Free Energies=         -420.129290
 
                     E (Thermal)             CV                S
                      KCal/Mol        Cal/Mol-Kelvin    Cal/Mol-Kelvin
 Total                   76.064             32.261             95.587
 Electronic               0.000              0.000              1.377
 Translational            0.889              2.981             40.136
 Rotational               0.889              2.981             28.396
 Vibrational             74.286             26.299             25.678
 Vibration     1          0.599              1.965              3.970
 Vibration     2          0.601              1.960              3.770
 Vibration     3          0.608              1.935              3.142
 Vibration     4          0.627              1.874              2.387
 Vibration     5          0.640              1.832              2.082
 Vibration     6          0.649              1.804              1.924
 Vibration     7          0.656              1.785              1.828
 Vibration     8          0.683              1.702              1.504
 Vibration     9          0.719              1.599              1.220
 Vibration    10          0.797              1.390              0.837
 Vibration    11          0.851              1.260              0.670
 Vibration    12          0.928              1.091              0.500
 Vibration    13          0.974              1.001              0.425
                       Q            Log10(Q)             Ln(Q)
 Total Bot       0.501923D-35        -35.299363        -81.279787
 Total V=0       0.128459D+17         16.108766         37.091804
 Vib (Bot)       0.144377D-48        -48.840502       -112.459412
 Vib (Bot)    1  0.268089D+01          0.428279          0.986149
 Vib (Bot)    2  0.241882D+01          0.383604          0.883281
 Vib (Bot)    3  0.174097D+01          0.240792          0.554444
 Vib (Bot)    4  0.115327D+01          0.061932          0.142603
 Vib (Bot)    5  0.967390D+00         -0.014399         -0.033154
 Vib (Bot)    6  0.880432D+00         -0.055304         -0.127343
 Vib (Bot)    7  0.829697D+00         -0.081081         -0.186695
 Vib (Bot)    8  0.672968D+00         -0.172006         -0.396058
 Vib (Bot)    9  0.549563D+00         -0.259982         -0.598631
 Vib (Bot)   10  0.396822D+00         -0.401404         -0.924267
 Vib (Bot)   11  0.333223D+00         -0.477266         -1.098945
 Vib (Bot)   12  0.268343D+00         -0.571310         -1.315490
 Vib (Bot)   13  0.239176D+00         -0.621283         -1.430557
 Vib (V=0)       0.369511D+03          2.567627          5.912179
 Vib (V=0)    1  0.322712D+01          0.508815          1.171590
 Vib (V=0)    2  0.296996D+01          0.472751          1.088549
 Vib (V=0)    3  0.231135D+01          0.363865          0.837831
 Vib (V=0)    4  0.175699D+01          0.244770          0.563605
 Vib (V=0)    5  0.158896D+01          0.201114          0.463082
 Vib (V=0)    6  0.151250D+01          0.179696          0.413765
 Vib (V=0)    7  0.146871D+01          0.166936          0.384384
 Vib (V=0)    8  0.133838D+01          0.126580          0.291462
 Vib (V=0)    9  0.124298D+01          0.094464          0.217512
 Vib (V=0)   10  0.113833D+01          0.056269          0.129564
 Vib (V=0)   11  0.110086D+01          0.041734          0.096095
 Vib (V=0)   12  0.106746D+01          0.028351          0.065280
 Vib (V=0)   13  0.105426D+01          0.022948          0.052840
 Electronic      0.200000D+01          0.301030          0.693147
 Translational   0.484981D+08          7.685724         17.697035
 Rotational      0.358414D+06          5.554385         12.789443
 ***** Axes restored to original set *****
 -------------------------------------------------------------------
 Center     Atomic                   Forces (Hartrees/Bohr)
 Number     Number              X              Y              Z
 -------------------------------------------------------------------
      1        6           0.001830954   -0.003795797    0.000098959
      2        1           0.000098536   -0.000102054   -0.000024953
      3        6           0.001464216    0.032221104    0.004342468
      4        6          -0.000251185    0.000714988   -0.000006603
      5        8          -0.000840446   -0.001253209   -0.000556752
      6        8          -0.000025330   -0.000660407   -0.000080424
      7        6           0.000138383   -0.000215293   -0.000103608
      8        6          -0.000131428   -0.000074414   -0.000053161
      9        1           0.000015971   -0.000006459   -0.000004900
     10        1           0.000021140   -0.000014443   -0.000013454
     11        1          -0.000013140   -0.000006381    0.000000777
     12        1          -0.000019366   -0.000006548   -0.000001983
     13        1          -0.000014099   -0.000001991   -0.000005205
     14        8          -0.002401396   -0.026097843   -0.003241460
     15        1           0.000127192   -0.000701252   -0.000349700
 -------------------------------------------------------------------
 Cartesian Forces:  Max     0.032221104 RMS     0.006287026

 GradGradGradGradGradGradGradGradGradGradGradGradGradGradGradGradGradGrad
 Berny optimization.
 Search for a local minimum.
 Step number   1 out of a maximum of    2
 All quantities printed in internal units (Hartrees-Bohrs-Radians)
 Second derivative matrix not updated -- analytic derivatives used.
 ITU=  0
     Eigenvalues ---   -0.23206   0.00077   0.00139   0.00157   0.00249
     Eigenvalues ---    0.00420   0.00785   0.00820   0.02120   0.02169
     Eigenvalues ---    0.03175   0.03373   0.04069   0.04928   0.06311
     Eigenvalues ---    0.06816   0.07610   0.08597   0.10179   0.11036
     Eigenvalues ---    0.12270   0.14159   0.17045   0.17423   0.20466
     Eigenvalues ---    0.28558   0.29347   0.43072   0.49296   0.62361
     Eigenvalues ---    0.69156   0.76567   0.79214   0.86757   0.89240
     Eigenvalues ---    0.93461   1.00423   1.74743   2.11338
 Eigenvalue     1 is  -2.32D-01 should be greater than     0.000000 Eigenvector:
                          Y3        Y14       Z3        Y1        X14
   1                    0.79961  -0.56382   0.11164  -0.10762  -0.06909
                          Z15       Z14       Y15       X1        X15
   1                   -0.05695  -0.05059  -0.04565   0.04009   0.03762
 Angle between quadratic step and forces=  20.75 degrees.
 Linear search not attempted -- first point.
 B after Tr=    -0.001133    0.000107    0.000050
         Rot=    1.000000   -0.000415   -0.000027    0.000094 Ang=  -0.05 deg.
 Variable       Old X    -DE/DX   Delta X   Delta X   Delta X     New X
                                 (Linear)    (Quad)   (Total)
    X1       -5.14153   0.00183   0.00000   0.00058  -0.00077  -5.14230
    Y1       -0.90056  -0.00380   0.00000  -0.00585  -0.00407  -0.90463
    Z1       -0.84458   0.00010   0.00000  -0.00006  -0.00048  -0.84506
    X2       -7.07894   0.00010   0.00000   0.00140  -0.00002  -7.07896
    Y2       -1.05977  -0.00010   0.00000  -0.05457  -0.05199  -1.11176
    Z2       -1.37196  -0.00002   0.00000  -0.00007  -0.00056  -1.37252
    X3       -2.94892   0.00146   0.00000   0.00254   0.00135  -2.94757
    Y3       -0.35484   0.03222   0.00000   0.14311   0.14396  -0.21088
    Z3       -0.25024   0.00434   0.00000   0.01961   0.01965  -0.23059
    X4       -0.30923  -0.00025   0.00000  -0.00342  -0.00472  -0.31394
    Y4       -1.01413   0.00071   0.00000   0.00535   0.00517  -1.00896
    Z4        0.42697  -0.00001   0.00000  -0.00111  -0.00188   0.42509
    X5        0.31081  -0.00084   0.00000  -0.00632  -0.00764   0.30318
    Y5       -1.69165  -0.00125   0.00000  -0.00437  -0.00639  -1.69804
    Z5        2.49439  -0.00056   0.00000  -0.00390  -0.00527   2.48912
    X6        1.20507  -0.00003   0.00000  -0.00108  -0.00241   1.20266
    Y6       -0.64189  -0.00066   0.00000   0.00422   0.00537  -0.63652
    Z6       -1.53166  -0.00008   0.00000   0.00012  -0.00042  -1.53208
    X7        3.87960   0.00014   0.00000  -0.00047  -0.00181   3.87778
    Y7       -0.80320  -0.00022   0.00000   0.00117   0.00139  -0.80181
    Z7       -1.01969  -0.00010   0.00000  -0.00118  -0.00201  -1.02170
    X8        4.80097  -0.00013   0.00000   0.00326   0.00244   4.80342
    Y8        1.59390  -0.00007   0.00000  -0.00158  -0.00258   1.59132
    Z8        0.24898  -0.00005   0.00000   0.00165   0.00276   0.25174
    X9        4.72799   0.00002   0.00000  -0.00252  -0.00401   4.72398
    Y9       -1.06466  -0.00001   0.00000   0.00342   0.00503  -1.05963
    Z9       -2.87477  -0.00000   0.00000  -0.00204  -0.00312  -2.87790
   X10        4.23331   0.00002   0.00000  -0.00328  -0.00486   4.22844
   Y10       -2.46810  -0.00001   0.00000  -0.00036  -0.00116  -2.46926
   Z10        0.14198  -0.00001   0.00000  -0.00332  -0.00555   0.13643
   X11        6.84539  -0.00001   0.00000   0.00315   0.00232   6.84772
   Y11        1.49763  -0.00001   0.00000  -0.00421  -0.00581   1.49182
   Z11        0.50878   0.00000   0.00000   0.00122   0.00213   0.51091
   X12        4.35488  -0.00002   0.00000   0.00494   0.00436   4.35924
   Y12        3.23561  -0.00001   0.00000   0.00091   0.00095   3.23656
   Z12       -0.91417  -0.00000   0.00000   0.00441   0.00691  -0.90727
   X13        3.91632  -0.00001   0.00000   0.00392   0.00325   3.91957
   Y13        1.82316  -0.00000   0.00000  -0.00283  -0.00520   1.81796
   Z13        2.09561  -0.00001   0.00000   0.00238   0.00372   2.09933
   X14       -2.56246  -0.00240   0.00000  -0.00343  -0.00399  -2.56646
   Y14        3.10591  -0.02610   0.00000  -0.11246  -0.11200   2.99390
   Z14        0.17114  -0.00324   0.00000  -0.00908  -0.00640   0.16474
   X15       -3.73359   0.00013   0.00000   0.01691   0.01650  -3.71709
   Y15        3.38613  -0.00070   0.00000   0.02781   0.02734   3.41348
   Z15        1.54787  -0.00035   0.00000  -0.01256  -0.00947   1.53839
         Item               Value     Threshold  Converged?
 Maximum Force            0.032221     0.000450     NO 
 RMS     Force            0.006287     0.000300     NO 
 Maximum Displacement     0.143962     0.001800     NO 
 RMS     Displacement     0.029082     0.001200     NO 
 Predicted change in Energy=-1.143173D-02
 GradGradGradGradGradGradGradGradGradGradGradGradGradGradGradGradGradGrad


 ----------------------------------------------------------------------

 Electric dipole moment (input orientation):
 (Debye = 10**-18 statcoulomb cm , SI units = C m)
                  (au)            (Debye)         (10**-30 SI)
   Tot        0.502928D+00      0.127831D+01      0.426400D+01
   x         -0.291175D+00     -0.740093D+00     -0.246868D+01
   y         -0.249298D+00     -0.633651D+00     -0.211363D+01
   z         -0.325583D+00     -0.827549D+00     -0.276041D+01

 Dipole polarizability, Alpha (input orientation).
 (esu units = cm**3 , SI units = C**2 m**2 J**-1)
 Alpha(0;0):
               (au)            (10**-24 esu)      (10**-40 SI)
   iso        0.736467D+02      0.109133D+02      0.121427D+02
   aniso      0.304113D+02      0.450648D+01      0.501414D+01
   xx         0.896132D+02      0.132793D+02      0.147752D+02
   yx         0.729453D+01      0.108094D+01      0.120271D+01
   yy         0.719259D+02      0.106583D+02      0.118590D+02
   zx         0.410957D+01      0.608975D+00      0.677576D+00
   zy         0.278705D+01      0.412999D+00      0.459523D+00
   zz         0.594010D+02      0.880232D+01      0.979390D+01

 ----------------------------------------------------------------------

 Dipole orientation:
     6         -3.44951229         -0.54811055          3.96990246
     1         -4.65964149         -1.01157939          5.51191592
     6         -2.14219989         -0.33585286          2.04519371
     6         -0.31683430          1.02063994          0.40531601
     8         -0.90188326          2.72993249         -0.95621782
     8          1.95846767         -0.00314593          0.61204945
     6          3.82049518          0.85380252         -1.18786658
     6          3.40228899         -0.39637908         -3.73083868
     1          5.61582785          0.30451378         -0.34851657
     1          3.71971199          2.90783109         -1.31940554
     1          4.89708737          0.17046379         -5.03494525
     1          3.43438333         -2.44750094         -3.53335285
     1          1.58857434          0.16980377         -4.52776537
     8         -2.68123343         -3.00421956         -0.16680354
     1         -4.45995675         -2.76423847         -0.51893011

 Electric dipole moment (dipole orientation):
 (Debye = 10**-18 statcoulomb cm , SI units = C m)
                  (au)            (Debye)         (10**-30 SI)
   Tot        0.502928D+00      0.127831D+01      0.426400D+01
   x          0.000000D+00      0.000000D+00      0.000000D+00
   y          0.000000D+00      0.000000D+00      0.000000D+00
   z          0.502928D+00      0.127831D+01      0.426400D+01

 Dipole polarizability, Alpha (dipole orientation).
 (esu units = cm**3 , SI units = C**2 m**2 J**-1)
 Alpha(0;0):
               (au)            (10**-24 esu)      (10**-40 SI)
   iso        0.736467D+02      0.109133D+02      0.121427D+02
   aniso      0.304113D+02      0.450648D+01      0.501414D+01
   xx         0.736969D+02      0.109208D+02      0.121510D+02
   yx         0.322410D+01      0.477762D+00      0.531582D+00
   yy         0.655815D+02      0.971818D+01      0.108129D+02
   zx        -0.146229D+02     -0.216688D+01     -0.241098D+01
   zy         0.440622D+01      0.652935D+00      0.726488D+00
   zz         0.816616D+02      0.121010D+02      0.134642D+02

 ----------------------------------------------------------------------
 1\1\GINC-AJ\Freq\UM062X\6-311++G(d,p)\C5H7O3(2)\AAYUSH\16-Aug-2025\0\\
 # freq 6-311++g(d,p) m062x\\Title Card Required\\0,2\C,-2.720782,-0.47
 6556,-0.446933\H,-3.746013,-0.560806,-0.726012\C,-1.560499,-0.187773,-
 0.132421\C,-0.163635,-0.536652,0.225941\O,0.164475,-0.895182,1.319976\
 O,0.637698,-0.339675,-0.810519\C,2.052995,-0.425035,-0.539599\C,2.5405
 65,0.843456,0.131755\H,2.501945,-0.563394,-1.521264\H,2.240169,-1.3060
 64,0.075131\H,3.622427,0.792514,0.269234\H,2.304502,1.71221,-0.48376\H
 ,2.072427,0.964775,1.10895\O,-1.355998,1.643575,0.090564\H,-1.975733,1
 .791865,0.819095\\Version=ES64L-G16RevA.03\State=2-A\HF=-420.2060333\S
 2=0.786517\S2-1=0.\S2A=0.750568\RMSD=3.767e-09\RMSF=6.287e-03\ZeroPoin
 t=0.1117647\Thermal=0.1212156\Dipole=-0.291175,-0.2492976,-0.3255829\D
 ipoleDeriv=-0.2958811,0.3194585,0.0061218,0.0201849,-0.038192,0.013554
 5,0.0105746,0.0955416,-0.1174981,0.2771621,0.0213185,0.0160572,0.05258
 07,0.2166877,0.0087772,0.0107171,-0.0031364,0.2325481,-0.2193752,-0.29
 94925,-0.0583603,0.0258431,-0.3498698,-0.0266735,-0.0551202,-0.0674353
 ,-0.0760789,2.0312189,-0.291969,-0.1433008,-0.1303075,0.5846264,-0.385
 9969,-0.5213855,-0.4806005,1.6473939,-0.8074647,0.1635362,-0.1926385,0
 .0608487,-0.4608648,0.2517604,0.0301234,0.3295247,-1.0424549,-1.637490
 6,-0.0655854,0.3804549,-0.0636858,-0.3304303,0.0660383,0.4950219,0.105
 2465,-0.8554522,0.9950231,0.0794599,-0.069761,0.0265466,0.3165375,0.07
 49322,0.0767992,0.0267409,0.2916239,-0.0611716,-0.0208075,0.0375258,-0
 .0472622,-0.0555479,-0.0782588,-0.0289729,-0.0500121,-0.0102181,-0.025
 6232,-0.0018806,0.0296368,-0.0085114,0.0564456,-0.0290716,0.0681138,-0
 .05408,-0.0716082,-0.0182468,-0.0337632,0.0197187,0.022682,-0.0565133,
 0.0255685,-0.0661408,0.0621737,0.0397242,-0.1297251,-0.0067144,-0.0230
 248,0.0059083,0.0659931,0.0013358,-0.0248045,-0.0112751,0.0951395,0.08
 49739,0.0427114,-0.0374446,-0.0018319,-0.039773,0.0379484,-0.0305195,0
 .0650776,0.0076995,0.0735137,0.0162257,0.071638,-0.0068363,0.0394704,-
 0.0026765,0.054752,-0.0293963,-0.0299958,-0.4485003,0.1844308,-0.08771
 01,0.0552835,-0.238785,0.0183475,-0.0985641,-0.0791834,-0.342469,0.181
 5869,-0.1069284,0.051087,-0.0114428,0.2902154,0.0244146,0.0794055,0.09
 08141,0.2316464\Polar=89.6131887,7.2945321,71.9259138,4.1095661,2.7870
 527,59.4009711\Quadrupole=10.312981,-4.6807962,-5.6321848,0.8070978,-1
 .0695139,3.6988273\PG=C01 [X(C5H7O3)]\NImag=1\\1.16502327,0.18005824,0
 .06983003,0.30054829,0.04837077,0.13188756,-0.39048111,-0.03657707,-0.
 10007744,0.38203598,-0.02193350,-0.01186984,-0.00539358,0.03268446,0.0
 1031582,-0.09923861,-0.00899773,-0.05112632,0.10011259,0.00861853,0.04
 244506,-0.76543318,-0.13489712,-0.19447435,0.00755776,-0.01146350,0.00
 111662,1.06565475,-0.04210627,0.00506415,-0.00630687,0.00266860,-0.002
 76376,0.00030002,-0.01403272,-0.11964376,-0.18614948,-0.02973948,-0.08
 373911,0.00108787,-0.00312209,0.00346913,0.22181422,-0.03349017,0.1858
 6676,0.00789207,0.00615696,0.00056636,-0.00050083,0.00031811,-0.001994
 54,-0.22040380,0.02654571,-0.03684594,0.63621655,-0.03032372,-0.006534
 54,-0.00860038,-0.00045811,0.00320641,-0.00028742,0.05230571,-0.035789
 08,0.01427853,-0.08021602,0.29370823,-0.00509647,-0.00020558,-0.000116
 74,-0.00126552,0.00011746,0.00554972,-0.02189378,0.00582246,-0.0620766
 5,0.10013308,-0.22257933,0.92243336,-0.00328044,0.00060602,-0.00024003
 ,0.00017202,-0.00016928,0.00154535,-0.01728002,0.01477954,-0.04365632,
 -0.16859073,0.06649236,-0.18575304,0.16134545,0.00366963,0.00092146,0.
 00115305,0.00015978,-0.00049056,-0.00072033,0.01391351,0.00748178,0.01
 843814,0.06006462,-0.14216169,0.19003403,-0.07309858,0.11390923,0.0002
 6961,0.00065728,0.00140331,0.00000133,-0.00018039,0.00021608,-0.033140
 50,0.01454243,-0.02526110,-0.17779682,0.18945136,-0.65152798,0.1912440
 9,-0.23930046,0.77323813,-0.00711431,0.00047564,-0.00143765,0.00101195
 ,0.00030439,-0.00124766,-0.05139124,0.00002708,0.03307104,-0.19822034,
 -0.01634610,0.10331325,0.02655629,-0.00713545,0.03151833,0.49960342,0.
 00131951,0.00063702,0.00019074,-0.00003929,-0.00030962,0.00010616,0.00
 464311,0.00744906,-0.00151435,-0.01375956,-0.07517605,0.03568927,-0.00
 908556,0.02294156,0.03182581,0.00567411,0.10567147,0.00192180,0.000559
 73,0.00042322,-0.00002023,-0.00024170,-0.00066058,0.00655278,-0.000923
 61,0.00474772,0.08113555,0.03433914,-0.22326161,0.03058076,0.03194208,
 -0.09873300,-0.09792481,-0.07466424,0.40625454,0.00203205,0.00013272,0
 .00046241,-0.00037736,-0.00005687,0.00002592,0.00137346,-0.00277734,0.
 00017686,-0.05499221,-0.00396283,0.03538791,-0.00039368,0.00602774,-0.
 01974993,-0.17458206,0.01272102,-0.02005163,0.45117231,0.00170397,0.00
 041197,0.00035927,0.00000517,-0.00009567,0.00011790,0.00007774,0.00298
 468,0.00080231,-0.00475515,0.00276726,-0.00955100,0.00247000,-0.005606
 60,0.00112163,0.01511484,-0.06912617,0.01244502,-0.02366978,0.56131591
 ,0.00098065,-0.00010699,0.00047585,-0.00005313,0.00000264,0.00028129,0
 .00478284,0.00156588,-0.00338533,0.03454700,-0.00600386,0.01195682,0.0
 0115691,-0.00056806,-0.00384900,-0.04189317,0.01176624,-0.09652695,-0.
 06150422,-0.03962407,0.63183708,0.00006026,0.00011634,0.00004786,0.000
 08015,-0.00000571,0.00000732,-0.00034601,0.00099272,0.00061161,0.00181
 793,-0.00135511,-0.00957277,0.00084282,-0.00150449,0.00273765,-0.03792
 323,-0.03481185,-0.01740528,-0.07947460,-0.02125872,-0.00783429,0.5780
 4408,0.00023486,-0.00003744,0.00005918,-0.00000377,-0.00000414,-0.0000
 1182,-0.00044276,-0.00014428,-0.00016082,-0.00066794,-0.00046691,0.003
 66675,-0.00106627,-0.00014569,-0.00185512,-0.00127504,0.00581555,-0.00
 112168,-0.03263770,-0.18462009,-0.05111616,-0.02971982,0.52219410,0.00
 012878,0.00006690,0.00001461,0.00001354,-0.00002055,0.00000211,-0.0004
 1677,0.00020886,0.00006953,0.00145176,0.00110553,0.00241206,-0.0012173
 6,-0.00160153,-0.00058195,-0.00800246,-0.00450582,-0.00150242,-0.01281
 787,-0.04967168,-0.11106114,-0.01519889,-0.03532037,0.57042965,-0.0006
 0276,0.00000250,-0.00019515,0.00004952,0.00003346,-0.00006187,-0.00116
 596,-0.00043818,0.00108373,-0.00387867,0.00342533,-0.00542722,0.001509
 32,-0.00051771,0.00129020,-0.03405937,0.00189981,0.03402564,-0.0859041
 0,0.01360160,0.09239285,0.00681301,-0.00087305,-0.01112298,0.11258849,
 0.00000221,-0.00000236,0.00002692,0.00000821,-0.00000072,0.00000551,0.
 00017740,0.00011469,-0.00006773,-0.00001612,-0.00069276,0.00245272,-0.
 00162156,0.00064542,-0.00039357,0.00300703,0.00064077,-0.00258962,0.01
 333634,-0.05675546,-0.02689550,0.01141765,-0.00351094,-0.02743884,-0.0
 1322176,0.05662012,-0.00007307,0.00000091,-0.00005234,-0.00001072,-0.0
 0000624,-0.00003207,-0.00030729,-0.00018971,0.00025462,-0.00247482,0.0
 0067882,-0.00090083,0.00136932,-0.00045463,0.00093903,-0.00632481,0.00
 165334,0.00939390,0.10626656,-0.02810720,-0.28329475,0.00422304,-0.001
 20755,-0.01121412,-0.10746311,0.03320121,0.29729688,-0.00039938,-0.000
 04793,-0.00004701,0.00003487,0.00003819,-0.00004728,-0.00003379,-0.000
 34031,0.00010610,0.00279708,0.00329304,-0.00858385,0.00038432,-0.00112
 019,0.00393670,-0.02715150,0.02997979,-0.02043628,-0.05461847,0.026675
 36,-0.01630060,0.00384118,-0.00946958,0.00716720,0.00426559,-0.0112535
 5,0.00639460,0.07093366,-0.00015207,-0.00001885,-0.00004293,-0.0000037
 1,0.00000148,0.00001937,0.00010249,-0.00004293,-0.00018440,-0.00040887
 ,-0.00021865,0.00357444,-0.00226069,0.00058495,-0.00096221,0.00485014,
 0.00230651,-0.00095773,0.03513914,-0.22833696,0.12328195,0.00323002,-0
 .02180188,0.01544647,-0.00202009,0.00543218,-0.00305064,-0.03650535,0.
 24385516,-0.00003762,-0.00000357,0.00004302,0.00002826,0.00000670,-0.0
 0000032,-0.00015708,0.00036334,-0.00007669,0.00255129,-0.00031208,-0.0
 0030554,0.00158128,-0.00078285,-0.00070861,-0.00741014,0.00254551,-0.0
 0258185,-0.02470792,0.12615381,-0.14034533,0.00334368,-0.01438252,0.01
 044607,-0.00443622,0.02274797,-0.01379071,0.02966963,-0.13436354,0.147
 27484,-0.00005251,0.00001639,0.00000665,0.00003199,0.00001713,0.000007
 95,0.00000989,0.00011748,-0.00000430,0.00140920,0.00046307,-0.00132373
 ,-0.00006105,-0.00039111,0.00041156,-0.00057448,-0.00268108,-0.0003127
 5,-0.01010181,0.00309109,0.00028972,-0.31397112,0.01288660,-0.03391265
 ,0.00028225,-0.00018302,-0.00034397,0.00019845,-0.00042336,0.00014041,
 0.34018763,-0.00020019,0.00001015,-0.00004111,0.00001495,-0.00000775,-
 0.00000506,0.00004669,0.00034986,0.00024585,0.00103593,-0.00004969,-0.
 00299248,0.00021343,-0.00037216,0.00105127,-0.00646167,-0.00547962,-0.
 00229930,-0.02620496,0.00473048,-0.00059375,0.01471865,-0.04855885,0.0
 0114667,0.00063486,0.00103293,-0.00014814,0.00061779,0.00045646,0.0010
 7872,-0.01360002,0.04901844,-0.00007831,-0.00000092,-0.00000604,0.0000
 0661,0.00000024,-0.00000308,-0.00002326,0.00004328,0.00007673,0.000454
 07,-0.00001879,-0.00283921,0.00052057,0.00024517,0.00116194,-0.0040049
 7,-0.00368177,0.00014074,-0.01333731,0.00377770,-0.00252130,-0.0327756
 9,0.00071007,-0.05026858,0.00041693,0.00060256,-0.00005749,0.00020583,
 0.00009892,0.00043221,0.03766563,0.00008198,0.05056833,-0.00013879,-0.
 00002796,-0.00003966,-0.00002331,-0.00001742,-0.00000042,0.00017476,0.
 00015862,0.00000965,-0.00026040,-0.00050076,0.00151025,-0.00051950,-0.
 00000344,-0.00071079,0.00207627,0.00054105,0.00045424,0.00054707,-0.01
 048770,0.00627430,-0.06032636,0.04909713,-0.03385619,0.00009259,0.0007
 9260,0.00002521,-0.00019030,-0.00223235,-0.00106356,-0.00504667,0.0258
 9431,-0.01817809,0.06028878,-0.00011104,-0.00000036,-0.00004224,-0.000
 00250,-0.00000601,0.00000387,0.00001116,0.00002778,0.00004471,-0.00011
 182,-0.00042231,0.00074943,-0.00015868,0.00023937,-0.00039613,0.001056
 16,0.00295463,0.00015223,0.00688944,-0.02558548,0.01687304,0.04655658,
 -0.21791330,0.12328119,0.00024159,0.00103950,-0.00007698,-0.00207908,-
 0.00329572,-0.00360711,0.00000441,0.00025200,-0.00090293,-0.05059770,0
 .23898981,0.00015959,0.00001896,0.00003701,0.00000390,0.00000875,0.000
 00181,-0.00012947,-0.00026470,-0.00000868,-0.00042617,0.00051657,-0.00
 048480,0.00053073,0.00029360,0.00042986,0.00158895,0.00101507,0.000340
 85,0.00396132,-0.01534916,0.01007523,-0.03425485,0.12568150,-0.1393100
 1,0.00057178,0.00057360,0.00091833,-0.00179853,-0.00304701,-0.00106313
 ,-0.00002348,0.00138556,-0.00278105,0.03806514,-0.13335846,0.14647556,
 0.00004928,0.00001906,-0.00000844,-0.00002756,-0.00002851,-0.00000656,
 -0.00000283,-0.00000998,-0.00000932,-0.00077485,-0.00054541,-0.0010166
 2,-0.00071690,-0.00067081,0.00060932,0.00132434,0.00111872,0.00068128,
 0.00435481,-0.00170640,-0.01218132,-0.09927995,0.01394208,0.10774199,-
 0.00003915,-0.00245111,-0.00137891,0.00001295,0.00065113,0.00053808,-0
 .01211414,0.00319144,0.02910130,0.00309319,-0.00175223,-0.00811580,0.1
 0378077,0.00019037,0.00003175,0.00002501,-0.00000604,-0.00000242,-0.00
 001339,-0.00027194,-0.00035238,0.00012637,-0.00097590,0.00097890,-0.00
 284487,0.00058884,-0.00059293,0.00180084,-0.00009782,0.00156241,0.0028
 2565,0.01539328,-0.00423585,-0.02884299,0.01111492,-0.05065547,-0.0227
 1216,-0.00275071,-0.00462990,-0.00220501,0.00055203,0.00111559,0.00038
 054,0.00060811,-0.00151425,-0.00097506,-0.01261030,0.00373278,0.022528
 06,-0.01168564,0.05464987,-0.00013839,-0.00005315,-0.00004004,-0.00002
 008,-0.00000982,-0.00001461,0.00008319,0.00001350,0.00005564,-0.000461
 56,-0.00034598,-0.00140853,0.00090324,0.00099602,0.00061542,-0.0004237
 5,0.00085839,0.00117839,0.00627047,-0.00262078,-0.01372636,0.10610478,
 -0.02505006,-0.26917919,-0.00102110,-0.00227115,0.00051866,-0.00033619
 ,0.00022394,0.00065885,-0.00257650,0.00107548,0.00599853,0.00756556,-0
 .00267193,-0.01459589,-0.11616830,0.02996741,0.28984115,-0.01032382,-0
 .01574213,-0.00547090,0.00038173,0.00073777,-0.00024025,-0.01689039,0.
 02126989,0.01420027,-0.00100360,0.00762522,-0.00330183,-0.00011063,0.0
 0078832,0.00041045,-0.00020481,0.00165854,0.00147461,0.00089355,-0.000
 77279,-0.00064469,-0.00015268,0.00008481,-0.00011225,0.00004252,0.0000
 2185,0.00011677,-0.00005073,0.00000755,-0.00004164,-0.00021412,0.00006
 325,0.00006590,0.00017373,0.00001537,-0.00011151,0.00040283,-0.0000682
 0,0.00024394,0.24792749,-0.08977878,-0.05705888,-0.02920802,0.00176437
 ,0.00203967,0.00092299,0.07629010,0.13577404,0.04597087,0.00603909,-0.
 03632639,-0.00300126,0.00233511,0.00233882,0.00160211,0.00154792,0.000
 40095,0.00026307,-0.00058240,0.00200901,0.00007265,0.00057611,-0.00012
 030,0.00009087,0.00004629,0.00008081,-0.00008568,-0.00035114,-0.000029
 62,0.00020791,0.00009085,0.00013518,0.00001921,-0.00002598,-0.00002385
 ,-0.00004047,-0.00011760,-0.00013047,-0.00012255,-0.04884303,-0.013340
 66,-0.00992839,-0.00919833,0.00122165,0.00028638,0.00044776,-0.0000279
 6,0.01386203,0.00997645,-0.02041041,-0.00445906,-0.00105642,-0.0017358
 6,0.00252826,0.00011777,0.00446398,0.00078249,-0.00155838,0.00037501,-
 0.00088716,0.00011938,-0.00003971,0.00005921,0.00008953,-0.00031014,0.
 00002477,0.00005460,0.00004163,0.00012612,-0.00001942,0.00003246,-0.00
 001297,0.00006982,0.00012726,-0.00003922,-0.00002299,-0.00007395,0.000
 22635,-0.00011577,0.00012335,-0.26038700,0.04953691,0.31626134,0.00276
 936,-0.00029167,0.00035908,0.00005419,-0.00045871,0.00002144,-0.001823
 40,-0.00685485,-0.00549597,-0.00150740,0.00010333,0.00289033,0.0001427
 3,-0.00018183,-0.00103120,0.00064907,0.00082168,-0.00067568,0.00007104
 ,-0.00008923,-0.00001285,-0.00002549,-0.00008955,0.00015415,0.00000672
 ,-0.00001617,-0.00001880,-0.00002394,0.00002602,0.00000154,0.00001650,
 0.00003555,-0.00003921,0.00005895,0.00003834,-0.00002161,-0.00006280,0
 .00001900,-0.00002533,-0.22087107,0.05100910,0.25781820,0.22054553,-0.
 00257322,-0.00138426,-0.00054982,-0.00021504,-0.00001289,-0.00005859,0
 .01354014,-0.00050985,-0.01162775,0.00075096,-0.00282273,-0.00093203,-
 0.00002469,0.00030704,0.00103515,-0.00074124,-0.00028848,0.00027097,0.
 00025218,0.00014297,0.00018899,-0.00006729,-0.00003037,-0.00007553,-0.
 00006394,-0.00001426,-0.00000250,0.00001094,-0.00000772,-0.00003284,-0
 .00001653,-0.00000318,0.00000033,0.00001988,0.00001114,0.00003811,0.00
 004526,0.00004237,0.00001065,0.03315359,-0.03574832,-0.04844091,-0.044
 07102,0.04031852,-0.00326839,-0.00136882,-0.00042565,-0.00009335,-0.00
 022772,-0.00010026,0.00233082,0.00833884,0.00041782,0.00361981,-0.0011
 6569,0.00230579,-0.00109375,0.00020799,-0.00180611,-0.00160464,0.00027
 403,0.00041202,0.00050460,0.00002687,0.00012358,-0.00009336,0.00001908
 ,0.00005351,-0.00007824,-0.00000868,-0.00002074,-0.00005644,-0.0000172
 0,-0.00001525,-0.00001157,-0.00005551,-0.00002899,-0.00001643,-0.00002
 570,0.00003887,-0.00001307,0.00005536,-0.00002537,0.25379813,-0.066228
 61,-0.30004865,-0.25392410,0.06017576,0.29911944\\-0.00183095,0.003795
 80,-0.00009896,-0.00009854,0.00010205,0.00002495,-0.00146422,-0.032221
 10,-0.00434247,0.00025119,-0.00071499,0.00000660,0.00084045,0.00125321
 ,0.00055675,0.00002533,0.00066041,0.00008042,-0.00013838,0.00021529,0.
 00010361,0.00013143,0.00007441,0.00005316,-0.00001597,0.00000646,0.000
 00490,-0.00002114,0.00001444,0.00001345,0.00001314,0.00000638,-0.00000
 078,0.00001937,0.00000655,0.00000198,0.00001410,0.00000199,0.00000520,
 0.00240140,0.02609784,0.00324146,-0.00012719,0.00070125,0.00034970\\\@


 CHARLIE BROWN -- WHICH DO YOU THINK LASTS LONGER IN LIFE, THE GOOD THINGS 
                  OR THE BAD THINGS?
 LINUS --         GOOD THINGS LAST EIGHT SECONDS ..
                  BAD THINGS LAST THREE WEEKS
 CHARLIE BROWN -- WHAT ABOUT IN BETWEEN?
 SNOOPY --        IN BETWEEN YOU SHOULD TAKE A NAP ...
 Job cpu time:       0 days  0 hours 54 minutes 36.8 seconds.
 Elapsed time:       0 days  0 hours  2 minutes 16.8 seconds.
 File lengths (MBytes):  RWF=    153 Int=      0 D2E=      0 Chk=      5 Scr=      1
 Normal termination of Gaussian 16 at Sat Aug 16 19:41:10 2025.
