 Entering Gaussian System, Link 0=g16
 Initial command:
 /opt/g16/l1.exe "/home/aayush/scratches/g16/Gau-75610.inp" -scrdir="/home/aayush/scratches/g16/"
 Entering Link 1 = /opt/g16/l1.exe PID=     75613.
  
 Copyright (c) 1988,1990,1992,1993,1995,1998,2003,2009,2016,
            Gaussian, Inc.  All Rights Reserved.
  
 This is part of the Gaussian(R) 16 program.  It is based on
 the Gaussian(R) 09 system (copyright 2009, Gaussian, Inc.),
 the Gaussian(R) 03 system (copyright 2003, Gaussian, Inc.),
 the Gaussian(R) 98 system (copyright 1998, Gaussian, Inc.),
 the Gaussian(R) 94 system (copyright 1995, Gaussian, Inc.),
 the Gaussian 92(TM) system (copyright 1992, Gaussian, Inc.),
 the Gaussian 90(TM) system (copyright 1990, Gaussian, Inc.),
 the Gaussian 88(TM) system (copyright 1988, Gaussian, Inc.),
 the Gaussian 86(TM) system (copyright 1986, Carnegie Mellon
 University), and the Gaussian 82(TM) system (copyright 1983,
 Carnegie Mellon University). Gaussian is a federally registered
 trademark of Gaussian, Inc.
  
 This software contains proprietary and confidential information,
 including trade secrets, belonging to Gaussian, Inc.
  
 This software is provided under written license and may be
 used, copied, transmitted, or stored only in accord with that
 written license.
  
 The following legend is applicable only to US Government
 contracts under FAR:
  
                    RESTRICTED RIGHTS LEGEND
  
 Use, reproduction and disclosure by the US Government is
 subject to restrictions as set forth in subparagraphs (a)
 and (c) of the Commercial Computer Software - Restricted
 Rights clause in FAR 52.227-19.
  
 Gaussian, Inc.
 340 Quinnipiac St., Bldg. 40, Wallingford CT 06492
  
  
 ---------------------------------------------------------------
 Warning -- This program may not be used in any manner that
 competes with the business of Gaussian, Inc. or will provide
 assistance to any competitor of Gaussian, Inc.  The licensee
 of this program is prohibited from giving any competitor of
 Gaussian, Inc. access to this program.  By using this program,
 the user acknowledges that Gaussian, Inc. is engaged in the
 business of creating and licensing software in the field of
 computational chemistry and represents and warrants to the
 licensee that it is not a competitor of Gaussian, Inc. and that
 it will not use this program in any manner prohibited above.
 ---------------------------------------------------------------
  

 Cite this work as:
 Gaussian 16, Revision A.03,
 M. J. Frisch, G. W. Trucks, H. B. Schlegel, G. E. Scuseria, 
 M. A. Robb, J. R. Cheeseman, G. Scalmani, V. Barone, 
 G. A. Petersson, H. Nakatsuji, X. Li, M. Caricato, A. V. Marenich, 
 J. Bloino, B. G. Janesko, R. Gomperts, B. Mennucci, H. P. Hratchian, 
 J. V. Ortiz, A. F. Izmaylov, J. L. Sonnenberg, D. Williams-Young, 
 F. Ding, F. Lipparini, F. Egidi, J. Goings, B. Peng, A. Petrone, 
 T. Henderson, D. Ranasinghe, V. G. Zakrzewski, J. Gao, N. Rega, 
 G. Zheng, W. Liang, M. Hada, M. Ehara, K. Toyota, R. Fukuda, 
 J. Hasegawa, M. Ishida, T. Nakajima, Y. Honda, O. Kitao, H. Nakai, 
 T. Vreven, K. Throssell, J. A. Montgomery, Jr., J. E. Peralta, 
 F. Ogliaro, M. J. Bearpark, J. J. Heyd, E. N. Brothers, K. N. Kudin, 
 V. N. Staroverov, T. A. Keith, R. Kobayashi, J. Normand, 
 K. Raghavachari, A. P. Rendell, J. C. Burant, S. S. Iyengar, 
 J. Tomasi, M. Cossi, J. M. Millam, M. Klene, C. Adamo, R. Cammi, 
 J. W. Ochterski, R. L. Martin, K. Morokuma, O. Farkas, 
 J. B. Foresman, and D. J. Fox, Gaussian, Inc., Wallingford CT, 2016.
 
 ******************************************
 Gaussian 16:  ES64L-G16RevA.03 25-Dec-2016
                20-Jun-2025 
 ******************************************
 %nprocshared=24
 Will use up to   24 processors via shared memory.
 %mem=12GB
 %chk=ethyl_propiolate_ts1.chk
 -------------------
 # freq 6-31+g m062x
 -------------------
 1/10=4,30=1,38=1/1,3;
 2/12=2,17=6,18=5,40=1/2;
 3/5=1,6=6,7=10,11=2,25=1,30=1,71=2,74=-55,140=1/1,2,3;
 4//1;
 5/5=2,38=5,98=1/2;
 8/6=4,10=90,11=11/1;
 11/6=1,8=1,9=11,15=111,16=1/1,2,10;
 10/6=1/2;
 6/7=2,8=2,9=2,10=2,28=1/1;
 7/8=1,10=1,25=1/1,2,3,16;
 1/10=4,30=1/3;
 99//99;
 -------------------
 Title Card Required
 -------------------
 Symbolic Z-matrix:
 Charge =  0 Multiplicity = 2
 C                    -2.72638  -0.46716  -0.44755 
 H                    -3.75268  -0.54118  -0.72359 
 C                    -1.56503  -0.29292  -0.14673 
 C                    -0.16468  -0.54132   0.22517 
 O                     0.16721  -0.8916    1.32169 
 O                     0.63804  -0.33792  -0.81029 
 C                     2.05239  -0.42422  -0.53927 
 C                     2.54113   0.84376   0.13198 
 H                     2.50164  -0.56297  -1.52083 
 H                     2.23928  -1.3052    0.07574 
 H                     3.62302   0.79304   0.26922 
 H                     2.30552   1.71259  -0.48376 
 H                     2.07329   0.96469   1.10937 
 O                    -1.35014   1.70958   0.09906 
 H                    -1.97856   1.82015   0.82974 
 

 GradGradGradGradGradGradGradGradGradGradGradGradGradGradGradGradGradGrad
 Berny optimization.
 Initialization pass.
 Trust Radius=3.00D-01 FncErr=1.00D-07 GrdErr=1.00D-07 EigMax=2.50D+02 EigMin=1.00D-04
 Number of steps in this run=      2 maximum allowed number of steps=      2.
 GradGradGradGradGradGradGradGradGradGradGradGradGradGradGradGradGradGrad

                          Input orientation:                          
 ---------------------------------------------------------------------
 Center     Atomic      Atomic             Coordinates (Angstroms)
 Number     Number       Type             X           Y           Z
 ---------------------------------------------------------------------
      1          6           0       -2.726378   -0.467162   -0.447546
      2          1           0       -3.752683   -0.541177   -0.723590
      3          6           0       -1.565026   -0.292915   -0.146729
      4          6           0       -0.164682   -0.541321    0.225169
      5          8           0        0.167206   -0.891600    1.321686
      6          8           0        0.638041   -0.337918   -0.810285
      7          6           0        2.052393   -0.424221   -0.539270
      8          6           0        2.541127    0.843761    0.131983
      9          1           0        2.501640   -0.562970   -1.520825
     10          1           0        2.239282   -1.305201    0.075736
     11          1           0        3.623021    0.793040    0.269215
     12          1           0        2.305515    1.712594   -0.483759
     13          1           0        2.073292    0.964693    1.109372
     14          8           0       -1.350143    1.709584    0.099061
     15          1           0       -1.978559    1.820153    0.829740
 ---------------------------------------------------------------------
                    Distance matrix (angstroms):
                    1          2          3          4          5
     1  C    0.000000
     2  H    1.065355   0.000000
     3  C    1.212267   2.276015   0.000000
     4  C    2.649591   3.711320   1.470026   0.000000
     5  O    3.418063   4.435254   2.348466   1.197996   0.000000
     6  O    3.386384   4.396281   2.301268   1.325859   2.252454
     7  C    4.779844   5.809179   3.641023   2.348085   2.689894
     8  C    5.459028   6.500931   4.269684   3.041141   3.172124
     9  H    5.337910   6.304967   4.301028   3.187199   3.692892
    10  H    5.062994   6.093135   3.942965   2.526833   2.452948
    11  H    6.512812   7.560873   5.316779   4.016112   3.986021
    12  H    5.483849   6.468289   4.372270   3.418272   3.822803
    13  H    5.245096   6.290420   4.049287   2.838736   2.669094
    14  O    2.632684   3.393358   2.028938   2.547115   3.250126
    15  H    2.724427   3.337099   2.364225   3.038456   3.492839
                    6          7          8          9         10
     6  O    0.000000
     7  C    1.442667   0.000000
     8  C    2.430220   1.515658   0.000000
     9  H    2.007117   1.088359   2.170766   0.000000
    10  H    2.069938   1.090544   2.170786   1.780097   0.000000
    11  H    3.369643   2.145284   1.091742   2.510080   2.520870
    12  H    2.663022   2.152471   1.090652   2.508418   3.069936
    13  H    2.727971   2.155815   1.090313   3.071673   2.499675
    14  O    2.995338   4.066674   3.986567   4.756550   4.687584
    15  H    3.767433   4.812481   4.676299   5.592550   5.303446
                   11         12         13         14         15
    11  H    0.000000
    12  H    1.774365   0.000000
    13  H    1.771155   1.775204   0.000000
    14  O    5.059779   3.701827   3.646299   0.000000
    15  H    5.722486   4.482202   4.150603   0.970064   0.000000
 Stoichiometry    C5H7O3(2)
 Framework group  C1[X(C5H7O3)]
 Deg. of freedom    39
 Full point group                 C1      NOp   1
 Largest Abelian subgroup         C1      NOp   1
 Largest concise Abelian subgroup C1      NOp   1
                         Standard orientation:                         
 ---------------------------------------------------------------------
 Center     Atomic      Atomic             Coordinates (Angstroms)
 Number     Number       Type             X           Y           Z
 ---------------------------------------------------------------------
      1          6           0       -2.783515   -0.491358   -0.442267
      2          1           0       -3.809868   -0.565953   -0.717978
      3          6           0       -1.622096   -0.316486   -0.142074
      4          6           0       -0.221745   -0.564112    0.230318
      5          8           0        0.110227   -0.911464    1.327740
      6          8           0        0.580878   -0.363656   -0.805788
      7          6           0        1.995251   -0.449456   -0.534721
      8          6           0        2.484281    0.820265    0.133021
      9          1           0        2.444349   -0.590947   -1.515953
     10          1           0        2.182074   -1.328792    0.082653
     11          1           0        3.566184    0.769738    0.270251
     12          1           0        2.248733    1.687460   -0.485050
     13          1           0        2.016591    0.943930    1.110138
     14          8           0       -1.406851    1.686638    0.098245
     15          1           0       -2.035154    1.799297    0.828701
 ---------------------------------------------------------------------
 Rotational constants (GHZ):           3.6098119           1.3094048           1.1889413
 Standard basis: 6-31+G (6D, 7F)
 There are   118 symmetry adapted cartesian basis functions of A   symmetry.
 There are   118 symmetry adapted basis functions of A   symmetry.
   118 basis functions,   236 primitive gaussians,   118 cartesian basis functions
    31 alpha electrons       30 beta electrons
       nuclear repulsion energy       362.3178207152 Hartrees.
 NAtoms=   15 NActive=   15 NUniq=   15 SFac= 1.00D+00 NAtFMM=   60 NAOKFM=F Big=F
 Integral buffers will be    131072 words long.
 Raffenetti 2 integral format.
 Two-electron integral symmetry is turned on.
 One-electron integrals computed using PRISM.
 NBasis=   118 RedAO= T EigKep=  3.61D-06  NBF=   118
 NBsUse=   118 1.00D-06 EigRej= -1.00D+00 NBFU=   118
 ExpMin= 4.38D-02 ExpMax= 5.48D+03 ExpMxC= 8.25D+02 IAcc=3 IRadAn=         5 AccDes= 0.00D+00
 Harris functional with IExCor= 1009 and IRadAn=       5 diagonalized for initial guess.
 HarFok:  IExCor= 1009 AccDes= 0.00D+00 IRadAn=         5 IDoV= 1 UseB2=F ITyADJ=14
 ICtDFT=  3500011 ScaDFX=  1.000000  1.000000  1.000000  1.000000
 FoFCou: FMM=F IPFlag=           0 FMFlag=      100000 FMFlg1=           0
         NFxFlg=           0 DoJE=T BraDBF=F KetDBF=T FulRan=T
         wScrn=  0.000000 ICntrl=       500 IOpCl=  0 I1Cent=   200000004 NGrid=           0
         NMat0=    1 NMatS0=      1 NMatT0=    0 NMatD0=    1 NMtDS0=    0 NMtDT0=    0
 Petite list used in FoFCou.
 Initial guess <Sx>= 0.0000 <Sy>= 0.0000 <Sz>= 0.5000 <S**2>= 0.7500 S= 0.5000
 Requested convergence on RMS density matrix=1.00D-08 within 128 cycles.
 Requested convergence on MAX density matrix=1.00D-06.
 Requested convergence on             energy=1.00D-06.
 No special actions if energy rises.
 Restarting incremental Fock formation.
 SCF Done:  E(UM062X) =  -419.953890531     A.U. after   22 cycles
            NFock= 22  Conv=0.80D-08     -V/T= 2.0050
 <Sx>= 0.0000 <Sy>= 0.0000 <Sz>= 0.5000 <S**2>= 0.7704 S= 0.5101
 <L.S>=  0.00000000000    
 Annihilation of the first spin contaminant:
 S**2 before annihilation     0.7704,   after     0.7502
 DoSCS=F DFT=T ScalE2(SS,OS)=  1.000000  1.000000
 Range of M.O.s used for correlation:     1   118
 NBasis=   118 NAE=    31 NBE=    30 NFC=     0 NFV=     0
 NROrb=    118 NOA=    31 NOB=    30 NVA=    87 NVB=    88

 **** Warning!!: The largest alpha MO coefficient is  0.15951107D+03


 **** Warning!!: The largest beta MO coefficient is  0.16363739D+03

 Symmetrizing basis deriv contribution to polar:
 IMax=3 JMax=2 DiffMx= 0.00D+00
 G2DrvN: will do    16 centers at a time, making    1 passes.
 Calling FoFCou, ICntrl=  3107 FMM=F I1Cent=   0 AccDes= 0.00D+00.
 End of G2Drv F.D. properties file   721 does not exist.
 End of G2Drv F.D. properties file   722 does not exist.
 End of G2Drv F.D. properties file   788 does not exist.
          IDoAtm=111111111111111
          Differentiating once with respect to electric field.
                with respect to dipole field.
          Differentiating once with respect to nuclear coordinates.
 Keep R1 and R2 ints in memory in canonical form, NReq=71861349.
          There are    48 degrees of freedom in the 1st order CPHF.  IDoFFX=6 NUNeed=     3.
     45 vectors produced by pass  0 Test12= 1.11D-14 2.08D-09 XBig12= 9.01D+01 3.56D+00.
 AX will form    45 AO Fock derivatives at one time.
     45 vectors produced by pass  1 Test12= 1.11D-14 2.08D-09 XBig12= 1.79D+01 6.00D-01.
     45 vectors produced by pass  2 Test12= 1.11D-14 2.08D-09 XBig12= 4.65D-01 1.28D-01.
     45 vectors produced by pass  3 Test12= 1.11D-14 2.08D-09 XBig12= 3.03D-03 8.01D-03.
     45 vectors produced by pass  4 Test12= 1.11D-14 2.08D-09 XBig12= 2.31D-05 7.63D-04.
     45 vectors produced by pass  5 Test12= 1.11D-14 2.08D-09 XBig12= 2.22D-07 6.29D-05.
     32 vectors produced by pass  6 Test12= 1.11D-14 2.08D-09 XBig12= 1.64D-09 5.38D-06.
     12 vectors produced by pass  7 Test12= 1.11D-14 2.08D-09 XBig12= 1.05D-11 3.42D-07.
      3 vectors produced by pass  8 Test12= 1.11D-14 2.08D-09 XBig12= 6.93D-14 2.21D-08.
      1 vectors produced by pass  9 Test12= 1.11D-14 2.08D-09 XBig12= 6.50D-16 2.56D-09.
 InvSVY:  IOpt=1 It=  1 EMax= 5.33D-15
 Solved reduced A of dimension   318 with    48 vectors.
 Isotropic polarizability for W=    0.000000       71.04 Bohr**3.
 End of Minotr F.D. properties file   721 does not exist.
 End of Minotr F.D. properties file   722 does not exist.
 End of Minotr F.D. properties file   788 does not exist.

 **********************************************************************

            Population analysis using the SCF density.

 **********************************************************************

 Orbital symmetries:
 Alpha Orbitals:
       Occupied  (A) (A) (A) (A) (A) (A) (A) (A) (A) (A) (A) (A)
                 (A) (A) (A) (A) (A) (A) (A) (A) (A) (A) (A) (A)
                 (A) (A) (A) (A) (A) (A) (A)
       Virtual   (A) (A) (A) (A) (A) (A) (A) (A) (A) (A) (A) (A)
                 (A) (A) (A) (A) (A) (A) (A) (A) (A) (A) (A) (A)
                 (A) (A) (A) (A) (A) (A) (A) (A) (A) (A) (A) (A)
                 (A) (A) (A) (A) (A) (A) (A) (A) (A) (A) (A) (A)
                 (A) (A) (A) (A) (A) (A) (A) (A) (A) (A) (A) (A)
                 (A) (A) (A) (A) (A) (A) (A) (A) (A) (A) (A) (A)
                 (A) (A) (A) (A) (A) (A) (A) (A) (A) (A) (A) (A)
                 (A) (A) (A)
 Beta  Orbitals:
       Occupied  (A) (A) (A) (A) (A) (A) (A) (A) (A) (A) (A) (A)
                 (A) (A) (A) (A) (A) (A) (A) (A) (A) (A) (A) (A)
                 (A) (A) (A) (A) (A) (A)
       Virtual   (A) (A) (A) (A) (A) (A) (A) (A) (A) (A) (A) (A)
                 (A) (A) (A) (A) (A) (A) (A) (A) (A) (A) (A) (A)
                 (A) (A) (A) (A) (A) (A) (A) (A) (A) (A) (A) (A)
                 (A) (A) (A) (A) (A) (A) (A) (A) (A) (A) (A) (A)
                 (A) (A) (A) (A) (A) (A) (A) (A) (A) (A) (A) (A)
                 (A) (A) (A) (A) (A) (A) (A) (A) (A) (A) (A) (A)
                 (A) (A) (A) (A) (A) (A) (A) (A) (A) (A) (A) (A)
                 (A) (A) (A) (A)
 The electronic state is 2-A.
 Alpha  occ. eigenvalues --  -19.70415 -19.68633 -19.66183 -10.72995 -10.61322
 Alpha  occ. eigenvalues --  -10.60968 -10.60059 -10.54154  -1.27993  -1.18645
 Alpha  occ. eigenvalues --   -1.13314  -0.91791  -0.88121  -0.78558  -0.71247
 Alpha  occ. eigenvalues --   -0.64587  -0.62521  -0.58749  -0.57280  -0.53720
 Alpha  occ. eigenvalues --   -0.53597  -0.50324  -0.48467  -0.46307  -0.45050
 Alpha  occ. eigenvalues --   -0.41741  -0.41176  -0.39677  -0.38053  -0.36908
 Alpha  occ. eigenvalues --   -0.34418
 Alpha virt. eigenvalues --   -0.00809   0.01880   0.02464   0.03497   0.03716
 Alpha virt. eigenvalues --    0.04368   0.05529   0.05846   0.07688   0.07975
 Alpha virt. eigenvalues --    0.08841   0.08929   0.09997   0.11794   0.12235
 Alpha virt. eigenvalues --    0.13435   0.14154   0.15238   0.15913   0.16405
 Alpha virt. eigenvalues --    0.16953   0.18995   0.19762   0.20318   0.21885
 Alpha virt. eigenvalues --    0.23815   0.24019   0.24569   0.26255   0.27129
 Alpha virt. eigenvalues --    0.28462   0.29932   0.29973   0.30896   0.32107
 Alpha virt. eigenvalues --    0.33044   0.33408   0.35193   0.35629   0.36900
 Alpha virt. eigenvalues --    0.38609   0.40283   0.40894   0.42700   0.44798
 Alpha virt. eigenvalues --    0.47202   0.58188   0.59499   0.69031   0.70239
 Alpha virt. eigenvalues --    0.71666   0.72931   0.74360   0.76233   0.77485
 Alpha virt. eigenvalues --    0.80631   0.84437   0.84984   0.89442   0.90531
 Alpha virt. eigenvalues --    0.93017   0.96377   1.00198   1.07182   1.10869
 Alpha virt. eigenvalues --    1.12003   1.13133   1.15331   1.17664   1.21048
 Alpha virt. eigenvalues --    1.23613   1.25986   1.26616   1.28039   1.33987
 Alpha virt. eigenvalues --    1.36689   1.37782   1.39959   1.42622   1.45519
 Alpha virt. eigenvalues --    1.47714   1.56159   1.64857   1.72355   1.83339
 Alpha virt. eigenvalues --    2.02230   2.04064
  Beta  occ. eigenvalues --  -19.70419 -19.67159 -19.66205 -10.72964 -10.61322
  Beta  occ. eigenvalues --  -10.61031 -10.59812 -10.54154  -1.27997  -1.18678
  Beta  occ. eigenvalues --   -1.07560  -0.91240  -0.87757  -0.78367  -0.71024
  Beta  occ. eigenvalues --   -0.64486  -0.61996  -0.58586  -0.56985  -0.53670
  Beta  occ. eigenvalues --   -0.51190  -0.49169  -0.46672  -0.45142  -0.41701
  Beta  occ. eigenvalues --   -0.39623  -0.39446  -0.38209  -0.37960  -0.36075
  Beta virt. eigenvalues --   -0.09857   0.00289   0.01926   0.02485   0.03475
  Beta virt. eigenvalues --    0.03782   0.04562   0.05577   0.05880   0.07718
  Beta virt. eigenvalues --    0.07952   0.08904   0.08954   0.10121   0.11806
  Beta virt. eigenvalues --    0.12327   0.13758   0.14355   0.15623   0.16060
  Beta virt. eigenvalues --    0.16300   0.17150   0.18966   0.20183   0.20390
  Beta virt. eigenvalues --    0.21766   0.23824   0.24372   0.24625   0.26287
  Beta virt. eigenvalues --    0.27293   0.28527   0.29965   0.29986   0.30966
  Beta virt. eigenvalues --    0.32234   0.33079   0.33372   0.35224   0.35517
  Beta virt. eigenvalues --    0.36949   0.38644   0.40437   0.40729   0.42810
  Beta virt. eigenvalues --    0.44882   0.47204   0.58215   0.59613   0.69190
  Beta virt. eigenvalues --    0.70556   0.72158   0.73253   0.74569   0.77433
  Beta virt. eigenvalues --    0.77602   0.80642   0.84214   0.85056   0.89103
  Beta virt. eigenvalues --    0.90695   0.93042   0.96717   1.00329   1.06892
  Beta virt. eigenvalues --    1.10927   1.12064   1.13902   1.16796   1.18107
  Beta virt. eigenvalues --    1.21052   1.24122   1.26487   1.28118   1.28927
  Beta virt. eigenvalues --    1.34266   1.37319   1.39668   1.40305   1.43278
  Beta virt. eigenvalues --    1.45799   1.47956   1.56406   1.65487   1.72284
  Beta virt. eigenvalues --    1.85266   2.02229   2.04222
          Condensed to atoms (all electrons):
               1          2          3          4          5          6
     1  C   27.564481   0.566922  -9.060650 -12.927039   0.033930  -0.085686
     2  H    0.566922   0.361872  -0.214151  -0.033418  -0.000012  -0.000047
     3  C   -9.060650  -0.214151  18.757673  -2.559611   0.132957  -0.715497
     4  C  -12.927039  -0.033418  -2.559611  21.222998   0.028082   0.247674
     5  O    0.033930  -0.000012   0.132957   0.028082   8.473196  -0.257058
     6  O   -0.085686  -0.000047  -0.715497   0.247674  -0.257058   9.061614
     7  C   -0.248449   0.000051  -0.602863   0.666380  -0.009816  -0.001694
     8  C    0.125364  -0.000031   0.115330  -0.364870  -0.050002   0.030181
     9  H   -0.005985  -0.000000  -0.022290   0.040406  -0.000311  -0.072616
    10  H   -0.001750   0.000000   0.003891  -0.007717   0.003142  -0.033413
    11  H    0.000331   0.000000   0.003552   0.001830  -0.000119   0.007952
    12  H    0.002616   0.000000   0.010615  -0.009594  -0.000266  -0.000894
    13  H   -0.000868  -0.000000  -0.010563   0.010876   0.001367  -0.010282
    14  O   -0.281898   0.000004   0.556624  -0.327796  -0.012238  -0.006671
    15  H    0.086368  -0.000188  -0.031079  -0.039616  -0.000173   0.000584
               7          8          9         10         11         12
     1  C   -0.248449   0.125364  -0.005985  -0.001750   0.000331   0.002616
     2  H    0.000051  -0.000031  -0.000000   0.000000   0.000000   0.000000
     3  C   -0.602863   0.115330  -0.022290   0.003891   0.003552   0.010615
     4  C    0.666380  -0.364870   0.040406  -0.007717   0.001830  -0.009594
     5  O   -0.009816  -0.050002  -0.000311   0.003142  -0.000119  -0.000266
     6  O   -0.001694   0.030181  -0.072616  -0.033413   0.007952  -0.000894
     7  C    5.975706  -0.175322   0.429835   0.420272  -0.074645  -0.053258
     8  C   -0.175322   5.788417  -0.056259  -0.076131   0.401306   0.395765
     9  H    0.429835  -0.056259   0.501483  -0.033127  -0.000783  -0.004568
    10  H    0.420272  -0.076131  -0.033127   0.492562  -0.000697   0.003747
    11  H   -0.074645   0.401306  -0.000783  -0.000697   0.505837  -0.025451
    12  H   -0.053258   0.395765  -0.004568   0.003747  -0.025451   0.478735
    13  H   -0.045834   0.402737   0.003570  -0.004726  -0.023834  -0.026039
    14  O   -0.018864   0.016706   0.000031   0.000019   0.000057  -0.000220
    15  H   -0.000117   0.000054   0.000001   0.000002   0.000000   0.000003
              13         14         15
     1  C   -0.000868  -0.281898   0.086368
     2  H   -0.000000   0.000004  -0.000188
     3  C   -0.010563   0.556624  -0.031079
     4  C    0.010876  -0.327796  -0.039616
     5  O    0.001367  -0.012238  -0.000173
     6  O   -0.010282  -0.006671   0.000584
     7  C   -0.045834  -0.018864  -0.000117
     8  C    0.402737   0.016706   0.000054
     9  H    0.003570   0.000031   0.000001
    10  H   -0.004726   0.000019   0.000002
    11  H   -0.023834   0.000057   0.000000
    12  H   -0.026039  -0.000220   0.000003
    13  H    0.468197  -0.000258   0.000024
    14  O   -0.000258   8.382020   0.139987
    15  H    0.000024   0.139987   0.437620
          Atomic-Atomic Spin Densities.
               1          2          3          4          5          6
     1  C    0.409340  -0.002621   0.042908   0.120996   0.008856  -0.001075
     2  H   -0.002621  -0.011187   0.001517  -0.001274  -0.000001   0.000007
     3  C    0.042908   0.001517  -0.298750   0.130041   0.010353   0.001408
     4  C    0.120996  -0.001274   0.130041  -0.304601  -0.017500   0.002336
     5  O    0.008856  -0.000001   0.010353  -0.017500  -0.013317   0.000306
     6  O   -0.001075   0.000007   0.001408   0.002336   0.000306  -0.002754
     7  C   -0.014024  -0.000018  -0.014526   0.021433  -0.000334  -0.000996
     8  C    0.008956   0.000012   0.011063  -0.011980   0.000607  -0.000188
     9  H    0.000095   0.000000   0.000199  -0.000275  -0.000001   0.000100
    10  H    0.000028  -0.000000  -0.000209   0.000184  -0.000088  -0.000017
    11  H   -0.000038   0.000000  -0.000191   0.000207  -0.000002  -0.000024
    12  H   -0.000004  -0.000000  -0.000235   0.000337  -0.000017  -0.000067
    13  H   -0.000193  -0.000000  -0.001230   0.001892  -0.000076  -0.000188
    14  O   -0.217574  -0.000725  -0.037758   0.117540   0.001061   0.000469
    15  H    0.007278   0.000050  -0.002152  -0.003156  -0.000023   0.000147
               7          8          9         10         11         12
     1  C   -0.014024   0.008956   0.000095   0.000028  -0.000038  -0.000004
     2  H   -0.000018   0.000012   0.000000  -0.000000   0.000000  -0.000000
     3  C   -0.014526   0.011063   0.000199  -0.000209  -0.000191  -0.000235
     4  C    0.021433  -0.011980  -0.000275   0.000184   0.000207   0.000337
     5  O   -0.000334   0.000607  -0.000001  -0.000088  -0.000002  -0.000017
     6  O   -0.000996  -0.000188   0.000100  -0.000017  -0.000024  -0.000067
     7  C    0.016466  -0.012891  -0.000046   0.000191  -0.000007   0.000171
     8  C   -0.012891   0.008833  -0.000014  -0.000133   0.000168  -0.000165
     9  H   -0.000046  -0.000014  -0.000077   0.000002  -0.000000  -0.000000
    10  H    0.000191  -0.000133   0.000002  -0.000083  -0.000007  -0.000002
    11  H   -0.000007   0.000168  -0.000000  -0.000007  -0.000135  -0.000018
    12  H    0.000171  -0.000165  -0.000000  -0.000002  -0.000018   0.000009
    13  H    0.000161  -0.000327  -0.000000   0.000001  -0.000002  -0.000012
    14  O    0.003437  -0.003118   0.000007   0.000009  -0.000002  -0.000041
    15  H    0.000064   0.000041  -0.000000  -0.000000  -0.000000  -0.000001
              13         14         15
     1  C   -0.000193  -0.217574   0.007278
     2  H   -0.000000  -0.000725   0.000050
     3  C   -0.001230  -0.037758  -0.002152
     4  C    0.001892   0.117540  -0.003156
     5  O   -0.000076   0.001061  -0.000023
     6  O   -0.000188   0.000469   0.000147
     7  C    0.000161   0.003437   0.000064
     8  C   -0.000327  -0.003118   0.000041
     9  H   -0.000000   0.000007  -0.000000
    10  H    0.000001   0.000009  -0.000000
    11  H   -0.000002  -0.000002  -0.000000
    12  H   -0.000012  -0.000041  -0.000001
    13  H   -0.000024  -0.000017  -0.000002
    14  O   -0.000017   0.926318   0.002666
    15  H   -0.000002   0.002666  -0.033479
 Mulliken charges and spin densities:
               1          2
     1  C    0.232312   0.362931
     2  H    0.318998  -0.014240
     3  C   -0.363940  -0.157562
     4  C    0.051415   0.056180
     5  O   -0.342679  -0.010175
     6  O   -0.164149  -0.000535
     7  C   -0.261384  -0.000921
     8  C   -0.553246   0.000865
     9  H    0.220612  -0.000011
    10  H    0.233926  -0.000125
    11  H    0.204665  -0.000050
    12  H    0.228808  -0.000044
    13  H    0.235633  -0.000018
    14  O   -0.447503   0.792271
    15  H    0.406532  -0.028566
 Sum of Mulliken charges =  -0.00000   1.00000
 Mulliken charges and spin densities with hydrogens summed into heavy atoms:
               1          2
     1  C    0.551310   0.348690
     3  C   -0.363940  -0.157562
     4  C    0.051415   0.056180
     5  O   -0.342679  -0.010175
     6  O   -0.164149  -0.000535
     7  C    0.193154  -0.001056
     8  C    0.115860   0.000753
    14  O   -0.040971   0.763705
 APT charges:
               1
     1  C   -0.155535
     2  H    0.254345
     3  C   -0.489268
     4  C    1.448945
     5  O   -0.753124
     6  O   -0.923365
     7  C    0.499132
     8  C   -0.059932
     9  H   -0.002946
    10  H   -0.004746
    11  H    0.015466
    12  H    0.027693
    13  H    0.036634
    14  O   -0.137741
    15  H    0.244442
 Sum of APT charges =  -0.00000
 APT charges with hydrogens summed into heavy atoms:
               1
     1  C    0.098811
     3  C   -0.489268
     4  C    1.448945
     5  O   -0.753124
     6  O   -0.923365
     7  C    0.491440
     8  C    0.019861
    14  O    0.106701
 Electronic spatial extent (au):  <R**2>=           1064.8093
 Charge=             -0.0000 electrons
 Dipole moment (field-independent basis, Debye):
    X=             -0.8111    Y=             -0.1836    Z=             -0.4806  Tot=              0.9605
 Quadrupole moment (field-independent basis, Debye-Ang):
   XX=            -29.3939   YY=            -49.4241   ZZ=            -52.2862
   XY=              0.0478   XZ=             -2.0463   YZ=              5.6624
 Traceless Quadrupole moment (field-independent basis, Debye-Ang):
   XX=             14.3075   YY=             -5.7227   ZZ=             -8.5848
   XY=              0.0478   XZ=             -2.0463   YZ=              5.6624
 Octapole moment (field-independent basis, Debye-Ang**2):
  XXX=            -35.4571  YYY=              2.5524  ZZZ=             -2.1610  XYY=              0.7227
  XXY=             -1.5090  XXZ=             -5.9125  XZZ=             -0.3999  YZZ=              7.5654
  YYZ=              3.7368  XYZ=             -7.0677
 Hexadecapole moment (field-independent basis, Debye-Ang**3):
 XXXX=           -744.2709 YYYY=           -267.3880 ZZZZ=           -178.2595 XXXY=             -3.9090
 XXXZ=             19.3565 YYYX=            -18.8049 YYYZ=             11.6558 ZZZX=            -10.1957
 ZZZY=              8.4975 XXYY=           -199.9529 XXZZ=           -181.6846 YYZZ=            -73.8050
 XXYZ=             20.9968 YYXZ=            -13.9712 ZZXY=             -8.1506
 N-N= 3.623178207152D+02 E-N=-1.707464734346D+03  KE= 4.178655352494D+02
  Exact polarizability:  86.971   7.399  68.963   4.166   2.270  57.182
 Approx polarizability:  92.017   8.829  68.159   7.727  -1.534  71.570
                          Isotropic Fermi Contact Couplings
        Atom                 a.u.       MegaHertz       Gauss      10(-4) cm-1
     1  C(13)              0.03700      41.59692      14.84282      13.87524
     2  H(1)              -0.00598     -26.74557      -9.54348      -8.92136
     3  C(13)              0.00506       5.69258       2.03125       1.89884
     4  C(13)              0.01587      17.84529       6.36764       5.95255
     5  O(17)             -0.00282       1.70887       0.60977       0.57002
     6  O(17)              0.00093      -0.56454      -0.20144      -0.18831
     7  C(13)              0.00001       0.01407       0.00502       0.00469
     8  C(13)             -0.00049      -0.54714      -0.19523      -0.18251
     9  H(1)               0.00002       0.09762       0.03483       0.03256
    10  H(1)              -0.00004      -0.19752      -0.07048      -0.06589
    11  H(1)              -0.00000      -0.01208      -0.00431      -0.00403
    12  H(1)               0.00001       0.05485       0.01957       0.01829
    13  H(1)               0.00001       0.04590       0.01638       0.01531
    14  O(17)              0.12402     -75.17853     -26.82557     -25.07686
    15  H(1)              -0.01423     -63.62719     -22.70376     -21.22375
 --------------------------------------------------------
       Center         ----  Spin Dipole Couplings  ----
                      3XX-RR        3YY-RR        3ZZ-RR
 --------------------------------------------------------
     1   Atom       -0.203037      0.344930     -0.141892
     2   Atom        0.028576     -0.006081     -0.022495
     3   Atom        0.061979     -0.023300     -0.038679
     4   Atom        0.006585      0.012041     -0.018626
     5   Atom        0.029213     -0.040330      0.011117
     6   Atom        0.006319     -0.008992      0.002673
     7   Atom        0.002883     -0.000767     -0.002116
     8   Atom        0.003366     -0.001570     -0.001796
     9   Atom        0.001286     -0.000492     -0.000793
    10   Atom        0.001157      0.000133     -0.001290
    11   Atom        0.001752     -0.000814     -0.000938
    12   Atom        0.004450     -0.002245     -0.002205
    13   Atom        0.003832     -0.001945     -0.001887
    14   Atom       -0.853275      2.175845     -1.322569
    15   Atom        0.006558     -0.051027      0.044470
 --------------------------------------------------------
                        XY            XZ            YZ
 --------------------------------------------------------
     1   Atom       -0.023360     -0.018418      0.038737
     2   Atom        0.006505      0.014993      0.003638
     3   Atom       -0.003766      0.026773      0.006366
     4   Atom       -0.018676      0.005137     -0.001331
     5   Atom       -0.045144     -0.009817     -0.022403
     6   Atom       -0.011767     -0.006671      0.005980
     7   Atom       -0.002798     -0.000395      0.000289
     8   Atom       -0.001447      0.000092      0.000058
     9   Atom       -0.001166     -0.000877      0.000492
    10   Atom       -0.001541      0.000116     -0.000077
    11   Atom       -0.000436      0.000145      0.000005
    12   Atom       -0.000068     -0.001036      0.000099
    13   Atom       -0.001396      0.001967     -0.000376
    14   Atom        1.450228      0.283835      0.681237
    15   Atom       -0.000782     -0.118597      0.036198
 --------------------------------------------------------


 ---------------------------------------------------------------------------------
              Anisotropic Spin Dipole Couplings in Principal Axis System
 ---------------------------------------------------------------------------------

       Atom             a.u.   MegaHertz   Gauss  10(-4) cm-1        Axes

              Baa    -0.2084   -27.970    -9.980    -9.330  0.9669  0.0230  0.2542
     1 C(13)  Bbb    -0.1407   -18.876    -6.735    -6.296 -0.2513 -0.0890  0.9638
              Bcc     0.3491    46.846    16.716    15.626 -0.0448  0.9958  0.0802
 
              Baa    -0.0267   -14.265    -5.090    -4.758 -0.2506 -0.0909  0.9638
     2 H(1)   Bbb    -0.0072    -3.854    -1.375    -1.286 -0.1954  0.9798  0.0416
              Bcc     0.0340    18.119     6.465     6.044  0.9482  0.1780  0.2633
 
              Baa    -0.0474    -6.366    -2.272    -2.124 -0.2372 -0.2821  0.9296
     3 C(13)  Bbb    -0.0213    -2.853    -1.018    -0.952 -0.0464  0.9591  0.2792
              Bcc     0.0687     9.220     3.290     3.075  0.9704 -0.0231  0.2406
 
              Baa    -0.0199    -2.671    -0.953    -0.891 -0.2678 -0.1167  0.9564
     4 C(13)  Bbb    -0.0087    -1.166    -0.416    -0.389  0.7050  0.6529  0.2771
              Bcc     0.0286     3.837     1.369     1.280 -0.6567  0.7484 -0.0925
 
              Baa    -0.0699     5.059     1.805     1.687  0.4204  0.8602  0.2888
     5 O(17)  Bbb     0.0185    -1.335    -0.476    -0.445 -0.1556 -0.2452  0.9569
              Bcc     0.0515    -3.723    -1.329    -1.242  0.8939 -0.4472  0.0308
 
              Baa    -0.0156     1.132     0.404     0.378  0.4368  0.8899 -0.1314
     6 O(17)  Bbb    -0.0021     0.154     0.055     0.051  0.5053 -0.1218  0.8543
              Bcc     0.0178    -1.286    -0.459    -0.429  0.7443 -0.4395 -0.5028
 
              Baa    -0.0023    -0.310    -0.111    -0.103  0.4149  0.8245 -0.3848
     7 C(13)  Bbb    -0.0021    -0.285    -0.102    -0.095  0.2439  0.3067  0.9200
              Bcc     0.0044     0.595     0.212     0.199  0.8766 -0.4756 -0.0738
 
              Baa    -0.0020    -0.268    -0.096    -0.089  0.2478  0.8941 -0.3731
     8 C(13)  Bbb    -0.0018    -0.237    -0.084    -0.079  0.0858  0.3633  0.9277
              Bcc     0.0038     0.505     0.180     0.168  0.9650 -0.2619  0.0133
 
              Baa    -0.0012    -0.618    -0.220    -0.206  0.0303 -0.5595  0.8283
     9 H(1)   Bbb    -0.0010    -0.556    -0.198    -0.185  0.5301  0.7115  0.4612
              Bcc     0.0022     1.174     0.419     0.391  0.8474 -0.4251 -0.3181
 
              Baa    -0.0013    -0.691    -0.247    -0.231 -0.0414  0.0093  0.9991
    10 H(1)   Bbb    -0.0010    -0.522    -0.186    -0.174  0.5844  0.8113  0.0167
              Bcc     0.0023     1.213     0.433     0.405  0.8104 -0.5846  0.0391
 
              Baa    -0.0010    -0.510    -0.182    -0.170 -0.1082 -0.3630  0.9255
    11 H(1)   Bbb    -0.0009    -0.467    -0.167    -0.156  0.1317  0.9175  0.3752
              Bcc     0.0018     0.977     0.349     0.326  0.9854 -0.1625  0.0514
 
              Baa    -0.0024    -1.286    -0.459    -0.429  0.1271 -0.4718  0.8725
    12 H(1)   Bbb    -0.0022    -1.173    -0.419    -0.391  0.0814  0.8816  0.4649
              Bcc     0.0046     2.459     0.877     0.820  0.9885 -0.0119 -0.1505
 
              Baa    -0.0025    -1.339    -0.478    -0.447 -0.3306 -0.2033  0.9216
    13 H(1)   Bbb    -0.0022    -1.198    -0.427    -0.400  0.1355  0.9562  0.2596
              Bcc     0.0048     2.537     0.905     0.846  0.9340 -0.2107  0.2886
 
              Baa    -1.4562   105.370    37.599    35.148 -0.4439  0.0092  0.8960
    14 O(17)  Bbb    -1.4313   103.571    36.957    34.548  0.8173 -0.4058  0.4091
              Bcc     2.8875  -208.941   -74.555   -69.695  0.3674  0.9139  0.1726
 
              Baa    -0.1049   -55.978   -19.974   -18.672  0.6630 -0.4108  0.6259
    15 H(1)   Bbb    -0.0447   -23.830    -8.503    -7.949  0.4005  0.9009  0.1670
              Bcc     0.1496    79.809    28.478    26.621 -0.6325  0.1399  0.7618
 

 ---------------------------------------------------------------------------------

 Calling FoFJK, ICntrl=    100127 FMM=F ISym2X=0 I1Cent= 0 IOpClX= 1 NMat=1 NMatS=1 NMatT=0.
 Full mass-weighted force constant matrix:
 Low frequencies --- -460.0383 -440.5675 -133.8389 -105.6073  -79.6595  -53.5316
 Low frequencies ---  -32.0505    0.0005    0.0005
 ******    5 imaginary frequencies (negative Signs) ****** 
 Diagonal vibrational polarizability:
       72.8693640      93.3050873      34.9530278
 Harmonic frequencies (cm**-1), IR intensities (KM/Mole), Raman scattering
 activities (A**4/AMU), depolarization ratios for plane and unpolarized
 incident light, reduced masses (AMU), force constants (mDyne/A),
 and normal coordinates:
                      1                      2                      3
                      A                      A                      A
 Frequencies --   -459.3344              -440.3613              -103.5359
 Red. masses --      1.4338                 3.1836                 6.5684
 Frc consts  --      0.1782                 0.3637                 0.0415
 IR Inten    --     89.6246                64.2640                10.6887
  Atom  AN      X      Y      Z        X      Y      Z        X      Y      Z
     1   6    -0.01   0.03  -0.01     0.03  -0.05   0.00     0.07  -0.02  -0.23
     2   1    -0.02   0.09   0.00     0.04  -0.10  -0.02     0.09  -0.05  -0.32
     3   6    -0.00  -0.14  -0.02     0.01   0.35   0.05     0.03   0.04  -0.10
     4   6    -0.00  -0.02  -0.01     0.00   0.04   0.00     0.01   0.06  -0.03
     5   8     0.00   0.02   0.01    -0.02  -0.02  -0.01    -0.02   0.32   0.06
     6   8     0.01  -0.01   0.00     0.00  -0.01  -0.00     0.04  -0.17  -0.06
     7   6     0.00  -0.00   0.01     0.00  -0.01   0.00     0.03  -0.12   0.00
     8   6     0.00   0.00   0.00    -0.00  -0.00   0.00     0.01  -0.05  -0.11
     9   1     0.01  -0.00   0.01     0.01  -0.01   0.00     0.06  -0.22   0.03
    10   1     0.00   0.00   0.01     0.00  -0.01   0.00     0.02  -0.05   0.11
    11   1     0.00   0.00   0.00    -0.00  -0.00   0.01     0.00  -0.04  -0.07
    12   1    -0.00   0.00   0.00    -0.00  -0.01   0.00     0.03  -0.11  -0.21
    13   1     0.00   0.00   0.01    -0.00  -0.00   0.00    -0.03   0.06  -0.14
    14   8    -0.04   0.10  -0.03    -0.07  -0.20  -0.07    -0.12  -0.04   0.37
    15   1     0.68  -0.27   0.65     0.69  -0.12   0.57    -0.29  -0.41   0.27
                      4                      5                      6
                      A                      A                      A
 Frequencies --    -51.7940               -14.7365                92.9094
 Red. masses --      4.3019                 2.5244                 3.2720
 Frc consts  --      0.0068                 0.0003                 0.0166
 IR Inten    --      4.6187                 0.3683                 6.8019
  Atom  AN      X      Y      Z        X      Y      Z        X      Y      Z
     1   6    -0.02   0.14  -0.02    -0.00  -0.02   0.03    -0.09  -0.05   0.27
     2   1    -0.03   0.26  -0.02    -0.01  -0.02   0.04    -0.17  -0.11   0.58
     3   6    -0.00  -0.01  -0.02    -0.00  -0.02   0.02     0.01   0.02  -0.14
     4   6    -0.01  -0.09  -0.02     0.02   0.02  -0.02     0.01   0.03  -0.16
     5   8    -0.02  -0.02   0.01     0.09   0.16   0.01    -0.08   0.07  -0.11
     6   8    -0.01  -0.18  -0.03    -0.03  -0.06  -0.07     0.09  -0.02  -0.10
     7   6    -0.00   0.06   0.04    -0.02   0.03  -0.11     0.07  -0.03   0.09
     8   6    -0.24   0.20  -0.04    -0.10  -0.10   0.19    -0.00  -0.00   0.08
     9   1     0.07   0.05   0.08    -0.04   0.31  -0.16     0.19  -0.10   0.15
    10   1     0.11   0.14   0.13     0.08  -0.11  -0.33    -0.03   0.00   0.16
    11   1    -0.25   0.37   0.06    -0.07  -0.00   0.01    -0.05  -0.09   0.39
    12   1    -0.32   0.10  -0.14    -0.30   0.05   0.48     0.25  -0.05  -0.07
    13   1    -0.35   0.23  -0.09     0.04  -0.45   0.30    -0.26   0.14  -0.06
    14   8     0.27  -0.09   0.06     0.04  -0.03  -0.04    -0.00  -0.00   0.03
    15   1     0.30   0.07   0.06     0.05   0.06  -0.05    -0.05  -0.09  -0.00
                      7                      8                      9
                      A                      A                      A
 Frequencies --    148.9353               175.8450               210.9230
 Red. masses --      5.3180                 1.3248                 4.8456
 Frc consts  --      0.0695                 0.0241                 0.1270
 IR Inten    --      0.3650                 1.1828                 0.5975
  Atom  AN      X      Y      Z        X      Y      Z        X      Y      Z
     1   6    -0.08  -0.22  -0.07     0.03   0.01  -0.03     0.11  -0.33  -0.02
     2   1    -0.07  -0.34  -0.09     0.05   0.02  -0.11     0.14  -0.70  -0.06
     3   6    -0.11  -0.11  -0.04     0.01  -0.00   0.07     0.02   0.16   0.03
     4   6    -0.09   0.07   0.00     0.01  -0.00   0.02    -0.01   0.06   0.01
     5   8    -0.08   0.14   0.02     0.09  -0.00  -0.00    -0.04  -0.09  -0.03
     6   8    -0.09   0.21   0.03    -0.03   0.00  -0.02    -0.01  -0.06  -0.02
     7   6    -0.09   0.05  -0.01    -0.03  -0.00  -0.03    -0.02  -0.05  -0.00
     8   6     0.13  -0.03  -0.02    -0.05  -0.02   0.03    -0.14  -0.00  -0.01
     9   1    -0.14  -0.02  -0.02    -0.02   0.02  -0.02     0.01  -0.05   0.01
    10   1    -0.19   0.03  -0.01    -0.04  -0.02  -0.04    -0.01  -0.04   0.02
    11   1     0.10  -0.30   0.10    -0.13  -0.26   0.56    -0.13   0.15  -0.03
    12   1     0.41  -0.00  -0.08     0.44  -0.04  -0.18    -0.28  -0.04  -0.00
    13   1     0.05   0.12  -0.08    -0.49   0.20  -0.21    -0.14  -0.06   0.00
    14   8     0.31  -0.13   0.05    -0.02   0.01  -0.01     0.10   0.32   0.05
    15   1     0.41   0.05   0.12    -0.00   0.05  -0.01     0.11   0.13   0.09
                     10                     11                     12
                      A                      A                      A
 Frequencies --    306.1211               416.2672               517.9887
 Red. masses --      2.8649                 3.4549                 1.4280
 Frc consts  --      0.1582                 0.3527                 0.2257
 IR Inten    --     13.3678                11.1053                77.8217
  Atom  AN      X      Y      Z        X      Y      Z        X      Y      Z
     1   6    -0.01   0.01  -0.03     0.09   0.04   0.04    -0.04  -0.01  -0.03
     2   1     0.01   0.02  -0.10     0.05   0.08   0.15    -0.03  -0.00  -0.09
     3   6    -0.03  -0.02   0.07     0.12  -0.04  -0.10    -0.06  -0.05   0.06
     4   6     0.00   0.04  -0.05     0.07   0.07   0.05     0.01   0.02  -0.02
     5   8     0.20   0.02  -0.12    -0.07  -0.00   0.07    -0.03   0.01  -0.01
     6   8    -0.03   0.10  -0.07     0.05   0.22   0.08     0.07   0.02   0.01
     7   6    -0.08  -0.11   0.20     0.02  -0.13  -0.08     0.10  -0.04  -0.03
     8   6    -0.07  -0.02   0.01    -0.20  -0.10  -0.06    -0.01  -0.01  -0.02
     9   1     0.09  -0.40   0.32    -0.03  -0.13  -0.10     0.06  -0.01  -0.05
    10   1    -0.36   0.00   0.44    -0.07  -0.17  -0.10     0.11  -0.06  -0.06
    11   1    -0.03   0.15  -0.25    -0.21   0.25   0.10    -0.02   0.14   0.07
    12   1    -0.34  -0.11  -0.01    -0.41  -0.19  -0.12    -0.10  -0.06  -0.04
    13   1     0.14  -0.00   0.11    -0.41  -0.20  -0.15    -0.12  -0.07  -0.06
    14   8     0.00  -0.03   0.00     0.01  -0.05  -0.01    -0.04  -0.02   0.03
    15   1     0.03   0.10   0.01    -0.06  -0.36  -0.03     0.19   0.91   0.09
                     13                     14                     15
                      A                      A                      A
 Frequencies --    590.6081               620.8748               682.3498
 Red. masses --      2.7873                 4.0045                 1.5415
 Frc consts  --      0.5728                 0.9095                 0.4229
 IR Inten    --     28.7385                11.8017                13.2107
  Atom  AN      X      Y      Z        X      Y      Z        X      Y      Z
     1   6     0.20  -0.00   0.05     0.10  -0.01   0.04    -0.01  -0.15   0.02
     2   1     0.16   0.15   0.18     0.24   0.28  -0.53    -0.05   0.96  -0.15
     3   6     0.20  -0.04  -0.06     0.00  -0.08   0.37    -0.01   0.06  -0.02
     4   6     0.03  -0.06  -0.02     0.03   0.06  -0.09    -0.02  -0.12  -0.03
     5   8    -0.09   0.01   0.04    -0.22   0.02  -0.03     0.02   0.03   0.01
     6   8    -0.08   0.00  -0.08     0.03   0.03  -0.15     0.01   0.03   0.02
     7   6    -0.16   0.05   0.02     0.06  -0.00  -0.01     0.01  -0.01   0.00
     8   6    -0.01  -0.00   0.01     0.01   0.01   0.01    -0.00  -0.00  -0.00
     9   1    -0.04  -0.08   0.10     0.17  -0.09   0.05    -0.01   0.00  -0.01
    10   1    -0.26   0.10   0.13    -0.08   0.03   0.07     0.01  -0.01  -0.01
    11   1    -0.00  -0.24  -0.13     0.01   0.05   0.03    -0.00   0.04   0.01
    12   1     0.12   0.07   0.06    -0.02   0.02   0.04    -0.03  -0.02  -0.02
    13   1     0.15   0.05   0.07    -0.01  -0.05   0.01    -0.02  -0.01  -0.01
    14   8    -0.04  -0.02   0.02     0.02  -0.01  -0.03     0.00   0.03   0.00
    15   1     0.13   0.71   0.06    -0.12  -0.51  -0.08    -0.02   0.00  -0.02
                     16                     17                     18
                      A                      A                      A
 Frequencies --    723.8328               759.7260               817.6753
 Red. masses --      4.5128                 1.3633                 1.2809
 Frc consts  --      1.3931                 0.4636                 0.5046
 IR Inten    --     86.7233                50.9411                 7.4124
  Atom  AN      X      Y      Z        X      Y      Z        X      Y      Z
     1   6    -0.00  -0.09   0.01     0.04  -0.02  -0.14     0.04   0.01   0.01
     2   1    -0.07   0.80   0.01    -0.26   0.15   0.93     0.04  -0.01   0.03
     3   6     0.01  -0.09  -0.08    -0.02  -0.00   0.09     0.03  -0.01   0.03
     4   6     0.03   0.48   0.13     0.00  -0.00  -0.01    -0.03  -0.00  -0.05
     5   8     0.00  -0.11  -0.05    -0.01   0.00   0.00    -0.01   0.02  -0.06
     6   8    -0.01  -0.13  -0.01     0.00   0.01  -0.01     0.01  -0.00   0.05
     7   6    -0.04   0.01   0.01     0.01  -0.00  -0.00    -0.04  -0.03   0.08
     8   6    -0.00   0.01   0.01     0.01   0.00   0.00    -0.02  -0.02   0.03
     9   1    -0.04   0.08  -0.00     0.02  -0.02   0.00    -0.11   0.52  -0.04
    10   1     0.06  -0.00  -0.03    -0.01   0.00   0.01     0.15  -0.30  -0.39
    11   1    -0.00  -0.10  -0.04     0.00   0.02   0.02     0.01   0.02  -0.19
    12   1     0.07   0.03   0.01    -0.01   0.00   0.01    -0.04  -0.28  -0.33
    13   1     0.07   0.06   0.04    -0.01  -0.01  -0.00     0.12   0.43   0.02
    14   8     0.00  -0.05   0.01     0.00   0.00  -0.00    -0.00  -0.00  -0.00
    15   1     0.03   0.06   0.01    -0.02  -0.06  -0.01    -0.00  -0.00  -0.00
                     19                     20                     21
                      A                      A                      A
 Frequencies --    897.7715               944.3612              1108.8198
 Red. masses --      3.3493                 2.5110                 4.1913
 Frc consts  --      1.5905                 1.3194                 3.0361
 IR Inten    --     21.6360                 6.0232                11.4068
  Atom  AN      X      Y      Z        X      Y      Z        X      Y      Z
     1   6     0.08   0.01   0.01     0.09   0.01   0.03     0.07   0.01   0.02
     2   1     0.09   0.01   0.02     0.10   0.01   0.03     0.07   0.01   0.04
     3   6     0.04  -0.02   0.07     0.06  -0.02  -0.01     0.04  -0.01  -0.03
     4   6    -0.09   0.02  -0.12    -0.14   0.01  -0.01    -0.16   0.01   0.05
     5   8     0.00   0.06  -0.18     0.01   0.02  -0.08     0.02  -0.00  -0.01
     6   8     0.09  -0.05   0.25    -0.15  -0.03   0.05    -0.18   0.02  -0.05
     7   6    -0.08   0.07  -0.01     0.05  -0.11  -0.03     0.28   0.20   0.16
     8   6    -0.07  -0.03  -0.09     0.16   0.11   0.06    -0.04  -0.21  -0.12
     9   1    -0.28  -0.18  -0.06    -0.24  -0.21  -0.15     0.28   0.31   0.15
    10   1     0.20   0.29   0.24    -0.02  -0.14  -0.06     0.38   0.26   0.19
    11   1    -0.10  -0.39   0.00     0.14   0.67   0.39    -0.04  -0.11  -0.04
    12   1     0.14   0.28   0.29    -0.18   0.03   0.07    -0.12  -0.26  -0.13
    13   1    -0.04  -0.41  -0.02    -0.22  -0.10  -0.09    -0.14  -0.34  -0.16
    14   8     0.00  -0.01  -0.00    -0.00  -0.01   0.00    -0.00  -0.01   0.00
    15   1    -0.01  -0.02  -0.01     0.00   0.01  -0.00     0.00   0.00   0.00
                     22                     23                     24
                      A                      A                      A
 Frequencies --   1158.7947              1228.6789              1325.8424
 Red. masses --      2.0766                 1.7512                 1.9402
 Frc consts  --      1.6429                 1.5577                 2.0094
 IR Inten    --     18.0569                 5.6567               302.1027
  Atom  AN      X      Y      Z        X      Y      Z        X      Y      Z
     1   6    -0.02  -0.00  -0.01    -0.02  -0.00  -0.01    -0.04  -0.00  -0.01
     2   1    -0.03  -0.00  -0.01    -0.02  -0.00  -0.01    -0.05  -0.01  -0.02
     3   6    -0.01   0.00   0.01    -0.01   0.00  -0.00    -0.01   0.00   0.00
     4   6     0.06   0.00  -0.01     0.07  -0.00  -0.01     0.21   0.00  -0.07
     5   8    -0.00  -0.00   0.00    -0.01  -0.01   0.03    -0.03   0.00  -0.01
     6   8     0.08  -0.05   0.01     0.00   0.02  -0.07    -0.11  -0.00   0.03
     7   6    -0.14   0.17   0.02    -0.05  -0.05   0.17     0.07   0.03   0.02
     8   6     0.11  -0.13  -0.02     0.03   0.04  -0.12    -0.02  -0.03   0.06
     9   1    -0.13   0.03   0.06    -0.41   0.32  -0.04    -0.68  -0.31  -0.27
    10   1    -0.31   0.13   0.00     0.31  -0.23  -0.19     0.29   0.21   0.21
    11   1     0.09   0.52   0.21    -0.03  -0.04   0.27     0.00   0.01  -0.11
    12   1    -0.37  -0.35  -0.16    -0.01   0.30   0.28     0.01  -0.18  -0.15
    13   1    -0.32  -0.13  -0.22    -0.09  -0.45  -0.11     0.04   0.18   0.06
    14   8    -0.00   0.00  -0.00    -0.00   0.00   0.00    -0.00   0.01   0.00
    15   1    -0.00  -0.00  -0.00    -0.00   0.00  -0.00     0.00   0.01  -0.00
                     25                     26                     27
                      A                      A                      A
 Frequencies --   1369.7335              1442.0097              1458.0427
 Red. masses --      1.7816                 1.3874                 1.2565
 Frc consts  --      1.9694                 1.6997                 1.5738
 IR Inten    --    275.4664                35.0577                19.5742
  Atom  AN      X      Y      Z        X      Y      Z        X      Y      Z
     1   6     0.03   0.00   0.01    -0.02  -0.00  -0.00     0.00   0.00   0.00
     2   1     0.03   0.00   0.02    -0.02  -0.00  -0.01     0.00   0.00   0.00
     3   6     0.00  -0.00  -0.00    -0.00   0.00   0.00     0.00  -0.00  -0.00
     4   6    -0.15  -0.01   0.06     0.09  -0.00  -0.02    -0.02  -0.00   0.01
     5   8     0.02  -0.01   0.03    -0.01   0.01  -0.02     0.00  -0.00   0.00
     6   8     0.10   0.04  -0.10    -0.06   0.01   0.04     0.02  -0.00  -0.01
     7   6    -0.08  -0.02  -0.02    -0.08  -0.07  -0.04     0.03   0.03   0.02
     8   6     0.01  -0.03   0.05     0.03  -0.05  -0.02    -0.07  -0.11  -0.06
     9   1    -0.37  -0.18  -0.14     0.52   0.35   0.18    -0.15  -0.12  -0.04
    10   1     0.74   0.31   0.22     0.47   0.28   0.29    -0.14  -0.09  -0.11
    11   1     0.02   0.07  -0.03     0.02   0.24   0.12    -0.05   0.51   0.19
    12   1    -0.05  -0.11  -0.05    -0.01   0.10   0.18     0.34   0.30   0.34
    13   1    -0.00   0.18   0.02     0.02   0.19  -0.04     0.34   0.41   0.08
    14   8     0.00  -0.00  -0.00    -0.00   0.00   0.00     0.00  -0.00  -0.00
    15   1    -0.00  -0.01   0.00     0.00   0.00  -0.00    -0.00   0.00   0.00
                     28                     29                     30
                      A                      A                      A
 Frequencies --   1526.3169              1536.8633              1544.9169
 Red. masses --      1.0413                 1.0554                 1.0893
 Frc consts  --      1.4293                 1.4688                 1.5318
 IR Inten    --     15.1370                 2.5638                27.8247
  Atom  AN      X      Y      Z        X      Y      Z        X      Y      Z
     1   6     0.00   0.00   0.00     0.00   0.00   0.00     0.00   0.00   0.00
     2   1     0.00   0.00   0.00     0.00   0.00   0.00     0.00   0.00   0.00
     3   6     0.00  -0.00  -0.00    -0.00   0.00  -0.00    -0.00  -0.00  -0.00
     4   6     0.00  -0.00   0.00    -0.01   0.00  -0.00    -0.02   0.00  -0.00
     5   8    -0.00   0.00  -0.00     0.00  -0.00   0.01     0.00  -0.00   0.01
     6   8    -0.00  -0.00   0.00     0.02  -0.00  -0.00     0.02  -0.00  -0.01
     7   6     0.01   0.02  -0.01     0.01  -0.04  -0.02     0.05  -0.05  -0.01
     8   6     0.02   0.01  -0.05    -0.03   0.02  -0.01     0.03  -0.02  -0.00
     9   1     0.01  -0.11  -0.00    -0.13   0.39  -0.13    -0.26   0.44  -0.21
    10   1     0.01  -0.00  -0.04    -0.21   0.19   0.34    -0.37   0.15   0.37
    11   1    -0.08  -0.35   0.57    -0.05   0.17   0.28     0.03  -0.16  -0.15
    12   1    -0.55  -0.09   0.05     0.21  -0.17  -0.35    -0.21   0.14   0.30
    13   1     0.36   0.26   0.11     0.38  -0.34   0.23    -0.24   0.31  -0.17
    14   8    -0.00   0.00   0.00     0.00  -0.00   0.00    -0.00  -0.00  -0.00
    15   1    -0.00   0.00  -0.00    -0.00  -0.00  -0.00     0.00  -0.00   0.00
                     31                     32                     33
                      A                      A                      A
 Frequencies --   1912.4426              2215.5660              3108.2167
 Red. masses --     12.2253                 6.0112                 1.0350
 Frc consts  --     26.3443                17.3853                 5.8915
 IR Inten    --    322.3383                90.2952                11.9388
  Atom  AN      X      Y      Z        X      Y      Z        X      Y      Z
     1   6    -0.08  -0.01  -0.02    -0.37  -0.05  -0.10    -0.00  -0.00  -0.00
     2   1    -0.13  -0.02  -0.01    -0.71  -0.09  -0.19    -0.00   0.00  -0.00
     3   6     0.07   0.00   0.00     0.52   0.01   0.13    -0.00   0.00   0.00
     4   6     0.18  -0.23   0.74    -0.10   0.03  -0.05     0.00   0.00  -0.00
     5   8    -0.15   0.15  -0.48     0.01  -0.01   0.02     0.00   0.00   0.00
     6   8     0.04   0.02  -0.07    -0.00  -0.00   0.00    -0.00  -0.00   0.00
     7   6     0.02  -0.01   0.01     0.00   0.00  -0.00     0.00   0.00   0.00
     8   6    -0.01   0.01  -0.00    -0.00  -0.00  -0.00    -0.02  -0.04  -0.02
     9   1    -0.15   0.07  -0.08     0.01  -0.00  -0.00     0.00  -0.00  -0.00
    10   1    -0.13  -0.02   0.08     0.00  -0.00  -0.00     0.00  -0.01   0.01
    11   1    -0.00  -0.03  -0.05     0.00   0.00   0.00     0.63  -0.04   0.08
    12   1     0.03   0.01  -0.01     0.00  -0.00  -0.00    -0.13   0.44  -0.33
    13   1    -0.03  -0.05   0.00     0.00   0.00   0.00    -0.23   0.05   0.47
    14   8    -0.00   0.01  -0.00     0.00   0.02   0.00     0.00  -0.00  -0.00
    15   1     0.02  -0.00   0.02    -0.00   0.01  -0.00    -0.00  -0.00   0.00
                     34                     35                     36
                      A                      A                      A
 Frequencies --   3138.6325              3189.4368              3190.6328
 Red. masses --      1.0601                 1.1030                 1.0999
 Frc consts  --      6.1531                 6.6108                 6.5973
 IR Inten    --     21.3707                 2.4738                17.6536
  Atom  AN      X      Y      Z        X      Y      Z        X      Y      Z
     1   6    -0.00   0.00  -0.00    -0.00   0.00   0.00     0.00   0.00   0.00
     2   1     0.00   0.00   0.00     0.00  -0.00   0.00     0.00   0.00   0.00
     3   6     0.00  -0.00  -0.00     0.00   0.00   0.00    -0.00  -0.00  -0.00
     4   6    -0.00  -0.00   0.00    -0.00  -0.00   0.00     0.00   0.00  -0.00
     5   8    -0.00   0.00  -0.00     0.00  -0.00   0.00     0.00  -0.00   0.00
     6   8     0.00   0.00  -0.00     0.00   0.00  -0.00     0.00  -0.00   0.00
     7   6     0.03  -0.06  -0.00     0.02   0.02  -0.06    -0.00   0.01  -0.02
     8   6    -0.01   0.01  -0.00     0.01  -0.03   0.06    -0.08   0.03   0.01
     9   1    -0.23   0.06   0.50    -0.25   0.08   0.54    -0.04   0.01   0.08
    10   1    -0.13   0.65  -0.48     0.06  -0.28   0.19     0.04  -0.18   0.12
    11   1     0.11  -0.01   0.01    -0.15  -0.00  -0.01     0.73  -0.03   0.10
    12   1     0.01  -0.05   0.04    -0.12   0.44  -0.31     0.07  -0.31   0.23
    13   1     0.01  -0.00  -0.03     0.19  -0.05  -0.37     0.19  -0.04  -0.44
    14   8     0.00  -0.00  -0.00     0.00  -0.00   0.00    -0.00   0.00   0.00
    15   1     0.00   0.00   0.00    -0.00  -0.00   0.00     0.00   0.00  -0.00
                     37                     38                     39
                      A                      A                      A
 Frequencies --   3211.9086              3520.6731              3827.8381
 Red. masses --      1.1054                 1.1606                 1.0673
 Frc consts  --      6.7187                 8.4760                 9.2137
 IR Inten    --     17.0908                61.8236                17.3234
  Atom  AN      X      Y      Z        X      Y      Z        X      Y      Z
     1   6    -0.00   0.00  -0.00    -0.11  -0.01  -0.03    -0.00   0.00  -0.00
     2   1     0.00  -0.00   0.00     0.96   0.07   0.26     0.00   0.00   0.00
     3   6     0.00  -0.00   0.00     0.03   0.00   0.01     0.00   0.00   0.00
     4   6    -0.00   0.00  -0.00    -0.00   0.00  -0.00     0.00   0.00  -0.00
     5   8     0.00  -0.00   0.00     0.00  -0.00  -0.00    -0.00   0.00  -0.00
     6   8    -0.00   0.00  -0.00     0.00   0.00  -0.00    -0.00  -0.00   0.00
     7   6     0.01   0.02  -0.06    -0.00  -0.00   0.00     0.00   0.00   0.00
     8   6     0.02   0.02  -0.06     0.00  -0.00   0.00    -0.00   0.00  -0.00
     9   1    -0.23   0.08   0.51     0.00  -0.00  -0.00    -0.00   0.00   0.00
    10   1     0.06  -0.32   0.21     0.00   0.00   0.00     0.00  -0.00   0.00
    11   1    -0.06   0.01  -0.02     0.00   0.00   0.00     0.00  -0.00   0.00
    12   1     0.10  -0.36   0.25    -0.00   0.00  -0.00    -0.00  -0.00   0.00
    13   1    -0.24   0.07   0.50    -0.00  -0.00   0.00     0.00   0.00  -0.00
    14   8    -0.00  -0.00   0.00     0.00   0.00   0.00     0.04  -0.01  -0.05
    15   1     0.00   0.00  -0.00     0.00  -0.00  -0.00    -0.65   0.12   0.75

 -------------------
 - Thermochemistry -
 -------------------
 Temperature   298.150 Kelvin.  Pressure   1.00000 Atm.
 Atom     1 has atomic number  6 and mass  12.00000
 Atom     2 has atomic number  1 and mass   1.00783
 Atom     3 has atomic number  6 and mass  12.00000
 Atom     4 has atomic number  6 and mass  12.00000
 Atom     5 has atomic number  8 and mass  15.99491
 Atom     6 has atomic number  8 and mass  15.99491
 Atom     7 has atomic number  6 and mass  12.00000
 Atom     8 has atomic number  6 and mass  12.00000
 Atom     9 has atomic number  1 and mass   1.00783
 Atom    10 has atomic number  1 and mass   1.00783
 Atom    11 has atomic number  1 and mass   1.00783
 Atom    12 has atomic number  1 and mass   1.00783
 Atom    13 has atomic number  1 and mass   1.00783
 Atom    14 has atomic number  8 and mass  15.99491
 Atom    15 has atomic number  1 and mass   1.00783
 Molecular mass:   115.03952 amu.
 Principal axes and moments of inertia in atomic units:
                           1         2         3
     Eigenvalues --   499.954371378.291291517.93973
           X            0.99994   0.01112  -0.00061
           Y           -0.01104   0.99682   0.07898
           Z            0.00148  -0.07896   0.99688
 This molecule is an asymmetric top.
 Rotational symmetry number  1.
 Warning -- assumption of classical behavior for rotation
           may cause significant error
 Rotational temperatures (Kelvin)      0.17324     0.06284     0.05706
 Rotational constants (GHZ):           3.60981     1.30940     1.18894
    5 imaginary frequencies ignored.
 Zero-point vibrational energy     292615.9 (Joules/Mol)
                                   69.93687 (Kcal/Mol)
 Warning -- explicit consideration of   8 degrees of freedom as
           vibrations may cause significant error
 Vibrational temperatures:    133.68   214.28   253.00   303.47   440.44
          (Kelvin)            598.92   745.27   849.75   893.30   981.75
                             1041.43  1093.08  1176.45  1291.69  1358.73
                             1595.34  1667.25  1767.79  1907.59  1970.74
                             2074.73  2097.80  2196.03  2211.20  2222.79
                             2751.58  3187.71  4472.03  4515.79  4588.89
                             4590.61  4621.22  5065.46  5507.41
 
 Zero-point correction=                           0.111452 (Hartree/Particle)
 Thermal correction to Energy=                    0.118643
 Thermal correction to Enthalpy=                  0.119588
 Thermal correction to Gibbs Free Energy=         0.078736
 Sum of electronic and zero-point Energies=           -419.842439
 Sum of electronic and thermal Energies=              -419.835247
 Sum of electronic and thermal Enthalpies=            -419.834303
 Sum of electronic and thermal Free Energies=         -419.875155
 
                     E (Thermal)             CV                S
                      KCal/Mol        Cal/Mol-Kelvin    Cal/Mol-Kelvin
 Total                   74.450             25.142             85.980
 Electronic               0.000              0.000              1.377
 Translational            0.889              2.981             40.136
 Rotational               0.889              2.981             28.438
 Vibrational             72.672             19.180             16.029
 Vibration     1          0.602              1.954              3.598
 Vibration     2          0.618              1.904              2.686
 Vibration     3          0.628              1.872              2.372
 Vibration     4          0.643              1.824              2.036
 Vibration     5          0.697              1.662              1.383
 Vibration     6          0.779              1.435              0.905
 Vibration     7          0.873              1.210              0.615
 Vibration     8          0.948              1.052              0.466
                       Q            Log10(Q)             Ln(Q)
 Total Bot       0.608279D-36        -36.215897        -83.390185
 Total V=0       0.111735D+16         15.048190         34.649738
 Vib (Bot)       0.171293D-49        -49.766260       -114.591049
 Vib (Bot)    1  0.221182D+01          0.344750          0.793816
 Vib (Bot)    2  0.136187D+01          0.134136          0.308860
 Vib (Bot)    3  0.114382D+01          0.058359          0.134376
 Vib (Bot)    4  0.941303D+00         -0.026271         -0.060490
 Vib (Bot)    5  0.619089D+00         -0.208247         -0.479506
 Vib (Bot)    6  0.423019D+00         -0.373641         -0.860339
 Vib (Bot)    7  0.312190D+00         -0.505581         -1.164142
 Vib (Bot)    8  0.255262D+00         -0.593013         -1.365464
 Vib (V=0)       0.314649D+02          1.497827          3.448874
 Vib (V=0)    1  0.276763D+01          0.442108          1.017992
 Vib (V=0)    2  0.195076D+01          0.290203          0.668217
 Vib (V=0)    3  0.174833D+01          0.242624          0.558661
 Vib (V=0)    4  0.156586D+01          0.194752          0.448433
 Vib (V=0)    5  0.129578D+01          0.112532          0.259116
 Vib (V=0)    6  0.115494D+01          0.062559          0.144047
 Vib (V=0)    7  0.108946D+01          0.037211          0.085682
 Vib (V=0)    8  0.106139D+01          0.025875          0.059579
 Electronic      0.200000D+01          0.301030          0.693147
 Translational   0.484981D+08          7.685724         17.697035
 Rotational      0.366107D+06          5.563609         12.810682
 ***** Axes restored to original set *****
 -------------------------------------------------------------------
 Center     Atomic                   Forces (Hartrees/Bohr)
 Number     Number              X              Y              Z
 -------------------------------------------------------------------
      1        6          -0.020334829   -0.000653767   -0.005018700
      2        1          -0.000677502   -0.000441328   -0.000283122
      3        6           0.023331336   -0.010264983    0.004181606
      4        6          -0.042732922    0.015545643   -0.030559710
      5        8           0.016989708   -0.014954972    0.045613216
      6        8           0.002758914    0.002559681   -0.014934824
      7        6           0.017582127   -0.001174958   -0.003236757
      8        6           0.000426276    0.000238557    0.000113758
      9        1           0.000399911   -0.000163800   -0.000642876
     10        1           0.000581261   -0.001167898    0.001076365
     11        1           0.001377803    0.000343694    0.000519232
     12        1          -0.000362654    0.001015493   -0.000483749
     13        1          -0.000293403    0.000744911    0.001554987
     14        8           0.012244907    0.004454778   -0.010684704
     15        1          -0.011290930    0.003918949    0.012785277
 -------------------------------------------------------------------
 Cartesian Forces:  Max     0.045613216 RMS     0.013216572

 GradGradGradGradGradGradGradGradGradGradGradGradGradGradGradGradGradGrad
 Berny optimization.
 Search for a local minimum.
 Step number   1 out of a maximum of    2
 All quantities printed in internal units (Hartrees-Bohrs-Radians)
 Second derivative matrix not updated -- analytic derivatives used.
 ITU=  0
     Eigenvalues ---   -0.09678  -0.01292  -0.00419  -0.00083  -0.00037
     Eigenvalues ---    0.00102   0.00226   0.00551   0.00875   0.01726
     Eigenvalues ---    0.01823   0.03237   0.03532   0.05443   0.06259
     Eigenvalues ---    0.06778   0.07671   0.08740   0.09301   0.10543
     Eigenvalues ---    0.12125   0.14875   0.17640   0.18247   0.20858
     Eigenvalues ---    0.24858   0.29784   0.43159   0.49983   0.64458
     Eigenvalues ---    0.73074   0.77839   0.80515   0.88727   0.94351
     Eigenvalues ---    0.96900   0.99322   1.86702   2.62737
 Eigenvalue     1 is  -9.68D-02 should be greater than     0.000000 Eigenvector:
                          Y3        Y14       Z3        Y4        Y1
   1                    0.77279  -0.59181   0.10622   0.08364  -0.07671
                          X14       Y5        Z14       X1        Z15
   1                   -0.07157  -0.05689  -0.05457   0.05440  -0.05223
 Eigenvalue     2 is  -1.29D-02 should be greater than     0.000000 Eigenvector:
                          Z15       X15       X14       Z14       Y15
   1                    0.58215   0.57754  -0.38910  -0.30160  -0.22198
                          Y14       Z12       Y13       X13       Y11
   1                    0.09026   0.05601  -0.05552   0.04482  -0.04333
 Eigenvalue     3 is  -4.19D-03 should be greater than     0.000000 Eigenvector:
                          Y5        Z14       Y6        Y15       Z15
   1                    0.61831   0.35915  -0.27338  -0.26407   0.23723
                          Z2        X15       Z1        Y13       Z6
   1                   -0.19432  -0.19037  -0.17647  -0.15881  -0.12356
 Eigenvalue     4 is  -8.34D-04 should be greater than     0.000000 Eigenvector:
                          X12       X15       Z12       Y9        X14
   1                    0.34326  -0.32322  -0.30060  -0.27197  -0.24977
                          Y13       Y15       Z10       X8        Z14
   1                    0.24919  -0.22568   0.22513   0.19649   0.18633
 Eigenvalue     5 is  -3.70D-04 should be greater than     0.000000 Eigenvector:
                          Y13       Z12       Y11       Y2        X13
   1                    0.30029  -0.29677   0.27991   0.27151  -0.26719
                          X15       X14       Z10       Z13       Z14
   1                    0.25858   0.25671   0.23348  -0.18350   0.18044
 Quadratic step=5.904D-01 exceeds max=3.000D-01 adjusted using Lamda=-3.246D-03.
 Angle between NR and scaled steps=  33.82 degrees.
 Angle between quadratic step and forces=  71.33 degrees.
 Linear search not attempted -- first point.
 B after Tr=    -0.001729   -0.006859    0.003653
         Rot=    1.000000   -0.000456   -0.000244   -0.000005 Ang=  -0.06 deg.
 Variable       Old X    -DE/DX   Delta X   Delta X   Delta X     New X
                                 (Linear)    (Quad)   (Total)
    X1       -5.15211  -0.02033   0.00000  -0.05378  -0.05593  -5.20803
    Y1       -0.88281  -0.00065   0.00000  -0.01169  -0.01782  -0.90063
    Z1       -0.84574  -0.00502   0.00000  -0.02147  -0.01609  -0.86183
    X2       -7.09154  -0.00068   0.00000  -0.04094  -0.04335  -7.13489
    Y2       -1.02268  -0.00044   0.00000  -0.07003  -0.07567  -1.09835
    Z2       -1.36739  -0.00028   0.00000  -0.05056  -0.04442  -1.41181
    X3       -2.95747   0.02333   0.00000  -0.04032  -0.04217  -2.99964
    Y3       -0.55353  -0.01026   0.00000  -0.12878  -0.13542  -0.68895
    Z3       -0.27728   0.00418   0.00000   0.00187   0.00636  -0.27092
    X4       -0.31120  -0.04273   0.00000  -0.06268  -0.06419  -0.37539
    Y4       -1.02295   0.01555   0.00000   0.00105  -0.00621  -1.02916
    Z4        0.42551  -0.03056   0.00000   0.00450   0.00740   0.43291
    X5        0.31597   0.01699   0.00000   0.00153   0.00106   0.31703
    Y5       -1.68488  -0.01495   0.00000  -0.01271  -0.02188  -1.70676
    Z5        2.49762   0.04561   0.00000   0.03929   0.04124   2.53886
    X6        1.20572   0.00276   0.00000  -0.01305  -0.01552   1.19020
    Y6       -0.63857   0.00256   0.00000   0.01043   0.00499  -0.63358
    Z6       -1.53122  -0.01493   0.00000  -0.01044  -0.00795  -1.53916
    X7        3.87846   0.01758   0.00000   0.03844   0.03621   3.91467
    Y7       -0.80166  -0.00117   0.00000   0.00764   0.00177  -0.79989
    Z7       -1.01907  -0.00324   0.00000  -0.01552  -0.01450  -1.03358
    X8        4.80203   0.00043   0.00000   0.01802   0.01640   4.81843
    Y8        1.59448   0.00024   0.00000   0.01088   0.00385   1.59832
    Z8        0.24941   0.00011   0.00000   0.00227   0.00503   0.25444
    X9        4.72741   0.00040   0.00000   0.00960   0.00646   4.73388
    Y9       -1.06386  -0.00016   0.00000   0.01975   0.01559  -1.04827
    Z9       -2.87394  -0.00064   0.00000  -0.03169  -0.03130  -2.90524
   X10        4.23163   0.00058   0.00000   0.03151   0.02987   4.26150
   Y10       -2.46647  -0.00117   0.00000  -0.00236  -0.00929  -2.47576
   Z10        0.14312   0.00108   0.00000  -0.02063  -0.02131   0.12181
   X11        6.84652   0.00138   0.00000   0.02286   0.02136   6.86788
   Y11        1.49863   0.00034   0.00000   0.03476   0.02750   1.52613
   Z11        0.50874   0.00052   0.00000   0.00593   0.00763   0.51637
   X12        4.35679  -0.00036   0.00000  -0.00245  -0.00465   4.35214
   Y12        3.23633   0.00102   0.00000   0.01665   0.01066   3.24699
   Z12       -0.91417  -0.00048   0.00000   0.01279   0.01728  -0.89689
   X13        3.91795  -0.00029   0.00000   0.01451   0.01378   3.93174
   Y13        1.82301   0.00074   0.00000  -0.00845  -0.01718   1.80583
   Z13        2.09641   0.00155   0.00000   0.00761   0.01100   2.10741
   X14       -2.55140   0.01224   0.00000   0.07651   0.07485  -2.47655
   Y14        3.23065   0.00445   0.00000   0.04253   0.03545   3.26610
   Z14        0.18720  -0.01068   0.00000   0.02265   0.03049   0.21769
   X15       -3.73893  -0.01129   0.00000   0.02680   0.02580  -3.71314
   Y15        3.43959   0.00392   0.00000   0.19198   0.18365   3.62324
   Z15        1.56798   0.01279   0.00000   0.00036   0.00913   1.57712
         Item               Value     Threshold  Converged?
 Maximum Force            0.045613     0.000450     NO 
 RMS     Force            0.013217     0.000300     NO 
 Maximum Displacement     0.183651     0.001800     NO 
 RMS     Displacement     0.044540     0.001200     NO 
 Predicted change in Energy=-6.024147D-03
 GradGradGradGradGradGradGradGradGradGradGradGradGradGradGradGradGradGrad


 ----------------------------------------------------------------------

 Electric dipole moment (input orientation):
 (Debye = 10**-18 statcoulomb cm , SI units = C m)
                  (au)            (Debye)         (10**-30 SI)
   Tot        0.377885D+00      0.960489D+00      0.320384D+01
   x         -0.319078D+00     -0.811016D+00     -0.270526D+01
   y         -0.717723D-01     -0.182427D+00     -0.608511D+00
   z         -0.189302D+00     -0.481157D+00     -0.160497D+01

 Dipole polarizability, Alpha (input orientation).
 (esu units = cm**3 , SI units = C**2 m**2 J**-1)
 Alpha(0;0):
               (au)            (10**-24 esu)      (10**-40 SI)
   iso        0.710384D+02      0.105268D+02      0.117127D+02
   aniso      0.301168D+02      0.446284D+01      0.496558D+01
   xx         0.869674D+02      0.128872D+02      0.143390D+02
   yx         0.739043D+01      0.109515D+01      0.121852D+01
   yy         0.689527D+02      0.102177D+02      0.113688D+02
   zx         0.418990D+01      0.620879D+00      0.690821D+00
   zy         0.230341D+01      0.341330D+00      0.379780D+00
   zz         0.571951D+02      0.847544D+01      0.943019D+01

 ----------------------------------------------------------------------

 Dipole orientation:
     6         -1.89632397          0.15046390          4.94167538
     1         -2.45908407         -0.01933243          6.86717768
     6         -1.25935410          0.17156090          2.74125944
     6         -0.41336632          1.04592849          0.24390587
     8         -1.76303279          2.15252405         -1.19797466
     8          1.99414226          0.46122821         -0.12973831
     6          2.98226952          1.00324753         -2.61212370
     6          2.14002645         -0.99569474         -4.48251869
     1          5.02218468          0.99755456         -2.34996522
     1          2.36422925          2.88651880         -3.17633261
     1          3.00461559         -0.63444477         -6.32054365
     1          2.71335683         -2.86666522         -3.83550869
     1          0.09191554         -0.96239016         -4.70467871
     8         -1.84270007         -3.39005808          1.44696958
     1         -3.65436576         -3.45861329          1.71830925

 Electric dipole moment (dipole orientation):
 (Debye = 10**-18 statcoulomb cm , SI units = C m)
                  (au)            (Debye)         (10**-30 SI)
   Tot        0.377885D+00      0.960489D+00      0.320384D+01
   x          0.000000D+00      0.000000D+00      0.000000D+00
   y          0.000000D+00      0.000000D+00      0.000000D+00
   z          0.377885D+00      0.960489D+00      0.320384D+01

 Dipole polarizability, Alpha (dipole orientation).
 (esu units = cm**3 , SI units = C**2 m**2 J**-1)
 Alpha(0;0):
               (au)            (10**-24 esu)      (10**-40 SI)
   iso        0.710384D+02      0.105268D+02      0.117127D+02
   aniso      0.301168D+02      0.446284D+01      0.496558D+01
   xx         0.614067D+02      0.909953D+01      0.101246D+02
   yx         0.916373D+00      0.135792D+00      0.151089D+00
   yy         0.665090D+02      0.985562D+01      0.109659D+02
   zx        -0.106511D+02     -0.157833D+01     -0.175613D+01
   zy         0.558061D+01      0.826961D+00      0.920118D+00
   zz         0.851995D+02      0.126253D+02      0.140475D+02

 ----------------------------------------------------------------------
 1\1\GINC-AJ\Freq\UM062X\6-31+G\C5H7O3(2)\AAYUSH\20-Jun-2025\0\\# freq 
 6-31+g m062x\\Title Card Required\\0,2\C,-2.726378,-0.467162,-0.447546
 \H,-3.752683,-0.541177,-0.72359\C,-1.565026,-0.292915,-0.146729\C,-0.1
 64682,-0.541321,0.225169\O,0.167206,-0.8916,1.321686\O,0.638041,-0.337
 918,-0.810285\C,2.052393,-0.424221,-0.53927\C,2.541127,0.843761,0.1319
 83\H,2.50164,-0.56297,-1.520825\H,2.239282,-1.305201,0.075736\H,3.6230
 21,0.79304,0.269215\H,2.305515,1.712594,-0.483759\H,2.073292,0.964693,
 1.109372\O,-1.350143,1.709584,0.099061\H,-1.978559,1.820153,0.82974\\V
 ersion=ES64L-G16RevA.03\State=2-A\HF=-419.9538905\S2=0.770353\S2-1=0.\
 S2A=0.750167\RMSD=7.953e-09\RMSF=1.322e-02\ZeroPoint=0.1114515\Thermal
 =0.1186434\Dipole=-0.3190782,-0.0717723,-0.1893016\DipoleDeriv=-0.2347
 585,0.454102,0.066712,0.0328494,-0.081619,0.0319393,0.04816,0.1311059,
 -0.1502263,0.2694795,0.0195417,0.0077811,0.0244818,0.233798,-0.0019764
 ,-0.0019644,-0.0046313,0.2597589,-0.4990808,-0.4716385,-0.1499163,-0.0
 709938,-0.8248872,-0.15032,-0.1446251,-0.1531959,-0.1438371,2.0856913,
 -0.3068099,-0.1325495,-0.0326202,0.6658027,-0.3231337,-0.472636,-0.451
 4978,1.5953423,-0.7787488,0.1536027,-0.1680797,0.0204261,-0.4740784,0.
 2204371,0.0413541,0.3060745,-1.006546,-1.5425871,-0.0507589,0.3769701,
 -0.0819193,-0.3875538,0.045478,0.5136574,0.0868805,-0.8399539,0.899770
 2,0.0680039,-0.098096,0.0054475,0.3135413,0.0677313,0.0275617,0.009615
 7,0.2840849,-0.0877567,-0.0266948,0.0342744,-0.0498525,-0.0755703,-0.0
 858856,-0.0308437,-0.0544963,-0.0164684,-0.0100885,-0.0014845,0.032966
 1,-0.0068399,0.0731974,-0.0304305,0.0787888,-0.0553208,-0.0719465,-0.0
 07675,-0.0346747,0.0203987,0.0271015,-0.0560675,0.0334042,-0.0680769,0
 .0740172,0.0495031,-0.1472408,-0.0099451,-0.0275396,0.018391,0.0831117
 ,0.0028413,-0.0266212,-0.0114305,0.1105261,0.1094996,0.0523182,-0.0414
 028,0.0032733,-0.041194,0.0456622,-0.029848,0.0820188,0.0147727,0.0910
 734,0.0221438,0.0881416,-0.0038104,0.0555902,0.0002937,0.068384,-0.032
 0713,-0.0367613,-0.3373216,0.1984549,-0.1283295,0.1107129,0.1638063,0.
 143823,-0.1521148,0.0330102,-0.2397072,0.1897439,-0.0661609,0.1186693,
 0.0033527,0.3521227,0.0001361,0.1488241,0.0399211,0.1914587\Polar=86.9
 674108,7.3904269,68.9527269,4.1898986,2.3034068,57.1950745\Quadrupole=
 10.6376396,-4.2775606,-6.3600789,0.0415947,-1.5197594,4.2153487\PG=C01
  [X(C5H7O3)]\NImag=5\\1.42128374,0.14900155,0.06305535,0.35766115,0.04
 008159,0.14647953,-0.40441757,-0.02905444,-0.10093116,0.39358379,-0.02
 140149,-0.02501722,-0.00645322,0.02774358,0.01667448,-0.10105507,-0.00
 848739,-0.05564575,0.10133400,0.00807164,0.04419062,-1.01603400,-0.118
 99163,-0.25343648,0.01070792,-0.00673600,0.00168220,1.33163824,-0.0552
 9239,-0.00830416,-0.01148340,0.00111234,0.00480830,0.00107606,0.019183
 90,-0.03013115,-0.24907430,-0.02653868,-0.09828313,0.00084923,-0.00143
 900,0.00720466,0.30034976,-0.01637700,0.19582054,0.01713553,0.00766710
 ,0.00090656,-0.00101309,0.00046429,-0.00172332,-0.25201952,0.00515299,
 -0.04504011,0.66833341,-0.02430305,-0.00292769,-0.00627385,-0.00031188
 ,0.00477746,-0.00041015,0.04328524,-0.05085030,0.01001321,-0.06849633,
 0.26343415,-0.00147231,0.00097847,0.00632804,-0.00112767,0.00044137,0.
 00455398,-0.03276166,-0.00118002,-0.07493958,0.09928197,-0.24235004,0.
 99240426,-0.00483982,-0.00141107,0.00045348,0.00011500,-0.00011073,0.0
 0132378,-0.02135409,0.02293050,-0.05079042,-0.15479665,0.06919073,-0.2
 0651626,0.15486648,0.00290978,0.00098708,0.00037230,0.00014877,-0.0007
 1104,-0.00041809,0.01207370,0.01112433,0.01837129,0.06477988,-0.123911
 51,0.20630001,-0.07730176,0.09343294,-0.00075800,-0.00010870,0.0007854
 5,-0.00004304,-0.00043790,0.00025041,-0.03256654,0.01864092,-0.0261872
 2,-0.19621944,0.20598819,-0.69792295,0.21607223,-0.25426859,0.81991248
 ,-0.00796365,-0.00062141,-0.00250631,0.00088018,0.00030071,-0.00113264
 ,-0.05514482,0.00370460,0.03740782,-0.21306120,-0.02584375,0.13831356,
 0.02398976,-0.00476271,0.02397759,0.55019558,0.00066715,0.00082488,-0.
 00041975,-0.00000215,-0.00040010,0.00014807,0.00308546,0.00924839,0.00
 087886,-0.01726217,-0.06746616,0.03839937,-0.00965863,0.02213058,0.031
 74943,0.01274513,0.09506468,0.00073909,-0.00051749,-0.00004716,-0.0000
 7276,-0.00003821,-0.00058803,0.00568586,0.00130526,0.00299041,0.099266
 35,0.03784002,-0.23198572,0.03407583,0.03109910,-0.09779652,-0.1236433
 4,-0.07793459,0.40775286,0.00230385,0.00035309,0.00086177,-0.00030537,
 -0.00002591,0.00000698,0.00300632,-0.00382964,-0.00039056,-0.06150442,
 -0.00247894,0.02703501,-0.00010462,0.00551076,-0.01748199,-0.19962949,
 0.01203920,-0.01086913,0.48638787,0.00143530,0.00028362,0.00046437,0.0
 0005375,-0.00020413,0.00005098,-0.00024499,0.00380824,0.00091829,-0.00
 630335,0.00416433,-0.00815718,0.00251018,-0.00530786,0.00102470,0.0164
 9844,-0.06559107,0.01137822,-0.02298200,0.56598346,0.00111997,-0.00018
 026,0.00061329,-0.00000910,0.00000448,0.00022149,0.00384089,0.00168866
 ,-0.00349129,0.04198488,-0.00473296,0.00532345,0.00173698,-0.00076276,
 -0.00232217,-0.04600412,0.01057275,-0.08668857,-0.06576617,-0.03893836
 ,0.63614774,-0.00014091,0.00005147,-0.00001112,0.00009550,-0.00004751,
 -0.00001664,-0.00050991,0.00141667,0.00078251,0.00233332,-0.00091500,-
 0.00918018,0.00070595,-0.00153750,0.00269184,-0.03844702,-0.03614804,-
 0.01879628,-0.08312595,-0.02043226,-0.00725720,0.59096539,0.00019986,-
 0.00008776,0.00008643,-0.00001586,0.00000206,-0.00001374,-0.00032001,-
 0.00022376,-0.00023033,-0.00044766,-0.00049108,0.00399452,-0.00120140,
 -0.00030070,-0.00162988,-0.00022854,0.00530120,-0.00239253,-0.03242362
 ,-0.18554003,-0.04939660,-0.03004215,0.53385845,0.00005576,-0.00001811
 ,-0.00003845,0.00001195,-0.00001429,0.00000748,-0.00043374,0.00043678,
 0.00012682,0.00155280,0.00089854,0.00231852,-0.00121958,-0.00154922,-0
 .00042635,-0.00822259,-0.00534728,-0.00105787,-0.01229371,-0.04824295,
 -0.11404341,-0.01552846,-0.03608179,0.58342509,-0.00069318,0.00006458,
 -0.00025375,0.00003864,0.00001594,-0.00005098,-0.00106314,-0.00036057,
 0.00113984,-0.00434635,0.00354224,-0.00484287,0.00155670,-0.00047351,0
 .00088271,-0.03531983,0.00190916,0.03444053,-0.08715726,0.01416795,0.0
 9465988,0.00700098,-0.00210664,-0.01151597,0.11511860,-0.00000686,0.00
 002984,0.00004528,0.00000937,-0.00000690,0.00000120,0.00020422,0.00009
 779,-0.00014183,-0.00001534,-0.00050900,0.00253117,-0.00155199,0.00057
 248,-0.00037616,0.00300359,0.00091866,-0.00288695,0.01388185,-0.057834
 67,-0.02707129,0.01114315,-0.00501345,-0.02940337,-0.01340158,0.059286
 73,-0.00006461,0.00014054,-0.00002728,-0.00001201,-0.00002054,-0.00003
 260,-0.00000085,-0.00050009,0.00027778,-0.00334711,0.00069487,-0.00041
 338,0.00137205,-0.00040170,0.00075272,-0.00812051,0.00196344,0.0081006
 5,0.10934519,-0.02852626,-0.28651609,0.00460616,-0.00119335,-0.0117129
 1,-0.10977135,0.03374204,0.30311493,-0.00031370,0.00020342,-0.00010281
 ,0.00003151,0.00000800,-0.00002458,0.00004965,-0.00077670,0.00029039,0
 .00249455,0.00351411,-0.00862662,0.00066685,-0.00108676,0.00366728,-0.
 02895130,0.03101000,-0.02178268,-0.05549316,0.02798439,-0.01654358,0.0
 0424128,-0.01048352,0.00677317,0.00456918,-0.01161175,0.00741398,0.072
 89908,-0.00019121,-0.00004735,-0.00004144,-0.00000918,0.00001969,0.000
 01480,0.00005448,-0.00000180,-0.00027418,-0.00019026,-0.00019439,0.003
 56628,-0.00249953,0.00060263,-0.00103978,0.00347559,0.00184350,0.00020
 151,0.03705571,-0.23086828,0.12444908,0.00294380,-0.02349766,0.0160202
 7,-0.00131778,0.00480893,-0.00374437,-0.03758051,0.24895972,-0.0000803
 1,-0.00009432,-0.00001012,0.00002439,0.00000778,0.00000619,-0.00029179
 ,0.00058768,-0.00003405,0.00280273,-0.00011350,-0.00015416,0.00132659,
 -0.00085134,-0.00063954,-0.00695888,0.00304512,-0.00268446,-0.02532264
 ,0.12770409,-0.14234060,0.00275454,-0.01615908,0.00979298,-0.00454759,
 0.02460363,-0.01495683,0.03070810,-0.13673554,0.15098945,-0.00006199,0
 .00000530,0.00000200,0.00003583,0.00000983,0.00000918,-0.00016133,0.00
 015816,-0.00000528,0.00169677,0.00060327,-0.00123909,-0.00010590,-0.00
 045232,0.00041053,-0.00032605,-0.00286972,-0.00029361,-0.01108102,0.00
 405474,0.00031350,-0.31838952,0.01272647,-0.03418686,0.00029472,-0.000
 09079,-0.00038725,0.00015152,-0.00046349,0.00021244,0.34811542,-0.0002
 2484,-0.00000889,-0.00006028,0.00001363,-0.00001232,-0.00000683,-0.000
 00047,0.00058782,0.00031611,0.00087815,-0.00017789,-0.00275745,0.00029
 180,-0.00034821,0.00093155,-0.00576459,-0.00552534,-0.00237527,-0.0289
 8634,0.00295830,-0.00236042,0.01522874,-0.05010248,0.00142926,0.000617
 22,0.00117679,-0.00002335,0.00057984,0.00047902,0.00113214,-0.01381795
 ,0.05170790,-0.00009010,0.00000071,-0.00001476,0.00000491,0.00000171,-
 0.00000163,-0.00003313,0.00005381,0.00009938,0.00035685,-0.00004385,-0
 .00250274,0.00048413,0.00029849,0.00099709,-0.00351650,-0.00364630,-0.
 00021438,-0.01500488,0.00258680,-0.00213675,-0.03279074,0.00080915,-0.
 05215594,0.00038461,0.00061712,-0.00017415,0.00023897,0.00028027,0.000
 45504,0.03838019,0.00027137,0.05298969,-0.00012858,-0.00002285,-0.0000
 3423,-0.00003163,-0.00001434,-0.00000408,0.00021983,0.00026332,0.00001
 339,-0.00049782,-0.00071876,0.00161153,-0.00045880,0.00002704,-0.00075
 223,0.00203574,0.00084090,0.00045345,0.00117696,-0.01234308,0.00546824
 ,-0.06276745,0.04993818,-0.03392387,0.00006638,0.00084887,0.00021773,-
 0.00025163,-0.00214412,-0.00107340,-0.00633683,0.02759613,-0.01963461,
 0.06321953,-0.00011521,-0.00001324,-0.00004579,-0.00000609,-0.00000160
 ,0.00000507,0.00000253,0.00012416,0.00004220,-0.00003044,-0.00055177,0
 .00079388,-0.00020356,0.00022828,-0.00048983,0.00131970,0.00326577,0.0
 0032370,0.00674456,-0.02795662,0.01750541,0.04693868,-0.22142174,0.124
 49129,0.00022869,0.00111544,-0.00000494,-0.00197164,-0.00316394,-0.003
 57999,-0.00076300,-0.00009819,0.00004203,-0.05153351,0.24512965,0.0002
 2796,0.00002779,0.00003727,0.00000256,0.00000762,0.00000595,-0.0001438
 1,-0.00052229,-0.00002512,-0.00061541,0.00053942,-0.00030053,0.0005732
 8,0.00035085,0.00029701,0.00212041,0.00113144,0.00017609,0.00246902,-0
 .01755878,0.00965012,-0.03430397,0.12747255,-0.14215616,0.00057697,0.0
 0051085,0.00094723,-0.00169629,-0.00302069,-0.00111355,0.00044388,0.00
 237635,-0.00262102,0.03877736,-0.13583551,0.15099248,0.00006980,-0.000
 02256,-0.00002699,-0.00003299,-0.00000919,0.00000133,0.00012647,0.0000
 2847,0.00005664,-0.00121687,-0.00059060,-0.00076111,-0.00046386,-0.000
 52425,0.00046581,0.00147664,0.00124682,0.00042405,0.00470235,-0.003867
 16,-0.01311005,-0.10186164,0.01443108,0.10885762,-0.00007866,-0.002422
 81,-0.00130859,0.00001067,0.00083492,0.00047675,-0.01367640,0.00347790
 ,0.03120836,0.00349283,-0.00066432,-0.00831723,0.10706955,0.00026864,0
 .00003331,0.00003476,-0.00000447,0.00000948,-0.00000943,-0.00017561,-0
 .00060110,0.00012073,-0.00151995,0.00091609,-0.00266451,0.00092681,-0.
 00034548,0.00161308,0.00025375,0.00158424,0.00272130,0.01473837,-0.005
 76018,-0.03151177,0.01126586,-0.05241463,-0.02257130,-0.00263236,-0.00
 466369,-0.00202672,0.00052529,0.00116399,0.00035183,0.00083253,-0.0005
 7743,-0.00123997,-0.01262237,0.00340876,0.02437458,-0.01178054,0.05717
 233,-0.00011513,-0.00004313,-0.00003516,-0.00002291,0.00000538,-0.0000
 1586,0.00017898,0.00005593,0.00011801,-0.00080226,-0.00052321,-0.00150
 571,0.00086352,0.00093418,0.00071418,-0.00069949,0.00093758,0.00108527
 ,0.00754986,-0.00277187,-0.01449102,0.10716385,-0.02539666,-0.27383240
 ,-0.00103741,-0.00221347,0.00061813,-0.00038546,0.00037307,0.00067045,
 -0.00362459,0.00113878,0.00520329,0.00893861,-0.00318322,-0.01586857,-
 0.11817756,0.03084523,0.29723342,-0.00780948,-0.00648282,-0.00238169,0
 .00027301,0.00031018,-0.00027672,0.00169055,0.01012858,0.00733043,-0.0
 0255269,0.00369011,-0.00348702,0.00043893,0.00084472,0.00117033,-0.000
 46076,0.00156390,0.00122537,0.00074757,-0.00044399,-0.00039565,-0.0000
 7022,0.00006896,-0.00011394,0.00000522,0.00003520,0.00008293,-0.000079
 88,0.00000367,-0.00001899,-0.00016882,0.00009440,0.00006411,0.00018034
 ,0.00000631,-0.00011171,0.00045842,-0.00011658,0.00021257,0.22658337,-
 0.05347839,-0.02748087,-0.01573822,0.00060295,0.00000935,0.00013193,0.
 04404862,0.06470188,0.02110808,0.01273213,-0.02480925,0.00176036,-0.00
 131882,0.00166591,-0.00238075,-0.00286456,-0.00056879,0.00075963,-0.00
 002379,0.00188546,0.00056259,0.00025853,-0.00011444,0.00007472,-0.0001
 7652,0.00004118,-0.00010971,-0.00033623,-0.00007738,0.00015704,0.00009
 307,-0.00000345,-0.00002863,-0.00008650,-0.00005326,0.00004636,-0.0002
 1155,-0.00002611,-0.00015379,-0.03939081,-0.00681706,-0.00513861,-0.00
 503826,-0.00009062,0.00005373,0.00030303,-0.00000677,0.00679050,0.0028
 5437,-0.00349230,-0.00175126,-0.00122018,-0.00300941,0.00123281,0.0003
 8058,0.00315121,0.00032876,-0.00150321,0.00045653,-0.00040547,-0.00000
 293,-0.00002838,-0.00003030,0.00008719,-0.00030119,-0.00001138,0.00004
 770,0.00004194,0.00010177,-0.00002093,0.00002442,-0.00004822,0.0000620
 0,0.00010723,0.00000523,-0.00001337,-0.00009298,0.00025798,-0.00011446
 ,0.00018145,-0.26317108,0.04336323,0.29678632,0.00160998,-0.00073973,-
 0.00020041,0.00003928,-0.00050736,-0.00007345,-0.00115216,-0.00382024,
 -0.00291933,-0.00098498,-0.00016742,0.00377271,-0.00021594,-0.00015584
 ,-0.00151708,0.00072622,0.00083300,-0.00085272,0.00007636,-0.00008792,
 -0.00003847,-0.00002979,-0.00009514,0.00018744,0.00000802,-0.00002512,
 -0.00002577,-0.00002462,0.00002792,-0.00001193,0.00001359,0.00001635,-
 0.00005217,0.00008112,0.00004729,-0.00000302,-0.00007632,0.00004062,-0
 .00004257,-0.21923557,0.04015187,0.26178555,0.21916480,0.00053116,-0.0
 0132692,-0.00056878,-0.00028033,0.00005250,-0.00015411,0.00453056,-0.0
 0438866,-0.00676775,0.00259096,-0.00140301,-0.00165624,-0.00059254,0.0
 0018055,0.00078371,-0.00121595,-0.00063043,0.00051629,0.00042668,-0.00
 002057,0.00017144,-0.00012443,0.00004601,-0.00012256,-0.00007682,-0.00
 002013,0.00001015,0.00002206,-0.00002668,-0.00005555,-0.00002610,-0.00
 005563,-0.00000270,-0.00002891,-0.00001170,0.00009946,0.00007378,0.000
 10043,-0.00000480,0.02968817,-0.00835317,-0.03918476,-0.03551830,0.015
 85741,-0.00195550,-0.00020275,-0.00005116,-0.00006212,-0.00043984,-0.0
 0015014,0.00113981,0.00336331,-0.00018491,0.00334678,-0.00030650,0.001
 80594,-0.00098842,0.00014490,-0.00156582,-0.00134375,0.00002506,0.0005
 0090,0.00026673,0.00007088,0.00010217,-0.00008400,0.00004413,0.0000537
 8,-0.00005323,-0.00000592,-0.00002013,-0.00003162,-0.00002836,-0.00000
 522,0.00001319,-0.00007396,-0.00003035,-0.00006313,-0.00005094,0.00007
 179,-0.00004700,0.00007665,-0.00007548,0.25987105,-0.04955286,-0.29372
 744,-0.26000879,0.04693620,0.29327608\\0.02033483,0.00065377,0.0050187
 0,0.00067750,0.00044133,0.00028312,-0.02333134,0.01026498,-0.00418161,
 0.04273292,-0.01554564,0.03055971,-0.01698971,0.01495497,-0.04561322,-
 0.00275891,-0.00255968,0.01493482,-0.01758213,0.00117496,0.00323676,-0
 .00042628,-0.00023856,-0.00011376,-0.00039991,0.00016380,0.00064288,-0
 .00058126,0.00116790,-0.00107637,-0.00137780,-0.00034369,-0.00051923,0
 .00036265,-0.00101549,0.00048375,0.00029340,-0.00074491,-0.00155499,-0
 .01224491,-0.00445478,0.01068470,0.01129093,-0.00391895,-0.01278528\\\
 @


 SUCCESS IS NEVER CERTAIN,
 FAILURE IS NEVER FINAL.
 Job cpu time:       0 days  0 hours 19 minutes 17.7 seconds.
 Elapsed time:       0 days  0 hours  0 minutes 48.3 seconds.
 File lengths (MBytes):  RWF=     59 Int=      0 D2E=      0 Chk=      8 Scr=      1
 Normal termination of Gaussian 16 at Fri Jun 20 14:09:50 2025.
