 Entering Gaussian System, Link 0=g16
 Initial command:
 /opt/g16/l1.exe "/home/aayush/scratches/g16/Gau-76099.inp" -scrdir="/home/aayush/scratches/g16/"
 Entering Link 1 = /opt/g16/l1.exe PID=     76102.
  
 Copyright (c) 1988,1990,1992,1993,1995,1998,2003,2009,2016,
            Gaussian, Inc.  All Rights Reserved.
  
 This is part of the Gaussian(R) 16 program.  It is based on
 the Gaussian(R) 09 system (copyright 2009, Gaussian, Inc.),
 the Gaussian(R) 03 system (copyright 2003, Gaussian, Inc.),
 the Gaussian(R) 98 system (copyright 1998, Gaussian, Inc.),
 the Gaussian(R) 94 system (copyright 1995, Gaussian, Inc.),
 the Gaussian 92(TM) system (copyright 1992, Gaussian, Inc.),
 the Gaussian 90(TM) system (copyright 1990, Gaussian, Inc.),
 the Gaussian 88(TM) system (copyright 1988, Gaussian, Inc.),
 the Gaussian 86(TM) system (copyright 1986, Carnegie Mellon
 University), and the Gaussian 82(TM) system (copyright 1983,
 Carnegie Mellon University). Gaussian is a federally registered
 trademark of Gaussian, Inc.
  
 This software contains proprietary and confidential information,
 including trade secrets, belonging to Gaussian, Inc.
  
 This software is provided under written license and may be
 used, copied, transmitted, or stored only in accord with that
 written license.
  
 The following legend is applicable only to US Government
 contracts under FAR:
  
                    RESTRICTED RIGHTS LEGEND
  
 Use, reproduction and disclosure by the US Government is
 subject to restrictions as set forth in subparagraphs (a)
 and (c) of the Commercial Computer Software - Restricted
 Rights clause in FAR 52.227-19.
  
 Gaussian, Inc.
 340 Quinnipiac St., Bldg. 40, Wallingford CT 06492
  
  
 ---------------------------------------------------------------
 Warning -- This program may not be used in any manner that
 competes with the business of Gaussian, Inc. or will provide
 assistance to any competitor of Gaussian, Inc.  The licensee
 of this program is prohibited from giving any competitor of
 Gaussian, Inc. access to this program.  By using this program,
 the user acknowledges that Gaussian, Inc. is engaged in the
 business of creating and licensing software in the field of
 computational chemistry and represents and warrants to the
 licensee that it is not a competitor of Gaussian, Inc. and that
 it will not use this program in any manner prohibited above.
 ---------------------------------------------------------------
  

 Cite this work as:
 Gaussian 16, Revision A.03,
 M. J. Frisch, G. W. Trucks, H. B. Schlegel, G. E. Scuseria, 
 M. A. Robb, J. R. Cheeseman, G. Scalmani, V. Barone, 
 G. A. Petersson, H. Nakatsuji, X. Li, M. Caricato, A. V. Marenich, 
 J. Bloino, B. G. Janesko, R. Gomperts, B. Mennucci, H. P. Hratchian, 
 J. V. Ortiz, A. F. Izmaylov, J. L. Sonnenberg, D. Williams-Young, 
 F. Ding, F. Lipparini, F. Egidi, J. Goings, B. Peng, A. Petrone, 
 T. Henderson, D. Ranasinghe, V. G. Zakrzewski, J. Gao, N. Rega, 
 G. Zheng, W. Liang, M. Hada, M. Ehara, K. Toyota, R. Fukuda, 
 J. Hasegawa, M. Ishida, T. Nakajima, Y. Honda, O. Kitao, H. Nakai, 
 T. Vreven, K. Throssell, J. A. Montgomery, Jr., J. E. Peralta, 
 F. Ogliaro, M. J. Bearpark, J. J. Heyd, E. N. Brothers, K. N. Kudin, 
 V. N. Staroverov, T. A. Keith, R. Kobayashi, J. Normand, 
 K. Raghavachari, A. P. Rendell, J. C. Burant, S. S. Iyengar, 
 J. Tomasi, M. Cossi, J. M. Millam, M. Klene, C. Adamo, R. Cammi, 
 J. W. Ochterski, R. L. Martin, K. Morokuma, O. Farkas, 
 J. B. Foresman, and D. J. Fox, Gaussian, Inc., Wallingford CT, 2016.
 
 ******************************************
 Gaussian 16:  ES64L-G16RevA.03 25-Dec-2016
                20-Jun-2025 
 ******************************************
 %nprocshared=24
 Will use up to   24 processors via shared memory.
 %mem=12GB
 %chk=ethyl_propiolate_ts1.chk
 -------------------
 # freq 6-31+g m062x
 -------------------
 1/10=4,30=1,38=1/1,3;
 2/12=2,17=6,18=5,40=1/2;
 3/5=1,6=6,7=10,11=2,25=1,30=1,71=2,74=-55,140=1/1,2,3;
 4//1;
 5/5=2,38=5,98=1/2;
 8/6=4,10=90,11=11/1;
 11/6=1,8=1,9=11,15=111,16=1/1,2,10;
 10/6=1/2;
 6/7=2,8=2,9=2,10=2,28=1/1;
 7/8=1,10=1,25=1/1,2,3,16;
 1/10=4,30=1/3;
 99//99;
 -------------------
 Title Card Required
 -------------------
 Symbolic Z-matrix:
 Charge =  0 Multiplicity = 2
 C                    -2.70873  -0.49372  -0.4456 
 H                    -3.73948  -0.53594  -0.72273 
 C                    -1.55553  -0.06124  -0.11562 
 C                    -0.16722  -0.53354   0.22566 
 O                     0.16192  -0.89875   1.31778 
 O                     0.63773  -0.3416   -0.81077 
 C                     2.05331  -0.42607  -0.53997 
 C                     2.54006   0.84311   0.13154 
 H                     2.50293  -0.56385  -1.52141 
 H                     2.24143  -1.30677   0.07479 
 H                     3.62189   0.79247   0.26934 
 H                     2.304     1.71189  -0.484 
 H                     2.072     0.96443   1.10883 
 O                    -1.36404   1.56593   0.08095 
 H                    -1.97302   1.76561   0.80257 
 

 GradGradGradGradGradGradGradGradGradGradGradGradGradGradGradGradGradGrad
 Berny optimization.
 Initialization pass.
 Trust Radius=3.00D-01 FncErr=1.00D-07 GrdErr=1.00D-07 EigMax=2.50D+02 EigMin=1.00D-04
 Number of steps in this run=      2 maximum allowed number of steps=      2.
 GradGradGradGradGradGradGradGradGradGradGradGradGradGradGradGradGradGrad

                          Input orientation:                          
 ---------------------------------------------------------------------
 Center     Atomic      Atomic             Coordinates (Angstroms)
 Number     Number       Type             X           Y           Z
 ---------------------------------------------------------------------
      1          6           0       -2.708730   -0.493715   -0.445595
      2          1           0       -3.739483   -0.535939   -0.722730
      3          6           0       -1.555528   -0.061244   -0.115622
      4          6           0       -0.167215   -0.533539    0.225655
      5          8           0        0.161920   -0.898748    1.317780
      6          8           0        0.637728   -0.341604   -0.810772
      7          6           0        2.053306   -0.426074   -0.539973
      8          6           0        2.540059    0.843110    0.131535
      9          1           0        2.502927   -0.563854   -1.521409
     10          1           0        2.241426   -1.306768    0.074789
     11          1           0        3.621891    0.792473    0.269341
     12          1           0        2.304001    1.711886   -0.484001
     13          1           0        2.072001    0.964429    1.108829
     14          8           0       -1.364039    1.565925    0.080945
     15          1           0       -1.973016    1.765605    0.802565
 ---------------------------------------------------------------------
                    Distance matrix (angstroms):
                    1          2          3          4          5
     1  C    0.000000
     2  H    1.068194   0.000000
     3  C    1.275064   2.315939   0.000000
     4  C    2.628966   3.696017   1.505638   0.000000
     5  O    3.393254   4.417721   2.388657   1.197683   0.000000
     6  O    3.369759   4.382407   2.317802   1.326255   2.251119
     7  C    4.763451   5.796712   3.651966   2.351265   2.692955
     8  C    5.447014   6.485691   4.201521   3.038643   3.177545
     9  H    5.321998   6.293358   4.324339   3.191052   3.695059
    10  H    5.043402   6.082885   4.000556   2.534205   2.456797
    11  H    6.499398   7.545774   5.261435   4.014666   3.991347
    12  H    5.476643   6.452395   4.263292   3.413569   3.827576
    13  H    5.234291   6.275274   3.963616   2.835135   2.676471
    14  O    2.515463   3.272073   1.650147   2.420966   3.151654
    15  H    2.683972   3.277810   2.086802   2.979900   3.452850
                    6          7          8          9         10
     6  O    0.000000
     7  C    1.443720   0.000000
     8  C    2.431122   1.516140   0.000000
     9  H    2.008325   1.088283   2.170979   0.000000
    10  H    2.070654   1.090387   2.171262   1.779930   0.000000
    11  H    3.370164   2.144832   1.091749   2.509679   2.519989
    12  H    2.664595   2.153336   1.090587   2.508940   3.070575
    13  H    2.729053   2.156941   1.090367   3.072377   2.501256
    14  O    2.905322   4.003979   3.970768   4.696480   4.609965
    15  H    3.722791   4.776728   4.655011   5.555295   5.265990
                   11         12         13         14         15
    11  H    0.000000
    12  H    1.774733   0.000000
    13  H    1.771008   1.774718   0.000000
    14  O    5.049081   3.714160   3.636580   0.000000
    15  H    5.703884   4.466656   4.134954   0.965122   0.000000
 Stoichiometry    C5H7O3(2)
 Framework group  C1[X(C5H7O3)]
 Deg. of freedom    39
 Full point group                 C1      NOp   1
 Largest Abelian subgroup         C1      NOp   1
 Largest concise Abelian subgroup C1      NOp   1
                         Standard orientation:                         
 ---------------------------------------------------------------------
 Center     Atomic      Atomic             Coordinates (Angstroms)
 Number     Number       Type             X           Y           Z
 ---------------------------------------------------------------------
      1          6           0       -2.764064   -0.509675   -0.460899
      2          1           0       -3.794353   -0.545958   -0.740589
      3          6           0       -1.612324   -0.084625   -0.116494
      4          6           0       -0.223336   -0.563720    0.212332
      5          8           0        0.105248   -0.960829    1.293434
      6          8           0        0.582494   -0.338830   -0.816753
      7          6           0        1.997916   -0.428093   -0.546677
      8          6           0        2.480777    0.821462    0.163349
      9          1           0        2.449138   -0.535252   -1.531194
     10          1           0        2.187331   -1.326430    0.041589
     11          1           0        3.562546    0.769234    0.301052
     12          1           0        2.243453    1.707798   -0.426114
     13          1           0        2.011162    0.912249    1.143206
     14          8           0       -1.424960    1.536341    0.129163
     15          1           0       -2.035347    1.712811    0.855625
 ---------------------------------------------------------------------
 Rotational constants (GHZ):           3.8470370           1.3152528           1.2147405
 Standard basis: 6-31+G (6D, 7F)
 There are   118 symmetry adapted cartesian basis functions of A   symmetry.
 There are   118 symmetry adapted basis functions of A   symmetry.
   118 basis functions,   236 primitive gaussians,   118 cartesian basis functions
    31 alpha electrons       30 beta electrons
       nuclear repulsion energy       366.1541349315 Hartrees.
 NAtoms=   15 NActive=   15 NUniq=   15 SFac= 1.00D+00 NAtFMM=   60 NAOKFM=F Big=F
 Integral buffers will be    131072 words long.
 Raffenetti 2 integral format.
 Two-electron integral symmetry is turned on.
 One-electron integrals computed using PRISM.
 NBasis=   118 RedAO= T EigKep=  1.65D-05  NBF=   118
 NBsUse=   118 1.00D-06 EigRej= -1.00D+00 NBFU=   118
 ExpMin= 4.38D-02 ExpMax= 5.48D+03 ExpMxC= 8.25D+02 IAcc=3 IRadAn=         5 AccDes= 0.00D+00
 Harris functional with IExCor= 1009 and IRadAn=       5 diagonalized for initial guess.
 HarFok:  IExCor= 1009 AccDes= 0.00D+00 IRadAn=         5 IDoV= 1 UseB2=F ITyADJ=14
 ICtDFT=  3500011 ScaDFX=  1.000000  1.000000  1.000000  1.000000
 FoFCou: FMM=F IPFlag=           0 FMFlag=      100000 FMFlg1=           0
         NFxFlg=           0 DoJE=T BraDBF=F KetDBF=T FulRan=T
         wScrn=  0.000000 ICntrl=       500 IOpCl=  0 I1Cent=   200000004 NGrid=           0
         NMat0=    1 NMatS0=      1 NMatT0=    0 NMatD0=    1 NMtDS0=    0 NMtDT0=    0
 Petite list used in FoFCou.
 Initial guess <Sx>= 0.0000 <Sy>= 0.0000 <Sz>= 0.5000 <S**2>= 0.7500 S= 0.5000
 Requested convergence on RMS density matrix=1.00D-08 within 128 cycles.
 Requested convergence on MAX density matrix=1.00D-06.
 Requested convergence on             energy=1.00D-06.
 No special actions if energy rises.
 SCF Done:  E(UM062X) =  -419.972428846     A.U. after   19 cycles
            NFock= 19  Conv=0.29D-08     -V/T= 2.0055
 <Sx>= 0.0000 <Sy>= 0.0000 <Sz>= 0.5000 <S**2>= 0.7730 S= 0.5114
 <L.S>=  0.00000000000    
 Annihilation of the first spin contaminant:
 S**2 before annihilation     0.7730,   after     0.7503
 DoSCS=F DFT=T ScalE2(SS,OS)=  1.000000  1.000000
 Range of M.O.s used for correlation:     1   118
 NBasis=   118 NAE=    31 NBE=    30 NFC=     0 NFV=     0
 NROrb=    118 NOA=    31 NOB=    30 NVA=    87 NVB=    88

 **** Warning!!: The largest alpha MO coefficient is  0.72380563D+02


 **** Warning!!: The largest beta MO coefficient is  0.83753894D+02

 Symmetrizing basis deriv contribution to polar:
 IMax=3 JMax=2 DiffMx= 0.00D+00
 G2DrvN: will do    16 centers at a time, making    1 passes.
 Calling FoFCou, ICntrl=  3107 FMM=F I1Cent=   0 AccDes= 0.00D+00.
 End of G2Drv F.D. properties file   721 does not exist.
 End of G2Drv F.D. properties file   722 does not exist.
 End of G2Drv F.D. properties file   788 does not exist.
          IDoAtm=111111111111111
          Differentiating once with respect to electric field.
                with respect to dipole field.
          Differentiating once with respect to nuclear coordinates.
 Keep R1 and R2 ints in memory in canonical form, NReq=71861349.
          There are    48 degrees of freedom in the 1st order CPHF.  IDoFFX=6 NUNeed=     3.
     45 vectors produced by pass  0 Test12= 1.11D-14 2.08D-09 XBig12= 7.65D+01 2.26D+00.
 AX will form    45 AO Fock derivatives at one time.
     45 vectors produced by pass  1 Test12= 1.11D-14 2.08D-09 XBig12= 8.22D+00 3.96D-01.
     45 vectors produced by pass  2 Test12= 1.11D-14 2.08D-09 XBig12= 2.67D-01 8.09D-02.
     45 vectors produced by pass  3 Test12= 1.11D-14 2.08D-09 XBig12= 2.16D-03 6.74D-03.
     45 vectors produced by pass  4 Test12= 1.11D-14 2.08D-09 XBig12= 1.56D-05 4.90D-04.
     45 vectors produced by pass  5 Test12= 1.11D-14 2.08D-09 XBig12= 1.27D-07 3.70D-05.
     34 vectors produced by pass  6 Test12= 1.11D-14 2.08D-09 XBig12= 9.54D-10 3.57D-06.
     11 vectors produced by pass  7 Test12= 1.11D-14 2.08D-09 XBig12= 6.33D-12 2.40D-07.
      3 vectors produced by pass  8 Test12= 1.11D-14 2.08D-09 XBig12= 3.13D-14 1.60D-08.
 InvSVY:  IOpt=1 It=  1 EMax= 6.22D-15
 Solved reduced A of dimension   318 with    48 vectors.
 Isotropic polarizability for W=    0.000000       67.72 Bohr**3.
 End of Minotr F.D. properties file   721 does not exist.
 End of Minotr F.D. properties file   722 does not exist.
 End of Minotr F.D. properties file   788 does not exist.

 **********************************************************************

            Population analysis using the SCF density.

 **********************************************************************

 Orbital symmetries:
 Alpha Orbitals:
       Occupied  (A) (A) (A) (A) (A) (A) (A) (A) (A) (A) (A) (A)
                 (A) (A) (A) (A) (A) (A) (A) (A) (A) (A) (A) (A)
                 (A) (A) (A) (A) (A) (A) (A)
       Virtual   (A) (A) (A) (A) (A) (A) (A) (A) (A) (A) (A) (A)
                 (A) (A) (A) (A) (A) (A) (A) (A) (A) (A) (A) (A)
                 (A) (A) (A) (A) (A) (A) (A) (A) (A) (A) (A) (A)
                 (A) (A) (A) (A) (A) (A) (A) (A) (A) (A) (A) (A)
                 (A) (A) (A) (A) (A) (A) (A) (A) (A) (A) (A) (A)
                 (A) (A) (A) (A) (A) (A) (A) (A) (A) (A) (A) (A)
                 (A) (A) (A) (A) (A) (A) (A) (A) (A) (A) (A) (A)
                 (A) (A) (A)
 Beta  Orbitals:
       Occupied  (A) (A) (A) (A) (A) (A) (A) (A) (A) (A) (A) (A)
                 (A) (A) (A) (A) (A) (A) (A) (A) (A) (A) (A) (A)
                 (A) (A) (A) (A) (A) (A)
       Virtual   (A) (A) (A) (A) (A) (A) (A) (A) (A) (A) (A) (A)
                 (A) (A) (A) (A) (A) (A) (A) (A) (A) (A) (A) (A)
                 (A) (A) (A) (A) (A) (A) (A) (A) (A) (A) (A) (A)
                 (A) (A) (A) (A) (A) (A) (A) (A) (A) (A) (A) (A)
                 (A) (A) (A) (A) (A) (A) (A) (A) (A) (A) (A) (A)
                 (A) (A) (A) (A) (A) (A) (A) (A) (A) (A) (A) (A)
                 (A) (A) (A) (A) (A) (A) (A) (A) (A) (A) (A) (A)
                 (A) (A) (A) (A)
 The electronic state is 2-A.
 Alpha  occ. eigenvalues --  -19.70513 -19.67331 -19.66430 -10.72587 -10.65004
 Alpha  occ. eigenvalues --  -10.61362 -10.61064 -10.54183  -1.28090  -1.18718
 Alpha  occ. eigenvalues --   -1.13849  -0.91812  -0.88190  -0.78554  -0.71536
 Alpha  occ. eigenvalues --   -0.64746  -0.62359  -0.59790  -0.58013  -0.54656
 Alpha  occ. eigenvalues --   -0.53517  -0.49755  -0.48097  -0.46514  -0.45180
 Alpha  occ. eigenvalues --   -0.41857  -0.40813  -0.39445  -0.38113  -0.36120
 Alpha  occ. eigenvalues --   -0.31187
 Alpha virt. eigenvalues --    0.00860   0.01782   0.02060   0.02696   0.03686
 Alpha virt. eigenvalues --    0.04311   0.05631   0.06220   0.07733   0.08260
 Alpha virt. eigenvalues --    0.08804   0.08977   0.09835   0.11423   0.12106
 Alpha virt. eigenvalues --    0.13399   0.13755   0.14692   0.15411   0.15913
 Alpha virt. eigenvalues --    0.16873   0.19028   0.19693   0.20150   0.22718
 Alpha virt. eigenvalues --    0.23529   0.24453   0.24657   0.26414   0.26894
 Alpha virt. eigenvalues --    0.28176   0.29794   0.30997   0.31597   0.32438
 Alpha virt. eigenvalues --    0.33053   0.33592   0.35516   0.36628   0.36793
 Alpha virt. eigenvalues --    0.38432   0.40453   0.41317   0.41769   0.45511
 Alpha virt. eigenvalues --    0.46123   0.53366   0.57166   0.67269   0.69897
 Alpha virt. eigenvalues --    0.70572   0.71406   0.72886   0.74283   0.76253
 Alpha virt. eigenvalues --    0.79726   0.81032   0.82680   0.87077   0.89137
 Alpha virt. eigenvalues --    0.92105   0.98264   1.00450   1.06186   1.10570
 Alpha virt. eigenvalues --    1.12093   1.13393   1.16370   1.17718   1.20073
 Alpha virt. eigenvalues --    1.20647   1.24037   1.28163   1.29811   1.30354
 Alpha virt. eigenvalues --    1.36994   1.39193   1.40857   1.43573   1.45717
 Alpha virt. eigenvalues --    1.49276   1.50183   1.68128   1.69390   1.88406
 Alpha virt. eigenvalues --    1.99421   2.02885
  Beta  occ. eigenvalues --  -19.70507 -19.66841 -19.66433 -10.72517 -10.65180
  Beta  occ. eigenvalues --  -10.61360 -10.60352 -10.54184  -1.28045  -1.18699
  Beta  occ. eigenvalues --   -1.12254  -0.90669  -0.87176  -0.77930  -0.70666
  Beta  occ. eigenvalues --   -0.64543  -0.61231  -0.59246  -0.57822  -0.53976
  Beta  occ. eigenvalues --   -0.53384  -0.48983  -0.47113  -0.45564  -0.44176
  Beta  occ. eigenvalues --   -0.41684  -0.39783  -0.38894  -0.38065  -0.34680
  Beta virt. eigenvalues --   -0.08608   0.01348   0.01596   0.02312   0.02907
  Beta virt. eigenvalues --    0.03807   0.04259   0.05579   0.06029   0.07589
  Beta virt. eigenvalues --    0.08096   0.08566   0.08859   0.10036   0.11183
  Beta virt. eigenvalues --    0.12083   0.13298   0.13647   0.14306   0.15598
  Beta virt. eigenvalues --    0.15983   0.16992   0.19002   0.19951   0.20565
  Beta virt. eigenvalues --    0.23178   0.23458   0.24395   0.24802   0.26436
  Beta virt. eigenvalues --    0.26913   0.28147   0.29779   0.30993   0.31567
  Beta virt. eigenvalues --    0.32431   0.33106   0.33455   0.35376   0.36566
  Beta virt. eigenvalues --    0.36728   0.38427   0.40376   0.41230   0.41938
  Beta virt. eigenvalues --    0.45388   0.46000   0.54101   0.57161   0.68156
  Beta virt. eigenvalues --    0.70113   0.71531   0.71705   0.73991   0.75203
  Beta virt. eigenvalues --    0.76719   0.79676   0.80469   0.82612   0.87095
  Beta virt. eigenvalues --    0.89281   0.92089   0.98883   1.00807   1.06100
  Beta virt. eigenvalues --    1.10672   1.12130   1.13709   1.16569   1.18236
  Beta virt. eigenvalues --    1.20381   1.21546   1.24162   1.28228   1.30005
  Beta virt. eigenvalues --    1.30521   1.37015   1.39205   1.41358   1.43878
  Beta virt. eigenvalues --    1.45735   1.49350   1.50710   1.68124   1.69160
  Beta virt. eigenvalues --    1.88900   1.99375   2.02964
          Condensed to atoms (all electrons):
               1          2          3          4          5          6
     1  C    8.641212   0.442517  -1.395056  -1.641328  -0.133268  -0.048613
     2  H    0.442517   0.401544  -0.124779   0.001541   0.000085   0.000025
     3  C   -1.395056  -0.124779   9.078381  -1.122384  -0.028199  -0.383587
     4  C   -1.641328   0.001541  -1.122384   8.747474   0.397765  -0.080263
     5  O   -0.133268   0.000085  -0.028199   0.397765   8.432373  -0.269680
     6  O   -0.048613   0.000025  -0.383587  -0.080263  -0.269680   9.067565
     7  C    0.019778   0.000241  -0.265871   0.115794   0.022307  -0.047195
     8  C    0.027747  -0.000068   0.068426  -0.194594  -0.065414   0.032215
     9  H   -0.000945  -0.000000  -0.011534   0.022568  -0.000029  -0.070630
    10  H   -0.003857   0.000000  -0.001526   0.003433   0.001320  -0.033859
    11  H    0.000436   0.000000   0.003336  -0.000287  -0.000045   0.008425
    12  H   -0.000721   0.000000   0.000204   0.004223  -0.000437  -0.001436
    13  H   -0.000883  -0.000000  -0.008341   0.010779   0.001751  -0.010817
    14  O   -0.293942  -0.001780   0.613367  -0.303381  -0.010141   0.009505
    15  H    0.058722  -0.000158  -0.053933  -0.009077   0.000946   0.000081
               7          8          9         10         11         12
     1  C    0.019778   0.027747  -0.000945  -0.003857   0.000436  -0.000721
     2  H    0.000241  -0.000068  -0.000000   0.000000   0.000000   0.000000
     3  C   -0.265871   0.068426  -0.011534  -0.001526   0.003336   0.000204
     4  C    0.115794  -0.194594   0.022568   0.003433  -0.000287   0.004223
     5  O    0.022307  -0.065414  -0.000029   0.001320  -0.000045  -0.000437
     6  O   -0.047195   0.032215  -0.070630  -0.033859   0.008425  -0.001436
     7  C    5.920987  -0.174852   0.425455   0.417522  -0.075721  -0.050341
     8  C   -0.174852   5.782754  -0.053071  -0.075880   0.404391   0.394249
     9  H    0.425455  -0.053071   0.501503  -0.033322  -0.000710  -0.004597
    10  H    0.417522  -0.075880  -0.033322   0.492220  -0.000739   0.003712
    11  H   -0.075721   0.404391  -0.000710  -0.000739   0.505571  -0.025561
    12  H   -0.050341   0.394249  -0.004597   0.003712  -0.025561   0.476386
    13  H   -0.044684   0.400102   0.003603  -0.004742  -0.023797  -0.025857
    14  O   -0.025419   0.017564   0.000076   0.000082   0.000017  -0.000221
    15  H    0.002807  -0.001172   0.000001   0.000003   0.000000   0.000004
              13         14         15
     1  C   -0.000883  -0.293942   0.058722
     2  H   -0.000000  -0.001780  -0.000158
     3  C   -0.008341   0.613367  -0.053933
     4  C    0.010779  -0.303381  -0.009077
     5  O    0.001751  -0.010141   0.000946
     6  O   -0.010817   0.009505   0.000081
     7  C   -0.044684  -0.025419   0.002807
     8  C    0.400102   0.017564  -0.001172
     9  H    0.003603   0.000076   0.000001
    10  H   -0.004742   0.000082   0.000003
    11  H   -0.023797   0.000017   0.000000
    12  H   -0.025857  -0.000221   0.000004
    13  H    0.468803  -0.000403   0.000031
    14  O   -0.000403   8.346131   0.169319
    15  H    0.000031   0.169319   0.402436
          Atomic-Atomic Spin Densities.
               1          2          3          4          5          6
     1  C    1.364981   0.014196  -0.214643   0.075480  -0.001713  -0.007200
     2  H    0.014196  -0.024466  -0.023328  -0.001067  -0.000025  -0.000069
     3  C   -0.214643  -0.023328  -0.343430   0.194764   0.017657   0.008266
     4  C    0.075480  -0.001067   0.194764  -0.193384  -0.014357  -0.015278
     5  O   -0.001713  -0.000025   0.017657  -0.014357  -0.001705   0.000237
     6  O   -0.007200  -0.000069   0.008266  -0.015278   0.000237   0.011348
     7  C   -0.009189  -0.000054   0.012650  -0.009406  -0.001706   0.004740
     8  C    0.011675   0.000053  -0.001509  -0.002980   0.001698  -0.004928
     9  H    0.000089   0.000000   0.000204  -0.000221  -0.000019   0.000074
    10  H    0.000021  -0.000000  -0.000095   0.000014  -0.000149   0.000049
    11  H   -0.000004   0.000000  -0.000172   0.000242  -0.000003  -0.000035
    12  H   -0.000174  -0.000000  -0.000354   0.000364  -0.000005   0.000075
    13  H   -0.000007   0.000000   0.000039  -0.000073  -0.000021   0.000052
    14  O   -0.185340  -0.001769   0.034013   0.031267   0.001236   0.005360
    15  H    0.015112   0.000102  -0.002321  -0.005826  -0.000188  -0.000099
               7          8          9         10         11         12
     1  C   -0.009189   0.011675   0.000089   0.000021  -0.000004  -0.000174
     2  H   -0.000054   0.000053   0.000000  -0.000000   0.000000  -0.000000
     3  C    0.012650  -0.001509   0.000204  -0.000095  -0.000172  -0.000354
     4  C   -0.009406  -0.002980  -0.000221   0.000014   0.000242   0.000364
     5  O   -0.001706   0.001698  -0.000019  -0.000149  -0.000003  -0.000005
     6  O    0.004740  -0.004928   0.000074   0.000049  -0.000035   0.000075
     7  C    0.005089  -0.004253   0.000349   0.000597  -0.000160   0.000448
     8  C   -0.004253   0.004227  -0.000415  -0.000485   0.000248  -0.000412
     9  H    0.000349  -0.000415  -0.000092   0.000008   0.000004   0.000001
    10  H    0.000597  -0.000485   0.000008  -0.000125  -0.000002   0.000001
    11  H   -0.000160   0.000248   0.000004  -0.000002  -0.000067  -0.000040
    12  H    0.000448  -0.000412   0.000001   0.000001  -0.000040   0.000133
    13  H    0.000174  -0.000186  -0.000001   0.000005  -0.000021   0.000018
    14  O    0.002901  -0.002341  -0.000003   0.000003  -0.000003  -0.000013
    15  H   -0.000228   0.000247   0.000000  -0.000000   0.000000  -0.000001
              13         14         15
     1  C   -0.000007  -0.185340   0.015112
     2  H    0.000000  -0.001769   0.000102
     3  C    0.000039   0.034013  -0.002321
     4  C   -0.000073   0.031267  -0.005826
     5  O   -0.000021   0.001236  -0.000188
     6  O    0.000052   0.005360  -0.000099
     7  C    0.000174   0.002901  -0.000228
     8  C   -0.000186  -0.002341   0.000247
     9  H   -0.000001  -0.000003   0.000000
    10  H    0.000005   0.000003  -0.000000
    11  H   -0.000021  -0.000003   0.000000
    12  H    0.000018  -0.000013  -0.000001
    13  H    0.000092  -0.000003  -0.000001
    14  O   -0.000003   0.348081  -0.002850
    15  H   -0.000001  -0.002850  -0.008661
 Mulliken charges and spin densities:
               1          2
     1  C    0.328203   1.063283
     2  H    0.280831  -0.036426
     3  C   -0.368505  -0.318259
     4  C    0.047735   0.059540
     5  O   -0.349335   0.000938
     6  O   -0.171737   0.002592
     7  C   -0.240809   0.001952
     8  C   -0.562398   0.000638
     9  H    0.221631  -0.000022
    10  H    0.235635  -0.000156
    11  H    0.204686  -0.000014
    12  H    0.230391   0.000042
    13  H    0.234455   0.000066
    14  O   -0.520773   0.230538
    15  H    0.429990  -0.004714
 Sum of Mulliken charges =  -0.00000   1.00000
 Mulliken charges and spin densities with hydrogens summed into heavy atoms:
               1          2
     1  C    0.609034   1.026858
     3  C   -0.368505  -0.318259
     4  C    0.047735   0.059540
     5  O   -0.349335   0.000938
     6  O   -0.171737   0.002592
     7  C    0.216456   0.001774
     8  C    0.107134   0.000732
    14  O   -0.090783   0.225824
 APT charges:
               1
     1  C   -0.276331
     2  H    0.243728
     3  C    0.187996
     4  C    1.301644
     5  O   -0.742433
     6  O   -0.931630
     7  C    0.500545
     8  C   -0.058908
     9  H   -0.003721
    10  H   -0.005992
    11  H    0.015749
    12  H    0.028494
    13  H    0.036237
    14  O   -0.528225
    15  H    0.232847
 Sum of APT charges =   0.00000
 APT charges with hydrogens summed into heavy atoms:
               1
     1  C   -0.032603
     3  C    0.187996
     4  C    1.301644
     5  O   -0.742433
     6  O   -0.931630
     7  C    0.490831
     8  C    0.021572
    14  O   -0.295378
 Electronic spatial extent (au):  <R**2>=           1047.9648
 Charge=             -0.0000 electrons
 Dipole moment (field-independent basis, Debye):
    X=             -0.7996    Y=             -0.3277    Z=             -0.5161  Tot=              1.0065
 Quadrupole moment (field-independent basis, Debye-Ang):
   XX=            -29.9184   YY=            -50.6289   ZZ=            -52.0550
   XY=              0.0734   XZ=             -2.0351   YZ=              5.5129
 Traceless Quadrupole moment (field-independent basis, Debye-Ang):
   XX=             14.2823   YY=             -6.4281   ZZ=             -7.8542
   XY=              0.0734   XZ=             -2.0351   YZ=              5.5129
 Octapole moment (field-independent basis, Debye-Ang**2):
  XXX=            -30.9519  YYY=              0.6829  ZZZ=             -1.2799  XYY=              1.9429
  XXY=             -0.3523  XXZ=             -5.2951  XZZ=             -0.3362  YZZ=              7.7145
  YYZ=              2.7107  XYZ=             -6.5625
 Hexadecapole moment (field-independent basis, Debye-Ang**3):
 XXXX=           -763.3353 YYYY=           -254.7265 ZZZZ=           -176.5650 XXXY=             -8.2247
 XXXZ=             15.8947 YYYX=            -17.4525 YYYZ=              9.7686 ZZZX=            -11.2591
 ZZZY=              8.1311 XXYY=           -199.1459 XXZZ=           -181.2032 YYZZ=            -71.1918
 XXYZ=             19.7014 YYXZ=            -13.2963 ZZXY=             -8.7557
 N-N= 3.661541349315D+02 E-N=-1.714801044082D+03  KE= 4.176816844193D+02
  Exact polarizability:  83.606   6.041  62.737   3.022   1.291  56.812
 Approx polarizability:  83.301   8.897  70.713   5.380  -1.106  71.282
                          Isotropic Fermi Contact Couplings
        Atom                 a.u.       MegaHertz       Gauss      10(-4) cm-1
     1  C(13)              0.16184     181.94215      64.92148      60.68937
     2  H(1)              -0.01472     -65.78330     -23.47312     -21.94295
     3  C(13)             -0.03077     -34.59599     -12.34471     -11.53998
     4  C(13)              0.04112      46.23106      16.49639      15.42102
     5  O(17)             -0.00100       0.60750       0.21677       0.20264
     6  O(17)              0.00585      -3.54679      -1.26558      -1.18308
     7  C(13)              0.00019       0.21288       0.07596       0.07101
     8  C(13)             -0.00029      -0.32372      -0.11551      -0.10798
     9  H(1)               0.00004       0.19345       0.06903       0.06453
    10  H(1)              -0.00000      -0.00429      -0.00153      -0.00143
    11  H(1)               0.00002       0.07842       0.02798       0.02616
    12  H(1)               0.00002       0.10442       0.03726       0.03483
    13  H(1)               0.00003       0.11430       0.04079       0.03813
    14  O(17)              0.04649     -28.18227     -10.05614      -9.40059
    15  H(1)              -0.00438     -19.59620      -6.99241      -6.53659
 --------------------------------------------------------
       Center         ----  Spin Dipole Couplings  ----
                      3XX-RR        3YY-RR        3ZZ-RR
 --------------------------------------------------------
     1   Atom       -0.469599      0.818797     -0.349197
     2   Atom        0.071075     -0.018494     -0.052581
     3   Atom        0.123085     -0.023586     -0.099499
     4   Atom        0.033341     -0.010453     -0.022888
     5   Atom        0.015463     -0.013683     -0.001780
     6   Atom        0.003069     -0.005184      0.002115
     7   Atom        0.004218     -0.001784     -0.002434
     8   Atom        0.001867     -0.000792     -0.001075
     9   Atom        0.001613     -0.000956     -0.000657
    10   Atom        0.001947     -0.000742     -0.001206
    11   Atom        0.001141     -0.000524     -0.000618
    12   Atom        0.001980     -0.000792     -0.001188
    13   Atom        0.001956     -0.000961     -0.000995
    14   Atom       -0.211610      0.664429     -0.452819
    15   Atom       -0.002688     -0.011735      0.014423
 --------------------------------------------------------
                        XY            XZ            YZ
 --------------------------------------------------------
     1   Atom       -0.255657     -0.066190      0.078363
     2   Atom       -0.000069      0.035595      0.005854
     3   Atom        0.001089      0.060715      0.016169
     4   Atom       -0.012734      0.017799     -0.001524
     5   Atom       -0.049888     -0.009339     -0.006101
     6   Atom       -0.011752     -0.010978      0.010121
     7   Atom       -0.001758      0.000226     -0.000096
     8   Atom       -0.000052      0.000126      0.000180
     9   Atom       -0.000213     -0.000700      0.000093
    10   Atom       -0.000640      0.000186     -0.000186
    11   Atom        0.000182      0.000190      0.000048
    12   Atom        0.000710     -0.000262      0.000018
    13   Atom        0.000233      0.001102      0.000132
    14   Atom        0.542970      0.099266      0.212882
    15   Atom        0.001717     -0.033047      0.020001
 --------------------------------------------------------


 ---------------------------------------------------------------------------------
              Anisotropic Spin Dipole Couplings in Principal Axis System
 ---------------------------------------------------------------------------------

       Atom             a.u.   MegaHertz   Gauss  10(-4) cm-1        Axes

              Baa    -0.5327   -71.484   -25.507   -23.844  0.9482  0.1636  0.2722
     1 C(13)  Bbb    -0.3415   -45.827   -16.352   -15.286 -0.2545 -0.1209  0.9595
              Bcc     0.8742   117.311    41.860    39.131 -0.1899  0.9791  0.0730
 
              Baa    -0.0628   -33.519   -11.960   -11.181 -0.2549 -0.1270  0.9586
     2 H(1)   Bbb    -0.0178    -9.491    -3.387    -3.166 -0.0469  0.9918  0.1189
              Bcc     0.0806    43.010    15.347    14.346  0.9658  0.0146  0.2588
 
              Baa    -0.1175   -15.769    -5.627    -5.260 -0.2408 -0.1619  0.9570
     3 C(13)  Bbb    -0.0212    -2.847    -1.016    -0.950 -0.0702  0.9863  0.1492
              Bcc     0.1387    18.616     6.643     6.210  0.9680  0.0313  0.2488
 
              Baa    -0.0283    -3.801    -1.356    -1.268 -0.3001 -0.1333  0.9445
     4 C(13)  Bbb    -0.0133    -1.779    -0.635    -0.593  0.1883  0.9624  0.1957
              Bcc     0.0416     5.580     1.991     1.861  0.9351 -0.2366  0.2638
 
              Baa    -0.0532     3.851     1.374     1.285  0.5934  0.7796  0.2002
     5 O(17)  Bbb     0.0001    -0.007    -0.002    -0.002 -0.0636 -0.2025  0.9772
              Bcc     0.0531    -3.845    -1.372    -1.282  0.8024 -0.5926 -0.0706
 
              Baa    -0.0140     1.013     0.361     0.338  0.4380  0.8650 -0.2449
     6 O(17)  Bbb    -0.0083     0.601     0.215     0.201  0.6331 -0.1035  0.7671
              Bcc     0.0223    -1.614    -0.576    -0.539  0.6382 -0.4910 -0.5930
 
              Baa    -0.0024    -0.329    -0.117    -0.110  0.0141  0.1798  0.9836
     7 C(13)  Bbb    -0.0023    -0.303    -0.108    -0.101  0.2638  0.9482 -0.1771
              Bcc     0.0047     0.631     0.225     0.211  0.9645 -0.2619  0.0341
 
              Baa    -0.0012    -0.157    -0.056    -0.052 -0.0449 -0.4358  0.8989
     8 C(13)  Bbb    -0.0007    -0.095    -0.034    -0.032 -0.0030  0.8999  0.4361
              Bcc     0.0019     0.251     0.090     0.084  0.9990 -0.0169  0.0417
 
              Baa    -0.0010    -0.525    -0.187    -0.175  0.0117  0.9677 -0.2517
     9 H(1)   Bbb    -0.0008    -0.452    -0.161    -0.151  0.2847  0.2380  0.9286
              Bcc     0.0018     0.976     0.348     0.326  0.9585 -0.0825 -0.2728
 
              Baa    -0.0013    -0.679    -0.242    -0.226  0.0148  0.3474  0.9376
    10 H(1)   Bbb    -0.0008    -0.445    -0.159    -0.149  0.2322  0.9109 -0.3411
              Bcc     0.0021     1.124     0.401     0.375  0.9725 -0.2228  0.0672
 
              Baa    -0.0006    -0.344    -0.123    -0.115 -0.0752 -0.2648  0.9614
    11 H(1)   Bbb    -0.0005    -0.286    -0.102    -0.095 -0.1329  0.9582  0.2535
              Bcc     0.0012     0.631     0.225     0.210  0.9883  0.1087  0.1072
 
              Baa    -0.0012    -0.656    -0.234    -0.219  0.1354 -0.2592  0.9563
    12 H(1)   Bbb    -0.0009    -0.502    -0.179    -0.167 -0.2027  0.9375  0.2829
              Bcc     0.0022     1.158     0.413     0.386  0.9698  0.2321 -0.0744
 
              Baa    -0.0014    -0.730    -0.260    -0.243 -0.3036 -0.1313  0.9437
    13 H(1)   Bbb    -0.0010    -0.520    -0.186    -0.173 -0.1161  0.9882  0.1002
              Bcc     0.0023     1.250     0.446     0.417  0.9457  0.0791  0.3152
 
              Baa    -0.4920    35.603    12.704    11.876  0.0264 -0.1929  0.9809
    14 O(17)  Bbb    -0.4710    34.079    12.160    11.368  0.9047 -0.4128 -0.1055
              Bcc     0.9630   -69.682   -24.864   -23.243  0.4253  0.8901  0.1637
 
              Baa    -0.0367   -19.555    -6.978    -6.523  0.6083 -0.5220  0.5980
    15 H(1)   Bbb    -0.0074    -3.973    -1.418    -1.325  0.5728  0.8102  0.1246
              Bcc     0.0441    23.528     8.395     7.848 -0.5495  0.2668  0.7918
 

 ---------------------------------------------------------------------------------

 Calling FoFJK, ICntrl=    100127 FMM=F ISym2X=0 I1Cent= 0 IOpClX= 1 NMat=1 NMatS=1 NMatT=0.
 Full mass-weighted force constant matrix:
 Low frequencies --- -473.7444 -343.1754 -133.2095  -80.2251  -52.1550   -0.0007
 Low frequencies ---   -0.0007   -0.0005   44.3497
 ******    3 imaginary frequencies (negative Signs) ****** 
 Diagonal vibrational polarizability:
       28.7423138      96.0874451      50.5741712
 Harmonic frequencies (cm**-1), IR intensities (KM/Mole), Raman scattering
 activities (A**4/AMU), depolarization ratios for plane and unpolarized
 incident light, reduced masses (AMU), force constants (mDyne/A),
 and normal coordinates:
                      1                      2                      3
                      A                      A                      A
 Frequencies --   -472.7276              -343.1724               -63.9282
 Red. masses --      1.0726                 2.1781                 5.2783
 Frc consts  --      0.1412                 0.1511                 0.0127
 IR Inten    --    115.6811               131.3494                 2.9297
  Atom  AN      X      Y      Z        X      Y      Z        X      Y      Z
     1   6    -0.00  -0.00  -0.01     0.08  -0.12   0.00     0.06   0.01  -0.22
     2   1    -0.01   0.08  -0.01    -0.00   0.94   0.11     0.08   0.18  -0.31
     3   6    -0.00  -0.01  -0.01     0.02   0.23   0.05     0.01  -0.03   0.01
     4   6    -0.00  -0.00  -0.00    -0.01   0.02  -0.00     0.03   0.03   0.01
     5   8    -0.00   0.01   0.01    -0.01  -0.01  -0.01     0.13   0.33   0.09
     6   8     0.00  -0.01   0.00    -0.00   0.00  -0.00    -0.04  -0.16  -0.09
     7   6     0.00  -0.00   0.01    -0.00  -0.01  -0.00    -0.02  -0.03  -0.12
     8   6    -0.00   0.00   0.00    -0.00  -0.01  -0.00    -0.10  -0.12   0.09
     9   1     0.01  -0.00   0.01     0.00  -0.01   0.00    -0.04   0.18  -0.15
    10   1     0.00   0.00   0.01    -0.00  -0.01   0.00     0.09  -0.12  -0.28
    11   1    -0.00   0.01   0.00    -0.00  -0.00  -0.00    -0.08  -0.02  -0.06
    12   1    -0.00   0.00  -0.00     0.00  -0.01  -0.00    -0.27  -0.02   0.30
    13   1    -0.00   0.00   0.00     0.00  -0.00   0.00     0.01  -0.38   0.16
    14   8    -0.04   0.02  -0.04    -0.05  -0.13  -0.03    -0.04  -0.04   0.19
    15   1     0.71  -0.21   0.66     0.00   0.07  -0.05    -0.16  -0.12   0.10
                      4                      5                      6
                      A                      A                      A
 Frequencies --     49.8235                63.7096               149.0725
 Red. masses --      2.9483                 3.3618                 1.6033
 Frc consts  --      0.0043                 0.0080                 0.0210
 IR Inten    --      2.6016                 7.3184                 4.4904
  Atom  AN      X      Y      Z        X      Y      Z        X      Y      Z
     1   6    -0.03  -0.10   0.15     0.05  -0.08  -0.15    -0.03  -0.02   0.09
     2   1    -0.04  -0.27   0.21     0.08  -0.26  -0.24    -0.06  -0.05   0.21
     3   6    -0.02  -0.00  -0.01    -0.03   0.01   0.00    -0.00   0.01  -0.03
     4   6     0.01   0.06  -0.02    -0.01   0.08   0.04     0.01   0.02  -0.08
     5   8     0.04   0.06  -0.03    -0.03   0.04   0.03     0.02   0.08  -0.06
     6   8    -0.01   0.12  -0.02     0.00   0.13   0.06     0.04  -0.02  -0.08
     7   6    -0.01   0.02  -0.08    -0.00  -0.07   0.02     0.02  -0.04   0.04
     8   6     0.09  -0.17   0.17     0.23  -0.08  -0.13    -0.03  -0.02   0.05
     9   1    -0.05   0.21  -0.12    -0.05  -0.26   0.02     0.11  -0.09   0.09
    10   1    -0.02  -0.12  -0.29    -0.14  -0.04   0.12    -0.06  -0.01   0.11
    11   1     0.11  -0.21   0.00     0.22  -0.28  -0.09    -0.10  -0.23   0.54
    12   1     0.02  -0.01   0.43     0.44  -0.11  -0.26     0.42  -0.06  -0.19
    13   1     0.24  -0.42   0.27     0.22   0.15  -0.16    -0.44   0.23  -0.17
    14   8    -0.07   0.02  -0.15    -0.18  -0.00   0.11    -0.02  -0.01   0.05
    15   1     0.00   0.05  -0.10    -0.20  -0.12   0.12    -0.04  -0.05   0.04
                      7                      8                      9
                      A                      A                      A
 Frequencies --    205.4199               216.0323               283.7622
 Red. masses --      2.1429                 2.4126                 4.2835
 Frc consts  --      0.0533                 0.0663                 0.2032
 IR Inten    --      3.0254                 1.1545                 1.2111
  Atom  AN      X      Y      Z        X      Y      Z        X      Y      Z
     1   6     0.02   0.01  -0.09    -0.16   0.04   0.01     0.01   0.05   0.00
     2   1     0.06   0.14  -0.25    -0.23   0.83   0.15    -0.01   0.74  -0.02
     3   6    -0.01  -0.06   0.07    -0.05  -0.21  -0.08     0.04  -0.11   0.03
     4   6    -0.01  -0.03   0.10    -0.01  -0.06  -0.03     0.08  -0.02   0.04
     5   8     0.10  -0.04   0.06    -0.01   0.08   0.02     0.16  -0.12  -0.02
     6   8    -0.09   0.07   0.05     0.02   0.05   0.02     0.04  -0.07   0.00
     7   6    -0.08   0.06  -0.09     0.02   0.05   0.02     0.05  -0.05   0.01
     8   6    -0.02  -0.02   0.01     0.12   0.02  -0.00    -0.04  -0.02   0.01
     9   1    -0.15   0.15  -0.13     0.00   0.01   0.02     0.06  -0.04   0.01
    10   1    -0.03   0.00  -0.19    -0.00   0.05   0.03     0.07  -0.05   0.01
    11   1    -0.09  -0.31   0.44     0.13  -0.04  -0.09    -0.05   0.06   0.07
    12   1     0.44   0.02  -0.11     0.13   0.04   0.02    -0.08  -0.05  -0.02
    13   1    -0.37   0.15  -0.17     0.20   0.04   0.04    -0.09  -0.03  -0.01
    14   8     0.07  -0.02  -0.08     0.05  -0.06   0.01    -0.26   0.27  -0.05
    15   1     0.12   0.09  -0.07    -0.06  -0.12  -0.07    -0.41  -0.02  -0.09
                     10                     11                     12
                      A                      A                      A
 Frequencies --    314.2179               379.2076               445.0579
 Red. masses --      3.1466                 7.1041                 3.7467
 Frc consts  --      0.1830                 0.6019                 0.4373
 IR Inten    --     16.4892                 3.8298                 8.7675
  Atom  AN      X      Y      Z        X      Y      Z        X      Y      Z
     1   6    -0.01   0.00  -0.04    -0.17   0.42  -0.01    -0.03   0.15   0.02
     2   1     0.01   0.01  -0.12    -0.08  -0.50  -0.19    -0.04  -0.00   0.09
     3   6    -0.03  -0.03   0.06    -0.08   0.16   0.11     0.06  -0.03  -0.07
     4   6    -0.01   0.03  -0.03     0.00  -0.08   0.01     0.08   0.05   0.04
     5   8     0.22   0.02  -0.10     0.18  -0.03  -0.02    -0.03   0.01   0.07
     6   8    -0.06   0.14  -0.05     0.02  -0.15  -0.01     0.11   0.20   0.11
     7   6    -0.11  -0.11   0.18     0.06   0.07   0.04     0.11  -0.14  -0.10
     8   6    -0.08  -0.03   0.01     0.14   0.06   0.04    -0.17  -0.09  -0.07
     9   1     0.05  -0.39   0.29     0.06   0.12   0.03     0.03  -0.10  -0.14
    10   1    -0.40  -0.01   0.42     0.16   0.08   0.02     0.05  -0.18  -0.15
    11   1    -0.04   0.13  -0.24     0.14  -0.09  -0.00    -0.19   0.32   0.16
    12   1    -0.34  -0.11  -0.01     0.26   0.11   0.07    -0.40  -0.20  -0.15
    13   1     0.13  -0.00   0.11     0.21   0.11   0.07    -0.43  -0.21  -0.18
    14   8     0.06  -0.04  -0.02    -0.21  -0.29  -0.11    -0.06  -0.13  -0.02
    15   1     0.10   0.08  -0.02    -0.04  -0.02  -0.04    -0.05  -0.20   0.00
                     13                     14                     15
                      A                      A                      A
 Frequencies --    588.9863               644.9057               711.7466
 Red. masses --      3.8139                 5.0807                 1.3746
 Frc consts  --      0.7795                 1.2450                 0.4103
 IR Inten    --     16.4919                19.1209                54.8107
  Atom  AN      X      Y      Z        X      Y      Z        X      Y      Z
     1   6     0.17   0.12   0.09     0.15   0.11   0.07     0.05   0.03  -0.14
     2   1     0.12  -0.01   0.33     0.34   0.18  -0.60    -0.24  -0.10   0.94
     3   6     0.26  -0.00  -0.22     0.11  -0.20   0.36    -0.00  -0.03   0.09
     4   6     0.03  -0.09   0.02     0.07   0.00  -0.09     0.01  -0.01  -0.01
     5   8    -0.01   0.00   0.07    -0.23   0.04   0.01    -0.02  -0.00   0.01
     6   8    -0.11   0.01  -0.03     0.01   0.05  -0.19    -0.00   0.01  -0.01
     7   6    -0.20   0.06   0.03     0.00   0.02  -0.02    -0.00   0.00  -0.00
     8   6    -0.02  -0.00   0.00     0.00  -0.00   0.02    -0.00  -0.00   0.00
     9   1    -0.11  -0.06   0.09     0.17  -0.15   0.08     0.01  -0.02   0.01
    10   1    -0.28   0.10   0.12    -0.20   0.07   0.13    -0.02   0.01   0.01
    11   1    -0.01  -0.28  -0.16     0.01  -0.03  -0.00    -0.00  -0.01   0.00
    12   1     0.13   0.07   0.06     0.02   0.04   0.08     0.00   0.01   0.01
    13   1     0.16   0.08   0.08     0.03  -0.06   0.03     0.00  -0.01   0.00
    14   8    -0.06  -0.03  -0.01    -0.05  -0.05  -0.06    -0.01  -0.00  -0.01
    15   1    -0.20  -0.54   0.00     0.00   0.14  -0.06     0.03   0.15  -0.01
                     16                     17                     18
                      A                      A                      A
 Frequencies --    741.1027               816.3030               892.9420
 Red. masses --     10.1249                 1.3325                 3.1385
 Frc consts  --      3.2764                 0.5232                 1.4744
 IR Inten    --     13.1453                 6.9006                18.4043
  Atom  AN      X      Y      Z        X      Y      Z        X      Y      Z
     1   6    -0.06   0.03  -0.01     0.04   0.02   0.01     0.07   0.03   0.02
     2   1    -0.10   0.19   0.11     0.05   0.02   0.01     0.09   0.03  -0.01
     3   6     0.02  -0.17  -0.10     0.03  -0.04   0.03     0.04  -0.06   0.06
     4   6     0.15   0.75   0.25    -0.03   0.03  -0.04    -0.10   0.05  -0.10
     5   8    -0.04  -0.17  -0.05    -0.01   0.02  -0.07     0.01   0.06  -0.18
     6   8    -0.03  -0.18  -0.10     0.01  -0.01   0.05     0.07  -0.06   0.24
     7   6    -0.07   0.02   0.00    -0.04  -0.03   0.08    -0.06   0.06  -0.01
     8   6    -0.02   0.01   0.01    -0.01  -0.02   0.02    -0.06  -0.02  -0.08
     9   1     0.01  -0.02   0.05    -0.13   0.52  -0.03    -0.27  -0.23  -0.07
    10   1    -0.05   0.07   0.07     0.16  -0.29  -0.40     0.19   0.29   0.26
    11   1    -0.01  -0.20  -0.06     0.01   0.02  -0.18    -0.09  -0.34   0.04
    12   1     0.12   0.09   0.08    -0.04  -0.26  -0.34     0.13   0.28   0.32
    13   1     0.11   0.03   0.08     0.12   0.42   0.04    -0.06  -0.43  -0.04
    14   8     0.04  -0.13   0.01    -0.00  -0.01  -0.01    -0.00  -0.01  -0.01
    15   1     0.05  -0.18   0.03    -0.01  -0.03  -0.01    -0.02  -0.02  -0.01
                     19                     20                     21
                      A                      A                      A
 Frequencies --    931.8746              1051.0322              1107.8297
 Red. masses --      2.3682                 1.3287                 3.5488
 Frc consts  --      1.2117                 0.8648                 2.5661
 IR Inten    --      3.5676                31.4428                21.1495
  Atom  AN      X      Y      Z        X      Y      Z        X      Y      Z
     1   6     0.07   0.03   0.02     0.01   0.01   0.02     0.06   0.02   0.03
     2   1     0.06   0.02   0.07     0.03   0.01  -0.04     0.07   0.02   0.04
     3   6     0.05  -0.04   0.01     0.04  -0.04  -0.08     0.05  -0.05  -0.07
     4   6    -0.14   0.04   0.01     0.03  -0.01  -0.01    -0.14   0.01   0.05
     5   8     0.01   0.02  -0.06    -0.00   0.00  -0.00     0.02  -0.00  -0.01
     6   8    -0.15  -0.02   0.02     0.00  -0.01   0.02    -0.16   0.02  -0.04
     7   6     0.08  -0.11  -0.04    -0.06  -0.04  -0.03     0.24   0.17   0.14
     8   6     0.15   0.10   0.06     0.04   0.04   0.03    -0.03  -0.18  -0.11
     9   1    -0.17  -0.20  -0.14    -0.12  -0.07  -0.05     0.24   0.26   0.14
    10   1    -0.01  -0.13  -0.05    -0.09  -0.06  -0.04     0.32   0.22   0.17
    11   1     0.13   0.64   0.39     0.03   0.13   0.07    -0.04  -0.09  -0.04
    12   1    -0.17   0.01   0.05    -0.03   0.03   0.02    -0.10  -0.23  -0.13
    13   1    -0.21  -0.09  -0.09    -0.02   0.04   0.00    -0.11  -0.28  -0.15
    14   8     0.01  -0.01  -0.01    -0.05  -0.03   0.04    -0.03  -0.02   0.02
    15   1    -0.08  -0.31  -0.01     0.23   0.92   0.02     0.12   0.48   0.01
                     22                     23                     24
                      A                      A                      A
 Frequencies --   1158.0313              1227.6104              1319.8352
 Red. masses --      2.0562                 1.7443                 2.2252
 Frc consts  --      1.6247                 1.5488                 2.2838
 IR Inten    --     19.1593                 5.9945               320.6387
  Atom  AN      X      Y      Z        X      Y      Z        X      Y      Z
     1   6    -0.02  -0.01  -0.01    -0.02  -0.01  -0.01    -0.04  -0.01  -0.01
     2   1    -0.02  -0.01  -0.01    -0.02  -0.00  -0.01    -0.04  -0.01  -0.03
     3   6    -0.01   0.01   0.02    -0.01   0.01   0.00    -0.00   0.03   0.01
     4   6     0.05  -0.00  -0.01     0.08  -0.01  -0.02     0.24  -0.01  -0.09
     5   8    -0.00  -0.00   0.00    -0.01  -0.01   0.03    -0.03   0.01  -0.02
     6   8     0.07  -0.05   0.01    -0.01   0.02  -0.06    -0.14  -0.01   0.05
     7   6    -0.14   0.17   0.03    -0.05  -0.06   0.17     0.08   0.03   0.01
     8   6     0.11  -0.13  -0.02     0.03   0.05  -0.12    -0.03  -0.04   0.07
     9   1    -0.13   0.04   0.06    -0.42   0.32  -0.04    -0.66  -0.30  -0.28
    10   1    -0.29   0.13   0.01     0.32  -0.22  -0.19     0.26   0.21   0.23
    11   1     0.09   0.51   0.23    -0.03  -0.05   0.27     0.00   0.01  -0.12
    12   1    -0.36  -0.34  -0.16    -0.01   0.29   0.29     0.02  -0.18  -0.17
    13   1    -0.32  -0.13  -0.23    -0.09  -0.45  -0.12     0.04   0.19   0.07
    14   8     0.00   0.01  -0.00     0.00   0.00  -0.00     0.00   0.01  -0.00
    15   1    -0.02  -0.09  -0.00    -0.01  -0.02  -0.00    -0.01  -0.04  -0.00
                     25                     26                     27
                      A                      A                      A
 Frequencies --   1365.7444              1439.7242              1458.9354
 Red. masses --      1.6316                 1.3663                 1.2458
 Frc consts  --      1.7931                 1.6686                 1.5623
 IR Inten    --    218.4065                21.0543                19.7909
  Atom  AN      X      Y      Z        X      Y      Z        X      Y      Z
     1   6     0.02   0.01   0.01    -0.01  -0.00  -0.00     0.00   0.00   0.00
     2   1     0.02   0.01   0.02    -0.02  -0.00  -0.01     0.00   0.00   0.00
     3   6     0.00  -0.01  -0.01     0.00   0.01   0.00    -0.00  -0.00  -0.00
     4   6    -0.13   0.00   0.06     0.08  -0.00  -0.02    -0.01  -0.00   0.01
     5   8     0.01  -0.01   0.03    -0.01   0.01  -0.02     0.00  -0.00   0.00
     6   8     0.09   0.04  -0.10    -0.06   0.01   0.04     0.01  -0.00  -0.01
     7   6    -0.07  -0.02  -0.02    -0.09  -0.08  -0.05     0.02   0.03   0.02
     8   6     0.01  -0.03   0.05     0.03  -0.04  -0.02    -0.06  -0.11  -0.06
     9   1    -0.42  -0.19  -0.16     0.54   0.35   0.20    -0.12  -0.10  -0.04
    10   1     0.72   0.30   0.23     0.48   0.28   0.30    -0.12  -0.07  -0.09
    11   1     0.02   0.07  -0.03     0.03   0.21   0.11    -0.05   0.51   0.21
    12   1    -0.05  -0.11  -0.06    -0.03   0.07   0.16     0.34   0.29   0.36
    13   1    -0.00   0.18   0.03     0.00   0.16  -0.04     0.33   0.41   0.09
    14   8    -0.00  -0.00   0.00     0.00   0.00  -0.00     0.00  -0.00   0.00
    15   1     0.00   0.02   0.00    -0.00  -0.01  -0.00     0.00   0.00  -0.00
                     28                     29                     30
                      A                      A                      A
 Frequencies --   1526.9686              1536.8943              1545.2727
 Red. masses --      1.0411                 1.0528                 1.0902
 Frc consts  --      1.4303                 1.4651                 1.5338
 IR Inten    --     14.7840                 2.1522                24.3347
  Atom  AN      X      Y      Z        X      Y      Z        X      Y      Z
     1   6    -0.00  -0.00  -0.00     0.00   0.00   0.00     0.00   0.00   0.00
     2   1    -0.00  -0.00   0.00     0.00   0.00   0.00     0.01   0.00   0.00
     3   6     0.00   0.00   0.00    -0.00  -0.00  -0.00    -0.00  -0.00  -0.00
     4   6     0.00  -0.00   0.00    -0.01   0.00  -0.00    -0.02   0.00  -0.00
     5   8    -0.00   0.00  -0.00     0.00  -0.00   0.01     0.00  -0.00   0.01
     6   8    -0.00  -0.00   0.00     0.01  -0.00  -0.00     0.02  -0.00  -0.01
     7   6     0.01   0.02  -0.01     0.00  -0.03  -0.02     0.05  -0.05  -0.02
     8   6     0.02   0.01  -0.04    -0.04   0.02  -0.01     0.02  -0.02  -0.00
     9   1     0.01  -0.10  -0.01    -0.12   0.36  -0.11    -0.26   0.47  -0.20
    10   1     0.01  -0.00  -0.04    -0.19   0.17   0.32    -0.38   0.15   0.40
    11   1    -0.08  -0.37   0.56    -0.05   0.17   0.29     0.03  -0.15  -0.14
    12   1    -0.55  -0.09   0.05     0.23  -0.17  -0.37    -0.20   0.12   0.28
    13   1     0.36   0.26   0.12     0.39  -0.36   0.23    -0.22   0.30  -0.14
    14   8    -0.00  -0.00   0.00     0.00   0.00   0.00    -0.00  -0.00  -0.00
    15   1    -0.00  -0.00  -0.00    -0.00   0.00  -0.00     0.00   0.00   0.00
                     31                     32                     33
                      A                      A                      A
 Frequencies --   1843.3751              1923.2260              3108.8416
 Red. masses --      7.2904                11.8064                 1.0351
 Frc consts  --     14.5959                25.7294                 5.8940
 IR Inten    --     37.4578               276.4438                11.8979
  Atom  AN      X      Y      Z        X      Y      Z        X      Y      Z
     1   6    -0.40  -0.13  -0.12     0.13   0.04   0.04    -0.00   0.00   0.00
     2   1    -0.61  -0.17  -0.17     0.20   0.05   0.10    -0.00   0.00  -0.00
     3   6     0.55   0.07   0.14    -0.22  -0.01  -0.07     0.00  -0.00   0.00
     4   6    -0.05  -0.04   0.17     0.22  -0.26   0.68     0.00   0.00  -0.00
     5   8    -0.04   0.05  -0.12    -0.14   0.16  -0.44     0.00   0.00   0.00
     6   8     0.01   0.01  -0.02     0.03   0.02  -0.06    -0.00  -0.00   0.00
     7   6     0.01  -0.00   0.00     0.02  -0.01   0.01     0.00   0.00   0.00
     8   6    -0.00   0.00  -0.00    -0.01   0.01   0.00    -0.02  -0.04  -0.02
     9   1    -0.04   0.02  -0.03    -0.13   0.07  -0.07    -0.00  -0.00  -0.00
    10   1    -0.04  -0.01   0.02    -0.11  -0.02   0.07     0.00  -0.01   0.00
    11   1    -0.00  -0.01  -0.02    -0.00  -0.03  -0.04     0.63  -0.04   0.08
    12   1     0.01   0.00  -0.00     0.03   0.01  -0.01    -0.13   0.45  -0.31
    13   1    -0.01  -0.01  -0.00    -0.03  -0.04   0.00    -0.23   0.03   0.47
    14   8    -0.01   0.03   0.01    -0.00  -0.01  -0.00     0.00   0.00  -0.00
    15   1     0.02   0.06   0.01     0.02  -0.02   0.02    -0.00   0.00   0.00
                     34                     35                     36
                      A                      A                      A
 Frequencies --   3140.2297              3190.6881              3191.1900
 Red. masses --      1.0602                 1.1036                 1.0992
 Frc consts  --      6.1595                 6.6195                 6.5952
 IR Inten    --     21.1405                 0.2340                19.3168
  Atom  AN      X      Y      Z        X      Y      Z        X      Y      Z
     1   6    -0.00  -0.00  -0.00    -0.00  -0.00  -0.00     0.00  -0.00   0.00
     2   1     0.00  -0.00   0.00    -0.00   0.00   0.00    -0.00   0.00  -0.00
     3   6     0.00  -0.00  -0.00    -0.00  -0.00  -0.00    -0.00   0.00   0.00
     4   6    -0.00  -0.00   0.00     0.00  -0.00  -0.00     0.00   0.00  -0.00
     5   8    -0.00   0.00  -0.00    -0.00   0.00  -0.00    -0.00  -0.00   0.00
     6   8     0.00   0.00  -0.00    -0.00  -0.00   0.00     0.00  -0.00   0.00
     7   6     0.03  -0.06  -0.01    -0.01  -0.02   0.06    -0.01   0.01   0.01
     8   6    -0.01   0.01  -0.00     0.03   0.02  -0.06    -0.08   0.04  -0.01
     9   1    -0.23   0.04   0.51     0.24  -0.05  -0.52     0.07  -0.02  -0.16
    10   1    -0.14   0.67  -0.45    -0.07   0.33  -0.21     0.01  -0.04   0.03
    11   1     0.11  -0.01   0.01    -0.17   0.01  -0.04     0.72  -0.03   0.09
    12   1     0.01  -0.06   0.04     0.09  -0.28   0.18     0.11  -0.48   0.33
    13   1     0.01   0.00  -0.04    -0.26   0.05   0.53     0.10  -0.01  -0.26
    14   8     0.00  -0.00  -0.00     0.00   0.00  -0.00    -0.00  -0.00  -0.00
    15   1     0.00   0.00   0.00    -0.00   0.00  -0.00     0.00  -0.00  -0.00
                     37                     38                     39
                      A                      A                      A
 Frequencies --   3213.0524              3468.8554              3878.3925
 Red. masses --      1.1054                 1.1241                 1.0669
 Frc consts  --      6.7239                 7.9698                 9.4554
 IR Inten    --     16.8232                59.3552                39.9390
  Atom  AN      X      Y      Z        X      Y      Z        X      Y      Z
     1   6    -0.00  -0.00   0.00    -0.10  -0.01  -0.03    -0.00  -0.00   0.00
     2   1     0.00  -0.00  -0.00     0.96   0.04   0.26     0.00   0.00  -0.00
     3   6     0.00  -0.00   0.00     0.02   0.00   0.00     0.00   0.00  -0.00
     4   6    -0.00   0.00  -0.00    -0.00   0.00   0.00     0.00   0.00  -0.00
     5   8     0.00  -0.00   0.00    -0.00  -0.00  -0.00    -0.00  -0.00  -0.00
     6   8    -0.00   0.00  -0.00    -0.00  -0.00  -0.00    -0.00  -0.00   0.00
     7   6     0.01   0.02  -0.06    -0.00   0.00   0.00     0.00   0.00   0.00
     8   6     0.01   0.03  -0.06    -0.00  -0.00   0.00    -0.00   0.00   0.00
     9   1    -0.24   0.06   0.52     0.00  -0.00  -0.00    -0.00   0.00   0.00
    10   1     0.07  -0.33   0.21     0.00  -0.00   0.00    -0.00  -0.00  -0.00
    11   1    -0.05   0.01  -0.02     0.00  -0.00   0.00    -0.00  -0.00   0.00
    12   1     0.11  -0.37   0.24    -0.00  -0.00   0.00    -0.00  -0.00   0.00
    13   1    -0.24   0.05   0.49    -0.00  -0.00  -0.00     0.00   0.00  -0.00
    14   8     0.00  -0.00   0.00     0.00   0.00   0.00     0.04  -0.01  -0.05
    15   1     0.00  -0.00  -0.00     0.00  -0.00  -0.00    -0.63   0.20   0.75

 -------------------
 - Thermochemistry -
 -------------------
 Temperature   298.150 Kelvin.  Pressure   1.00000 Atm.
 Atom     1 has atomic number  6 and mass  12.00000
 Atom     2 has atomic number  1 and mass   1.00783
 Atom     3 has atomic number  6 and mass  12.00000
 Atom     4 has atomic number  6 and mass  12.00000
 Atom     5 has atomic number  8 and mass  15.99491
 Atom     6 has atomic number  8 and mass  15.99491
 Atom     7 has atomic number  6 and mass  12.00000
 Atom     8 has atomic number  6 and mass  12.00000
 Atom     9 has atomic number  1 and mass   1.00783
 Atom    10 has atomic number  1 and mass   1.00783
 Atom    11 has atomic number  1 and mass   1.00783
 Atom    12 has atomic number  1 and mass   1.00783
 Atom    13 has atomic number  1 and mass   1.00783
 Atom    14 has atomic number  8 and mass  15.99491
 Atom    15 has atomic number  1 and mass   1.00783
 Molecular mass:   115.03952 amu.
 Principal axes and moments of inertia in atomic units:
                           1         2         3
     Eigenvalues --   469.124991372.163031485.70103
           X            0.99993   0.01148   0.00033
           Y           -0.01146   0.99499   0.09931
           Z            0.00082  -0.09930   0.99506
 This molecule is an asymmetric top.
 Rotational symmetry number  1.
 Warning -- assumption of classical behavior for rotation
           may cause significant error
 Rotational temperatures (Kelvin)      0.18463     0.06312     0.05830
 Rotational constants (GHZ):           3.84704     1.31525     1.21474
    3 imaginary frequencies ignored.
 Zero-point vibrational energy     293862.0 (Joules/Mol)
                                   70.23471 (Kcal/Mol)
 Warning -- explicit consideration of  10 degrees of freedom as
           vibrations may cause significant error
 Vibrational temperatures:     71.68    91.66   214.48   295.55   310.82
          (Kelvin)            408.27   452.09   545.60   640.34   847.42
                              927.88  1024.04  1066.28  1174.48  1284.74
                             1340.76  1512.20  1593.92  1666.15  1766.26
                             1898.95  1965.00  2071.44  2099.08  2196.97
                             2211.25  2223.30  2652.21  2767.09  4472.93
                             4518.09  4590.69  4591.41  4622.87  4990.91
                             5580.14
 
 Zero-point correction=                           0.111926 (Hartree/Particle)
 Thermal correction to Energy=                    0.120396
 Thermal correction to Enthalpy=                  0.121340
 Thermal correction to Gibbs Free Energy=         0.077302
 Sum of electronic and zero-point Energies=           -419.860503
 Sum of electronic and thermal Energies=              -419.852033
 Sum of electronic and thermal Enthalpies=            -419.851089
 Sum of electronic and thermal Free Energies=         -419.895126
 
                     E (Thermal)             CV                S
                      KCal/Mol        Cal/Mol-Kelvin    Cal/Mol-Kelvin
 Total                   75.549             28.536             92.684
 Electronic               0.000              0.000              1.377
 Translational            0.889              2.981             40.136
 Rotational               0.889              2.981             28.349
 Vibrational             73.772             22.575             22.822
 Vibration     1          0.595              1.978              4.824
 Vibration     2          0.597              1.972              4.339
 Vibration     3          0.618              1.904              2.684
 Vibration     4          0.640              1.832              2.084
 Vibration     5          0.645              1.817              1.992
 Vibration     6          0.682              1.704              1.511
 Vibration     7          0.702              1.647              1.340
 Vibration     8          0.749              1.514              1.042
 Vibration     9          0.804              1.372              0.811
 Vibration    10          0.946              1.055              0.469
                       Q            Log10(Q)             Ln(Q)
 Total Bot       0.277560D-35        -35.556643        -81.872195
 Total V=0       0.842867D+16         15.925759         36.670415
 Vib (Bot)       0.817419D-49        -49.087556       -113.028274
 Vib (Bot)    1  0.414917D+01          0.617962          1.422909
 Vib (Bot)    2  0.323987D+01          0.510528          1.175533
 Vib (Bot)    3  0.136057D+01          0.133719          0.307900
 Vib (Bot)    4  0.968636D+00         -0.013839         -0.031867
 Vib (Bot)    5  0.917131D+00         -0.037569         -0.086505
 Vib (Bot)    6  0.676193D+00         -0.169929         -0.391277
 Vib (Bot)    7  0.600308D+00         -0.221626         -0.510313
 Vib (Bot)    8  0.477062D+00         -0.321425         -0.740109
 Vib (Bot)    9  0.386855D+00         -0.412452         -0.949705
 Vib (Bot)   10  0.256387D+00         -0.591104         -1.361068
 Vib (V=0)       0.248225D+03          2.394846          5.514337
 Vib (V=0)    1  0.467919D+01          0.670171          1.543125
 Vib (V=0)    2  0.377822D+01          0.577288          1.329254
 Vib (V=0)    3  0.194953D+01          0.289930          0.667588
 Vib (V=0)    4  0.159007D+01          0.201417          0.463779
 Vib (V=0)    5  0.154457D+01          0.188808          0.434746
 Vib (V=0)    6  0.134097D+01          0.127420          0.293396
 Vib (V=0)    7  0.128126D+01          0.107638          0.247845
 Vib (V=0)    8  0.119108D+01          0.075940          0.174858
 Vib (V=0)    9  0.113218D+01          0.053917          0.124149
 Vib (V=0)   10  0.106190D+01          0.026085          0.060062
 Electronic      0.200000D+01          0.301030          0.693147
 Translational   0.484981D+08          7.685724         17.697035
 Rotational      0.350073D+06          5.544158         12.765897
 ***** Axes restored to original set *****
 -------------------------------------------------------------------
 Center     Atomic                   Forces (Hartrees/Bohr)
 Number     Number              X              Y              Z
 -------------------------------------------------------------------
      1        6          -0.001298306   -0.014602343   -0.001651388
      2        1          -0.000225741    0.002520013   -0.000014037
      3        6           0.016148533    0.054248472    0.009228371
      4        6          -0.043159632    0.017835001   -0.030176971
      5        8           0.013228430   -0.018164105    0.042887695
      6        8           0.001860957    0.001003030   -0.015384928
      7        6           0.017774259   -0.001969527   -0.003532254
      8        6           0.000065318   -0.000021997   -0.000066445
      9        1           0.000455732   -0.000168196   -0.000567761
     10        1           0.000710044   -0.001239244    0.001030905
     11        1           0.001341869    0.000334455    0.000528149
     12        1          -0.000383971    0.000975812   -0.000476370
     13        1          -0.000302916    0.000745390    0.001547801
     14        8           0.003552348   -0.049237704   -0.014709146
     15        1          -0.009766924    0.007740944    0.011356378
 -------------------------------------------------------------------
 Cartesian Forces:  Max     0.054248472 RMS     0.016646613

 GradGradGradGradGradGradGradGradGradGradGradGradGradGradGradGradGradGrad
 Berny optimization.
 Search for a local minimum.
 Step number   1 out of a maximum of    2
 All quantities printed in internal units (Hartrees-Bohrs-Radians)
 Second derivative matrix not updated -- analytic derivatives used.
 ITU=  0
     Eigenvalues ---   -0.02684  -0.01130  -0.00326   0.00069   0.00078
     Eigenvalues ---    0.00135   0.00508   0.00713   0.01896   0.02474
     Eigenvalues ---    0.03408   0.03845   0.04537   0.05192   0.06709
     Eigenvalues ---    0.07068   0.07876   0.08831   0.10565   0.11873
     Eigenvalues ---    0.14866   0.15152   0.17690   0.19296   0.22648
     Eigenvalues ---    0.26178   0.30197   0.42894   0.49700   0.62722
     Eigenvalues ---    0.69684   0.77773   0.80491   0.88746   0.94857
     Eigenvalues ---    0.95468   1.03650   1.85829   1.91625
 Eigenvalue     1 is  -2.68D-02 should be greater than     0.000000 Eigenvector:
                          Y3        Y2        Y14       Y1        X1
   1                    0.59559   0.43569  -0.37154  -0.36422   0.22933
                          X14       X2        Z3        Y4        Y15
   1                   -0.20686   0.14825   0.10027   0.09346   0.09227
 Eigenvalue     2 is  -1.13D-02 should be greater than     0.000000 Eigenvector:
                          X15       Z15       Y15       X14       Z14
   1                    0.64760   0.63128  -0.22714  -0.19792  -0.16874
                          Y5        Y1        Y2        Z3        Y14
   1                    0.16800  -0.07438   0.06582  -0.06470   0.05390
 Eigenvalue     3 is  -3.26D-03 should be greater than     0.000000 Eigenvector:
                          Y5        Y13       Y6        X15       Z10
   1                    0.55566  -0.27526  -0.24932  -0.24863  -0.23196
                          Z2        Z14       Z12       X5        Z1
   1                   -0.21698   0.21107   0.18572   0.18494  -0.17070
 Quadratic step=6.632D+00 exceeds max=3.000D-01 adjusted using Lamda=-2.200D-01.
 Angle between NR and scaled steps=  56.35 degrees.
 Angle between quadratic step and forces=  38.73 degrees.
 Linear search not attempted -- first point.
 B after Tr=    -0.001888   -0.003941   -0.000050
         Rot=    1.000000   -0.000230   -0.000041   -0.000356 Ang=  -0.05 deg.
 Variable       Old X    -DE/DX   Delta X   Delta X   Delta X     New X
                                 (Linear)    (Quad)   (Total)
    X1       -5.11876  -0.00130   0.00000   0.03419   0.03293  -5.08583
    Y1       -0.93299  -0.01460   0.00000  -0.04216  -0.04933  -0.98232
    Z1       -0.84205  -0.00165   0.00000   0.00112   0.00103  -0.84102
    X2       -7.06660  -0.00023   0.00000   0.01340   0.01211  -7.05449
    Y2       -1.01278   0.00252   0.00000   0.01246   0.00413  -1.00865
    Z2       -1.36576  -0.00001   0.00000   0.00296   0.00302  -1.36274
    X3       -2.93952   0.01615   0.00000   0.00356   0.00158  -2.93794
    Y3       -0.11573   0.05425   0.00000   0.22448   0.21853   0.10280
    Z3       -0.21849   0.00923   0.00000   0.02896   0.02920  -0.18929
    X4       -0.31599  -0.04316   0.00000  -0.04968  -0.05083  -0.36682
    Y4       -1.00824   0.01784   0.00000   0.02540   0.02100  -0.98724
    Z4        0.42643  -0.03018   0.00000  -0.00984  -0.01031   0.41611
    X5        0.30598   0.01323   0.00000  -0.00642  -0.00689   0.29910
    Y5       -1.69839  -0.01816   0.00000  -0.01274  -0.01762  -1.71601
    Z5        2.49024   0.04289   0.00000   0.01614   0.01528   2.50552
    X6        1.20513   0.00186   0.00000  -0.00326  -0.00481   1.20032
    Y6       -0.64554   0.00100   0.00000  -0.00303  -0.00540  -0.65094
    Z6       -1.53214  -0.01538   0.00000  -0.01979  -0.02023  -1.55237
    X7        3.88019   0.01777   0.00000   0.02505   0.02366   3.90384
    Y7       -0.80516  -0.00197   0.00000  -0.00639  -0.00708  -0.81225
    Z7       -1.02040  -0.00353   0.00000  -0.00438  -0.00512  -1.02552
    X8        4.80002   0.00007   0.00000   0.00530   0.00230   4.80232
    Y8        1.59325  -0.00002   0.00000  -0.00029  -0.00093   1.59232
    Z8        0.24857  -0.00007   0.00000  -0.00040  -0.00010   0.24846
    X9        4.72985   0.00046   0.00000   0.00875   0.00739   4.73724
    Y9       -1.06553  -0.00017   0.00000  -0.00253  -0.00177  -1.06730
    Z9       -2.87505  -0.00057   0.00000  -0.00695  -0.00787  -2.88292
   X10        4.23568   0.00071   0.00000   0.00605   0.00593   4.24161
   Y10       -2.46943  -0.00124   0.00000  -0.00467  -0.00566  -2.47509
   Z10        0.14133   0.00103   0.00000   0.00319   0.00166   0.14299
   X11        6.84438   0.00134   0.00000   0.00624   0.00332   6.84771
   Y11        1.49756   0.00033   0.00000   0.00307   0.00377   1.50132
   Z11        0.50898   0.00053   0.00000   0.00289   0.00297   0.51195
   X12        4.35393  -0.00038   0.00000   0.00186  -0.00241   4.35153
   Y12        3.23500   0.00098   0.00000   0.00125   0.00083   3.23582
   Z12       -0.91463  -0.00048   0.00000  -0.00129  -0.00020  -0.91483
   X13        3.91551  -0.00030   0.00000   0.00150  -0.00151   3.91400
   Y13        1.82251   0.00075   0.00000   0.00091  -0.00121   1.82129
   Z13        2.09538   0.00155   0.00000   0.00150   0.00197   2.09736
   X14       -2.57766   0.00355   0.00000  -0.02231  -0.02617  -2.60383
   Y14        2.95917  -0.04924   0.00000  -0.17075  -0.17661   2.78256
   Z14        0.15296  -0.01471   0.00000  -0.00838  -0.00694   0.14603
   X15       -3.72846  -0.00977   0.00000   0.00755   0.00339  -3.72507
   Y15        3.33651   0.00774   0.00000   0.02464   0.01735   3.35386
   Z15        1.51663   0.01136   0.00000  -0.00615  -0.00435   1.51227
         Item               Value     Threshold  Converged?
 Maximum Force            0.054248     0.000450     NO 
 RMS     Force            0.016647     0.000300     NO 
 Maximum Displacement     0.218533     0.001800     NO 
 RMS     Displacement     0.044628     0.001200     NO 
 Predicted change in Energy=-2.456539D-02
 GradGradGradGradGradGradGradGradGradGradGradGradGradGradGradGradGradGrad


 ----------------------------------------------------------------------

 Electric dipole moment (input orientation):
 (Debye = 10**-18 statcoulomb cm , SI units = C m)
                  (au)            (Debye)         (10**-30 SI)
   Tot        0.396003D+00      0.100654D+01      0.335746D+01
   x         -0.315174D+00     -0.801091D+00     -0.267215D+01
   y         -0.134239D+00     -0.341201D+00     -0.113812D+01
   z         -0.198656D+00     -0.504934D+00     -0.168428D+01

 Dipole polarizability, Alpha (input orientation).
 (esu units = cm**3 , SI units = C**2 m**2 J**-1)
 Alpha(0;0):
               (au)            (10**-24 esu)      (10**-40 SI)
   iso        0.677181D+02      0.100348D+02      0.111652D+02
   aniso      0.271321D+02      0.402056D+01      0.447348D+01
   xx         0.836422D+02      0.123945D+02      0.137907D+02
   yx         0.608124D+01      0.901146D+00      0.100266D+01
   yy         0.627799D+02      0.930302D+01      0.103510D+02
   zx         0.280629D+01      0.415849D+00      0.462694D+00
   zy         0.109605D+01      0.162418D+00      0.180715D+00
   zz         0.567322D+02      0.840685D+01      0.935388D+01

 ----------------------------------------------------------------------

 Dipole orientation:
     6         -2.12173759         -0.34350399          4.81263255
     1         -2.81678240         -0.79730278          6.65266014
     6         -1.50486922         -0.49531252          2.48836435
     6         -0.34094009          1.01886909          0.37935214
     8         -1.49989875          2.46754890         -0.91704125
     8          2.03216298          0.29328886          0.02828083
     6          3.20020869          1.09477893         -2.30336120
     6          2.29117236         -0.52468100         -4.48504313
     1          5.21432581          0.85918034         -1.96094584
     1          2.78014989          3.08937319         -2.60492082
     1          3.28310512          0.01926125         -6.21032636
     1          2.66406488         -2.51524839         -4.10301620
     1          0.26872946         -0.26926893         -4.78525788
     8         -2.14373576         -3.14398634          0.97167897
     1         -3.96221512         -3.23694892          1.07558590

 Electric dipole moment (dipole orientation):
 (Debye = 10**-18 statcoulomb cm , SI units = C m)
                  (au)            (Debye)         (10**-30 SI)
   Tot        0.396003D+00      0.100654D+01      0.335746D+01
   x          0.000000D+00      0.000000D+00      0.000000D+00
   y          0.000000D+00      0.000000D+00      0.000000D+00
   z          0.396003D+00      0.100654D+01      0.335746D+01

 Dipole polarizability, Alpha (dipole orientation).
 (esu units = cm**3 , SI units = C**2 m**2 J**-1)
 Alpha(0;0):
               (au)            (10**-24 esu)      (10**-40 SI)
   iso        0.677181D+02      0.100348D+02      0.111652D+02
   aniso      0.271321D+02      0.402056D+01      0.447348D+01
   xx         0.623904D+02      0.924531D+01      0.102868D+02
   yx         0.124302D+01      0.184197D+00      0.204947D+00
   yy         0.603960D+02      0.894977D+01      0.995796D+01
   zx        -0.109788D+02     -0.162688D+01     -0.181015D+01
   zy         0.151630D+01      0.224693D+00      0.250005D+00
   zz         0.803678D+02      0.119093D+02      0.132509D+02

 ----------------------------------------------------------------------
 1\1\GINC-AJ\Freq\UM062X\6-31+G\C5H7O3(2)\AAYUSH\20-Jun-2025\0\\# freq 
 6-31+g m062x\\Title Card Required\\0,2\C,-2.70873,-0.493715,-0.445595\
 H,-3.739483,-0.535939,-0.72273\C,-1.555528,-0.061244,-0.115622\C,-0.16
 7215,-0.533539,0.225655\O,0.16192,-0.898748,1.31778\O,0.637728,-0.3416
 04,-0.810772\C,2.053306,-0.426074,-0.539973\C,2.540059,0.84311,0.13153
 5\H,2.502927,-0.563854,-1.521409\H,2.241426,-1.306768,0.074789\H,3.621
 891,0.792473,0.269341\H,2.304001,1.711886,-0.484001\H,2.072001,0.96442
 9,1.108829\O,-1.364039,1.565925,0.080945\H,-1.973016,1.765605,0.802565
 \\Version=ES64L-G16RevA.03\State=2-A\HF=-419.9724288\S2=0.77299\S2-1=0
 .\S2A=0.750349\RMSD=2.885e-09\RMSF=1.665e-02\ZeroPoint=0.1119261\Therm
 al=0.1203956\Dipole=-0.3151736,-0.1342387,-0.1986563\DipoleDeriv=-0.31
 25931,-0.0266061,-0.0320898,-0.057172,-0.3125165,-0.0368376,0.0247127,
 -0.0183884,-0.2038826,0.2285942,0.0087118,-0.0050948,0.0702234,0.24534
 92,0.0164383,-0.0110167,-0.004323,0.2572394,0.0260141,0.02833,0.069327
 8,0.20183,0.5328704,0.1557846,0.0117159,0.1564504,0.0051041,1.8478503,
 -0.1830873,-0.1711901,-0.1743855,0.4953731,-0.3834307,-0.5620993,-0.46
 63099,1.5617092,-0.7793004,0.1275547,-0.1673304,0.0559332,-0.4543866,0
 .2330816,0.0770523,0.2958808,-0.9936115,-1.556006,-0.0985933,0.3742385
 ,-0.063567,-0.3901343,0.0392385,0.4835911,0.1065835,-0.8487505,0.89053
 55,0.0832969,-0.097454,0.0197622,0.323705,0.0753281,0.0370096,0.014802
 9,0.2873935,-0.0858623,-0.0261049,0.0365066,-0.0503049,-0.0748487,-0.0
 843667,-0.0317007,-0.0539951,-0.0160116,-0.0124351,-0.0037457,0.031805
 1,-0.0064154,0.0739054,-0.0301989,0.0754668,-0.0563926,-0.0726333,-0.0
 108716,-0.0365701,0.0190615,0.0258728,-0.0574032,0.0326637,-0.0671604,
 0.0737048,0.0502982,-0.1446802,-0.0094229,-0.0270286,0.0177761,0.08132
 41,0.00272,-0.0271232,-0.0120344,0.110603,0.1092204,0.0489646,-0.04147
 08,0.0027405,-0.039804,0.044637,-0.0287372,0.0837984,0.0160645,0.08888
 55,0.0207228,0.0878571,-0.0056813,0.0582409,0.0012553,0.0668684,-0.033
 9775,-0.0384153,-0.47309,0.1507347,-0.1875245,-0.0070469,-0.7679779,-0
 .0924472,-0.1721562,-0.1259042,-0.3436058,0.1837386,-0.0841852,0.11038
 64,-0.0295652,0.2863029,0.0261339,0.1235768,0.0401042,0.2284987\Polar=
 83.6421553,6.0812367,62.7798939,2.8062867,1.0960526,56.7322229\Quadrup
 ole=10.6145888,-4.533727,-6.0808618,-0.0217121,-1.5260359,4.0630805\PG
 =C01 [X(C5H7O3)]\NImag=3\\1.05907805,0.22893548,0.09553380,0.28174800,
 0.06264818,0.12629279,-0.39587607,-0.02733843,-0.10116113,0.38759363,-
 0.00571952,0.00556349,0.00110154,0.01925555,0.00080203,-0.09912171,-0.
 00423659,-0.05088394,0.10058833,0.00392215,0.04251764,-0.64422047,-0.1
 7710531,-0.16959723,0.00764095,-0.01683191,0.00026008,0.92857226,-0.15
 280210,-0.04092785,-0.03898617,0.00808299,-0.01265242,0.00035710,0.072
 57639,0.06635152,-0.16891259,-0.04530835,-0.08307637,0.00195499,-0.005
 66281,0.00334910,0.18523038,0.01332706,0.21464346,-0.00768573,0.000394
 51,-0.00338061,-0.00024813,0.00191189,-0.00190274,-0.18329220,0.047422
 29,-0.02230189,0.62752041,-0.02431876,-0.00298381,-0.00623239,-0.00067
 937,0.00273035,-0.00067050,0.04312346,-0.05513884,0.01008584,-0.096733
 97,0.29320188,-0.00645206,-0.00084265,-0.00259245,-0.00158968,0.000299
 16,0.00690920,-0.01689984,0.00826332,-0.06618069,0.08938480,-0.2515473
 3,0.97864170,-0.00093288,0.00184223,-0.00012952,-0.00014715,-0.0002977
 9,0.00176330,-0.01633930,0.01332179,-0.04501275,-0.15637982,0.07694193
 ,-0.20653121,0.14789441,0.00253549,0.00013394,0.00156592,0.00027621,-0
 .00052392,-0.00082315,0.01564542,0.00737882,0.02062336,0.06983005,-0.1
 3046957,0.21775741,-0.08404286,0.10306466,0.00044358,0.00170145,0.0011
 5540,-0.00020681,-0.00017742,0.00012638,-0.02227032,0.01102959,-0.0216
 1089,-0.20024580,0.21891656,-0.69561867,0.20791914,-0.26740929,0.81347
 224,-0.00369084,0.00233061,0.00062803,0.00074399,0.00028778,-0.0016638
 7,-0.05120317,-0.00406674,0.03380049,-0.21639915,-0.01951338,0.1375416
 8,0.02475366,-0.00576472,0.02567109,0.54167687,0.00169415,0.00072012,-
 0.00028299,-0.00004573,-0.00035861,0.00018262,0.00768157,0.00506499,-0
 .00122500,-0.01512535,-0.06560461,0.03746727,-0.01068473,0.02206143,0.
 03157587,0.00543361,0.09580170,0.00125548,0.00009116,0.00016049,0.0000
 1827,-0.00025082,-0.00065444,0.00339243,0.00227847,0.00235795,0.101190
 63,0.03439134,-0.22813660,0.03402347,0.03138836,-0.10005539,-0.1236914
 2,-0.07578013,0.40648531,0.00095177,-0.00019193,0.00015446,-0.00024616
 ,0.00000518,0.00006376,0.00254260,-0.00223066,0.00026277,-0.06014328,-
 0.00196328,0.02826122,-0.00013692,0.00571647,-0.01774909,-0.19724116,0
 .01238888,-0.01141645,0.48432393,0.00090263,0.00014805,0.00010462,0.00
 000406,-0.00006887,0.00015103,0.00226278,0.00449496,0.00119685,-0.0055
 5685,0.00462930,-0.00982763,0.00256424,-0.00537350,0.00145037,0.015370
 22,-0.06619387,0.01219837,-0.02430333,0.56549812,0.00065059,-0.0003732
 3,0.00019499,-0.00000926,-0.00002303,0.00028561,0.00451364,0.00246240,
 -0.00307911,0.04180406,-0.00518631,0.00485830,0.00169658,-0.00088833,-
 0.00213538,-0.04550457,0.01115589,-0.08618796,-0.06630061,-0.03915186,
 0.63620503,0.00006849,0.00009473,0.00004119,0.00007310,-0.00000277,-0.
 00000058,0.00020959,0.00109889,0.00075783,0.00200520,-0.00133372,-0.00
 974347,0.00076062,-0.00142787,0.00283576,-0.03877568,-0.03599981,-0.01
 842605,-0.08289600,-0.02005186,-0.00693377,0.59098814,0.00013236,-0.00
 006244,0.00003344,-0.00000242,-0.00000749,-0.00000774,-0.00044150,0.00
 008390,-0.00012372,-0.00027454,-0.00066468,0.00407851,-0.00123746,-0.0
 0020872,-0.00165610,-0.00017192,0.00522342,-0.00245379,-0.03196198,-0.
 18514976,-0.04913832,-0.03049499,0.53381044,0.00006692,0.00004414,0.00
 001764,0.00001024,-0.00001292,0.00000262,-0.00031058,0.00033496,0.0001
 3852,0.00156433,0.00102932,0.00232347,-0.00122149,-0.00157647,-0.00047
 959,-0.00820166,-0.00532874,-0.00099620,-0.01197012,-0.04798489,-0.114
 07802,-0.01562126,-0.03653417,0.58338785,-0.00039316,0.00011768,-0.000
 06954,0.00002635,0.00003842,-0.00007843,-0.00116434,-0.00085244,0.0009
 7268,-0.00467642,0.00356888,-0.00483936,0.00162011,-0.00042292,0.00089
 346,-0.03523820,0.00178420,0.03444403,-0.08738302,0.01413198,0.0949119
 4,0.00695373,-0.00216532,-0.01148460,0.11521785,0.00000882,0.00000065,
 -0.00000009,0.00000654,0.00000901,0.00001311,0.00022948,0.00005975,-0.
 00010596,0.00000923,-0.00045298,0.00252591,-0.00157557,0.00054468,-0.0
 0034567,0.00296714,0.00091901,-0.00288160,0.01380304,-0.05774939,-0.02
 699351,0.01117965,-0.00502464,-0.02940686,-0.01328072,0.05926305,0.000
 01091,0.00004895,-0.00000328,0.00000003,-0.00000276,-0.00003572,-0.000
 20588,-0.00042479,0.00022582,-0.00332438,0.00063110,-0.00030880,0.0013
 1209,-0.00037852,0.00078732,-0.00819486,0.00189432,0.00800339,0.109666
 40,-0.02836181,-0.28671678,0.00461207,-0.00117920,-0.01167975,-0.11001
 701,0.03360503,0.30330106,-0.00019638,0.00004145,0.00005016,0.00002838
 ,0.00003894,-0.00007054,-0.00011920,-0.00076464,0.00012129,0.00239944,
 0.00341035,-0.00821682,0.00064202,-0.00119739,0.00372185,-0.02891161,0
 .03126658,-0.02209664,-0.05557444,0.02847550,-0.01674931,0.00420041,-0
 .01044458,0.00670591,0.00464747,-0.01166282,0.00747553,0.07292313,-0.0
 0003766,0.00000992,-0.00003636,-0.00000661,-0.00000587,0.00002527,-0.0
 0006979,-0.00013492,-0.00026389,-0.00017649,-0.00039604,0.00348545,-0.
 00255806,0.00061779,-0.00097553,0.00341047,0.00195776,0.00009992,0.037
 47807,-0.23097883,0.12459553,0.00303876,-0.02341204,0.01602107,-0.0013
 0511,0.00474809,-0.00372097,-0.03805478,0.24905768,-0.00009415,-0.0000
 0143,0.00001440,0.00002301,0.00001132,0.00000834,0.00003910,0.00039882
 ,-0.00001925,0.00259583,-0.00001739,-0.00024574,0.00136840,-0.00088422
 ,-0.00064701,-0.00690840,0.00295381,-0.00258848,-0.02561268,0.12782881
 ,-0.14251079,0.00280158,-0.01617890,0.00984733,-0.00460341,0.02463424,
 -0.01499598,0.03089532,-0.13683217,0.15112345,-0.00009069,-0.00002089,
 -0.00000405,0.00002304,0.00002124,0.00000374,0.00013238,0.00020759,0.0
 0004075,0.00156842,0.00058045,-0.00129074,-0.00007265,-0.00041628,0.00
 042935,-0.00034700,-0.00282010,-0.00029269,-0.01106831,0.00400492,0.00
 030168,-0.31840381,0.01270273,-0.03433277,0.00029166,-0.00009394,-0.00
 038984,0.00015923,-0.00046211,0.00021296,0.34807554,-0.00003630,0.0000
 9084,0.00001636,0.00000746,-0.00001180,-0.00001102,0.00004057,0.000053
 94,0.00018808,0.00073481,-0.00013553,-0.00286685,0.00032374,-0.0003461
 8,0.00097317,-0.00582811,-0.00551353,-0.00233550,-0.02898144,0.0028443
 7,-0.00239510,0.01520023,-0.05006370,0.00147769,0.00060445,0.00117424,
 -0.00003428,0.00057696,0.00048198,0.00113409,-0.01379971,0.05172385,-0
 .00002163,0.00001901,0.00000133,0.00000629,0.00000009,-0.00000169,-0.0
 0003892,-0.00005773,0.00004656,0.00031251,-0.00006902,-0.00252982,0.00
 046578,0.00025153,0.00103616,-0.00350295,-0.00363276,-0.00021991,-0.01
 503343,0.00253329,-0.00216743,-0.03296845,0.00089212,-0.05213374,0.000
 38390,0.00060857,-0.00017338,0.00023669,0.00028588,0.00045569,0.038544
 25,0.00028079,0.05301053,0.00002566,0.00006595,0.00000380,-0.00002374,
 -0.00002210,0.00000207,0.00002431,-0.00018379,-0.00010040,-0.00052600,
 -0.00064799,0.00163404,-0.00045175,0.00001088,-0.00074278,0.00205520,0
 .00082734,0.00045402,0.00117076,-0.01232838,0.00545375,-0.06288629,0.0
 5004993,-0.03405131,0.00006316,0.00084720,0.00021145,-0.00024004,-0.00
 215368,-0.00108175,-0.00633194,0.02758099,-0.01961541,0.06333908,-0.00
 002917,0.00003044,-0.00000588,-0.00000519,-0.00000883,0.00000229,-0.00
 007811,-0.00012158,-0.00000835,-0.00011272,-0.00054374,0.00079001,-0.0
 0018915,0.00023913,-0.00048235,0.00136318,0.00325140,0.00031238,0.0067
 2027,-0.02789380,0.01746924,0.04700823,-0.22171501,0.12469867,0.000219
 45,0.00111279,-0.00000834,-0.00194554,-0.00315789,-0.00358174,-0.00077
 064,-0.00004109,0.00000549,-0.05161894,0.24534770,0.00003507,-0.000082
 70,-0.00001236,0.00000209,0.00001498,0.00000588,-0.00003787,0.00005508
 ,0.00008243,-0.00048889,0.00046398,-0.00027772,0.00055241,0.00035143,0
 .00028429,0.00210151,0.00112280,0.00018743,0.00251222,-0.01756954,0.00
 968268,-0.03441039,0.12762624,-0.14232387,0.00057317,0.00050624,0.0009
 4335,-0.00170186,-0.00302997,-0.00112402,0.00044422,0.00236984,-0.0026
 2143,0.03886165,-0.13595531,0.15119289,0.00012328,0.00006792,-0.000005
 14,-0.00002520,-0.00003180,-0.00000436,-0.00010449,-0.00020168,-0.0000
 5702,-0.00112245,-0.00060725,-0.00071978,-0.00049726,-0.00050171,0.000
 44286,0.00148358,0.00125422,0.00044410,0.00465559,-0.00383622,-0.01303
 746,-0.10193365,0.01428206,0.10881676,-0.00007522,-0.00241905,-0.00130
 483,-0.00000018,0.00083789,0.00048386,-0.01369533,0.00347666,0.0312175
 3,0.00346091,-0.00065527,-0.00828068,0.10729445,0.00007853,-0.00004614
 ,-0.00001920,-0.00000427,0.00000555,-0.00000975,-0.00023466,-0.0001356
 5,0.00018710,-0.00131578,0.00096804,-0.00253294,0.00092061,-0.00035533
 ,0.00156880,0.00027286,0.00157686,0.00273373,0.01475650,-0.00577700,-0
 .03154628,0.01112623,-0.05251690,-0.02273367,-0.00262368,-0.00464976,-
 0.00202318,0.00050953,0.00115750,0.00036091,0.00082006,-0.00059059,-0.
 00120561,-0.01261485,0.00340764,0.02436706,-0.01166025,0.05727147,0.00
 000947,0.00006055,0.00000386,-0.00001509,-0.00002390,-0.00001801,-0.00
 010339,-0.00034938,-0.00002962,-0.00074930,-0.00038943,-0.00147035,0.0
 0086308,0.00087730,0.00071614,-0.00065037,0.00092753,0.00107063,0.0075
 1990,-0.00279518,-0.01453772,0.10713565,-0.02546053,-0.27370132,-0.000
 99985,-0.00221693,0.00063081,-0.00039131,0.00035071,0.00066405,-0.0036
 2157,0.00114470,0.00517198,0.00897643,-0.00319093,-0.01590519,-0.11827
 270,0.03098951,0.29720420,-0.00837195,-0.02852089,-0.00840016,0.000421
 98,0.00216692,0.00001788,-0.04281418,0.02685313,0.01868454,-0.00179626
 ,0.01822267,-0.00422310,-0.00052437,-0.00007941,0.00040966,0.00052627,
 0.00124090,0.00150495,0.00092306,-0.00151900,-0.00076773,-0.00036314,0
 .00012572,-0.00017297,0.00010705,0.00000786,0.00017151,0.00008039,0.00
 002813,-0.00010591,-0.00025777,0.00008248,0.00007173,0.00023434,0.0000
 4988,-0.00016085,0.00050232,-0.00007557,0.00035973,0.26459668,-0.05107
 159,-0.05825521,-0.02178276,0.00063506,0.00463034,0.00164330,0.0333670
 1,0.04159975,0.03072709,0.00018571,-0.04011093,-0.00619929,0.00397960,
 0.00295752,0.00248769,0.00485540,0.00082062,-0.00006675,-0.00158020,0.
 00133553,-0.00018787,0.00061116,-0.00022426,0.00006201,0.00024345,0.00
 005556,-0.00004589,-0.00019839,0.00004948,0.00020316,0.00008153,0.0002
 9536,0.00007735,0.00012091,0.00005846,-0.00025006,-0.00010249,-0.00034
 395,0.00004278,-0.06551358,0.08623038,-0.00706158,-0.01307742,0.007498
 24,0.00033407,0.00115628,-0.00134860,0.01191515,-0.00700515,-0.0445891
 5,-0.00744902,-0.00161467,0.00226509,0.00395820,-0.00085321,0.00479420
 ,0.00002268,-0.00111746,0.00020477,-0.00063185,0.00019854,0.00007938,0
 .00000683,0.00009240,-0.00039571,-0.00002372,0.00006289,0.00004489,0.0
 0005764,0.00001352,0.00002779,-0.00005069,0.00012550,0.00016125,0.0000
 3927,-0.00000388,-0.00017934,0.00031455,-0.00021553,0.00026785,-0.2624
 2278,0.09016363,0.32651273,0.00121090,-0.00071310,0.00012174,0.0000150
 4,-0.00082004,0.00014310,0.00013526,-0.00846101,-0.00544106,-0.0012240
 3,-0.00005001,0.00368431,-0.00018874,-0.00016138,-0.00155196,0.0005672
 5,0.00110428,-0.00080413,0.00012157,-0.00012071,-0.00002953,-0.0000007
 0,-0.00009809,0.00020259,0.00000298,-0.00002686,-0.00002319,-0.0000386
 1,0.00003097,-0.00001376,0.00001722,0.00001721,-0.00005789,0.00008635,
 0.00004372,-0.00000178,-0.00006634,0.00004475,-0.00006068,-0.21326443,
 0.07438642,0.26099125,0.21262627,-0.00027237,0.00004422,0.00187579,-0.
 00018585,-0.00010297,-0.00053810,0.01983462,-0.01597638,-0.02363728,-0
 .00119277,-0.00502883,-0.00085036,0.00069148,0.00027924,0.00134286,-0.
 00094640,0.00027331,0.00027487,0.00034441,0.00023471,0.00020080,-0.000
 04687,-0.00006812,-0.00009014,-0.00005833,-0.00001007,0.00000035,-0.00
 005117,0.00000541,-0.00002930,-0.00003486,0.00003782,0.00001099,0.0000
 6653,0.00003438,0.00000993,0.00009696,0.00002826,0.00003321,0.04693076
 ,-0.03909864,-0.06792543,-0.06517614,0.05934764,-0.00255630,-0.0006910
 4,0.00122925,0.00004463,-0.00035186,-0.00026239,0.00411324,0.00831643,
 -0.00225877,0.00299047,0.00020891,0.00236308,-0.00102748,-0.00000211,-
 0.00182521,-0.00144738,0.00008698,0.00036901,0.00027350,0.00002901,0.0
 0010718,-0.00008691,0.00000978,0.00007076,-0.00006324,-0.00000537,-0.0
 0002296,-0.00003791,-0.00001843,-0.00000979,0.00000538,-0.00006747,-0.
 00003611,-0.00004482,-0.00004130,0.00006498,-0.00003767,0.00007905,-0.
 00006732,0.25503350,-0.09687439,-0.29534342,-0.25715901,0.08932181,0.2
 9562169\\0.00129831,0.01460234,0.00165139,0.00022574,-0.00252001,0.000
 01404,-0.01614853,-0.05424847,-0.00922837,0.04315963,-0.01783500,0.030
 17697,-0.01322843,0.01816410,-0.04288769,-0.00186096,-0.00100303,0.015
 38493,-0.01777426,0.00196953,0.00353225,-0.00006532,0.00002200,0.00006
 644,-0.00045573,0.00016820,0.00056776,-0.00071004,0.00123924,-0.001030
 91,-0.00134187,-0.00033446,-0.00052815,0.00038397,-0.00097581,0.000476
 37,0.00030292,-0.00074539,-0.00154780,-0.00355235,0.04923770,0.0147091
 5,0.00976692,-0.00774094,-0.01135638\\\@


 A FOOL CAN ASK MORE QUESTIONS THAN
 A WISE MAN CAN ANSWER.
 Job cpu time:       0 days  0 hours 18 minutes 24.0 seconds.
 Elapsed time:       0 days  0 hours  0 minutes 46.0 seconds.
 File lengths (MBytes):  RWF=     59 Int=      0 D2E=      0 Chk=      8 Scr=      1
 Normal termination of Gaussian 16 at Fri Jun 20 14:10:36 2025.
