 Entering Gaussian System, Link 0=g16
 Initial command:
 /opt/g16/l1.exe "/home/aayush/scratches/g16/Gau-87239.inp" -scrdir="/home/aayush/scratches/g16/"
 Entering Link 1 = /opt/g16/l1.exe PID=     87242.
  
 Copyright (c) 1988,1990,1992,1993,1995,1998,2003,2009,2016,
            Gaussian, Inc.  All Rights Reserved.
  
 This is part of the Gaussian(R) 16 program.  It is based on
 the Gaussian(R) 09 system (copyright 2009, Gaussian, Inc.),
 the Gaussian(R) 03 system (copyright 2003, Gaussian, Inc.),
 the Gaussian(R) 98 system (copyright 1998, Gaussian, Inc.),
 the Gaussian(R) 94 system (copyright 1995, Gaussian, Inc.),
 the Gaussian 92(TM) system (copyright 1992, Gaussian, Inc.),
 the Gaussian 90(TM) system (copyright 1990, Gaussian, Inc.),
 the Gaussian 88(TM) system (copyright 1988, Gaussian, Inc.),
 the Gaussian 86(TM) system (copyright 1986, Carnegie Mellon
 University), and the Gaussian 82(TM) system (copyright 1983,
 Carnegie Mellon University). Gaussian is a federally registered
 trademark of Gaussian, Inc.
  
 This software contains proprietary and confidential information,
 including trade secrets, belonging to Gaussian, Inc.
  
 This software is provided under written license and may be
 used, copied, transmitted, or stored only in accord with that
 written license.
  
 The following legend is applicable only to US Government
 contracts under FAR:
  
                    RESTRICTED RIGHTS LEGEND
  
 Use, reproduction and disclosure by the US Government is
 subject to restrictions as set forth in subparagraphs (a)
 and (c) of the Commercial Computer Software - Restricted
 Rights clause in FAR 52.227-19.
  
 Gaussian, Inc.
 340 Quinnipiac St., Bldg. 40, Wallingford CT 06492
  
  
 ---------------------------------------------------------------
 Warning -- This program may not be used in any manner that
 competes with the business of Gaussian, Inc. or will provide
 assistance to any competitor of Gaussian, Inc.  The licensee
 of this program is prohibited from giving any competitor of
 Gaussian, Inc. access to this program.  By using this program,
 the user acknowledges that Gaussian, Inc. is engaged in the
 business of creating and licensing software in the field of
 computational chemistry and represents and warrants to the
 licensee that it is not a competitor of Gaussian, Inc. and that
 it will not use this program in any manner prohibited above.
 ---------------------------------------------------------------
  

 Cite this work as:
 Gaussian 16, Revision A.03,
 M. J. Frisch, G. W. Trucks, H. B. Schlegel, G. E. Scuseria, 
 M. A. Robb, J. R. Cheeseman, G. Scalmani, V. Barone, 
 G. A. Petersson, H. Nakatsuji, X. Li, M. Caricato, A. V. Marenich, 
 J. Bloino, B. G. Janesko, R. Gomperts, B. Mennucci, H. P. Hratchian, 
 J. V. Ortiz, A. F. Izmaylov, J. L. Sonnenberg, D. Williams-Young, 
 F. Ding, F. Lipparini, F. Egidi, J. Goings, B. Peng, A. Petrone, 
 T. Henderson, D. Ranasinghe, V. G. Zakrzewski, J. Gao, N. Rega, 
 G. Zheng, W. Liang, M. Hada, M. Ehara, K. Toyota, R. Fukuda, 
 J. Hasegawa, M. Ishida, T. Nakajima, Y. Honda, O. Kitao, H. Nakai, 
 T. Vreven, K. Throssell, J. A. Montgomery, Jr., J. E. Peralta, 
 F. Ogliaro, M. J. Bearpark, J. J. Heyd, E. N. Brothers, K. N. Kudin, 
 V. N. Staroverov, T. A. Keith, R. Kobayashi, J. Normand, 
 K. Raghavachari, A. P. Rendell, J. C. Burant, S. S. Iyengar, 
 J. Tomasi, M. Cossi, J. M. Millam, M. Klene, C. Adamo, R. Cammi, 
 J. W. Ochterski, R. L. Martin, K. Morokuma, O. Farkas, 
 J. B. Foresman, and D. J. Fox, Gaussian, Inc., Wallingford CT, 2016.
 
 ******************************************
 Gaussian 16:  ES64L-G16RevA.03 25-Dec-2016
                16-Aug-2025 
 ******************************************
 %chk=ethyl_propiolate_non_planar.chk
 %mem=12GB
 %nprocshared=24
 Will use up to   24 processors via shared memory.
 --------------------------
 # freq 6-311++g(d,p) m062x
 --------------------------
 1/10=4,30=1,38=1/1,3;
 2/12=2,17=6,18=5,40=1/2;
 3/5=4,6=6,7=1111,11=2,25=1,30=1,71=2,74=-55,140=1/1,2,3;
 4//1;
 5/5=2,38=5,98=1/2;
 8/6=4,10=90,11=11/1;
 11/6=1,8=1,9=11,15=111,16=1/1,2,10;
 10/6=1/2;
 6/7=2,8=2,9=2,10=2,28=1/1;
 7/8=1,10=1,25=1/1,2,3,16;
 1/10=4,30=1/3;
 99//99;
 -------------------
 Title Card Required
 -------------------
 Symbolic Z-matrix:
 Charge =  0 Multiplicity = 2
 C                    -2.72951  -0.4655   -0.44837 
 H                    -3.757    -0.52716  -0.72235 
 C                    -1.56664  -0.33357  -0.15246 
 C                    -0.16551  -0.54573   0.22435 
 O                     0.1688   -0.88957   1.32268 
 O                     0.63815  -0.33725  -0.81012 
 C                     2.0521   -0.42365  -0.53902 
 C                     2.54145   0.84405   0.13217 
 H                     2.50159  -0.56267  -1.52047 
 H                     2.2388   -1.30454   0.07624 
 H                     3.62336   0.79332   0.26927 
 H                     2.3061    1.71294  -0.48366 
 H                     2.07374   0.96488   1.10962 
 O                    -1.34743   1.73722   0.10269 
 H                    -1.97919   1.82927   0.83385 
 

 GradGradGradGradGradGradGradGradGradGradGradGradGradGradGradGradGradGrad
 Berny optimization.
 Initialization pass.
 Trust Radius=3.00D-01 FncErr=1.00D-07 GrdErr=1.00D-07 EigMax=2.50D+02 EigMin=1.00D-04
 Number of steps in this run=      2 maximum allowed number of steps=      2.
 GradGradGradGradGradGradGradGradGradGradGradGradGradGradGradGradGradGrad

                          Input orientation:                          
 ---------------------------------------------------------------------
 Center     Atomic      Atomic             Coordinates (Angstroms)
 Number     Number       Type             X           Y           Z
 ---------------------------------------------------------------------
      1          6           0       -2.729512   -0.465495   -0.448371
      2          1           0       -3.757003   -0.527158   -0.722347
      3          6           0       -1.566641   -0.333567   -0.152462
      4          6           0       -0.165505   -0.545733    0.224347
      5          8           0        0.168798   -0.889570    1.322683
      6          8           0        0.638151   -0.337245   -0.810117
      7          6           0        2.052103   -0.423646   -0.539018
      8          6           0        2.541447    0.844052    0.132173
      9          1           0        2.501587   -0.562668   -1.520465
     10          1           0        2.238802   -1.304543    0.076235
     11          1           0        3.623356    0.793321    0.269273
     12          1           0        2.306098    1.712942   -0.483659
     13          1           0        2.073740    0.964884    1.109618
     14          8           0       -1.347431    1.737223    0.102686
     15          1           0       -1.979189    1.829265    0.833847
 ---------------------------------------------------------------------
                    Distance matrix (angstroms):
                    1          2          3          4          5
     1  C    0.000000
     2  H    1.065177   0.000000
     3  C    1.207160   2.271548   0.000000
     4  C    2.652003   3.714220   1.466350   0.000000
     5  O    3.422963   4.441329   2.344556   1.198467   0.000000
     6  O    3.389463   4.400131   2.300789   1.326441   2.252596
     7  C    4.782657   5.812920   3.640446   2.348492   2.688839
     8  C    5.462138   6.502376   4.283012   3.044271   3.170524
     9  H    5.340714   6.309374   4.298185   3.187167   3.692189
    10  H    5.065901   6.098503   3.934017   2.525554   2.451683
    11  H    6.516024   7.562848   5.327645   4.018775   3.984440
    12  H    5.486730   6.468092   4.392721   3.422237   3.821517
    13  H    5.248290   6.291252   4.065857   2.842514   2.667058
    14  O    2.658153   3.407952   2.097933   2.573643   3.269157
    15  H    2.733677   3.336928   2.412642   3.049845   3.499267
                    6          7          8          9         10
     6  O    0.000000
     7  C    1.442297   0.000000
     8  C    2.430208   1.515590   0.000000
     9  H    2.006939   1.088394   2.170636   0.000000
    10  H    2.069630   1.090583   2.170526   1.780136   0.000000
    11  H    3.369675   2.145502   1.091740   2.510027   2.520969
    12  H    2.663060   2.152344   1.090692   2.508303   3.069727
    13  H    2.727973   2.155571   1.090298   3.071450   2.499085
    14  O    3.013165   4.078967   3.990238   4.768549   4.702564
    15  H    3.774500   4.817850   4.679652   5.598346   5.309066
                   11         12         13         14         15
    11  H    0.000000
    12  H    1.774198   0.000000
    13  H    1.771136   1.775419   0.000000
    14  O    5.062354   3.700360   3.648949   0.000000
    15  H    5.725420   4.484756   4.153244   0.970663   0.000000
 Stoichiometry    C5H7O3(2)
 Framework group  C1[X(C5H7O3)]
 Deg. of freedom    39
 Full point group                 C1      NOp   1
 Largest Abelian subgroup         C1      NOp   1
 Largest concise Abelian subgroup C1      NOp   1
                         Standard orientation:                         
 ---------------------------------------------------------------------
 Center     Atomic      Atomic             Coordinates (Angstroms)
 Number     Number       Type             X           Y           Z
 ---------------------------------------------------------------------
      1          6           0       -2.786970   -0.491163   -0.439503
      2          1           0       -3.814628   -0.554469   -0.712476
      3          6           0       -1.623881   -0.357493   -0.145235
      4          6           0       -0.222685   -0.567383    0.232623
      5          8           0        0.111952   -0.902441    1.333567
      6          8           0        0.580591   -0.367802   -0.803891
      7          6           0        1.994624   -0.452800   -0.532772
      8          6           0        2.485014    0.820050    0.127821
      9          1           0        2.443555   -0.600081   -1.513267
     10          1           0        2.181117   -1.328756    0.089557
     11          1           0        3.566960    0.769818    0.264814
     12          1           0        2.249864    1.684022   -0.494966
     13          1           0        2.017848    0.949120    1.104472
     14          8           0       -1.403368    1.715183    0.092907
     15          1           0       -2.034720    1.813549    0.823594
 ---------------------------------------------------------------------
 Rotational constants (GHZ):           3.5614488           1.3083021           1.1834137
 Standard basis: 6-311++G(d,p) (5D, 7F)
 There are   233 symmetry adapted cartesian basis functions of A   symmetry.
 There are   225 symmetry adapted basis functions of A   symmetry.
   225 basis functions,   351 primitive gaussians,   233 cartesian basis functions
    31 alpha electrons       30 beta electrons
       nuclear repulsion energy       361.5632405995 Hartrees.
 NAtoms=   15 NActive=   15 NUniq=   15 SFac= 1.00D+00 NAtFMM=   60 NAOKFM=F Big=F
 Integral buffers will be    131072 words long.
 Raffenetti 2 integral format.
 Two-electron integral symmetry is turned on.
 One-electron integrals computed using PRISM.
 NBasis=   225 RedAO= T EigKep=  1.65D-06  NBF=   225
 NBsUse=   225 1.00D-06 EigRej= -1.00D+00 NBFU=   225
 ExpMin= 3.60D-02 ExpMax= 8.59D+03 ExpMxC= 1.30D+03 IAcc=3 IRadAn=         5 AccDes= 0.00D+00
 Harris functional with IExCor= 1009 and IRadAn=       5 diagonalized for initial guess.
 HarFok:  IExCor= 1009 AccDes= 0.00D+00 IRadAn=         5 IDoV= 1 UseB2=F ITyADJ=14
 ICtDFT=  3500011 ScaDFX=  1.000000  1.000000  1.000000  1.000000
 FoFCou: FMM=F IPFlag=           0 FMFlag=      100000 FMFlg1=           0
         NFxFlg=           0 DoJE=T BraDBF=F KetDBF=T FulRan=T
         wScrn=  0.000000 ICntrl=       500 IOpCl=  0 I1Cent=   200000004 NGrid=           0
         NMat0=    1 NMatS0=      1 NMatT0=    0 NMatD0=    1 NMtDS0=    0 NMtDT0=    0
 Petite list used in FoFCou.
 Initial guess <Sx>= 0.0000 <Sy>= 0.0000 <Sz>= 0.5000 <S**2>= 0.7500 S= 0.5000
 Requested convergence on RMS density matrix=1.00D-08 within 128 cycles.
 Requested convergence on MAX density matrix=1.00D-06.
 Requested convergence on             energy=1.00D-06.
 No special actions if energy rises.
 Restarting incremental Fock formation.
 SCF Done:  E(UM062X) =  -420.203473706     A.U. after   24 cycles
            NFock= 24  Conv=0.57D-08     -V/T= 2.0032
 <Sx>= 0.0000 <Sy>= 0.0000 <Sz>= 0.5000 <S**2>= 0.7659 S= 0.5079
 <L.S>=  0.00000000000    
 Annihilation of the first spin contaminant:
 S**2 before annihilation     0.7659,   after     0.7501
 DoSCS=F DFT=T ScalE2(SS,OS)=  1.000000  1.000000
 Range of M.O.s used for correlation:     1   225
 NBasis=   225 NAE=    31 NBE=    30 NFC=     0 NFV=     0
 NROrb=    225 NOA=    31 NOB=    30 NVA=   194 NVB=   195

 **** Warning!!: The largest alpha MO coefficient is  0.27828456D+03


 **** Warning!!: The largest beta MO coefficient is  0.23723359D+03

 Symmetrizing basis deriv contribution to polar:
 IMax=3 JMax=2 DiffMx= 0.00D+00
 G2DrvN: will do    16 centers at a time, making    1 passes.
 Calling FoFCou, ICntrl=  3107 FMM=F I1Cent=   0 AccDes= 0.00D+00.
 End of G2Drv F.D. properties file   721 does not exist.
 End of G2Drv F.D. properties file   722 does not exist.
 End of G2Drv F.D. properties file   788 does not exist.
          IDoAtm=111111111111111
          Differentiating once with respect to electric field.
                with respect to dipole field.
          Differentiating once with respect to nuclear coordinates.
 Keep R1 and R2 ints in memory in canonical form, NReq=671901991.
          There are    48 degrees of freedom in the 1st order CPHF.  IDoFFX=6 NUNeed=     3.
     45 vectors produced by pass  0 Test12= 2.47D-14 2.08D-09 XBig12= 9.40D+01 3.13D+00.
 AX will form    45 AO Fock derivatives at one time.
     45 vectors produced by pass  1 Test12= 2.47D-14 2.08D-09 XBig12= 2.01D+01 5.85D-01.
     45 vectors produced by pass  2 Test12= 2.47D-14 2.08D-09 XBig12= 7.23D-01 1.58D-01.
     45 vectors produced by pass  3 Test12= 2.47D-14 2.08D-09 XBig12= 1.08D-02 1.48D-02.
     45 vectors produced by pass  4 Test12= 2.47D-14 2.08D-09 XBig12= 1.02D-04 1.32D-03.
     45 vectors produced by pass  5 Test12= 2.47D-14 2.08D-09 XBig12= 8.19D-07 7.96D-05.
     39 vectors produced by pass  6 Test12= 2.47D-14 2.08D-09 XBig12= 7.76D-09 1.18D-05.
     20 vectors produced by pass  7 Test12= 2.47D-14 2.08D-09 XBig12= 5.40D-11 6.73D-07.
      4 vectors produced by pass  8 Test12= 2.47D-14 2.08D-09 XBig12= 4.35D-13 6.15D-08.
      3 vectors produced by pass  9 Test12= 2.47D-14 2.08D-09 XBig12= 5.56D-15 1.02D-08.
      1 vectors produced by pass 10 Test12= 2.47D-14 2.08D-09 XBig12= 4.53D-16 4.16D-09.
 InvSVY:  IOpt=1 It=  1 EMax= 3.57D-15
 Solved reduced A of dimension   337 with    48 vectors.
 Isotropic polarizability for W=    0.000000       73.79 Bohr**3.
 End of Minotr F.D. properties file   721 does not exist.
 End of Minotr F.D. properties file   722 does not exist.
 End of Minotr F.D. properties file   788 does not exist.

 **********************************************************************

            Population analysis using the SCF density.

 **********************************************************************

 Orbital symmetries:
 Alpha Orbitals:
       Occupied  (A) (A) (A) (A) (A) (A) (A) (A) (A) (A) (A) (A)
                 (A) (A) (A) (A) (A) (A) (A) (A) (A) (A) (A) (A)
                 (A) (A) (A) (A) (A) (A) (A)
       Virtual   (A) (A) (A) (A) (A) (A) (A) (A) (A) (A) (A) (A)
                 (A) (A) (A) (A) (A) (A) (A) (A) (A) (A) (A) (A)
                 (A) (A) (A) (A) (A) (A) (A) (A) (A) (A) (A) (A)
                 (A) (A) (A) (A) (A) (A) (A) (A) (A) (A) (A) (A)
                 (A) (A) (A) (A) (A) (A) (A) (A) (A) (A) (A) (A)
                 (A) (A) (A) (A) (A) (A) (A) (A) (A) (A) (A) (A)
                 (A) (A) (A) (A) (A) (A) (A) (A) (A) (A) (A) (A)
                 (A) (A) (A) (A) (A) (A) (A) (A) (A) (A) (A) (A)
                 (A) (A) (A) (A) (A) (A) (A) (A) (A) (A) (A) (A)
                 (A) (A) (A) (A) (A) (A) (A) (A) (A) (A) (A) (A)
                 (A) (A) (A) (A) (A) (A) (A) (A) (A) (A) (A) (A)
                 (A) (A) (A) (A) (A) (A) (A) (A) (A) (A) (A) (A)
                 (A) (A) (A) (A) (A) (A) (A) (A) (A) (A) (A) (A)
                 (A) (A) (A) (A) (A) (A) (A) (A) (A) (A) (A) (A)
                 (A) (A) (A) (A) (A) (A) (A) (A) (A) (A) (A) (A)
                 (A) (A) (A) (A) (A) (A) (A) (A) (A) (A) (A) (A)
                 (A) (A)
 Beta  Orbitals:
       Occupied  (A) (A) (A) (A) (A) (A) (A) (A) (A) (A) (A) (A)
                 (A) (A) (A) (A) (A) (A) (A) (A) (A) (A) (A) (A)
                 (A) (A) (A) (A) (A) (A)
       Virtual   (A) (A) (A) (A) (A) (A) (A) (A) (A) (A) (A) (A)
                 (A) (A) (A) (A) (A) (A) (A) (A) (A) (A) (A) (A)
                 (A) (A) (A) (A) (A) (A) (A) (A) (A) (A) (A) (A)
                 (A) (A) (A) (A) (A) (A) (A) (A) (A) (A) (A) (A)
                 (A) (A) (A) (A) (A) (A) (A) (A) (A) (A) (A) (A)
                 (A) (A) (A) (A) (A) (A) (A) (A) (A) (A) (A) (A)
                 (A) (A) (A) (A) (A) (A) (A) (A) (A) (A) (A) (A)
                 (A) (A) (A) (A) (A) (A) (A) (A) (A) (A) (A) (A)
                 (A) (A) (A) (A) (A) (A) (A) (A) (A) (A) (A) (A)
                 (A) (A) (A) (A) (A) (A) (A) (A) (A) (A) (A) (A)
                 (A) (A) (A) (A) (A) (A) (A) (A) (A) (A) (A) (A)
                 (A) (A) (A) (A) (A) (A) (A) (A) (A) (A) (A) (A)
                 (A) (A) (A) (A) (A) (A) (A) (A) (A) (A) (A) (A)
                 (A) (A) (A) (A) (A) (A) (A) (A) (A) (A) (A) (A)
                 (A) (A) (A) (A) (A) (A) (A) (A) (A) (A) (A) (A)
                 (A) (A) (A) (A) (A) (A) (A) (A) (A) (A) (A) (A)
                 (A) (A) (A)
 The electronic state is 2-A.
 Alpha  occ. eigenvalues --  -19.68042 -19.66569 -19.62951 -10.70563 -10.60326
 Alpha  occ. eigenvalues --  -10.58591 -10.58047 -10.53367  -1.25578  -1.16278
 Alpha  occ. eigenvalues --   -1.12557  -0.90843  -0.87324  -0.78035  -0.70580
 Alpha  occ. eigenvalues --   -0.64387  -0.61908  -0.58480  -0.57160  -0.54160
 Alpha  occ. eigenvalues --   -0.53233  -0.50370  -0.48516  -0.46110  -0.45054
 Alpha  occ. eigenvalues --   -0.41715  -0.41637  -0.39567  -0.38277  -0.36541
 Alpha  occ. eigenvalues --   -0.34918
 Alpha virt. eigenvalues --   -0.00775  -0.00209   0.00508   0.01472   0.02530
 Alpha virt. eigenvalues --    0.02788   0.03574   0.04365   0.05650   0.06192
 Alpha virt. eigenvalues --    0.07137   0.07635   0.08456   0.09825   0.10705
 Alpha virt. eigenvalues --    0.11008   0.11492   0.12600   0.12828   0.13712
 Alpha virt. eigenvalues --    0.14324   0.14746   0.15444   0.15681   0.15862
 Alpha virt. eigenvalues --    0.17003   0.17437   0.18492   0.19039   0.20722
 Alpha virt. eigenvalues --    0.21283   0.21659   0.23506   0.24203   0.24455
 Alpha virt. eigenvalues --    0.25508   0.26284   0.28093   0.29458   0.30585
 Alpha virt. eigenvalues --    0.31267   0.32121   0.32326   0.33829   0.34552
 Alpha virt. eigenvalues --    0.34635   0.35654   0.37014   0.38782   0.40514
 Alpha virt. eigenvalues --    0.41003   0.43341   0.45065   0.46802   0.49270
 Alpha virt. eigenvalues --    0.50163   0.53594   0.55271   0.56145   0.58759
 Alpha virt. eigenvalues --    0.59444   0.60755   0.63310   0.66412   0.67168
 Alpha virt. eigenvalues --    0.70052   0.70424   0.70557   0.72297   0.72646
 Alpha virt. eigenvalues --    0.74025   0.75656   0.77331   0.78318   0.79935
 Alpha virt. eigenvalues --    0.84321   0.87196   0.91439   0.94210   0.98565
 Alpha virt. eigenvalues --    1.01981   1.05163   1.06525   1.09123   1.10274
 Alpha virt. eigenvalues --    1.14899   1.17813   1.18990   1.20250   1.23515
 Alpha virt. eigenvalues --    1.24793   1.26132   1.29584   1.32486   1.35376
 Alpha virt. eigenvalues --    1.35436   1.36860   1.38055   1.41224   1.45148
 Alpha virt. eigenvalues --    1.46565   1.49071   1.51557   1.53090   1.55861
 Alpha virt. eigenvalues --    1.58548   1.59841   1.61861   1.62636   1.65453
 Alpha virt. eigenvalues --    1.66621   1.67882   1.70629   1.73343   1.74962
 Alpha virt. eigenvalues --    1.78965   1.81385   1.83799   1.87022   1.89317
 Alpha virt. eigenvalues --    1.90792   1.95243   1.99441   2.03621   2.05245
 Alpha virt. eigenvalues --    2.09847   2.10376   2.14313   2.21292   2.31861
 Alpha virt. eigenvalues --    2.35827   2.39215   2.46496   2.52012   2.52953
 Alpha virt. eigenvalues --    2.54536   2.55994   2.61904   2.62289   2.63527
 Alpha virt. eigenvalues --    2.65577   2.66543   2.72041   2.73707   2.75955
 Alpha virt. eigenvalues --    2.80927   2.83039   2.84661   2.90371   2.92722
 Alpha virt. eigenvalues --    2.94665   2.96467   2.99262   3.02543   3.06240
 Alpha virt. eigenvalues --    3.09955   3.12366   3.15979   3.17663   3.18656
 Alpha virt. eigenvalues --    3.25336   3.27157   3.31937   3.36639   3.38392
 Alpha virt. eigenvalues --    3.45144   3.51028   3.65942   3.77083   3.85628
 Alpha virt. eigenvalues --    3.86319   3.88896   3.91156   4.03477   4.13285
 Alpha virt. eigenvalues --    4.19581   4.28551   5.10953   5.13502   5.16705
 Alpha virt. eigenvalues --    5.20386   5.32762   5.47573   5.58779   5.73876
 Alpha virt. eigenvalues --    5.95012  23.61716  23.93224  23.94481  24.06180
 Alpha virt. eigenvalues --   25.08020  49.95481  50.01341  50.11525
  Beta  occ. eigenvalues --  -19.68046 -19.65084 -19.62969 -10.70542 -10.60326
  Beta  occ. eigenvalues --  -10.58616 -10.57868 -10.53367  -1.25583  -1.16316
  Beta  occ. eigenvalues --   -1.06033  -0.90378  -0.86947  -0.77847  -0.70384
  Beta  occ. eigenvalues --   -0.64306  -0.61506  -0.58425  -0.56689  -0.53206
  Beta  occ. eigenvalues --   -0.51706  -0.49003  -0.46553  -0.45108  -0.41706
  Beta  occ. eigenvalues --   -0.39462  -0.39095  -0.38397  -0.38038  -0.35972
  Beta virt. eigenvalues --   -0.09447  -0.00224   0.00281   0.00592   0.01765
  Beta virt. eigenvalues --    0.02644   0.02823   0.03590   0.04443   0.05721
  Beta virt. eigenvalues --    0.06182   0.07234   0.07596   0.08495   0.09909
  Beta virt. eigenvalues --    0.10806   0.11226   0.11702   0.12674   0.12871
  Beta virt. eigenvalues --    0.13733   0.14388   0.14976   0.15553   0.15723
  Beta virt. eigenvalues --    0.16163   0.16975   0.17589   0.18540   0.19132
  Beta virt. eigenvalues --    0.20874   0.21509   0.21811   0.23440   0.24153
  Beta virt. eigenvalues --    0.24554   0.25571   0.26406   0.28274   0.29323
  Beta virt. eigenvalues --    0.30625   0.31232   0.32153   0.32386   0.33885
  Beta virt. eigenvalues --    0.34554   0.34639   0.35762   0.37027   0.38850
  Beta virt. eigenvalues --    0.40487   0.41135   0.43282   0.45073   0.46824
  Beta virt. eigenvalues --    0.49392   0.50185   0.53611   0.55363   0.56481
  Beta virt. eigenvalues --    0.59250   0.59685   0.61079   0.63362   0.66579
  Beta virt. eigenvalues --    0.67170   0.70056   0.70489   0.70622   0.72215
  Beta virt. eigenvalues --    0.72686   0.74040   0.75645   0.77302   0.78370
  Beta virt. eigenvalues --    0.79953   0.84415   0.87244   0.91544   0.94537
  Beta virt. eigenvalues --    0.98599   1.02083   1.05499   1.07201   1.09192
  Beta virt. eigenvalues --    1.12032   1.15527   1.18077   1.19629   1.20692
  Beta virt. eigenvalues --    1.23881   1.25224   1.26322   1.29776   1.33404
  Beta virt. eigenvalues --    1.35485   1.35983   1.37019   1.38757   1.41804
  Beta virt. eigenvalues --    1.45682   1.47009   1.49250   1.51831   1.53655
  Beta virt. eigenvalues --    1.56272   1.58566   1.59852   1.61956   1.62647
  Beta virt. eigenvalues --    1.65462   1.66631   1.67895   1.70686   1.73593
  Beta virt. eigenvalues --    1.75073   1.79322   1.81425   1.84095   1.87120
  Beta virt. eigenvalues --    1.89573   1.90911   1.95759   1.99458   2.03730
  Beta virt. eigenvalues --    2.05334   2.10061   2.11490   2.14328   2.21307
  Beta virt. eigenvalues --    2.31876   2.35838   2.39515   2.46561   2.52015
  Beta virt. eigenvalues --    2.52941   2.54549   2.56078   2.62151   2.62653
  Beta virt. eigenvalues --    2.63907   2.65743   2.66672   2.72277   2.73771
  Beta virt. eigenvalues --    2.76281   2.81649   2.83163   2.87080   2.90875
  Beta virt. eigenvalues --    2.94719   2.95781   2.97700   2.99763   3.03787
  Beta virt. eigenvalues --    3.07157   3.11706   3.13695   3.16422   3.19463
  Beta virt. eigenvalues --    3.20423   3.26748   3.27365   3.32023   3.37112
  Beta virt. eigenvalues --    3.38339   3.45097   3.51576   3.65929   3.77134
  Beta virt. eigenvalues --    3.85675   3.86379   3.91144   3.92070   4.03470
  Beta virt. eigenvalues --    4.13232   4.19521   4.28548   5.12622   5.16154
  Beta virt. eigenvalues --    5.20644   5.22107   5.32840   5.47582   5.61138
  Beta virt. eigenvalues --    5.73861   5.95001  23.61771  23.93230  23.94486
  Beta virt. eigenvalues --   24.06180  25.08336  49.95018  50.01302  50.11549
          Condensed to atoms (all electrons):
               1          2          3          4          5          6
     1  C   33.953081   0.660680 -11.983220 -15.015262  -0.018817  -0.044481
     2  H    0.660680   0.432090  -0.203196  -0.069006  -0.001452  -0.003026
     3  C  -11.983220  -0.203196  18.690029  -1.778458   0.148065  -0.189713
     4  C  -15.015262  -0.069006  -1.778458  22.853204   0.284018   0.081170
     5  O   -0.018817  -0.001452   0.148065   0.284018   7.980896  -0.147293
     6  O   -0.044481  -0.003026  -0.189713   0.081170  -0.147293   8.257156
     7  C   -0.279817  -0.001074  -0.454149   0.615989   0.046499   0.122000
     8  C    0.105213   0.000151   0.123818  -0.350437  -0.069950  -0.025338
     9  H   -0.020629  -0.000019  -0.026440   0.055526   0.004163  -0.093677
    10  H   -0.031878  -0.000230  -0.054834   0.071530  -0.016986  -0.007050
    11  H   -0.008769  -0.000030  -0.010904   0.023888  -0.002187   0.015102
    12  H    0.002970   0.000049   0.010377  -0.013804   0.001605  -0.001470
    13  H    0.035662  -0.000134   0.021883  -0.073107   0.001454  -0.021785
    14  O   -0.213870  -0.002189   0.488913  -0.353316  -0.009721   0.000327
    15  H   -0.130188  -0.002591   0.087401   0.065813  -0.000437  -0.000783
               7          8          9         10         11         12
     1  C   -0.279817   0.105213  -0.020629  -0.031878  -0.008769   0.002970
     2  H   -0.001074   0.000151  -0.000019  -0.000230  -0.000030   0.000049
     3  C   -0.454149   0.123818  -0.026440  -0.054834  -0.010904   0.010377
     4  C    0.615989  -0.350437   0.055526   0.071530   0.023888  -0.013804
     5  O    0.046499  -0.069950   0.004163  -0.016986  -0.002187   0.001605
     6  O    0.122000  -0.025338  -0.093677  -0.007050   0.015102  -0.001470
     7  C    5.459103   0.011030   0.450327   0.415973  -0.044512  -0.036428
     8  C    0.011030   5.500531  -0.057503  -0.037630   0.397519   0.416954
     9  H    0.450327  -0.057503   0.532473  -0.037919   0.000095  -0.010824
    10  H    0.415973  -0.037630  -0.037919   0.520644  -0.004183   0.004937
    11  H   -0.044512   0.397519   0.000095  -0.004183   0.532193  -0.030757
    12  H   -0.036428   0.416954  -0.010824   0.004937  -0.030757   0.529792
    13  H   -0.009229   0.386172   0.009055  -0.010226  -0.037959  -0.043252
    14  O   -0.025205   0.019650   0.000396  -0.000904   0.000575  -0.001681
    15  H    0.004284  -0.004435   0.000099   0.000197   0.000130  -0.000212
              13         14         15
     1  C    0.035662  -0.213870  -0.130188
     2  H   -0.000134  -0.002189  -0.002591
     3  C    0.021883   0.488913   0.087401
     4  C   -0.073107  -0.353316   0.065813
     5  O    0.001454  -0.009721  -0.000437
     6  O   -0.021785   0.000327  -0.000783
     7  C   -0.009229  -0.025205   0.004284
     8  C    0.386172   0.019650  -0.004435
     9  H    0.009055   0.000396   0.000099
    10  H   -0.010226  -0.000904   0.000197
    11  H   -0.037959   0.000575   0.000130
    12  H   -0.043252  -0.001681  -0.000212
    13  H    0.550207   0.002432  -0.000204
    14  O    0.002432   8.085776   0.237546
    15  H   -0.000204   0.237546   0.509117
          Atomic-Atomic Spin Densities.
               1          2          3          4          5          6
     1  C    1.674885   0.054703  -0.517611  -0.595077   0.006153  -0.018975
     2  H    0.054703  -0.008102  -0.033719  -0.022047  -0.000008  -0.000227
     3  C   -0.517611  -0.033719   0.322347   0.126989   0.002670   0.002788
     4  C   -0.595077  -0.022047   0.126989   0.286836  -0.006673   0.021914
     5  O    0.006153  -0.000008   0.002670  -0.006673  -0.012853   0.000228
     6  O   -0.018975  -0.000227   0.002788   0.021914   0.000228  -0.005110
     7  C   -0.026933  -0.000129  -0.030983   0.051679   0.000011  -0.002476
     8  C    0.027229   0.000131   0.034619  -0.053333   0.000721   0.000870
     9  H   -0.002242  -0.000026  -0.001948   0.003759   0.000046   0.000016
    10  H   -0.000464  -0.000040  -0.000434  -0.000349  -0.000352   0.000139
    11  H    0.001497   0.000011   0.002171  -0.003123   0.000002   0.000106
    12  H   -0.000610  -0.000004  -0.001635   0.001965  -0.000050  -0.000071
    13  H   -0.008920  -0.000009  -0.014989   0.024101  -0.000280  -0.000988
    14  O   -0.328570  -0.003936  -0.011270   0.219737   0.001936   0.001980
    15  H    0.020172   0.000290  -0.006619  -0.012864  -0.000198   0.000329
               7          8          9         10         11         12
     1  C   -0.026933   0.027229  -0.002242  -0.000464   0.001497  -0.000610
     2  H   -0.000129   0.000131  -0.000026  -0.000040   0.000011  -0.000004
     3  C   -0.030983   0.034619  -0.001948  -0.000434   0.002171  -0.001635
     4  C    0.051679  -0.053333   0.003759  -0.000349  -0.003123   0.001965
     5  O    0.000011   0.000721   0.000046  -0.000352   0.000002  -0.000050
     6  O   -0.002476   0.000870   0.000016   0.000139   0.000106  -0.000071
     7  C    0.010118  -0.009506   0.000673   0.001629  -0.001579   0.000657
     8  C   -0.009506   0.007025  -0.001025  -0.001406   0.001719  -0.000755
     9  H    0.000673  -0.001025   0.000076   0.000301  -0.000092   0.000035
    10  H    0.001629  -0.001406   0.000301   0.000095  -0.000221   0.000096
    11  H   -0.001579   0.001719  -0.000092  -0.000221   0.000467  -0.000337
    12  H    0.000657  -0.000755   0.000035   0.000096  -0.000337   0.000416
    13  H    0.001436  -0.000874   0.000287   0.000597  -0.000510   0.000051
    14  O    0.005253  -0.003571   0.000282   0.000449  -0.000068  -0.000034
    15  H   -0.000575   0.000708  -0.000020  -0.000052   0.000033  -0.000058
              13         14         15
     1  C   -0.008920  -0.328570   0.020172
     2  H   -0.000009  -0.003936   0.000290
     3  C   -0.014989  -0.011270  -0.006619
     4  C    0.024101   0.219737  -0.012864
     5  O   -0.000280   0.001936  -0.000198
     6  O   -0.000988   0.001980   0.000329
     7  C    0.001436   0.005253  -0.000575
     8  C   -0.000874  -0.003571   0.000708
     9  H    0.000287   0.000282  -0.000020
    10  H    0.000597   0.000449  -0.000052
    11  H   -0.000510  -0.000068   0.000033
    12  H    0.000051  -0.000034  -0.000058
    13  H   -0.000766  -0.000040  -0.000217
    14  O   -0.000040   0.944563   0.012172
    15  H   -0.000217   0.012172  -0.032440
 Mulliken charges and spin densities:
               1          2
     1  C   -1.010676   0.285236
     2  H    0.189978  -0.013111
     3  C    1.130429  -0.127624
     4  C   -0.397747   0.043514
     5  O   -0.199857  -0.008645
     6  O    0.058861   0.000523
     7  C   -0.274791  -0.000726
     8  C   -0.415747   0.002553
     9  H    0.194878   0.000122
    10  H    0.188560  -0.000010
    11  H    0.169800   0.000077
    12  H    0.171745  -0.000334
    13  H    0.189032  -0.001120
    14  O   -0.228729   0.838882
    15  H    0.234263  -0.019338
 Sum of Mulliken charges =  -0.00000   1.00000
 Mulliken charges and spin densities with hydrogens summed into heavy atoms:
               1          2
     1  C   -0.820698   0.272125
     3  C    1.130429  -0.127624
     4  C   -0.397747   0.043514
     5  O   -0.199857  -0.008645
     6  O    0.058861   0.000523
     7  C    0.108647  -0.000613
     8  C    0.114830   0.001176
    14  O    0.005534   0.819544
 APT charges:
               1
     1  C   -0.166291
     2  H    0.236179
     3  C   -0.442827
     4  C    1.470558
     5  O   -0.777357
     6  O   -0.939223
     7  C    0.532974
     8  C   -0.042178
     9  H   -0.013491
    10  H   -0.011399
    11  H    0.009481
    12  H    0.015570
    13  H    0.027810
    14  O   -0.154273
    15  H    0.254469
 Sum of APT charges =   0.00000
 APT charges with hydrogens summed into heavy atoms:
               1
     1  C    0.069888
     3  C   -0.442827
     4  C    1.470558
     5  O   -0.777357
     6  O   -0.939223
     7  C    0.508084
     8  C    0.010683
    14  O    0.100195
 Electronic spatial extent (au):  <R**2>=           1067.9484
 Charge=             -0.0000 electrons
 Dipole moment (field-independent basis, Debye):
    X=             -0.6572    Y=              0.0113    Z=             -0.6784  Tot=              0.9446
 Quadrupole moment (field-independent basis, Debye-Ang):
   XX=            -30.0991   YY=            -48.8285   ZZ=            -51.1933
   XY=             -0.0656   XZ=             -1.7654   YZ=              5.1033
 Traceless Quadrupole moment (field-independent basis, Debye-Ang):
   XX=             13.2745   YY=             -5.4549   ZZ=             -7.8196
   XY=             -0.0656   XZ=             -1.7654   YZ=              5.1033
 Octapole moment (field-independent basis, Debye-Ang**2):
  XXX=            -35.0893  YYY=              3.3159  ZZZ=             -1.6199  XYY=              0.8680
  XXY=             -1.6356  XXZ=             -5.8379  XZZ=              0.0015  YZZ=              6.9921
  YYZ=              3.6624  XYZ=             -6.7769
 Hexadecapole moment (field-independent basis, Debye-Ang**3):
 XXXX=           -743.2330 YYYY=           -267.9298 ZZZZ=           -174.9389 XXXY=             -3.3820
 XXXZ=             20.5210 YYYX=            -19.9134 YYYZ=             10.0361 ZZZX=            -10.6011
 ZZZY=              7.6693 XXYY=           -201.6077 XXZZ=           -181.3910 YYZZ=            -73.1835
 XXYZ=             20.0510 YYXZ=            -13.2148 ZZXY=             -8.7117
 N-N= 3.615632405995D+02 E-N=-1.708008956854D+03  KE= 4.188673015823D+02
  Exact polarizability:  91.398   6.701  70.446   4.572   2.381  59.514
 Approx polarizability:  98.713   6.767  74.407   7.530  -0.855  76.792
                          Isotropic Fermi Contact Couplings
        Atom                 a.u.       MegaHertz       Gauss      10(-4) cm-1
     1  C(13)              0.03996      44.92245      16.02945      14.98452
     2  H(1)              -0.00456     -20.36304      -7.26604      -6.79238
     3  C(13)              0.01563      17.57394       6.27082       5.86204
     4  C(13)              0.01289      14.48849       5.16985       4.83284
     5  O(17)             -0.00322       1.95367       0.69712       0.65167
     6  O(17)             -0.00041       0.25085       0.08951       0.08368
     7  C(13)             -0.00002      -0.02161      -0.00771      -0.00721
     8  C(13)             -0.00048      -0.53777      -0.19189      -0.17938
     9  H(1)               0.00002       0.08705       0.03106       0.02904
    10  H(1)              -0.00005      -0.20612      -0.07355      -0.06875
    11  H(1)              -0.00000      -0.01380      -0.00492      -0.00460
    12  H(1)               0.00001       0.05205       0.01857       0.01736
    13  H(1)               0.00001       0.05098       0.01819       0.01700
    14  O(17)              0.13100     -79.40965     -28.33534     -26.48821
    15  H(1)              -0.01414     -63.19158     -22.54833     -21.07844
 --------------------------------------------------------
       Center         ----  Spin Dipole Couplings  ----
                      3XX-RR        3YY-RR        3ZZ-RR
 --------------------------------------------------------
     1   Atom       -0.172699      0.296087     -0.123388
     2   Atom        0.022699     -0.003996     -0.018703
     3   Atom        0.047081     -0.008219     -0.038862
     4   Atom        0.004389      0.012094     -0.016483
     5   Atom        0.024768     -0.036086      0.011319
     6   Atom        0.007324     -0.010256      0.002931
     7   Atom        0.002524     -0.000563     -0.001961
     8   Atom        0.003504     -0.001618     -0.001886
     9   Atom        0.001248     -0.000431     -0.000817
    10   Atom        0.001103      0.000178     -0.001281
    11   Atom        0.001801     -0.000835     -0.000965
    12   Atom        0.004606     -0.002345     -0.002261
    13   Atom        0.003987     -0.002013     -0.001974
    14   Atom       -0.991957      2.479765     -1.487808
    15   Atom        0.005027     -0.049866      0.044839
 --------------------------------------------------------
                        XY            XZ            YZ
 --------------------------------------------------------
     1   Atom       -0.004315     -0.013113      0.036039
     2   Atom        0.006013      0.012171      0.003164
     3   Atom       -0.003868      0.022461      0.005590
     4   Atom       -0.018023      0.003719     -0.001755
     5   Atom       -0.035851     -0.006624     -0.020820
     6   Atom       -0.009912     -0.006124      0.003865
     7   Atom       -0.002642     -0.000533      0.000371
     8   Atom       -0.001510      0.000071      0.000016
     9   Atom       -0.001229     -0.000881      0.000516
    10   Atom       -0.001615      0.000106     -0.000037
    11   Atom       -0.000497      0.000125     -0.000000
    12   Atom       -0.000164     -0.001121      0.000104
    13   Atom       -0.001528      0.001985     -0.000419
    14   Atom        1.647457      0.354015      0.862567
    15   Atom        0.003529     -0.126821      0.039959
 --------------------------------------------------------


 ---------------------------------------------------------------------------------
              Anisotropic Spin Dipole Couplings in Principal Axis System
 ---------------------------------------------------------------------------------

       Atom             a.u.   MegaHertz   Gauss  10(-4) cm-1        Axes

              Baa    -0.1760   -23.619    -8.428    -7.879  0.9686 -0.0101  0.2483
     1 C(13)  Bbb    -0.1232   -16.533    -5.900    -5.515 -0.2482 -0.0855  0.9649
              Bcc     0.2992    40.153    14.328    13.394 -0.0115  0.9963  0.0853
 
              Baa    -0.0221   -11.814    -4.216    -3.941 -0.2503 -0.0852  0.9644
     2 H(1)   Bbb    -0.0053    -2.813    -1.004    -0.938 -0.2219  0.9746  0.0285
              Bcc     0.0274    14.627     5.219     4.879  0.9424  0.2069  0.2629
 
              Baa    -0.0455    -6.101    -2.177    -2.035 -0.2391 -0.1684  0.9563
     3 C(13)  Bbb    -0.0072    -0.970    -0.346    -0.324 -0.0014  0.9849  0.1730
              Bcc     0.0527     7.071     2.523     2.359  0.9710 -0.0400  0.2358
 
              Baa    -0.0172    -2.314    -0.826    -0.772 -0.2415 -0.0905  0.9662
     4 C(13)  Bbb    -0.0097    -1.307    -0.466    -0.436  0.7383  0.6290  0.2435
              Bcc     0.0270     3.622     1.292     1.208 -0.6298  0.7721 -0.0850
 
              Baa    -0.0593     4.294     1.532     1.432  0.3943  0.8708  0.2936
     5 O(17)  Bbb     0.0177    -1.279    -0.457    -0.427 -0.2225 -0.2195  0.9499
              Bcc     0.0417    -3.014    -1.076    -1.005  0.8916 -0.4399  0.1072
 
              Baa    -0.0148     1.069     0.382     0.357  0.3935  0.9171 -0.0641
     6 O(17)  Bbb    -0.0010     0.073     0.026     0.024  0.4713 -0.1414  0.8705
              Bcc     0.0158    -1.143    -0.408    -0.381  0.7893 -0.3728 -0.4879
 
              Baa    -0.0021    -0.284    -0.101    -0.095  0.3682  0.7559 -0.5413
     7 C(13)  Bbb    -0.0020    -0.267    -0.095    -0.089  0.3485  0.4276  0.8341
              Bcc     0.0041     0.551     0.197     0.184  0.8620 -0.4958 -0.1060
 
              Baa    -0.0020    -0.274    -0.098    -0.091  0.2591  0.9403 -0.2208
     8 C(13)  Bbb    -0.0019    -0.252    -0.090    -0.084  0.0478  0.2158  0.9753
              Bcc     0.0039     0.526     0.188     0.175  0.9647 -0.2632  0.0110
 
              Baa    -0.0012    -0.628    -0.224    -0.209  0.0677 -0.4898  0.8692
     9 H(1)   Bbb    -0.0011    -0.566    -0.202    -0.189  0.5435  0.7487  0.3796
              Bcc     0.0022     1.194     0.426     0.398  0.8367 -0.4467 -0.3169
 
              Baa    -0.0013    -0.688    -0.245    -0.229 -0.1059 -0.0918  0.9901
    10 H(1)   Bbb    -0.0010    -0.552    -0.197    -0.184  0.5928  0.7936  0.1370
              Bcc     0.0023     1.240     0.442     0.413  0.7983 -0.6015  0.0296
 
              Baa    -0.0010    -0.523    -0.187    -0.174 -0.1069 -0.3651  0.9248
    11 H(1)   Bbb    -0.0009    -0.489    -0.175    -0.163  0.1497  0.9136  0.3780
              Bcc     0.0019     1.012     0.361     0.338  0.9829 -0.1788  0.0430
 
              Baa    -0.0025    -1.325    -0.473    -0.442  0.1243 -0.4975  0.8585
    12 H(1)   Bbb    -0.0023    -1.230    -0.439    -0.410  0.0997  0.8671  0.4880
              Bcc     0.0048     2.555     0.912     0.852  0.9872 -0.0249 -0.1573
 
              Baa    -0.0026    -1.378    -0.492    -0.460 -0.3235 -0.1856  0.9278
    13 H(1)   Bbb    -0.0024    -1.262    -0.450    -0.421  0.1537  0.9573  0.2450
              Bcc     0.0049     2.640     0.942     0.881  0.9337 -0.2219  0.2812
 
              Baa    -1.6722   121.000    43.176    40.361 -0.4046 -0.0293  0.9140
    14 O(17)  Bbb    -1.6458   119.086    42.493    39.723  0.8389 -0.4099  0.3582
              Bcc     3.3180  -240.086   -85.669   -80.084  0.3641  0.9117  0.1905
 
              Baa    -0.1164   -62.082   -22.153   -20.708  0.6644 -0.4106  0.6245
    15 H(1)   Bbb    -0.0408   -21.777    -7.771    -7.264  0.3982  0.9016  0.1690
              Bcc     0.1572    83.859    29.923    27.972 -0.6324  0.1364  0.7625
 

 ---------------------------------------------------------------------------------

 Calling FoFJK, ICntrl=    100127 FMM=F ISym2X=0 I1Cent= 0 IOpClX= 1 NMat=1 NMatS=1 NMatT=0.
 Full mass-weighted force constant matrix:
 Low frequencies --- -299.6218  -58.8283  -36.4178   -9.1525   -0.0010   -0.0005
 Low frequencies ---    0.0007   32.1726   51.0086
 ******    2 imaginary frequencies (negative Signs) ****** 
 Diagonal vibrational polarizability:
      214.5081061     718.8063923      40.1652957
 Harmonic frequencies (cm**-1), IR intensities (KM/Mole), Raman scattering
 activities (A**4/AMU), depolarization ratios for plane and unpolarized
 incident light, reduced masses (AMU), force constants (mDyne/A),
 and normal coordinates:
                      1                      2                      3
                      A                      A                      A
 Frequencies --   -299.6218               -14.9160                47.2877
 Red. masses --     11.8952                 4.8349                 3.9370
 Frc consts  --      0.6292                 0.0006                 0.0052
 IR Inten    --     35.3407                 7.0077                 1.4806
  Atom  AN      X      Y      Z        X      Y      Z        X      Y      Z
     1   6     0.06   0.00   0.03     0.06  -0.01  -0.19    -0.01   0.09  -0.08
     2   1     0.09  -0.29  -0.01     0.08  -0.04  -0.27    -0.00   0.17  -0.11
     3   6     0.03   0.73   0.10     0.03   0.02  -0.09    -0.01   0.00  -0.04
     4   6     0.02   0.12   0.02     0.01   0.06  -0.01    -0.02  -0.07  -0.00
     5   8    -0.03  -0.05  -0.02    -0.03   0.21   0.05    -0.06  -0.03   0.02
     6   8     0.00   0.01  -0.00     0.05  -0.07  -0.01     0.00  -0.15   0.00
     7   6     0.01  -0.02  -0.01     0.04  -0.12   0.04    -0.00   0.03   0.08
     8   6     0.00  -0.01  -0.00     0.11  -0.05  -0.15    -0.18   0.20  -0.13
     9   1     0.00  -0.02  -0.01     0.05  -0.30   0.07     0.06  -0.10   0.12
    10   1     0.00  -0.02  -0.01    -0.03  -0.04   0.17     0.06   0.16   0.24
    11   1    -0.00  -0.01   0.01     0.10  -0.11  -0.11    -0.19   0.34  -0.02
    12   1     0.00  -0.02  -0.01     0.19  -0.13  -0.29    -0.22   0.06  -0.32
    13   1    -0.01  -0.01  -0.01     0.09   0.13  -0.18    -0.29   0.35  -0.20
    14   8    -0.06  -0.54  -0.07    -0.22  -0.01   0.27     0.25  -0.07   0.12
    15   1    -0.04  -0.13  -0.12    -0.08  -0.28   0.43     0.24  -0.04   0.11
                      4                      5                      6
                      A                      A                      A
 Frequencies --    115.7268               140.0509               161.0894
 Red. masses --      3.6965                 5.2092                 2.5703
 Frc consts  --      0.0292                 0.0602                 0.0393
 IR Inten    --      1.6158                12.6622                 9.4236
  Atom  AN      X      Y      Z        X      Y      Z        X      Y      Z
     1   6    -0.00  -0.03   0.03    -0.04  -0.26  -0.12    -0.09  -0.07   0.21
     2   1    -0.02  -0.05   0.08    -0.01  -0.46  -0.19    -0.15  -0.12   0.45
     3   6     0.01  -0.01  -0.03    -0.09  -0.06  -0.02    -0.02  -0.00  -0.11
     4   6     0.02   0.05  -0.06    -0.08   0.10   0.04    -0.01   0.03  -0.13
     5   8     0.07   0.26  -0.01    -0.07   0.11   0.04    -0.08   0.04  -0.10
     6   8    -0.01  -0.13  -0.12    -0.10   0.20   0.05     0.07   0.03  -0.06
     7   6    -0.01  -0.00  -0.09    -0.09   0.03  -0.04     0.04  -0.03   0.10
     8   6    -0.16  -0.09   0.19     0.13  -0.06  -0.04     0.04   0.01   0.03
     9   1     0.03   0.25  -0.11    -0.17  -0.00  -0.07     0.15  -0.16   0.17
    10   1     0.08  -0.11  -0.27    -0.16  -0.01  -0.07    -0.08   0.03   0.22
    11   1    -0.15   0.04   0.11     0.13  -0.24  -0.09    -0.01  -0.13   0.37
    12   1    -0.33   0.03   0.41     0.24  -0.00  -0.00     0.36  -0.05  -0.18
    13   1    -0.12  -0.39   0.25     0.20  -0.01  -0.01    -0.23   0.24  -0.13
    14   8     0.08  -0.05   0.05     0.29  -0.09   0.09     0.02  -0.02   0.02
    15   1     0.21  -0.09   0.17    -0.19   0.15  -0.36     0.13  -0.08   0.12
                      7                      8                      9
                      A                      A                      A
 Frequencies --    210.9203               226.9838               257.5839
 Red. masses --      1.5948                 1.4330                 1.8838
 Frc consts  --      0.0418                 0.0435                 0.0736
 IR Inten    --     34.7635                 2.8212                32.6486
  Atom  AN      X      Y      Z        X      Y      Z        X      Y      Z
     1   6    -0.05   0.07   0.01     0.01   0.06  -0.05     0.05  -0.17  -0.03
     2   1    -0.07   0.21   0.05     0.03   0.16  -0.13     0.08  -0.36  -0.08
     3   6    -0.02  -0.08  -0.04    -0.01  -0.06   0.06     0.01   0.11   0.03
     4   6    -0.02  -0.01  -0.00     0.01  -0.01   0.03    -0.01   0.03   0.01
     5   8    -0.05   0.03   0.02     0.08   0.02   0.02    -0.02  -0.06  -0.01
     6   8     0.00   0.05   0.03    -0.05   0.04  -0.00    -0.02   0.00   0.01
     7   6     0.01   0.04   0.01    -0.04   0.02  -0.03    -0.02  -0.02   0.00
     8   6     0.08   0.02  -0.01    -0.01  -0.02   0.02    -0.05  -0.01  -0.01
     9   1    -0.03   0.03  -0.01    -0.05   0.04  -0.04    -0.02  -0.03   0.01
    10   1     0.01   0.03  -0.01    -0.05  -0.00  -0.06    -0.03  -0.02   0.01
    11   1     0.13   0.08  -0.31    -0.09  -0.28   0.49    -0.05   0.03   0.00
    12   1    -0.14   0.05   0.12     0.46  -0.02  -0.16    -0.07  -0.02  -0.02
    13   1     0.34  -0.09   0.13    -0.39   0.19  -0.19    -0.06  -0.01  -0.02
    14   8    -0.00  -0.10  -0.06    -0.01  -0.06  -0.04     0.01   0.13  -0.03
    15   1     0.56  -0.28   0.46     0.26  -0.11   0.20     0.66  -0.09   0.56
                     10                     11                     12
                      A                      A                      A
 Frequencies --    336.0196               428.1107               559.5863
 Red. masses --      2.9083                 3.7502                 3.7137
 Frc consts  --      0.1935                 0.4050                 0.6852
 IR Inten    --      9.7550                 3.5770                 7.5952
  Atom  AN      X      Y      Z        X      Y      Z        X      Y      Z
     1   6     0.00   0.02  -0.04     0.09   0.03   0.06    -0.18  -0.01  -0.07
     2   1     0.02   0.06  -0.11     0.05   0.09   0.20    -0.11  -0.02  -0.33
     3   6    -0.02  -0.04   0.08     0.13  -0.06  -0.13    -0.22  -0.03   0.22
     4   6     0.01   0.04  -0.04     0.06   0.07   0.04    -0.02   0.06  -0.03
     5   8     0.20   0.01  -0.11    -0.09  -0.01   0.07    -0.01   0.01  -0.05
     6   8    -0.03   0.12  -0.06     0.07   0.22   0.09     0.14   0.04   0.04
     7   6    -0.09  -0.11   0.19     0.03  -0.13  -0.09     0.25  -0.08  -0.05
     8   6    -0.08  -0.03   0.01    -0.20  -0.10  -0.07    -0.00  -0.01  -0.02
     9   1     0.07  -0.39   0.31    -0.04  -0.13  -0.12     0.15   0.02  -0.11
    10   1    -0.37  -0.00   0.42    -0.04  -0.18  -0.12     0.29  -0.13  -0.13
    11   1    -0.03   0.15  -0.26    -0.21   0.27   0.11    -0.01   0.36   0.19
    12   1    -0.36  -0.12  -0.02    -0.41  -0.20  -0.13    -0.20  -0.11  -0.08
    13   1     0.14  -0.00   0.10    -0.43  -0.22  -0.17    -0.25  -0.13  -0.12
    14   8     0.00  -0.03  -0.01     0.00  -0.04  -0.01    -0.01  -0.02   0.00
    15   1     0.02   0.02   0.00    -0.05  -0.18  -0.04     0.13   0.39   0.07
                     13                     14                     15
                      A                      A                      A
 Frequencies --    607.5365               668.3327               714.7727
 Red. masses --      6.4887                 1.1246                 1.3301
 Frc consts  --      1.4111                 0.2960                 0.4004
 IR Inten    --     12.6393                77.5257                31.0872
  Atom  AN      X      Y      Z        X      Y      Z        X      Y      Z
     1   6     0.26   0.01   0.05     0.02  -0.01  -0.01    -0.02  -0.13   0.08
     2   1     0.36   0.27  -0.35    -0.02   0.05   0.14     0.09   0.81  -0.56
     3   6     0.14  -0.14   0.39     0.03  -0.01  -0.06     0.00   0.05  -0.05
     4   6     0.04   0.02  -0.13     0.00  -0.03  -0.00    -0.01  -0.02  -0.00
     5   8    -0.33   0.04  -0.02     0.01   0.01   0.01     0.01   0.01  -0.00
     6   8     0.00   0.03  -0.22    -0.00   0.01   0.01     0.00   0.01   0.01
     7   6    -0.03   0.03  -0.01    -0.02   0.01   0.00    -0.00  -0.00   0.00
     8   6     0.01   0.01   0.01    -0.00  -0.00  -0.00    -0.00  -0.00  -0.00
     9   1     0.17  -0.15   0.11    -0.02   0.00   0.00    -0.01   0.01  -0.00
    10   1    -0.22   0.10   0.15    -0.02   0.01   0.00     0.01  -0.01  -0.01
    11   1     0.01  -0.07  -0.05    -0.00  -0.03  -0.01    -0.00   0.00  -0.00
    12   1     0.04   0.06   0.08     0.01   0.00   0.00    -0.00  -0.01  -0.01
    13   1     0.07  -0.03   0.05     0.01   0.00   0.00    -0.00   0.00  -0.00
    14   8    -0.01  -0.04  -0.00    -0.03  -0.04   0.02     0.00   0.01   0.00
    15   1     0.02   0.24  -0.01     0.23   0.95   0.12    -0.01   0.01  -0.01
                     16                     17                     18
                      A                      A                      A
 Frequencies --    739.3252               772.6717               803.0684
 Red. masses --      1.3239                 7.8986                 1.2055
 Frc consts  --      0.4264                 2.7784                 0.4581
 IR Inten    --     23.0390                60.4290                 5.1514
  Atom  AN      X      Y      Z        X      Y      Z        X      Y      Z
     1   6     0.03  -0.09  -0.12     0.01  -0.03  -0.01     0.03   0.01   0.01
     2   1    -0.24   0.56   0.77    -0.06   0.42   0.15     0.04  -0.02  -0.01
     3   6    -0.02   0.03   0.06     0.02  -0.16  -0.05     0.02  -0.00   0.02
     4   6    -0.00  -0.02  -0.01     0.04   0.68   0.17    -0.02  -0.03  -0.04
     5   8    -0.00   0.01   0.00    -0.01  -0.18  -0.09    -0.01   0.02  -0.04
     6   8    -0.00   0.01   0.00    -0.00  -0.19  -0.02     0.01   0.01   0.03
     7   6     0.01  -0.00  -0.00    -0.05  -0.00   0.03    -0.03  -0.02   0.07
     8   6     0.00   0.00   0.00    -0.02   0.01   0.01    -0.01  -0.02   0.03
     9   1     0.00  -0.00  -0.00    -0.05   0.21  -0.01    -0.09   0.52  -0.04
    10   1     0.00  -0.01  -0.00     0.12  -0.06  -0.11     0.12  -0.31  -0.38
    11   1     0.00   0.02   0.01    -0.01  -0.13  -0.10     0.02   0.03  -0.19
    12   1    -0.01  -0.01  -0.00     0.09  -0.02  -0.07    -0.05  -0.29  -0.34
    13   1    -0.01  -0.00  -0.00     0.12   0.18   0.06     0.11   0.44   0.02
    14   8     0.01   0.01  -0.00    -0.00  -0.05  -0.00     0.00  -0.00  -0.00
    15   1    -0.04  -0.11  -0.02     0.05   0.16   0.02    -0.01  -0.00  -0.00
                     19                     20                     21
                      A                      A                      A
 Frequencies --    897.4664               928.9093              1075.4438
 Red. masses --      3.2365                 2.7502                 4.1316
 Frc consts  --      1.5359                 1.3982                 2.8154
 IR Inten    --     15.9188                 6.1001                23.6830
  Atom  AN      X      Y      Z        X      Y      Z        X      Y      Z
     1   6     0.05   0.01   0.01     0.11   0.01   0.03     0.07   0.01   0.02
     2   1     0.06  -0.00  -0.02     0.12   0.01   0.04     0.07   0.01   0.04
     3   6     0.01  -0.02   0.07     0.07  -0.02   0.00     0.04  -0.01  -0.03
     4   6    -0.04   0.00  -0.11    -0.15   0.02  -0.04    -0.15   0.01   0.03
     5   8    -0.00   0.05  -0.16     0.01   0.03  -0.13     0.02  -0.00  -0.02
     6   8     0.13  -0.04   0.24    -0.14  -0.04   0.11    -0.22   0.02  -0.04
     7   6    -0.09   0.09   0.02     0.03  -0.10  -0.02     0.31   0.16   0.14
     8   6    -0.11  -0.06  -0.10     0.15   0.10   0.04    -0.06  -0.17  -0.09
     9   1    -0.24  -0.02  -0.03    -0.33  -0.21  -0.17     0.33   0.28   0.14
    10   1     0.25   0.27   0.18     0.04  -0.11  -0.04     0.40   0.25   0.21
    11   1    -0.13  -0.58  -0.12     0.12   0.60   0.39    -0.06  -0.26  -0.12
    12   1     0.18   0.23   0.21    -0.15   0.08   0.12    -0.05  -0.22  -0.15
    13   1     0.04  -0.33   0.01    -0.22  -0.15  -0.10    -0.07  -0.29  -0.09
    14   8     0.00  -0.00  -0.00    -0.00  -0.01  -0.00    -0.00  -0.01  -0.00
    15   1    -0.02  -0.02  -0.01    -0.00   0.01  -0.00     0.00   0.01   0.00
                     22                     23                     24
                      A                      A                      A
 Frequencies --   1129.6867              1204.4432              1290.6411
 Red. masses --      2.0914                 1.7714                 3.6520
 Frc consts  --      1.5726                 1.5140                 3.5842
 IR Inten    --     22.5773                 5.8346               535.3837
  Atom  AN      X      Y      Z        X      Y      Z        X      Y      Z
     1   6    -0.01  -0.00  -0.00    -0.02  -0.00  -0.00    -0.08  -0.01  -0.02
     2   1    -0.02  -0.00  -0.01    -0.02  -0.00  -0.01    -0.08  -0.01  -0.05
     3   6    -0.01   0.00   0.01    -0.00   0.00  -0.00    -0.01   0.01   0.01
     4   6     0.03   0.00  -0.00     0.06  -0.00  -0.01     0.38   0.01  -0.14
     5   8    -0.00  -0.00   0.00    -0.01  -0.01   0.03    -0.05   0.00  -0.01
     6   8     0.06  -0.05  -0.01    -0.00   0.02  -0.07    -0.18  -0.02   0.08
     7   6    -0.12   0.19   0.04    -0.04  -0.06   0.18     0.10   0.04   0.03
     8   6     0.11  -0.15  -0.03     0.03   0.05  -0.13    -0.02  -0.02   0.06
     9   1    -0.09   0.10   0.08    -0.33   0.37  -0.02    -0.69  -0.28  -0.27
    10   1    -0.22   0.17   0.03     0.30  -0.26  -0.21     0.05   0.13   0.15
    11   1     0.09   0.46   0.20    -0.03  -0.07   0.28     0.00  -0.03  -0.13
    12   1    -0.40  -0.37  -0.15    -0.02   0.31   0.28     0.01  -0.19  -0.18
    13   1    -0.36  -0.20  -0.25    -0.07  -0.45  -0.10     0.01   0.09   0.05
    14   8    -0.00   0.00   0.00    -0.00   0.00   0.00    -0.00   0.01   0.00
    15   1    -0.00  -0.00  -0.00     0.00   0.00   0.00     0.01   0.02   0.00
                     25                     26                     27
                      A                      A                      A
 Frequencies --   1346.1869              1402.0686              1431.2508
 Red. masses --      1.2552                 1.2851                 1.3826
 Frc consts  --      1.3402                 1.4885                 1.6687
 IR Inten    --    100.6182                27.4006                13.1927
  Atom  AN      X      Y      Z        X      Y      Z        X      Y      Z
     1   6     0.01   0.00   0.00    -0.01  -0.00  -0.00    -0.01  -0.00  -0.00
     2   1     0.01   0.00   0.01    -0.01  -0.00  -0.01    -0.01  -0.00  -0.01
     3   6     0.00  -0.00  -0.00    -0.00   0.00   0.00    -0.00   0.00   0.00
     4   6    -0.06  -0.00   0.03     0.06  -0.00  -0.01     0.05   0.00  -0.01
     5   8     0.01  -0.01   0.02    -0.01   0.01  -0.01    -0.01   0.00  -0.01
     6   8     0.05   0.03  -0.08    -0.04   0.01   0.03    -0.04   0.01   0.02
     7   6    -0.04  -0.01  -0.00    -0.04  -0.04  -0.02    -0.08  -0.08  -0.05
     8   6    -0.00  -0.03   0.05    -0.02  -0.11  -0.05     0.07   0.07   0.04
     9   1    -0.50  -0.21  -0.18     0.32   0.25   0.11     0.44   0.28   0.14
    10   1     0.69   0.28   0.21     0.25   0.18   0.19     0.41   0.23   0.24
    11   1     0.01   0.07  -0.04    -0.02   0.47   0.21     0.07  -0.32  -0.11
    12   1    -0.02  -0.11  -0.05     0.18   0.24   0.34    -0.32  -0.17  -0.15
    13   1     0.02   0.19   0.03     0.21   0.38   0.00    -0.29  -0.18  -0.10
    14   8     0.00  -0.00  -0.00    -0.00   0.00   0.00    -0.00   0.00   0.00
    15   1    -0.00  -0.00   0.00     0.00   0.00   0.00     0.00   0.00   0.00
                     28                     29                     30
                      A                      A                      A
 Frequencies --   1491.2117              1502.4412              1515.0770
 Red. masses --      1.0400                 1.0548                 1.0934
 Frc consts  --      1.3626                 1.4028                 1.4787
 IR Inten    --     10.8985                 1.1498                21.3974
  Atom  AN      X      Y      Z        X      Y      Z        X      Y      Z
     1   6    -0.00  -0.00  -0.00     0.00   0.00   0.00     0.00   0.00   0.00
     2   1    -0.00  -0.00   0.00     0.00   0.00   0.00     0.01   0.00   0.00
     3   6     0.00  -0.00   0.00    -0.00   0.00  -0.00    -0.00  -0.00  -0.00
     4   6     0.00  -0.00   0.00    -0.01   0.00  -0.00    -0.03   0.00  -0.00
     5   8    -0.00   0.00  -0.01     0.00  -0.00   0.01     0.01  -0.00   0.01
     6   8    -0.00  -0.00   0.00     0.01  -0.00  -0.00     0.02  -0.00  -0.01
     7   6     0.01   0.02  -0.02     0.00  -0.04  -0.03     0.05  -0.05  -0.01
     8   6     0.01   0.01  -0.04    -0.03   0.03  -0.01     0.02  -0.02   0.00
     9   1    -0.00  -0.12  -0.01    -0.12   0.38  -0.14    -0.29   0.42  -0.23
    10   1    -0.00  -0.00  -0.04    -0.20   0.20   0.35    -0.38   0.14   0.36
    11   1    -0.08  -0.36   0.56    -0.05   0.14   0.28     0.03  -0.18  -0.16
    12   1    -0.55  -0.09   0.05     0.17  -0.19  -0.37    -0.20   0.14   0.29
    13   1     0.36   0.28   0.10     0.37  -0.35   0.23    -0.25   0.30  -0.17
    14   8    -0.00   0.00   0.00     0.00  -0.00   0.00    -0.00  -0.00  -0.00
    15   1     0.00   0.00  -0.00    -0.00  -0.00  -0.00     0.00  -0.00   0.00
                     31                     32                     33
                      A                      A                      A
 Frequencies --   1844.9144              2193.2056              3075.8816
 Red. masses --     11.9945                 6.0460                 1.0353
 Frc consts  --     24.0538                17.1347                 5.7709
 IR Inten    --    342.7052                80.1742                 9.3884
  Atom  AN      X      Y      Z        X      Y      Z        X      Y      Z
     1   6    -0.07  -0.01  -0.02    -0.38  -0.04  -0.09    -0.00   0.00   0.00
     2   1    -0.12  -0.02  -0.00    -0.71  -0.07  -0.19    -0.00  -0.00  -0.00
     3   6     0.06   0.00  -0.00     0.53   0.01   0.13    -0.00   0.00   0.00
     4   6     0.21  -0.22   0.73    -0.10   0.02  -0.04     0.00   0.00  -0.00
     5   8    -0.15   0.14  -0.47     0.01  -0.00   0.01     0.00   0.00   0.00
     6   8     0.02   0.02  -0.07    -0.00  -0.00   0.00    -0.00  -0.00   0.00
     7   6     0.03  -0.01   0.02     0.00   0.00  -0.00    -0.00   0.00   0.00
     8   6    -0.01   0.01   0.00    -0.00  -0.00  -0.00    -0.02  -0.04  -0.02
     9   1    -0.18   0.08  -0.09     0.01  -0.00  -0.00     0.00  -0.00  -0.01
    10   1    -0.14  -0.02   0.09     0.00  -0.00  -0.00     0.00  -0.02   0.01
    11   1     0.00  -0.04  -0.06     0.00   0.00   0.00     0.62  -0.03   0.08
    12   1     0.04   0.01  -0.01     0.00  -0.00  -0.00    -0.13   0.45  -0.34
    13   1    -0.04  -0.05  -0.00     0.00   0.00   0.00    -0.23   0.05   0.47
    14   8    -0.00   0.01  -0.00     0.00   0.01   0.00    -0.00   0.00  -0.00
    15   1     0.03  -0.00   0.02    -0.00   0.00  -0.00    -0.00  -0.00   0.00
                     34                     35                     36
                      A                      A                      A
 Frequencies --   3107.6782              3152.7003              3154.3212
 Red. masses --      1.0607                 1.1019                 1.1045
 Frc consts  --      6.0357                 6.4530                 6.4747
 IR Inten    --     19.8271                13.3738                 3.7367
  Atom  AN      X      Y      Z        X      Y      Z        X      Y      Z
     1   6    -0.00   0.00  -0.00     0.00   0.00   0.00    -0.00   0.00  -0.00
     2   1     0.00   0.00   0.00    -0.00   0.00  -0.00    -0.00   0.00  -0.00
     3   6     0.00  -0.00  -0.00    -0.00  -0.00  -0.00     0.00  -0.00  -0.00
     4   6    -0.00  -0.00   0.00     0.00   0.00  -0.00     0.00  -0.00   0.00
     5   8    -0.00   0.00  -0.00    -0.00  -0.00   0.00    -0.00   0.00  -0.00
     6   8     0.00   0.00  -0.00     0.00  -0.00   0.00    -0.00  -0.00  -0.00
     7   6     0.03  -0.06  -0.00    -0.01  -0.00   0.03    -0.01  -0.02   0.05
     8   6    -0.01   0.01  -0.00    -0.06   0.05  -0.04     0.06  -0.00  -0.05
     9   1    -0.23   0.06   0.50     0.15  -0.05  -0.32     0.17  -0.05  -0.36
    10   1    -0.13   0.65  -0.48    -0.02   0.06  -0.04    -0.06   0.28  -0.20
    11   1     0.12  -0.01   0.01     0.60  -0.02   0.07    -0.46   0.02  -0.07
    12   1     0.01  -0.05   0.04     0.14  -0.56   0.41     0.04  -0.08   0.05
    13   1     0.01  -0.00  -0.03    -0.03   0.01   0.04    -0.29   0.08   0.62
    14   8     0.00  -0.00   0.00    -0.00   0.00   0.00     0.00  -0.00  -0.00
    15   1     0.00   0.00  -0.00     0.00   0.00  -0.00    -0.00  -0.00  -0.00
                     37                     38                     39
                      A                      A                      A
 Frequencies --   3175.2717              3482.7968              3808.4471
 Red. masses --      1.1074                 1.1595                 1.0674
 Frc consts  --      6.5782                 8.2864                 9.1215
 IR Inten    --     14.7912                68.9175                43.2716
  Atom  AN      X      Y      Z        X      Y      Z        X      Y      Z
     1   6    -0.00  -0.00  -0.00    -0.11  -0.01  -0.03    -0.00   0.00  -0.00
     2   1     0.00   0.00   0.00     0.96   0.06   0.25     0.00   0.00   0.00
     3   6     0.00  -0.00   0.00     0.03   0.00   0.01     0.00   0.00   0.00
     4   6    -0.00   0.00  -0.00    -0.00   0.00  -0.00     0.00  -0.00  -0.00
     5   8     0.00  -0.00   0.00     0.00  -0.00  -0.00    -0.00   0.00  -0.00
     6   8     0.00  -0.00   0.00     0.00  -0.00  -0.00    -0.00  -0.00   0.00
     7   6     0.02   0.02  -0.07    -0.00  -0.00   0.00     0.00  -0.00   0.00
     8   6     0.02   0.02  -0.05     0.00  -0.00   0.00    -0.00   0.00  -0.00
     9   1    -0.26   0.09   0.58     0.00  -0.00  -0.00    -0.00   0.00   0.00
    10   1     0.07  -0.35   0.24     0.00   0.00   0.00    -0.00  -0.00  -0.00
    11   1    -0.06   0.01  -0.02     0.00   0.00   0.00    -0.00  -0.00   0.00
    12   1     0.09  -0.31   0.22    -0.00   0.00  -0.00    -0.00  -0.00   0.00
    13   1    -0.21   0.06   0.44    -0.00  -0.00  -0.00     0.00   0.00   0.00
    14   8    -0.00  -0.00   0.00     0.00   0.00   0.00     0.04  -0.01  -0.05
    15   1     0.00   0.00  -0.00     0.00  -0.00  -0.00    -0.65   0.10   0.75

 -------------------
 - Thermochemistry -
 -------------------
 Temperature   298.150 Kelvin.  Pressure   1.00000 Atm.
 Atom     1 has atomic number  6 and mass  12.00000
 Atom     2 has atomic number  1 and mass   1.00783
 Atom     3 has atomic number  6 and mass  12.00000
 Atom     4 has atomic number  6 and mass  12.00000
 Atom     5 has atomic number  8 and mass  15.99491
 Atom     6 has atomic number  8 and mass  15.99491
 Atom     7 has atomic number  6 and mass  12.00000
 Atom     8 has atomic number  6 and mass  12.00000
 Atom     9 has atomic number  1 and mass   1.00783
 Atom    10 has atomic number  1 and mass   1.00783
 Atom    11 has atomic number  1 and mass   1.00783
 Atom    12 has atomic number  1 and mass   1.00783
 Atom    13 has atomic number  1 and mass   1.00783
 Atom    14 has atomic number  8 and mass  15.99491
 Atom    15 has atomic number  1 and mass   1.00783
 Molecular mass:   115.03952 amu.
 Principal axes and moments of inertia in atomic units:
                           1         2         3
     Eigenvalues --   506.743551379.453001525.02989
           X            0.99994   0.01087  -0.00079
           Y           -0.01078   0.99712   0.07513
           Z            0.00161  -0.07511   0.99717
 This molecule is an asymmetric top.
 Rotational symmetry number  1.
 Warning -- assumption of classical behavior for rotation
           may cause significant error
 Rotational temperatures (Kelvin)      0.17092     0.06279     0.05679
 Rotational constants (GHZ):           3.56145     1.30830     1.18341
    2 imaginary frequencies ignored.
 Zero-point vibrational energy     293079.8 (Joules/Mol)
                                   70.04774 (Kcal/Mol)
 Warning -- explicit consideration of  11 degrees of freedom as
           vibrations may cause significant error
 Vibrational temperatures:     68.04   166.51   201.50   231.77   303.47
          (Kelvin)            326.58   370.61   483.46   615.96   805.12
                              874.11   961.58  1028.40  1063.72  1111.70
                             1155.44  1291.25  1336.49  1547.32  1625.37
                             1732.93  1856.94  1936.86  2017.26  2059.25
                             2145.52  2161.68  2179.86  2654.42  3155.53
                             4425.51  4471.26  4536.03  4538.36  4568.51
                             5010.97  5479.51
 
 Zero-point correction=                           0.111628 (Hartree/Particle)
 Thermal correction to Energy=                    0.120545
 Thermal correction to Enthalpy=                  0.121489
 Thermal correction to Gibbs Free Energy=         0.076842
 Sum of electronic and zero-point Energies=           -420.091846
 Sum of electronic and thermal Energies=              -420.082929
 Sum of electronic and thermal Enthalpies=            -420.081985
 Sum of electronic and thermal Free Energies=         -420.126632
 
                     E (Thermal)             CV                S
                      KCal/Mol        Cal/Mol-Kelvin    Cal/Mol-Kelvin
 Total                   75.643             30.446             93.968
 Electronic               0.000              0.000              1.377
 Translational            0.889              2.981             40.136
 Rotational               0.889              2.981             28.457
 Vibrational             73.866             24.485             23.998
 Vibration     1          0.595              1.979              4.928
 Vibration     2          0.608              1.936              3.171
 Vibration     3          0.615              1.913              2.803
 Vibration     4          0.622              1.890              2.537
 Vibration     5          0.643              1.824              2.036
 Vibration     6          0.651              1.800              1.903
 Vibration     7          0.667              1.750              1.678
 Vibration     8          0.717              1.604              1.231
 Vibration     9          0.790              1.409              0.865
 Vibration    10          0.915              1.119              0.525
 Vibration    11          0.966              1.016              0.437
                       Q            Log10(Q)             Ln(Q)
 Total Bot       0.452212D-35        -35.344658        -81.384083
 Total V=0       0.100161D+17         16.000698         36.842969
 Vib (Bot)       0.126141D-48        -48.899145       -112.594442
 Vib (Bot)    1  0.437271D+01          0.640751          1.475384
 Vib (Bot)    2  0.176758D+01          0.247378          0.569610
 Vib (Bot)    3  0.145185D+01          0.161921          0.372838
 Vib (Bot)    4  0.125457D+01          0.098494          0.226790
 Vib (Bot)    5  0.941316D+00         -0.026265         -0.060477
 Vib (Bot)    6  0.868857D+00         -0.061051         -0.140576
 Vib (Bot)    7  0.754944D+00         -0.122085         -0.281112
 Vib (Bot)    8  0.553985D+00         -0.256502         -0.590617
 Vib (Bot)    9  0.407593D+00         -0.389773         -0.897486
 Vib (Bot)   10  0.277857D+00         -0.556179         -1.280650
 Vib (Bot)   11  0.243872D+00         -0.612839         -1.411114
 Vib (V=0)       0.279390D+03          2.446211          5.632609
 Vib (V=0)    1  0.490121D+01          0.690303          1.589482
 Vib (V=0)    2  0.233693D+01          0.368647          0.848840
 Vib (V=0)    3  0.203553D+01          0.308678          0.710758
 Vib (V=0)    4  0.185053D+01          0.267297          0.615473
 Vib (V=0)    5  0.156587D+01          0.194755          0.448441
 Vib (V=0)    6  0.150245D+01          0.176801          0.407100
 Vib (V=0)    7  0.140551D+01          0.147833          0.340397
 Vib (V=0)    8  0.124626D+01          0.095608          0.220145
 Vib (V=0)    9  0.114508D+01          0.058837          0.135477
 Vib (V=0)   10  0.107202D+01          0.030202          0.069543
 Vib (V=0)   11  0.105630D+01          0.023789          0.054775
 Electronic      0.200000D+01          0.301030          0.693147
 Translational   0.484981D+08          7.685724         17.697035
 Rotational      0.369600D+06          5.567732         12.820177
 ***** Axes restored to original set *****
 -------------------------------------------------------------------
 Center     Atomic                   Forces (Hartrees/Bohr)
 Number     Number              X              Y              Z
 -------------------------------------------------------------------
      1        6          -0.001177637    0.000210256   -0.000338925
      2        1          -0.000062671    0.000344774    0.000041211
      3        6          -0.000180527   -0.010344606   -0.001423791
      4        6          -0.000184621   -0.001514624   -0.000248444
      5        8           0.000598529    0.000826567    0.000360074
      6        8          -0.000016589    0.000233956    0.000077654
      7        6          -0.000076515    0.000192451    0.000075668
      8        6           0.000095966    0.000089572    0.000054282
      9        1          -0.000005701    0.000008990    0.000004952
     10        1          -0.000014020    0.000012928    0.000012985
     11        1           0.000009207    0.000004484   -0.000001157
     12        1           0.000013031    0.000008626    0.000004690
     13        1           0.000013363    0.000007329    0.000003890
     14        8           0.000904399    0.009776416    0.001389450
     15        1           0.000083785    0.000142882   -0.000012538
 -------------------------------------------------------------------
 Cartesian Forces:  Max     0.010344606 RMS     0.002174537

 GradGradGradGradGradGradGradGradGradGradGradGradGradGradGradGradGradGrad
 Berny optimization.
 Search for a local minimum.
 Step number   1 out of a maximum of    2
 All quantities printed in internal units (Hartrees-Bohrs-Radians)
 Second derivative matrix not updated -- analytic derivatives used.
 ITU=  0
     Eigenvalues ---   -0.04435  -0.00011   0.00031   0.00164   0.00231
     Eigenvalues ---    0.00429   0.00492   0.00606   0.01132   0.02067
     Eigenvalues ---    0.02492   0.03234   0.03554   0.05263   0.06331
     Eigenvalues ---    0.07583   0.07689   0.08683   0.09587   0.10206
     Eigenvalues ---    0.11518   0.14137   0.17035   0.17357   0.19917
     Eigenvalues ---    0.28657   0.29454   0.43656   0.49428   0.62778
     Eigenvalues ---    0.70788   0.76565   0.79236   0.86796   0.89846
     Eigenvalues ---    0.93054   0.98034   1.73552   2.56917
 Eigenvalue     1 is  -4.44D-02 should be greater than     0.000000 Eigenvector:
                          Y3        Y14       Z3        Y4        X14
   1                    0.72834  -0.63565   0.11066   0.10306  -0.08442
                          Z14       Y2        Z15       Y15       Y5
   1                   -0.08263  -0.07209  -0.06456  -0.06412  -0.05718
 Eigenvalue     2 is  -1.10D-04 should be greater than     0.000000 Eigenvector:
                          Z15       Z14       Z12       Z2        Y15
   1                    0.45062   0.32341  -0.29182  -0.27904  -0.27367
                          Y9        X14       Z1        Z10       Y5
   1                   -0.26857  -0.22345  -0.19974   0.19841   0.19476
 Quadratic step=7.852D-01 exceeds max=3.000D-01 adjusted using Lamda=-4.646D-03.
 Angle between NR and scaled steps=  58.56 degrees.
 Angle between quadratic step and forces=   9.47 degrees.
 Linear search not attempted -- first point.
 B after Tr=     0.001142    0.003741   -0.000263
         Rot=    1.000000    0.000215    0.000029    0.000190 Ang=   0.03 deg.
 Variable       Old X    -DE/DX   Delta X   Delta X   Delta X     New X
                                 (Linear)    (Quad)   (Total)
    X1       -5.15803  -0.00118   0.00000  -0.01334  -0.01249  -5.17052
    Y1       -0.87966   0.00021   0.00000  -0.00811  -0.00277  -0.88243
    Z1       -0.84730  -0.00034   0.00000   0.00067   0.00049  -0.84681
    X2       -7.09971  -0.00006   0.00000  -0.01105  -0.01021  -7.10992
    Y2       -0.99618   0.00034   0.00000  -0.01080  -0.00494  -1.00112
    Z2       -1.36504   0.00004   0.00000   0.00665   0.00641  -1.35863
    X3       -2.96052  -0.00018   0.00000  -0.00742  -0.00657  -2.96710
    Y3       -0.63035  -0.01034   0.00000  -0.21018  -0.20545  -0.83580
    Z3       -0.28811  -0.00142   0.00000  -0.02784  -0.02791  -0.31602
    X4       -0.31276  -0.00018   0.00000  -0.00431  -0.00359  -0.31635
    Y4       -1.03129  -0.00151   0.00000  -0.02776  -0.02372  -1.05500
    Z4        0.42395  -0.00025   0.00000  -0.00392  -0.00375   0.42021
    X5        0.31898   0.00060   0.00000   0.01151   0.01187   0.33085
    Y5       -1.68104   0.00083   0.00000   0.00416   0.00885  -1.67219
    Z5        2.49951   0.00036   0.00000   0.00404   0.00451   2.50402
    X6        1.20593  -0.00002   0.00000  -0.00193  -0.00094   1.20499
    Y6       -0.63730   0.00023   0.00000   0.01347   0.01610  -0.62120
    Z6       -1.53090   0.00008   0.00000   0.00319   0.00326  -1.52764
    X7        3.87791  -0.00008   0.00000  -0.00351  -0.00261   3.87530
    Y7       -0.80057   0.00019   0.00000   0.00336   0.00519  -0.79538
    Z7       -1.01860   0.00008   0.00000  -0.00059  -0.00029  -1.01889
    X8        4.80264   0.00010   0.00000   0.00623   0.00796   4.81060
    Y8        1.59503   0.00009   0.00000  -0.00355  -0.00153   1.59350
    Z8        0.24977   0.00005   0.00000   0.00401   0.00334   0.25311
    X9        4.72731  -0.00001   0.00000  -0.00524  -0.00433   4.72298
    Y9       -1.06329   0.00001   0.00000   0.00265   0.00336  -1.05993
    Z9       -2.87326   0.00000   0.00000  -0.00186  -0.00139  -2.87465
   X10        4.23072  -0.00001   0.00000  -0.00756  -0.00736   4.22336
   Y10       -2.46523   0.00001   0.00000  -0.00155   0.00065  -2.46458
   Z10        0.14406   0.00001   0.00000  -0.00525  -0.00421   0.13986
   X11        6.84715   0.00001   0.00000   0.00594   0.00762   6.85477
   Y11        1.49916   0.00000   0.00000  -0.00866  -0.00730   1.49186
   Z11        0.50885  -0.00000   0.00000   0.00285   0.00234   0.51119
   X12        4.35789   0.00001   0.00000   0.00902   0.01144   4.36934
   Y12        3.23699   0.00001   0.00000  -0.00138   0.00031   3.23730
   Z12       -0.91398   0.00000   0.00000   0.00588   0.00448  -0.90951
   X13        3.91880   0.00001   0.00000   0.00610   0.00781   3.92661
   Y13        1.82337   0.00001   0.00000  -0.00573  -0.00257   1.82079
   Z13        2.09687   0.00000   0.00000   0.00389   0.00307   2.09994
   X14       -2.54628   0.00090   0.00000   0.01851   0.02096  -2.52531
   Y14        3.28288   0.00978   0.00000   0.20541   0.21020   3.49308
   Z14        0.19405   0.00139   0.00000   0.01186   0.00995   0.20400
   X15       -3.74013   0.00008   0.00000  -0.02192  -0.01956  -3.75968
   Y15        3.45681   0.00014   0.00000  -0.00223   0.00362   3.46043
   Z15        1.57574  -0.00001   0.00000   0.00166  -0.00031   1.57543
         Item               Value     Threshold  Converged?
 Maximum Force            0.010345     0.000450     NO 
 RMS     Force            0.002175     0.000300     NO 
 Maximum Displacement     0.210203     0.001800     NO 
 RMS     Displacement     0.044757     0.001200     NO 
 Predicted change in Energy=-6.223708D-03
 GradGradGradGradGradGradGradGradGradGradGradGradGradGradGradGradGradGrad


 ----------------------------------------------------------------------

 Electric dipole moment (input orientation):
 (Debye = 10**-18 statcoulomb cm , SI units = C m)
                  (au)            (Debye)         (10**-30 SI)
   Tot        0.371623D+00      0.944572D+00      0.315075D+01
   x         -0.258441D+00     -0.656893D+00     -0.219116D+01
   y          0.647565D-02      0.164595D-01      0.549028D-01
   z         -0.266964D+00     -0.678555D+00     -0.226342D+01

 Dipole polarizability, Alpha (input orientation).
 (esu units = cm**3 , SI units = C**2 m**2 J**-1)
 Alpha(0;0):
               (au)            (10**-24 esu)      (10**-40 SI)
   iso        0.737859D+02      0.109339D+02      0.121656D+02
   aniso      0.316542D+02      0.469068D+01      0.521908D+01
   xx         0.913859D+02      0.135420D+02      0.150675D+02
   yx         0.667463D+01      0.989078D+00      0.110050D+01
   yy         0.704139D+02      0.104343D+02      0.116097D+02
   zx         0.464036D+01      0.687630D+00      0.765092D+00
   zy         0.247547D+01      0.366826D+00      0.408149D+00
   zz         0.595577D+02      0.882555D+01      0.981975D+01

 ----------------------------------------------------------------------

 Dipole orientation:
     6         -3.12326129          0.93064232          4.18044633
     1         -4.15921818          1.06986270          5.90066481
     6         -1.93136467          0.65613740          2.25485186
     6         -0.52684051          1.02592177         -0.10502293
     8         -1.52090760          1.63494241         -2.04670566
     8          1.92667498          0.65536004          0.25000017
     6          3.48920059          0.79083514         -1.97907158
     6          3.28848406         -1.63296659         -3.49157972
     1          5.38749356          1.07983022         -1.24201437
     1          2.92241329          2.43244729         -3.08866037
     1          4.57671641         -1.55604863         -5.10120172
     1          3.78981225         -3.25122540         -2.31766496
     1          1.37046375         -1.88721900         -4.19985460
     8         -1.94142390         -3.26772020          1.68858661
     1         -3.75892259         -3.45728086          1.52929556

 Electric dipole moment (dipole orientation):
 (Debye = 10**-18 statcoulomb cm , SI units = C m)
                  (au)            (Debye)         (10**-30 SI)
   Tot        0.371623D+00      0.944572D+00      0.315075D+01
   x          0.000000D+00      0.000000D+00      0.000000D+00
   y          0.000000D+00      0.000000D+00      0.000000D+00
   z          0.371623D+00      0.944572D+00      0.315075D+01

 Dipole polarizability, Alpha (dipole orientation).
 (esu units = cm**3 , SI units = C**2 m**2 J**-1)
 Alpha(0;0):
               (au)            (10**-24 esu)      (10**-40 SI)
   iso        0.737859D+02      0.109339D+02      0.121656D+02
   aniso      0.316542D+02      0.469068D+01      0.521908D+01
   xx         0.713973D+02      0.105800D+02      0.117718D+02
   yx        -0.334779D+01     -0.496091D+00     -0.551975D+00
   yy         0.705932D+02      0.104608D+02      0.116392D+02
   zx        -0.160462D+02     -0.237780D+01     -0.264566D+01
   zy         0.646410D+01      0.957881D+00      0.106579D+01
   zz         0.793671D+02      0.117610D+02      0.130859D+02

 ----------------------------------------------------------------------
 1\1\GINC-AJ\Freq\UM062X\6-311++G(d,p)\C5H7O3(2)\AAYUSH\16-Aug-2025\0\\
 # freq 6-311++g(d,p) m062x\\Title Card Required\\0,2\C,-2.729512,-0.46
 5495,-0.448371\H,-3.757003,-0.527158,-0.722347\C,-1.566641,-0.333567,-
 0.152462\C,-0.165505,-0.545733,0.224347\O,0.168798,-0.88957,1.322683\O
 ,0.638151,-0.337245,-0.810117\C,2.052103,-0.423646,-0.539018\C,2.54144
 7,0.844052,0.132173\H,2.501587,-0.562668,-1.520465\H,2.238802,-1.30454
 3,0.076235\H,3.623356,0.793321,0.269273\H,2.306098,1.712942,-0.483659\
 H,2.07374,0.964884,1.109618\O,-1.347431,1.737223,0.102686\H,-1.979189,
 1.829265,0.833847\\Version=ES64L-G16RevA.03\State=2-A\HF=-420.2034737\
 S2=0.765862\S2-1=0.\S2A=0.750111\RMSD=5.710e-09\RMSF=2.175e-03\ZeroPoi
 nt=0.1116282\Thermal=0.1205449\Dipole=-0.2584414,0.0064756,-0.2669641\
 DipoleDeriv=-0.269346,0.3693286,0.0357138,0.0380249,-0.1111684,0.01334
 8,0.0200082,0.0937272,-0.118359,0.277718,0.0263422,0.0190406,0.0204868
 ,0.204403,-0.0017478,0.0110076,-0.000914,0.2264165,-0.4929441,-0.39584
 42,-0.1497684,-0.0877453,-0.6827736,-0.1294115,-0.116397,-0.1341561,-0
 .1527647,2.1411703,-0.2796242,-0.1122733,-0.0047686,0.6132193,-0.34630
 67,-0.47949,-0.4732992,1.6572843,-0.8174413,0.1547017,-0.2022741,0.027
 1348,-0.4607222,0.2357946,0.0115874,0.3216816,-1.053909,-1.6320305,-0.
 0745241,0.3792273,-0.0858505,-0.337153,0.0712819,0.50923,0.108368,-0.8
 48486,0.9916348,0.0802129,-0.0696634,0.0223869,0.3170682,0.0726623,0.0
 69475,0.0258886,0.2902198,-0.0623859,-0.0221034,0.0363983,-0.046477,-0
 .0543796,-0.0796889,-0.0274668,-0.0506109,-0.0097677,-0.0247656,-0.002
 5433,0.0306895,-0.0087894,0.0560671,-0.0294159,0.0703444,-0.0541704,-0
 .0717759,-0.0171082,-0.0344477,0.0197143,0.0230899,-0.0564561,0.025335
 8,-0.0664126,0.0624615,0.0393686,-0.1316998,-0.0074412,-0.0234317,0.00
 54486,0.0652331,0.001348,-0.0249607,-0.011593,0.094909,0.0836578,0.043
 5777,-0.0380543,-0.0014445,-0.0436734,0.0390729,-0.0306266,0.0677312,0
 .0067256,0.0741766,0.0176554,0.072499,-0.0045379,0.0397915,-0.0034849,
 0.0551414,-0.0311997,-0.0305389,-0.3270332,0.1959108,-0.0495875,0.1088
 403,0.1236292,0.1193957,-0.0827857,0.0049778,-0.2594163,0.206397,-0.07
 12012,0.0517698,-0.0057988,0.3269149,0.0118164,0.0813453,0.0711074,0.2
 300938\Polar=91.3859152,6.6746303,70.4139249,4.6403581,2.4754658,59.55
 77462\Quadrupole=9.8705912,-4.1176354,-5.7529558,-0.0319499,-1.3074885
 ,3.8072528\PG=C01 [X(C5H7O3)]\NImag=2\\1.39456141,0.11220194,0.0685375
 9,0.34603137,0.03095026,0.14393717,-0.39603029,-0.02378391,-0.09840633
 ,0.38641146,-0.01719656,-0.02686390,-0.00546044,0.02258805,0.01711268,
 -0.09870305,-0.00709228,-0.05220864,0.09867779,0.00657918,0.04243778,-
 0.99734393,-0.08825504,-0.24471436,0.00914724,-0.00532376,0.00205394,1
 .31097701,-0.04316659,-0.02524947,-0.01017781,0.00137639,0.00656838,0.
 00119293,0.01104278,0.00976689,-0.24227128,-0.02128338,-0.09577813,0.0
 0108574,-0.00070198,0.00473573,0.29488160,-0.01262477,0.18419258,0.016
 14246,0.00543226,0.00149061,-0.00070467,0.00014780,-0.00201359,-0.2519
 3805,0.00763120,-0.04717995,0.65882887,-0.01640356,0.00004753,-0.00434
 691,-0.00056951,0.00440237,-0.00021450,0.03370680,-0.05551792,0.006601
 41,-0.06240353,0.27878726,-0.00037295,0.00123281,0.00275111,-0.0012470
 7,0.00020678,0.00519648,-0.03246761,-0.00227993,-0.06720694,0.10903421
 ,-0.21161291,0.92235066,-0.00546833,-0.00024997,-0.00034223,0.00020373
 ,-0.00028312,0.00152076,-0.01884999,0.01873011,-0.04593277,-0.16955698
 ,0.06214134,-0.18684990,0.16593630,0.00226945,0.00070912,0.00025173,0.
 00016935,-0.00062421,-0.00052844,0.01246807,0.01206331,0.01703923,0.05
 716996,-0.13614122,0.17960434,-0.06799970,0.10563414,-0.00125966,-0.00
 058772,0.00111806,0.00001872,-0.00034345,0.00033922,-0.03743887,0.0188
 7172,-0.02718739,-0.17679063,0.17862376,-0.64859259,0.19630957,-0.2270
 4250,0.77300897,-0.00857006,0.00004324,-0.00235016,0.00100483,0.000229
 80,-0.00115923,-0.05303993,0.00177429,0.03415618,-0.19627253,-0.019535
 19,0.10140124,0.02654979,-0.00649150,0.03087456,0.50368152,0.00050217,
 0.00068738,0.00020221,0.00000796,-0.00034975,0.00007027,0.00142902,0.0
 0971055,-0.00039686,-0.01452974,-0.07552263,0.03575688,-0.00842463,0.0
 2283513,0.03209617,0.01038791,0.10533797,0.00071729,0.00012135,0.00002
 556,-0.00005724,-0.00011853,-0.00061242,0.00864236,-0.00042499,0.00580
 860,0.07829311,0.03570933,-0.22216378,0.03050854,0.03172217,-0.0978069
 9,-0.09551632,-0.07588628,0.40410497,0.00246399,-0.00007147,0.00056891
 ,-0.00036490,0.00000790,0.00000427,0.00185450,-0.00271167,0.00010629,-
 0.05510773,-0.00466919,0.03446280,-0.00048402,0.00590217,-0.01963355,-
 0.17700519,0.01248563,-0.01985775,0.45339214,0.00102699,-0.00006310,0.
 00019395,0.00004310,-0.00016265,0.00004021,-0.00043672,0.00412439,0.00
 116084,-0.00519794,0.00261474,-0.00858208,0.00242448,-0.00563725,0.000
 76481,0.01580202,-0.06914072,0.01202296,-0.02290439,0.56150339,0.00121
 658,0.00003691,0.00068621,-0.00003607,-0.00003588,0.00024768,0.0042842
 3,0.00104978,-0.00362697,0.03431877,-0.00559566,0.01263282,0.00116078,
 -0.00054691,-0.00402927,-0.04204856,0.01150419,-0.09716474,-0.06095240
 ,-0.03954143,0.63145785,-0.00023267,-0.00001614,-0.00001456,0.00009005
 ,-0.00004074,-0.00001843,-0.00051808,0.00151276,0.00071053,0.00194510,
 -0.00110429,-0.00919247,0.00080673,-0.00159367,0.00267913,-0.03758995,
 -0.03494518,-0.01767576,-0.07978488,-0.02151925,-0.00807724,0.57799264
 ,0.00020783,-0.00006559,0.00006098,-0.00001066,0.00000564,-0.00001321,
 -0.00031168,-0.00025564,-0.00019732,-0.00068826,-0.00044760,0.00356871
 ,-0.00107420,-0.00020145,-0.00182120,-0.00136320,0.00590480,-0.0010608
 5,-0.03291485,-0.18468792,-0.05122520,-0.02926321,0.52188293,0.0000361
 0,-0.00001346,-0.00003589,0.00001166,-0.00001960,0.00000422,-0.0003785
 7,0.00036783,0.00009780,0.00144372,0.00099472,0.00235255,-0.00122513,-
 0.00160181,-0.00055393,-0.00804895,-0.00446489,-0.00150895,-0.01300500
 ,-0.04982425,-0.11095701,-0.01521048,-0.03500743,0.57029688,-0.0006821
 0,0.00002816,-0.00025424,0.00004812,0.00002462,-0.00005086,-0.00113854
 ,-0.00032506,0.00112871,-0.00371149,0.00348134,-0.00554398,0.00151443,
 -0.00056091,0.00131946,-0.03418623,0.00194543,0.03408797,-0.08593610,0
 .01364467,0.09232344,0.00683552,-0.00085248,-0.01112601,0.11270170,-0.
 00002937,-0.00000718,0.00002285,0.00000861,-0.00000821,0.00000099,0.00
 016929,0.00018064,-0.00004943,-0.00001223,-0.00068504,0.00249441,-0.00
 164346,0.00065437,-0.00040645,0.00302344,0.00065675,-0.00261207,0.0134
 4613,-0.05684374,-0.02692160,0.01139481,-0.00357134,-0.02745885,-0.013
 30459,0.05669683,-0.00007974,0.00001536,-0.00006374,-0.00001452,0.0000
 0276,-0.00002629,-0.00021525,-0.00022083,0.00027398,-0.00249869,0.0006
 5755,-0.00098857,0.00140442,-0.00046227,0.00095098,-0.00629532,0.00170
 779,0.00947458,0.10610941,-0.02819213,-0.28282481,0.00423227,-0.001197
 78,-0.01122921,-0.10737535,0.03328605,0.29683671,-0.00029268,0.0000766
 3,-0.00002919,0.00003038,0.00003778,-0.00002525,-0.00010169,-0.0006447
 2,0.00007029,0.00277978,0.00341058,-0.00871085,0.00041152,-0.00105999,
 0.00394569,-0.02712525,0.02989253,-0.02034576,-0.05466227,0.02644937,-
 0.01625058,0.00382971,-0.00949646,0.00720144,0.00421980,-0.01123227,0.
 00638361,0.07101428,-0.00016152,0.00001026,-0.00002507,-0.00000434,0.0
 0001042,0.00001691,0.00014310,-0.00009323,-0.00022069,-0.00047227,-0.0
 0009908,0.00359569,-0.00223692,0.00056995,-0.00096888,0.00491656,0.002
 22736,-0.00086720,0.03494252,-0.22804144,0.12310442,0.00317600,-0.0218
 6367,0.01544066,-0.00201463,0.00547827,-0.00307450,-0.03629763,0.24359
 405,-0.00008931,-0.00006402,0.00000476,0.00002624,-0.00000393,0.000001
 99,-0.00026488,0.00053699,-0.00004452,0.00267417,-0.00031352,-0.000270
 10,0.00156968,-0.00077251,-0.00072742,-0.00751028,0.00260590,-0.002631
 19,-0.02453499,0.12604746,-0.14028000,0.00330838,-0.01438059,0.0103939
 2,-0.00439707,0.02271292,-0.01378333,0.02959099,-0.13426378,0.14729292
 ,-0.00006435,0.00001386,0.00000468,0.00003512,0.00000579,0.00000852,-0
 .00011985,0.00012813,-0.00001696,0.00146787,0.00049680,-0.00129477,-0.
 00007665,-0.00042109,0.00040826,-0.00058492,-0.00273156,-0.00033298,-0
 .01007811,0.00313318,0.00030666,-0.31398473,0.01286690,-0.03379875,0.0
 0028269,-0.00018000,-0.00034434,0.00019358,-0.00042195,0.00014382,0.34
 021467,-0.00024836,0.00000637,-0.00005807,0.00001725,-0.00001019,-0.00
 000679,-0.00001972,0.00053438,0.00029324,0.00106446,-0.00001001,-0.002
 91027,0.00021226,-0.00037939,0.00103819,-0.00636333,-0.00549621,-0.002
 34125,-0.02623010,0.00481651,-0.00057821,0.01470115,-0.04858690,0.0011
 0342,0.00064331,0.00104064,-0.00014396,0.00061162,0.00045299,0.0010783
 4,-0.01357689,0.04902300,-0.00008640,0.00001406,0.00000266,0.00000756,
 -0.00000039,-0.00000502,-0.00004691,0.00006788,0.00009251,0.00045421,-
 0.00000555,-0.00281810,0.00054290,0.00028663,0.00113943,-0.00399457,-0
 .00370192,0.00014876,-0.01332023,0.00382269,-0.00248322,-0.03264391,0.
 00064776,-0.05029508,0.00041501,0.00060819,-0.00005995,0.00020983,0.00
 009796,0.00043050,0.03754129,0.00007415,0.05057715,-0.00012460,0.00000
 302,-0.00003009,-0.00002538,-0.00001038,-0.00000007,0.00018666,0.00020
 563,0.00001300,-0.00027392,-0.00048950,0.00151648,-0.00051893,-0.00000
 633,-0.00071282,0.00208460,0.00055054,0.00045003,0.00055307,-0.0104634
 1,0.00625750,-0.06019922,0.04886126,-0.03359994,0.00009900,0.00079606,
 0.00002899,-0.00019276,-0.00222101,-0.00105211,-0.00505343,0.02592115,
 -0.01820835,0.06019501,-0.00010844,0.00001876,-0.00003491,-0.00000246,
 -0.00000380,0.00000394,0.00001536,0.00006854,0.00003318,-0.00008521,-0
 .00041380,0.00074862,-0.00016501,0.00022953,-0.00039375,0.00103687,0.0
 0298512,0.00015448,0.00692119,-0.02561834,0.01691839,0.04642468,-0.217
 49923,0.12304369,0.00024976,0.00104222,-0.00007797,-0.00210465,-0.0033
 0811,-0.00361529,0.00001559,0.00017393,-0.00085391,-0.05044241,0.23863
 641,0.00016287,-0.00000863,0.00003452,0.00000491,0.00000636,0.00000150
 ,-0.00010393,-0.00034184,-0.00003035,-0.00045974,0.00049548,-0.0004897
 6,0.00054270,0.00030870,0.00043482,0.00160656,0.00101090,0.00034534,0.
 00390789,-0.01531461,0.01003507,-0.03404262,0.12546715,-0.13914173,0.0
 0056988,0.00057541,0.00091896,-0.00178949,-0.00303218,-0.00105537,-0.0
 0003092,0.00140705,-0.00278515,0.03786802,-0.13320957,0.14629290,0.000
 04853,-0.00002844,-0.00001270,-0.00003097,-0.00000850,-0.00000478,0.00
 009093,0.00012158,0.00004955,-0.00081944,-0.00057825,-0.00103687,-0.00
 068495,-0.00065952,0.00062073,0.00132002,0.00114118,0.00066675,0.00437
 974,-0.00170806,-0.01217507,-0.09916047,0.01407299,0.10763755,-0.00002
 842,-0.00245106,-0.00137238,0.00001677,0.00064732,0.00053635,-0.012109
 92,0.00318580,0.02911422,0.00310555,-0.00177326,-0.00815314,0.10355873
 ,0.00021470,-0.00000009,0.00002405,-0.00000821,0.00000251,-0.00001335,
 -0.00019508,-0.00040508,0.00013788,-0.00102119,0.00087616,-0.00293256,
 0.00060690,-0.00055964,0.00182248,-0.00013017,0.00157770,0.00285701,0.
 01538215,-0.00422936,-0.02884914,0.01123306,-0.05055877,-0.02249084,-0
 .00275888,-0.00464833,-0.00221216,0.00055660,0.00112254,0.00037778,0.0
 0062136,-0.00150740,-0.00102693,-0.01261927,0.00373893,0.02252627,-0.0
 1182349,0.05454018,-0.00007268,-0.00000258,-0.00001036,-0.00002400,0.0
 0000640,-0.00001484,0.00009804,-0.00002138,0.00006890,-0.00047765,-0.0
 0037976,-0.00143550,0.00092467,0.00104807,0.00062508,-0.00045997,0.000
 87671,0.00120092,0.00633158,-0.00261347,-0.01372662,0.10602572,-0.0249
 5168,-0.26922985,-0.00105605,-0.00228025,0.00050271,-0.00032906,0.0002
 4148,0.00066411,-0.00256950,0.00106072,0.00599304,0.00752680,-0.002670
 50,-0.01455955,-0.11603723,0.02979607,0.28986609,-0.00577698,-0.004421
 92,-0.00151330,0.00013188,0.00022055,-0.00017508,0.00214660,0.00752787
 ,0.00573146,-0.00201871,0.00226778,-0.00249508,0.00031284,0.00104754,0
 .00074905,-0.00076874,0.00169628,0.00105681,0.00068528,-0.00025606,-0.
 00031262,0.00001012,0.00003211,-0.00008663,-0.00001829,0.00003129,0.00
 005987,-0.00009219,-0.00000917,-0.00000326,-0.00014305,0.00007095,0.00
 005838,0.00013065,-0.00001121,-0.00008232,0.00038749,-0.00009163,0.000
 16051,0.22876754,-0.03944910,-0.01707273,-0.01097026,0.00044229,-0.000
 15461,0.00006675,0.03202712,0.04143260,0.01520217,0.01052774,-0.017358
 11,0.00237582,-0.00130862,0.00066082,-0.00224032,-0.00235679,-0.000807
 93,0.00028042,0.00003004,0.00135916,0.00055145,0.00015073,-0.00009961,
 0.00001873,-0.00013037,0.00003734,-0.00009628,-0.00022173,-0.00003594,
 0.00010663,0.00007012,0.00000325,-0.00002362,-0.00005374,-0.00003498,0
 .00002793,-0.00018335,-0.00002562,-0.00010101,-0.03084553,0.00661021,-
 0.00375584,-0.00310346,-0.00012118,0.00010459,0.00013064,0.00000257,0.
 00512852,0.00082541,-0.00165732,-0.00156549,0.00026193,-0.00347829,0.0
 0087409,0.00050876,0.00297289,0.00067373,-0.00161515,0.00050978,-0.000
 64495,-0.00000494,-0.00006248,0.00000471,0.00008797,-0.00024910,0.0000
 2730,0.00003622,0.00003665,0.00013030,-0.00002960,0.00001863,-0.000014
 65,0.00003689,0.00008814,-0.00004220,-0.00002195,-0.00003823,0.0001756
 9,-0.00006523,0.00007924,-0.25720420,0.03394413,0.29752943,0.00136958,
 -0.00097223,-0.00042842,0.00005339,-0.00039922,-0.00011494,-0.00135288
 ,-0.00320270,-0.00253240,-0.00076057,0.00024839,0.00279682,-0.00009550
 ,-0.00023384,-0.00108965,0.00050204,0.00059245,-0.00063706,0.00009448,
 -0.00003799,-0.00001540,-0.00003987,-0.00006609,0.00014897,-0.00000010
 ,-0.00001665,-0.00002298,-0.00002896,0.00001393,0.00000228,0.00002106,
 0.00001046,-0.00004300,0.00003371,0.00002921,-0.00000065,-0.00007359,0
 .00003314,-0.00004117,-0.22375442,0.03130117,0.25610840,0.22403162,0.0
 0034040,-0.00069494,-0.00063254,-0.00027393,0.00007533,-0.00010262,0.0
 0354046,-0.00292833,-0.00499353,0.00243695,-0.00053264,-0.00126631,-0.
 00072947,0.00018678,0.00058714,-0.00097395,-0.00060552,0.00044346,0.00
 038393,0.00000633,0.00012889,-0.00011073,0.00004434,-0.00008791,-0.000
 07038,-0.00002320,0.00000836,0.00002234,-0.00002438,-0.00005239,-0.000
 02022,-0.00006097,-0.00000698,-0.00003159,-0.00001517,0.00008160,0.000
 04507,0.00007627,-0.00000882,0.02274115,-0.01451384,-0.03099163,-0.027
 30003,0.01900994,-0.00147330,-0.00021520,-0.00034211,-0.00015198,-0.00
 024791,-0.00009997,0.00054169,0.00317900,0.00026152,0.00327694,-0.0008
 7537,0.00216001,-0.00100808,0.00018482,-0.00169187,-0.00132892,0.00023
 407,0.00026955,0.00045772,0.00001999,0.00009549,-0.00008528,0.00002270
 ,0.00005537,-0.00006820,-0.00000840,-0.00001867,-0.00005195,-0.0000152
 2,-0.00001490,-0.00001035,-0.00005344,-0.00002568,-0.00001524,-0.00002
 444,0.00003702,-0.00000866,0.00004868,-0.00002337,0.25405642,-0.039142
 54,-0.29563072,-0.25413081,0.03689327,0.29496835\\0.00117764,-0.000210
 26,0.00033892,0.00006267,-0.00034477,-0.00004121,0.00018053,0.01034461
 ,0.00142379,0.00018462,0.00151462,0.00024844,-0.00059853,-0.00082657,-
 0.00036007,0.00001659,-0.00023396,-0.00007765,0.00007652,-0.00019245,-
 0.00007567,-0.00009597,-0.00008957,-0.00005428,0.00000570,-0.00000899,
 -0.00000495,0.00001402,-0.00001293,-0.00001298,-0.00000921,-0.00000448
 ,0.00000116,-0.00001303,-0.00000863,-0.00000469,-0.00001336,-0.0000073
 3,-0.00000389,-0.00090440,-0.00977642,-0.00138945,-0.00008378,-0.00014
 288,0.00001254\\\@


 THE ONLY DIFFERENCE BETWEEN ECCENTRICS AND JOGGERS
 IS THAT JOGGERS WEAR SWEATBANDS WHEN THEY RUN IN THE RAIN.
 Job cpu time:       0 days  0 hours 55 minutes 36.3 seconds.
 Elapsed time:       0 days  0 hours  2 minutes 19.3 seconds.
 File lengths (MBytes):  RWF=    153 Int=      0 D2E=      0 Chk=      5 Scr=      1
 Normal termination of Gaussian 16 at Sat Aug 16 19:57:31 2025.
