 Entering Gaussian System, Link 0=g16
 Initial command:
 /opt/g16/l1.exe "/home/aayush/scratches/g16/Gau-29950.inp" -scrdir="/home/aayush/scratches/g16/"
 Entering Link 1 = /opt/g16/l1.exe PID=     29953.
  
 Copyright (c) 1988,1990,1992,1993,1995,1998,2003,2009,2016,
            Gaussian, Inc.  All Rights Reserved.
  
 This is part of the Gaussian(R) 16 program.  It is based on
 the Gaussian(R) 09 system (copyright 2009, Gaussian, Inc.),
 the Gaussian(R) 03 system (copyright 2003, Gaussian, Inc.),
 the Gaussian(R) 98 system (copyright 1998, Gaussian, Inc.),
 the Gaussian(R) 94 system (copyright 1995, Gaussian, Inc.),
 the Gaussian 92(TM) system (copyright 1992, Gaussian, Inc.),
 the Gaussian 90(TM) system (copyright 1990, Gaussian, Inc.),
 the Gaussian 88(TM) system (copyright 1988, Gaussian, Inc.),
 the Gaussian 86(TM) system (copyright 1986, Carnegie Mellon
 University), and the Gaussian 82(TM) system (copyright 1983,
 Carnegie Mellon University). Gaussian is a federally registered
 trademark of Gaussian, Inc.
  
 This software contains proprietary and confidential information,
 including trade secrets, belonging to Gaussian, Inc.
  
 This software is provided under written license and may be
 used, copied, transmitted, or stored only in accord with that
 written license.
  
 The following legend is applicable only to US Government
 contracts under FAR:
  
                    RESTRICTED RIGHTS LEGEND
  
 Use, reproduction and disclosure by the US Government is
 subject to restrictions as set forth in subparagraphs (a)
 and (c) of the Commercial Computer Software - Restricted
 Rights clause in FAR 52.227-19.
  
 Gaussian, Inc.
 340 Quinnipiac St., Bldg. 40, Wallingford CT 06492
  
  
 ---------------------------------------------------------------
 Warning -- This program may not be used in any manner that
 competes with the business of Gaussian, Inc. or will provide
 assistance to any competitor of Gaussian, Inc.  The licensee
 of this program is prohibited from giving any competitor of
 Gaussian, Inc. access to this program.  By using this program,
 the user acknowledges that Gaussian, Inc. is engaged in the
 business of creating and licensing software in the field of
 computational chemistry and represents and warrants to the
 licensee that it is not a competitor of Gaussian, Inc. and that
 it will not use this program in any manner prohibited above.
 ---------------------------------------------------------------
  

 Cite this work as:
 Gaussian 16, Revision A.03,
 M. J. Frisch, G. W. Trucks, H. B. Schlegel, G. E. Scuseria, 
 M. A. Robb, J. R. Cheeseman, G. Scalmani, V. Barone, 
 G. A. Petersson, H. Nakatsuji, X. Li, M. Caricato, A. V. Marenich, 
 J. Bloino, B. G. Janesko, R. Gomperts, B. Mennucci, H. P. Hratchian, 
 J. V. Ortiz, A. F. Izmaylov, J. L. Sonnenberg, D. Williams-Young, 
 F. Ding, F. Lipparini, F. Egidi, J. Goings, B. Peng, A. Petrone, 
 T. Henderson, D. Ranasinghe, V. G. Zakrzewski, J. Gao, N. Rega, 
 G. Zheng, W. Liang, M. Hada, M. Ehara, K. Toyota, R. Fukuda, 
 J. Hasegawa, M. Ishida, T. Nakajima, Y. Honda, O. Kitao, H. Nakai, 
 T. Vreven, K. Throssell, J. A. Montgomery, Jr., J. E. Peralta, 
 F. Ogliaro, M. J. Bearpark, J. J. Heyd, E. N. Brothers, K. N. Kudin, 
 V. N. Staroverov, T. A. Keith, R. Kobayashi, J. Normand, 
 K. Raghavachari, A. P. Rendell, J. C. Burant, S. S. Iyengar, 
 J. Tomasi, M. Cossi, J. M. Millam, M. Klene, C. Adamo, R. Cammi, 
 J. W. Ochterski, R. L. Martin, K. Morokuma, O. Farkas, 
 J. B. Foresman, and D. J. Fox, Gaussian, Inc., Wallingford CT, 2016.
 
 ******************************************
 Gaussian 16:  ES64L-G16RevA.03 25-Dec-2016
                 4-Aug-2025 
 ******************************************
 %nprocshared=24
 Will use up to   24 processors via shared memory.
 %mem=12GB
 %chk=ethyl_propiolate_ts1.chk
 --------------------------
 # ccsd(t)/6-311++g(d,p) sp
 --------------------------
 1/38=1,172=1/1;
 2/12=2,17=6,18=5,40=1/2;
 3/5=4,6=6,7=1111,11=9,25=1,30=1/1,2,3;
 4//1;
 5/5=2,38=5/2;
 8/6=4,9=120000,10=2/1,4;
 9/5=7,14=2/13;
 6/7=2,8=2,9=2,10=2/1;
 99/5=1,9=1/99;
 -------------------
 Title Card Required
 -------------------
 Symbolic Z-matrix:
 Charge =  0 Multiplicity = 2
 C                    -2.77958  -0.49349  -0.44674 
 H                    -3.80474  -0.57661  -0.72577 
 C                    -1.61942  -0.2532   -0.1363 
 C                    -0.22065  -0.56222   0.22631 
 O                     0.10833  -0.92443   1.31912 
 O                     0.58105  -0.35751  -0.80866 
 C                     1.99601  -0.44433  -0.53785 
 C                     2.48342   0.82039   0.14062 
 H                     2.44528  -0.57722  -1.52014 
 H                     2.18321  -1.3287    0.0721 
 H                     3.56527   0.76909   0.278 
 H                     2.24737   1.6925   -0.47018 
 H                     2.0151    0.936     1.11843 
 O                    -1.4113    1.64531   0.10638 
 H                    -2.03481   1.77504   0.83662 
 
                          Input orientation:                          
 ---------------------------------------------------------------------
 Center     Atomic      Atomic             Coordinates (Angstroms)
 Number     Number       Type             X           Y           Z
 ---------------------------------------------------------------------
      1          6           0       -2.779584   -0.493491   -0.446737
      2          1           0       -3.804735   -0.576610   -0.725768
      3          6           0       -1.619419   -0.253197   -0.136303
      4          6           0       -0.220649   -0.562222    0.226307
      5          8           0        0.108333   -0.924430    1.319123
      6          8           0        0.581048   -0.357506   -0.808659
      7          6           0        1.996007   -0.444325   -0.537848
      8          6           0        2.483420    0.820387    0.140621
      9          1           0        2.445276   -0.577224   -1.520143
     10          1           0        2.183208   -1.328697    0.072096
     11          1           0        3.565274    0.769092    0.277999
     12          1           0        2.247374    1.692504   -0.470179
     13          1           0        2.015103    0.935995    1.118429
     14          8           0       -1.411298    1.645309    0.106375
     15          1           0       -2.034809    1.775042    0.836615
 ---------------------------------------------------------------------
                    Distance matrix (angstroms):
                    1          2          3          4          5
     1  C    0.000000
     2  H    1.065693   0.000000
     3  C    1.224783   2.286410   0.000000
     4  C    2.646859   3.708413   1.477681   0.000000
     5  O    3.412336   4.428844   2.356681   1.197360   0.000000
     6  O    3.382799   4.392035   2.303258   1.325059   2.252181
     7  C    4.776713   5.805292   3.642674   2.347636   2.691125
     8  C    5.456233   6.499471   4.250007   3.038246   3.174002
     9  H    5.334639   6.300291   4.306013   3.187078   3.693682
    10  H    5.059255   6.087502   3.957285   2.527804   2.454305
    11  H    6.509730   7.558802   5.300732   4.013512   3.987781
    12  H    5.481736   6.468557   4.341580   3.414677   3.824322
    13  H    5.242347   6.289638   4.024709   2.835335   2.671560
    14  O    2.598577   3.370152   1.925236   2.511020   3.222359
    15  H    2.710705   3.332258   2.287547   3.021002   3.480377
                    6          7          8          9         10
     6  O    0.000000
     7  C    1.443255   0.000000
     8  C    2.430552   1.515714   0.000000
     9  H    2.007444   1.088305   2.170923   0.000000
    10  H    2.070231   1.090500   2.171033   1.780061   0.000000
    11  H    3.369815   2.144898   1.091747   2.510035   2.520560
    12  H    2.663410   2.152627   1.090588   2.508636   3.070152
    13  H    2.728246   2.156131   1.090319   3.071961   2.500380
    14  O    2.969511   4.048620   3.981268   4.739027   4.665443
    15  H    3.754650   4.802314   4.670136   5.581991   5.292386
                   11         12         13         14         15
    11  H    0.000000
    12  H    1.774632   0.000000
    13  H    1.771217   1.774805   0.000000
    14  O    5.056034   3.704122   3.642472   0.000000
    15  H    5.717072   4.477903   4.145504   0.968941   0.000000
 Stoichiometry    C5H7O3(2)
 Framework group  C1[X(C5H7O3)]
 Deg. of freedom    39
 Full point group                 C1      NOp   1
 Largest Abelian subgroup         C1      NOp   1
 Largest concise Abelian subgroup C1      NOp   1
                         Standard orientation:                         
 ---------------------------------------------------------------------
 Center     Atomic      Atomic             Coordinates (Angstroms)
 Number     Number       Type             X           Y           Z
 ---------------------------------------------------------------------
      1          6           0       -2.779584   -0.493491   -0.446737
      2          1           0       -3.804735   -0.576610   -0.725768
      3          6           0       -1.619419   -0.253197   -0.136303
      4          6           0       -0.220649   -0.562222    0.226307
      5          8           0        0.108333   -0.924430    1.319123
      6          8           0        0.581048   -0.357506   -0.808659
      7          6           0        1.996007   -0.444325   -0.537848
      8          6           0        2.483420    0.820387    0.140621
      9          1           0        2.445276   -0.577224   -1.520143
     10          1           0        2.183208   -1.328697    0.072096
     11          1           0        3.565274    0.769092    0.277999
     12          1           0        2.247374    1.692504   -0.470179
     13          1           0        2.015103    0.935995    1.118429
     14          8           0       -1.411298    1.645309    0.106375
     15          1           0       -2.034809    1.775042    0.836615
 ---------------------------------------------------------------------
 Rotational constants (GHZ):           3.6785886           1.3107875           1.1965084
 Standard basis: 6-311++G(d,p) (5D, 7F)
 There are   233 symmetry adapted cartesian basis functions of A   symmetry.
 There are   225 symmetry adapted basis functions of A   symmetry.
   225 basis functions,   351 primitive gaussians,   233 cartesian basis functions
    31 alpha electrons       30 beta electrons
       nuclear repulsion energy       363.3706281263 Hartrees.
 NAtoms=   15 NActive=   15 NUniq=   15 SFac= 1.00D+00 NAtFMM=   60 NAOKFM=F Big=F
 Integral buffers will be    131072 words long.
 Raffenetti 2 integral format.
 Two-electron integral symmetry is turned on.
 One-electron integrals computed using PRISM.
 NBasis=   225 RedAO= T EigKep=  3.46D-06  NBF=   225
 NBsUse=   225 1.00D-06 EigRej= -1.00D+00 NBFU=   225
 ExpMin= 3.60D-02 ExpMax= 8.59D+03 ExpMxC= 1.30D+03 IAcc=3 IRadAn=         5 AccDes= 0.00D+00
 Harris functional with IExCor=  205 and IRadAn=       5 diagonalized for initial guess.
 HarFok:  IExCor=  205 AccDes= 0.00D+00 IRadAn=         5 IDoV= 1 UseB2=F ITyADJ=14
 ICtDFT=  3500011 ScaDFX=  1.000000  1.000000  1.000000  1.000000
 FoFCou: FMM=F IPFlag=           0 FMFlag=      100000 FMFlg1=           0
         NFxFlg=           0 DoJE=T BraDBF=F KetDBF=T FulRan=T
         wScrn=  0.000000 ICntrl=       500 IOpCl=  0 I1Cent=   200000004 NGrid=           0
         NMat0=    1 NMatS0=      1 NMatT0=    0 NMatD0=    1 NMtDS0=    0 NMtDT0=    0
 Petite list used in FoFCou.
 Initial guess <Sx>= 0.0000 <Sy>= 0.0000 <Sz>= 0.5000 <S**2>= 0.7500 S= 0.5000
 Requested convergence on RMS density matrix=1.00D-08 within 128 cycles.
 Requested convergence on MAX density matrix=1.00D-06.
 Requested convergence on             energy=1.00D-06.
 No special actions if energy rises.
 Initial convergence to 1.0D-05 achieved.  Increase integral accuracy.
 SCF Done:  E(UHF) =  -417.977243748     A.U. after   34 cycles
            NFock= 34  Conv=0.57D-08     -V/T= 2.0006
 <Sx>= 0.0000 <Sy>= 0.0000 <Sz>= 0.5000 <S**2>= 1.0605 S= 0.6448
 <L.S>=  0.00000000000    
 Annihilation of the first spin contaminant:
 S**2 before annihilation     1.0605,   after     0.8106
 ExpMin= 3.60D-02 ExpMax= 8.59D+03 ExpMxC= 1.30D+03 IAcc=3 IRadAn=         5 AccDes= 0.00D+00
 HarFok:  IExCor=  205 AccDes= 0.00D+00 IRadAn=         5 IDoV=-2 UseB2=F ITyADJ=14
 ICtDFT= 12500011 ScaDFX=  1.000000  1.000000  1.000000  1.000000
 Range of M.O.s used for correlation:     9   225
 NBasis=   225 NAE=    31 NBE=    30 NFC=     8 NFV=     0
 NROrb=    217 NOA=    23 NOB=    22 NVA=   194 NVB=   195

 **** Warning!!: The largest alpha MO coefficient is  0.14480878D+03


 **** Warning!!: The largest beta MO coefficient is  0.15524766D+03

 Semi-Direct transformation.
 ModeAB=           4 MOrb=            23 LenV=    1609173933
 LASXX=    109339976 LTotXX=   109339976 LenRXX=   221407890
 LTotAB=   112067914 MaxLAS=   130240145 LenRXY=           0
 NonZer=   330747866 LenScr=   498067456 LnRSAI=   130240145
 LnScr1=   196126720 LExtra=           0 Total=   1045842211
 MaxDsk=          -1 SrtSym=           T ITran=            4
 JobTyp=1 Pass  1:  I=   1 to  23.
 (rs|ai) integrals will be sorted in core.
 ModeAB=           4 MOrb=            22 LenV=    1609173933
 LASXX=    104936601 LTotXX=   104936601 LenRXX=   190867446
 LTotAB=    85930845 MaxLAS=   124577530 LenRXY=           0
 NonZer=   295804047 LenScr=   445446144 LnRSAI=   124577530
 LnScr1=   187637760 LExtra=           0 Total=    948528880
 MaxDsk=          -1 SrtSym=           T ITran=            4
 JobTyp=2 Pass  1:  I=   1 to  22.
 (rs|ai) integrals will be sorted in core.
 SymMOI:  orbitals are not symmetric.
 Spin components of T(2) and E(2):
     alpha-alpha T2 =       0.5204826229D-01 E2=     -0.1699525397D+00
     alpha-beta  T2 =       0.2801425611D+00 E2=     -0.9286666292D+00
     beta-beta   T2 =       0.4998617563D-01 E2=     -0.1579489053D+00
 ANorm=    0.1175660240D+01
 E2 =    -0.1256568074D+01 EUMP2 =    -0.41923381182180D+03
 (S**2,0)=  0.10605D+01           (S**2,1)=  0.97457D+00
 E(PUHF)=      -0.41800312302D+03        E(PMP2)=      -0.41925647975D+03
 Keep R2 and R3 ints in memory in canonical form, NReq=652884060.
 CIDS: In Core Option IDoMem=           1.
 Iterations=  50 Convergence= 0.100D-06
 Produce multiple copies of IABC intergrals
 Iteration Nr.   1
 **********************
 DD1Dir will call FoFMem   1 times, MxPair=      1496
 NAB=   506 NAA=   253 NBB=   231.
 E(PMP3)=      -0.41928125274D+03
 MP4(R+Q)=  0.24408205D-01
 E3=       -0.30140771D-01        EUMP3=      -0.41926395259D+03
 E4(DQ)=   -0.60262463D-02        UMP4(DQ)=   -0.41926997884D+03
 E4(SDQ)=  -0.28120641D-01        UMP4(SDQ)=  -0.41929207323D+03
 DE(Corr)=  -1.2620786     E(Corr)=     -419.23932239    
 NORM(A)=   0.11862833D+01
 Iteration Nr.   2
 **********************
 DD1Dir will call FoFMem   1 times, MxPair=      1496
 NAB=   506 NAA=   253 NBB=   231.
 DE(Corr)=  -1.3064270     E(CORR)=     -419.28367074     Delta=-4.43D-02
 NORM(A)=   0.12093631D+01
 Iteration Nr.   3
 **********************
 DD1Dir will call FoFMem   1 times, MxPair=      1496
 NAB=   506 NAA=   253 NBB=   231.
 DE(Corr)=  -1.3104106     E(CORR)=     -419.28765439     Delta=-3.98D-03
 NORM(A)=   0.12243069D+01
 Iteration Nr.   4
 **********************
 DD1Dir will call FoFMem   1 times, MxPair=      1496
 NAB=   506 NAA=   253 NBB=   231.
 DE(Corr)=  -1.3189563     E(CORR)=     -419.29620003     Delta=-8.55D-03
 NORM(A)=   0.12343662D+01
 Iteration Nr.   5
 **********************
 DD1Dir will call FoFMem   1 times, MxPair=      1496
 NAB=   506 NAA=   253 NBB=   231.
 DE(Corr)=  -1.3215895     E(CORR)=     -419.29883320     Delta=-2.63D-03
 NORM(A)=   0.12386687D+01
 Iteration Nr.   6
 **********************
 DD1Dir will call FoFMem   1 times, MxPair=      1496
 NAB=   506 NAA=   253 NBB=   231.
