 Entering Gaussian System, Link 0=g16
 Initial command:
 /opt/g16/l1.exe "/home/aayush/scratches/g16/Gau-87694.inp" -scrdir="/home/aayush/scratches/g16/"
 Entering Link 1 = /opt/g16/l1.exe PID=     87697.
  
 Copyright (c) 1988,1990,1992,1993,1995,1998,2003,2009,2016,
            Gaussian, Inc.  All Rights Reserved.
  
 This is part of the Gaussian(R) 16 program.  It is based on
 the Gaussian(R) 09 system (copyright 2009, Gaussian, Inc.),
 the Gaussian(R) 03 system (copyright 2003, Gaussian, Inc.),
 the Gaussian(R) 98 system (copyright 1998, Gaussian, Inc.),
 the Gaussian(R) 94 system (copyright 1995, Gaussian, Inc.),
 the Gaussian 92(TM) system (copyright 1992, Gaussian, Inc.),
 the Gaussian 90(TM) system (copyright 1990, Gaussian, Inc.),
 the Gaussian 88(TM) system (copyright 1988, Gaussian, Inc.),
 the Gaussian 86(TM) system (copyright 1986, Carnegie Mellon
 University), and the Gaussian 82(TM) system (copyright 1983,
 Carnegie Mellon University). Gaussian is a federally registered
 trademark of Gaussian, Inc.
  
 This software contains proprietary and confidential information,
 including trade secrets, belonging to Gaussian, Inc.
  
 This software is provided under written license and may be
 used, copied, transmitted, or stored only in accord with that
 written license.
  
 The following legend is applicable only to US Government
 contracts under FAR:
  
                    RESTRICTED RIGHTS LEGEND
  
 Use, reproduction and disclosure by the US Government is
 subject to restrictions as set forth in subparagraphs (a)
 and (c) of the Commercial Computer Software - Restricted
 Rights clause in FAR 52.227-19.
  
 Gaussian, Inc.
 340 Quinnipiac St., Bldg. 40, Wallingford CT 06492
  
  
 ---------------------------------------------------------------
 Warning -- This program may not be used in any manner that
 competes with the business of Gaussian, Inc. or will provide
 assistance to any competitor of Gaussian, Inc.  The licensee
 of this program is prohibited from giving any competitor of
 Gaussian, Inc. access to this program.  By using this program,
 the user acknowledges that Gaussian, Inc. is engaged in the
 business of creating and licensing software in the field of
 computational chemistry and represents and warrants to the
 licensee that it is not a competitor of Gaussian, Inc. and that
 it will not use this program in any manner prohibited above.
 ---------------------------------------------------------------
  

 Cite this work as:
 Gaussian 16, Revision A.03,
 M. J. Frisch, G. W. Trucks, H. B. Schlegel, G. E. Scuseria, 
 M. A. Robb, J. R. Cheeseman, G. Scalmani, V. Barone, 
 G. A. Petersson, H. Nakatsuji, X. Li, M. Caricato, A. V. Marenich, 
 J. Bloino, B. G. Janesko, R. Gomperts, B. Mennucci, H. P. Hratchian, 
 J. V. Ortiz, A. F. Izmaylov, J. L. Sonnenberg, D. Williams-Young, 
 F. Ding, F. Lipparini, F. Egidi, J. Goings, B. Peng, A. Petrone, 
 T. Henderson, D. Ranasinghe, V. G. Zakrzewski, J. Gao, N. Rega, 
 G. Zheng, W. Liang, M. Hada, M. Ehara, K. Toyota, R. Fukuda, 
 J. Hasegawa, M. Ishida, T. Nakajima, Y. Honda, O. Kitao, H. Nakai, 
 T. Vreven, K. Throssell, J. A. Montgomery, Jr., J. E. Peralta, 
 F. Ogliaro, M. J. Bearpark, J. J. Heyd, E. N. Brothers, K. N. Kudin, 
 V. N. Staroverov, T. A. Keith, R. Kobayashi, J. Normand, 
 K. Raghavachari, A. P. Rendell, J. C. Burant, S. S. Iyengar, 
 J. Tomasi, M. Cossi, J. M. Millam, M. Klene, C. Adamo, R. Cammi, 
 J. W. Ochterski, R. L. Martin, K. Morokuma, O. Farkas, 
 J. B. Foresman, and D. J. Fox, Gaussian, Inc., Wallingford CT, 2016.
 
 ******************************************
 Gaussian 16:  ES64L-G16RevA.03 25-Dec-2016
                 6-Jun-2025 
 ******************************************
 %chk=ethyl_propiolate.chk
 %nprocshared=24
 Will use up to   24 processors via shared memory.
 %mem=12GB
 ------------------------------------------------------------
 # opt=(calcfc,tight,ts,noeigentest) freq 6-311++g(d,p) m062x
 ------------------------------------------------------------
 1/5=1,7=10,10=4,11=1,18=20,26=3,38=1/1,3;
 2/9=110,12=2,17=6,18=5,40=1/2;
 3/5=4,6=6,7=1111,11=2,25=1,30=1,71=2,74=-55,140=1/1,2,3;
 4//1;
 5/5=2,38=5/2;
 8/6=4,10=90,11=11/1;
 11/6=1,8=1,9=11,15=111,16=1/1,2,10;
 10/6=1,13=1/2;
 6/7=2,8=2,9=2,10=2,28=1/1;
 7/10=1,18=20,25=1/1,2,3,16;
 1/5=1,7=10,10=4,11=1,18=20,26=3/3(2);
 2/9=110/2;
 99//99;
 2/9=110/2;
 3/5=4,6=6,7=1111,11=2,25=1,30=1,71=1,74=-55/1,2,3;
 4/5=5,16=3,69=1/1;
 5/5=2,38=5/2;
 7//1,2,3,16;
 1/5=1,7=10,11=1,18=20,26=3/3(-5);
 2/9=110/2;
 6/7=2,8=2,9=2,10=2,19=2,28=1/1;
 99/9=1/99;
 -------------------
 Title Card Required
 -------------------
 Symbolic Z-matrix:
 Charge =  0 Multiplicity = 2
 O                     3.41141   0.73872   0.12561 
 H                     2.69198   1.38903  -0.07555 
 C                     2.4259   -0.98083   0.25875 
 H                     3.32352  -1.5229    0.46085 
 C                     1.24247  -0.71511   0.06091 
 C                     0.00424  -0.03116  -0.2068 
 O                    -0.05241   1.18715  -0.40057 
 O                    -1.06654  -0.85234  -0.22918 
 C                    -2.38547  -0.24373  -0.48423 
 C                    -2.9318    0.38813   0.78301 
 H                    -2.9862   -1.08664  -0.82198 
 H                    -2.27328   0.48661  -1.28869 
 H                    -3.9437    0.76227   0.60176 
 H                    -2.97544  -0.34853   1.58875 
 H                    -2.30863   1.22817   1.09822 
 
 Add virtual bond connecting atoms C3         and O1         Dist= 3.75D+00.

 GradGradGradGradGradGradGradGradGradGradGradGradGradGradGradGradGradGrad
 Berny optimization.
 Initialization pass.
                           ----------------------------
                           !    Initial Parameters    !
                           ! (Angstroms and Degrees)  !
 --------------------------                            --------------------------
 ! Name  Definition              Value          Derivative Info.                !
 --------------------------------------------------------------------------------
 ! R1    R(1,2)                  0.9904         calculate D2E/DX2 analytically  !
 ! R2    R(1,3)                  1.9864         calculate D2E/DX2 analytically  !
 ! R3    R(3,4)                  1.0679         calculate D2E/DX2 analytically  !
 ! R4    R(3,5)                  1.2289         calculate D2E/DX2 analytically  !
 ! R5    R(5,6)                  1.4397         calculate D2E/DX2 analytically  !
 ! R6    R(6,7)                  1.2349         calculate D2E/DX2 analytically  !
 ! R7    R(6,8)                  1.3496         calculate D2E/DX2 analytically  !
 ! R8    R(8,9)                  1.4748         calculate D2E/DX2 analytically  !
 ! R9    R(9,10)                 1.5178         calculate D2E/DX2 analytically  !
 ! R10   R(9,11)                 1.0888         calculate D2E/DX2 analytically  !
 ! R11   R(9,12)                 1.0923         calculate D2E/DX2 analytically  !
 ! R12   R(10,13)                1.094          calculate D2E/DX2 analytically  !
 ! R13   R(10,14)                1.0926         calculate D2E/DX2 analytically  !
 ! R14   R(10,15)                1.0924         calculate D2E/DX2 analytically  !
 ! A1    A(2,1,3)              102.8044         calculate D2E/DX2 analytically  !
 ! A2    A(1,3,4)               92.0103         calculate D2E/DX2 analytically  !
 ! A3    A(1,3,5)              106.2481         calculate D2E/DX2 analytically  !
 ! A4    A(4,3,5)              161.7415         calculate D2E/DX2 analytically  !
 ! A5    A(3,5,6)              163.9232         calculate D2E/DX2 analytically  !
 ! A6    A(5,6,7)              122.5013         calculate D2E/DX2 analytically  !
 ! A7    A(5,6,8)              113.3541         calculate D2E/DX2 analytically  !
 ! A8    A(7,6,8)              124.1439         calculate D2E/DX2 analytically  !
 ! A9    A(6,8,9)              117.4729         calculate D2E/DX2 analytically  !
 ! A10   A(8,9,10)             110.4456         calculate D2E/DX2 analytically  !
 ! A11   A(8,9,11)             103.1555         calculate D2E/DX2 analytically  !
 ! A12   A(8,9,12)             108.1457         calculate D2E/DX2 analytically  !
 ! A13   A(10,9,11)            112.5011         calculate D2E/DX2 analytically  !
 ! A14   A(10,9,12)            111.9334         calculate D2E/DX2 analytically  !
 ! A15   A(11,9,12)            110.2328         calculate D2E/DX2 analytically  !
 ! A16   A(9,10,13)            109.694          calculate D2E/DX2 analytically  !
 ! A17   A(9,10,14)            110.4515         calculate D2E/DX2 analytically  !
 ! A18   A(9,10,15)            110.8371         calculate D2E/DX2 analytically  !
 ! A19   A(13,10,14)           108.4106         calculate D2E/DX2 analytically  !
 ! A20   A(13,10,15)           108.2078         calculate D2E/DX2 analytically  !
 ! A21   A(14,10,15)           109.1754         calculate D2E/DX2 analytically  !
 ! D1    D(2,1,3,4)            179.6472         calculate D2E/DX2 analytically  !
 ! D2    D(2,1,3,5)             -0.3408         calculate D2E/DX2 analytically  !
 ! D3    D(1,3,5,6)             -0.2244         calculate D2E/DX2 analytically  !
 ! D4    D(4,3,5,6)            179.8138         calculate D2E/DX2 analytically  !
 ! D5    D(3,5,6,7)              0.2149         calculate D2E/DX2 analytically  !
 ! D6    D(3,5,6,8)            179.9027         calculate D2E/DX2 analytically  !
 ! D7    D(5,6,8,9)            179.4693         calculate D2E/DX2 analytically  !
 ! D8    D(7,6,8,9)             -0.8489         calculate D2E/DX2 analytically  !
 ! D9    D(6,8,9,10)           -80.1155         calculate D2E/DX2 analytically  !
 ! D10   D(6,8,9,11)           159.4486         calculate D2E/DX2 analytically  !
 ! D11   D(6,8,9,12)            42.6828         calculate D2E/DX2 analytically  !
 ! D12   D(8,9,10,13)         -175.3471         calculate D2E/DX2 analytically  !
 ! D13   D(8,9,10,14)          -55.9083         calculate D2E/DX2 analytically  !
 ! D14   D(8,9,10,15)           65.2247         calculate D2E/DX2 analytically  !
 ! D15   D(11,9,10,13)         -60.6803         calculate D2E/DX2 analytically  !
 ! D16   D(11,9,10,14)          58.7585         calculate D2E/DX2 analytically  !
 ! D17   D(11,9,10,15)         179.8914         calculate D2E/DX2 analytically  !
 ! D18   D(12,9,10,13)          64.0939         calculate D2E/DX2 analytically  !
 ! D19   D(12,9,10,14)        -176.4673         calculate D2E/DX2 analytically  !
 ! D20   D(12,9,10,15)         -55.3344         calculate D2E/DX2 analytically  !
 --------------------------------------------------------------------------------
 Trust Radius=3.00D-01 FncErr=1.00D-07 GrdErr=1.00D-06 EigMax=2.50D+02 EigMin=1.00D-04
 Number of steps in this run=     65 maximum allowed number of steps=    100.
 Search for a saddle point of order  1.
 GradGradGradGradGradGradGradGradGradGradGradGradGradGradGradGradGradGrad

                          Input orientation:                          
 ---------------------------------------------------------------------
 Center     Atomic      Atomic             Coordinates (Angstroms)
 Number     Number       Type             X           Y           Z
 ---------------------------------------------------------------------
      1          8           0        3.411411    0.738716    0.125607
      2          1           0        2.691975    1.389034   -0.075550
      3          6           0        2.425900   -0.980830    0.258750
      4          1           0        3.323516   -1.522901    0.460849
      5          6           0        1.242474   -0.715111    0.060910
      6          6           0        0.004244   -0.031159   -0.206804
      7          8           0       -0.052413    1.187145   -0.400572
      8          8           0       -1.066543   -0.852338   -0.229182
      9          6           0       -2.385470   -0.243730   -0.484231
     10          6           0       -2.931798    0.388128    0.783011
     11          1           0       -2.986195   -1.086637   -0.821984
     12          1           0       -2.273282    0.486614   -1.288691
     13          1           0       -3.943698    0.762273    0.601761
     14          1           0       -2.975437   -0.348533    1.588750
     15          1           0       -2.308629    1.228174    1.098223
 ---------------------------------------------------------------------
                    Distance matrix (angstroms):
                    1          2          3          4          5
     1  O    0.000000
     2  H    0.990437   0.000000
     3  C    1.986403   2.408071   0.000000
     4  H    2.288018   3.027529   1.067895   0.000000
     5  C    2.611912   2.558730   1.228920   2.267865   0.000000
     6  C    3.508845   3.042708   2.642543   3.699814   1.439679
     7  O    3.532142   2.770932   3.358103   4.413988   2.346972
     8  O    4.765438   4.378791   3.528703   4.494265   2.331211
     9  C    5.911086   5.349148   4.923882   5.926380   3.698832
    10  C    6.386814   5.776310   5.554622   6.548647   4.377569
    11  H    6.720060   6.239209   5.519960   6.453560   4.335802
    12  H    5.863406   5.190361   5.160453   6.198644   3.952987
    13  H    7.370543   6.699532   6.612703   7.619336   5.419554
    14  H    6.641892   6.156995   5.598495   6.506006   4.501050
    15  H    5.822749   5.139033   5.291519   6.300454   4.178840
                    6          7          8          9         10
     6  C    0.000000
     7  O    1.234917   0.000000
     8  O    1.349600   2.284146   0.000000
     9  C    2.415137   2.738167   1.474796   0.000000
    10  C    3.126640   3.214056   2.458143   1.517768   0.000000
    11  H    3.230357   3.735606   2.022715   1.088779   2.180344
    12  H    2.574042   2.492340   2.090830   1.092311   2.176073
    13  H    4.107257   4.040704   3.402272   2.149301   1.093973
    14  H    3.493314   3.854838   2.683761   2.157845   1.092607
    15  H    2.939115   2.708981   2.762845   2.162537   1.092417
                   11         12         13         14         15
    11  H    0.000000
    12  H    1.789184   0.000000
    13  H    2.522366   2.537733   0.000000
    14  H    2.521220   3.077362   1.773575   0.000000
    15  H    3.082960   2.499704   1.771155   1.780802   0.000000
 Stoichiometry    C5H7O3(2)
 Framework group  C1[X(C5H7O3)]
 Deg. of freedom    39
 Full point group                 C1      NOp   1
 Largest Abelian subgroup         C1      NOp   1
 Largest concise Abelian subgroup C1      NOp   1
                         Standard orientation:                         
 ---------------------------------------------------------------------
 Center     Atomic      Atomic             Coordinates (Angstroms)
 Number     Number       Type             X           Y           Z
 ---------------------------------------------------------------------
      1          8           0        3.411411    0.738716    0.125607
      2          1           0        2.691975    1.389034   -0.075550
      3          6           0        2.425900   -0.980830    0.258750
      4          1           0        3.323516   -1.522901    0.460849
      5          6           0        1.242474   -0.715111    0.060910
      6          6           0        0.004244   -0.031159   -0.206804
      7          8           0       -0.052413    1.187145   -0.400572
      8          8           0       -1.066543   -0.852338   -0.229182
      9          6           0       -2.385470   -0.243730   -0.484231
     10          6           0       -2.931798    0.388128    0.783011
     11          1           0       -2.986195   -1.086637   -0.821984
     12          1           0       -2.273282    0.486614   -1.288691
     13          1           0       -3.943698    0.762273    0.601761
     14          1           0       -2.975437   -0.348533    1.588750
     15          1           0       -2.308629    1.228174    1.098223
 ---------------------------------------------------------------------
 Rotational constants (GHZ):           5.4428921           0.9208151           0.8451014
 Standard basis: 6-311++G(d,p) (5D, 7F)
 There are   233 symmetry adapted cartesian basis functions of A   symmetry.
 There are   225 symmetry adapted basis functions of A   symmetry.
   225 basis functions,   351 primitive gaussians,   233 cartesian basis functions
    31 alpha electrons       30 beta electrons
       nuclear repulsion energy       345.9287972007 Hartrees.
 NAtoms=   15 NActive=   15 NUniq=   15 SFac= 1.00D+00 NAtFMM=   60 NAOKFM=F Big=F
 Integral buffers will be    131072 words long.
 Raffenetti 2 integral format.
 Two-electron integral symmetry is turned on.
 One-electron integrals computed using PRISM.
 NBasis=   225 RedAO= T EigKep=  2.19D-06  NBF=   225
 NBsUse=   225 1.00D-06 EigRej= -1.00D+00 NBFU=   225
 ExpMin= 3.60D-02 ExpMax= 8.59D+03 ExpMxC= 1.30D+03 IAcc=3 IRadAn=         5 AccDes= 0.00D+00
 Harris functional with IExCor= 1009 and IRadAn=       5 diagonalized for initial guess.
 HarFok:  IExCor= 1009 AccDes= 0.00D+00 IRadAn=         5 IDoV= 1 UseB2=F ITyADJ=14
 ICtDFT=  3500011 ScaDFX=  1.000000  1.000000  1.000000  1.000000
 FoFCou: FMM=F IPFlag=           0 FMFlag=      100000 FMFlg1=           0
         NFxFlg=           0 DoJE=T BraDBF=F KetDBF=T FulRan=T
         wScrn=  0.000000 ICntrl=       500 IOpCl=  0 I1Cent=   200000004 NGrid=           0
         NMat0=    1 NMatS0=      1 NMatT0=    0 NMatD0=    1 NMtDS0=    0 NMtDT0=    0
 Petite list used in FoFCou.
 Initial guess <Sx>= 0.0000 <Sy>= 0.0000 <Sz>= 0.5000 <S**2>= 0.7500 S= 0.5000
 Requested convergence on RMS density matrix=1.00D-08 within 128 cycles.
 Requested convergence on MAX density matrix=1.00D-06.
 Requested convergence on             energy=1.00D-06.
 No special actions if energy rises.
 Restarting incremental Fock formation.
 SCF Done:  E(UM062X) =  -420.201982545     A.U. after   24 cycles
            NFock= 24  Conv=0.81D-08     -V/T= 2.0041
 <Sx>= 0.0000 <Sy>= 0.0000 <Sz>= 0.5000 <S**2>= 0.7781 S= 0.5139
 <L.S>=  0.00000000000    
 Annihilation of the first spin contaminant:
 S**2 before annihilation     0.7781,   after     0.7503
 DoSCS=F DFT=T ScalE2(SS,OS)=  1.000000  1.000000
 Range of M.O.s used for correlation:     1   225
 NBasis=   225 NAE=    31 NBE=    30 NFC=     0 NFV=     0
 NROrb=    225 NOA=    31 NOB=    30 NVA=   194 NVB=   195

 **** Warning!!: The largest alpha MO coefficient is  0.17003098D+03


 **** Warning!!: The largest beta MO coefficient is  0.16853570D+03

 Symmetrizing basis deriv contribution to polar:
 IMax=3 JMax=2 DiffMx= 0.00D+00
 G2DrvN: will do    16 centers at a time, making    1 passes.
 Calling FoFCou, ICntrl=  3107 FMM=F I1Cent=   0 AccDes= 0.00D+00.
 End of G2Drv F.D. properties file   721 does not exist.
 End of G2Drv F.D. properties file   722 does not exist.
 End of G2Drv F.D. properties file   788 does not exist.
          IDoAtm=111111111111111
          Differentiating once with respect to nuclear coordinates.
 Keep R1 and R2 ints in memory in canonical form, NReq=671901991.
          There are    48 degrees of freedom in the 1st order CPHF.  IDoFFX=6 NUNeed=     0.
     42 vectors produced by pass  0 Test12= 2.47D-14 2.08D-09 XBig12= 4.91D-01 1.12D-01.
 AX will form    42 AO Fock derivatives at one time.
     42 vectors produced by pass  1 Test12= 2.47D-14 2.08D-09 XBig12= 3.99D-02 3.65D-02.
     42 vectors produced by pass  2 Test12= 2.47D-14 2.08D-09 XBig12= 1.95D-03 9.50D-03.
     42 vectors produced by pass  3 Test12= 2.47D-14 2.08D-09 XBig12= 4.28D-05 1.66D-03.
     42 vectors produced by pass  4 Test12= 2.47D-14 2.08D-09 XBig12= 7.12D-07 1.43D-04.
     42 vectors produced by pass  5 Test12= 2.47D-14 2.08D-09 XBig12= 1.11D-08 1.46D-05.
     37 vectors produced by pass  6 Test12= 2.47D-14 2.08D-09 XBig12= 8.46D-11 1.10D-06.
     23 vectors produced by pass  7 Test12= 2.47D-14 2.08D-09 XBig12= 8.47D-13 8.22D-08.
      3 vectors produced by pass  8 Test12= 2.47D-14 2.08D-09 XBig12= 6.24D-15 7.73D-09.
      1 vectors produced by pass  9 Test12= 2.47D-14 2.08D-09 XBig12= 7.63D-16 4.40D-09.
 InvSVY:  IOpt=1 It=  1 EMax= 1.78D-15
 Solved reduced A of dimension   316 with    42 vectors.
 End of Minotr F.D. properties file   721 does not exist.
 End of Minotr F.D. properties file   722 does not exist.
 End of Minotr F.D. properties file   788 does not exist.

 **********************************************************************

            Population analysis using the SCF density.

 **********************************************************************

 Orbital symmetries:
 Alpha Orbitals:
       Occupied  (A) (A) (A) (A) (A) (A) (A) (A) (A) (A) (A) (A)
                 (A) (A) (A) (A) (A) (A) (A) (A) (A) (A) (A) (A)
                 (A) (A) (A) (A) (A) (A) (A)
       Virtual   (A) (A) (A) (A) (A) (A) (A) (A) (A) (A) (A) (A)
                 (A) (A) (A) (A) (A) (A) (A) (A) (A) (A) (A) (A)
                 (A) (A) (A) (A) (A) (A) (A) (A) (A) (A) (A) (A)
                 (A) (A) (A) (A) (A) (A) (A) (A) (A) (A) (A) (A)
                 (A) (A) (A) (A) (A) (A) (A) (A) (A) (A) (A) (A)
                 (A) (A) (A) (A) (A) (A) (A) (A) (A) (A) (A) (A)
                 (A) (A) (A) (A) (A) (A) (A) (A) (A) (A) (A) (A)
                 (A) (A) (A) (A) (A) (A) (A) (A) (A) (A) (A) (A)
                 (A) (A) (A) (A) (A) (A) (A) (A) (A) (A) (A) (A)
                 (A) (A) (A) (A) (A) (A) (A) (A) (A) (A) (A) (A)
                 (A) (A) (A) (A) (A) (A) (A) (A) (A) (A) (A) (A)
                 (A) (A) (A) (A) (A) (A) (A) (A) (A) (A) (A) (A)
                 (A) (A) (A) (A) (A) (A) (A) (A) (A) (A) (A) (A)
                 (A) (A) (A) (A) (A) (A) (A) (A) (A) (A) (A) (A)
                 (A) (A) (A) (A) (A) (A) (A) (A) (A) (A) (A) (A)
                 (A) (A) (A) (A) (A) (A) (A) (A) (A) (A) (A) (A)
                 (A) (A)
 Beta  Orbitals:
       Occupied  (A) (A) (A) (A) (A) (A) (A) (A) (A) (A) (A) (A)
                 (A) (A) (A) (A) (A) (A) (A) (A) (A) (A) (A) (A)
                 (A) (A) (A) (A) (A) (A)
       Virtual   (A) (A) (A) (A) (A) (A) (A) (A) (A) (A) (A) (A)
                 (A) (A) (A) (A) (A) (A) (A) (A) (A) (A) (A) (A)
                 (A) (A) (A) (A) (A) (A) (A) (A) (A) (A) (A) (A)
                 (A) (A) (A) (A) (A) (A) (A) (A) (A) (A) (A) (A)
                 (A) (A) (A) (A) (A) (A) (A) (A) (A) (A) (A) (A)
                 (A) (A) (A) (A) (A) (A) (A) (A) (A) (A) (A) (A)
                 (A) (A) (A) (A) (A) (A) (A) (A) (A) (A) (A) (A)
                 (A) (A) (A) (A) (A) (A) (A) (A) (A) (A) (A) (A)
                 (A) (A) (A) (A) (A) (A) (A) (A) (A) (A) (A) (A)
                 (A) (A) (A) (A) (A) (A) (A) (A) (A) (A) (A) (A)
                 (A) (A) (A) (A) (A) (A) (A) (A) (A) (A) (A) (A)
                 (A) (A) (A) (A) (A) (A) (A) (A) (A) (A) (A) (A)
                 (A) (A) (A) (A) (A) (A) (A) (A) (A) (A) (A) (A)
                 (A) (A) (A) (A) (A) (A) (A) (A) (A) (A) (A) (A)
                 (A) (A) (A) (A) (A) (A) (A) (A) (A) (A) (A) (A)
                 (A) (A) (A) (A) (A) (A) (A) (A) (A) (A) (A) (A)
                 (A) (A) (A)
 The electronic state is 2-A.
 Alpha  occ. eigenvalues --  -19.69345 -19.65071 -19.64474 -10.72245 -10.61785
 Alpha  occ. eigenvalues --  -10.61086 -10.59141 -10.54670  -1.25002  -1.15854
 Alpha  occ. eigenvalues --   -1.10433  -0.91879  -0.88241  -0.79026  -0.72100
 Alpha  occ. eigenvalues --   -0.65142  -0.62308  -0.58928  -0.56694  -0.54384
 Alpha  occ. eigenvalues --   -0.52429  -0.50125  -0.49100  -0.47459  -0.45839
 Alpha  occ. eigenvalues --   -0.43031  -0.41592  -0.39970  -0.39315  -0.37133
 Alpha  occ. eigenvalues --   -0.33349
 Alpha virt. eigenvalues --   -0.03536  -0.00487   0.00750   0.01436   0.01907
 Alpha virt. eigenvalues --    0.02399   0.03799   0.04908   0.05305   0.06012
 Alpha virt. eigenvalues --    0.06555   0.07323   0.07874   0.08765   0.09898
 Alpha virt. eigenvalues --    0.10995   0.11570   0.12053   0.12515   0.12927
 Alpha virt. eigenvalues --    0.13630   0.14083   0.14360   0.14890   0.15487
 Alpha virt. eigenvalues --    0.16033   0.17053   0.17234   0.18803   0.19814
 Alpha virt. eigenvalues --    0.20096   0.20686   0.22392   0.23006   0.23630
 Alpha virt. eigenvalues --    0.24981   0.25926   0.27961   0.28465   0.29257
 Alpha virt. eigenvalues --    0.30247   0.30399   0.32199   0.32422   0.33174
 Alpha virt. eigenvalues --    0.33499   0.34199   0.34549   0.37845   0.38247
 Alpha virt. eigenvalues --    0.39844   0.42012   0.44647   0.46014   0.48451
 Alpha virt. eigenvalues --    0.49422   0.51027   0.52777   0.55650   0.58381
 Alpha virt. eigenvalues --    0.60121   0.61797   0.63375   0.63613   0.65485
 Alpha virt. eigenvalues --    0.66348   0.67867   0.68320   0.70096   0.71159
 Alpha virt. eigenvalues --    0.72805   0.74907   0.76779   0.77874   0.79328
 Alpha virt. eigenvalues --    0.85627   0.86497   0.90742   0.95408   0.97977
 Alpha virt. eigenvalues --    1.00485   1.03821   1.07072   1.07615   1.10113
 Alpha virt. eigenvalues --    1.13378   1.14020   1.18396   1.19027   1.19908
 Alpha virt. eigenvalues --    1.21618   1.24253   1.26234   1.31316   1.32461
 Alpha virt. eigenvalues --    1.33563   1.35523   1.37045   1.41849   1.43578
 Alpha virt. eigenvalues --    1.46195   1.47853   1.50031   1.52024   1.53458
 Alpha virt. eigenvalues --    1.57472   1.58664   1.58950   1.61239   1.61583
 Alpha virt. eigenvalues --    1.66633   1.67903   1.68756   1.72157   1.73614
 Alpha virt. eigenvalues --    1.79319   1.82146   1.84102   1.85037   1.86283
 Alpha virt. eigenvalues --    1.92907   1.93481   1.98603   1.99367   2.04707
 Alpha virt. eigenvalues --    2.09560   2.11835   2.13757   2.19669   2.29953
 Alpha virt. eigenvalues --    2.33417   2.36208   2.38955   2.49975   2.52758
 Alpha virt. eigenvalues --    2.53410   2.59461   2.60851   2.61564   2.63987
 Alpha virt. eigenvalues --    2.64166   2.66977   2.69767   2.72505   2.75343
 Alpha virt. eigenvalues --    2.78531   2.81944   2.82808   2.88804   2.89051
 Alpha virt. eigenvalues --    2.89811   2.93694   2.96799   2.98181   2.98702
 Alpha virt. eigenvalues --    3.04786   3.11421   3.13567   3.17140   3.20648
 Alpha virt. eigenvalues --    3.22138   3.23924   3.29561   3.32778   3.35249
 Alpha virt. eigenvalues --    3.38906   3.52693   3.60878   3.68554   3.83311
 Alpha virt. eigenvalues --    3.84894   3.88156   3.89233   4.02131   4.13199
 Alpha virt. eigenvalues --    4.14820   4.25811   5.07719   5.12464   5.13003
 Alpha virt. eigenvalues --    5.15618   5.30949   5.40830   5.55713   5.66771
 Alpha virt. eigenvalues --    5.91746  23.60080  23.88247  23.91839  24.04432
 Alpha virt. eigenvalues --   24.92668  49.95584  49.98215  50.08485
  Beta  occ. eigenvalues --  -19.69327 -19.64407 -19.63747 -10.72274 -10.61782
  Beta  occ. eigenvalues --  -10.61183 -10.58835 -10.54670  -1.24916  -1.15676
  Beta  occ. eigenvalues --   -1.05013  -0.90990  -0.87817  -0.78877  -0.71872
  Beta  occ. eigenvalues --   -0.65004  -0.61942  -0.58700  -0.56503  -0.54273
  Beta  occ. eigenvalues --   -0.50016  -0.49896  -0.47360  -0.45836  -0.42982
  Beta  occ. eigenvalues --   -0.40964  -0.40109  -0.39220  -0.37683  -0.35220
  Beta virt. eigenvalues --   -0.09700  -0.03499  -0.00470   0.00929   0.01427
  Beta virt. eigenvalues --    0.02062   0.02686   0.04087   0.05221   0.05646
  Beta virt. eigenvalues --    0.06584   0.06759   0.07370   0.08165   0.08898
  Beta virt. eigenvalues --    0.10484   0.11258   0.11630   0.12099   0.12681
  Beta virt. eigenvalues --    0.13004   0.13971   0.14307   0.14367   0.14864
  Beta virt. eigenvalues --    0.15601   0.16327   0.17246   0.17340   0.19032
  Beta virt. eigenvalues --    0.19811   0.20059   0.20829   0.22637   0.23164
  Beta virt. eigenvalues --    0.24008   0.25092   0.26014   0.27786   0.28132
  Beta virt. eigenvalues --    0.29288   0.30303   0.30409   0.32161   0.32437
  Beta virt. eigenvalues --    0.33186   0.33579   0.34270   0.34618   0.37894
  Beta virt. eigenvalues --    0.38551   0.39765   0.42054   0.44849   0.46142
  Beta virt. eigenvalues --    0.48540   0.49470   0.51067   0.52950   0.55669
  Beta virt. eigenvalues --    0.58549   0.60271   0.62237   0.63359   0.64010
  Beta virt. eigenvalues --    0.65711   0.66520   0.67806   0.68430   0.70056
  Beta virt. eigenvalues --    0.71235   0.72870   0.74898   0.76974   0.77932
  Beta virt. eigenvalues --    0.79555   0.85669   0.86776   0.90763   0.95434
  Beta virt. eigenvalues --    0.98281   1.00567   1.04724   1.07289   1.08259
  Beta virt. eigenvalues --    1.10563   1.14342   1.15001   1.18857   1.19362
  Beta virt. eigenvalues --    1.21032   1.21793   1.24320   1.26667   1.31875
  Beta virt. eigenvalues --    1.32727   1.33537   1.35966   1.37391   1.42180
  Beta virt. eigenvalues --    1.44613   1.46021   1.48074   1.50095   1.52744
  Beta virt. eigenvalues --    1.54533   1.57582   1.58801   1.59041   1.61344
  Beta virt. eigenvalues --    1.61698   1.66688   1.67954   1.68996   1.72152
  Beta virt. eigenvalues --    1.73630   1.79358   1.82648   1.84240   1.85349
  Beta virt. eigenvalues --    1.86558   1.93148   1.93644   1.99021   1.99446
  Beta virt. eigenvalues --    2.04775   2.10149   2.12056   2.14148   2.19689
  Beta virt. eigenvalues --    2.29984   2.33505   2.36324   2.39335   2.49981
  Beta virt. eigenvalues --    2.52774   2.53442   2.59398   2.60828   2.61581
  Beta virt. eigenvalues --    2.63889   2.64156   2.66937   2.69500   2.72599
  Beta virt. eigenvalues --    2.75804   2.78619   2.82141   2.83715   2.89329
  Beta virt. eigenvalues --    2.90468   2.94259   2.94835   2.97395   2.98335
  Beta virt. eigenvalues --    2.99100   3.05912   3.11646   3.14110   3.18836
  Beta virt. eigenvalues --    3.21986   3.23418   3.26005   3.29735   3.32955
  Beta virt. eigenvalues --    3.35593   3.38973   3.52653   3.61030   3.68809
  Beta virt. eigenvalues --    3.83319   3.84898   3.88228   3.92091   4.02176
  Beta virt. eigenvalues --    4.13430   4.15090   4.25852   5.09709   5.12521
  Beta virt. eigenvalues --    5.15729   5.20550   5.31279   5.40901   5.58143
  Beta virt. eigenvalues --    5.66910   5.91797  23.60142  23.88278  23.91847
  Beta virt. eigenvalues --   24.04433  24.92890  49.95001  49.98207  50.08428
          Condensed to atoms (all electrons):
               1          2          3          4          5          6
     1  O    8.136588   0.257053   0.124843  -0.031107  -0.165654  -0.023073
     2  H    0.257053   0.477740   0.091052   0.007359  -0.004169  -0.088659
     3  C    0.124843   0.091052  19.915073   0.639272  -5.882068  -7.698339
     4  H   -0.031107   0.007359   0.639272   0.418579  -0.199217  -0.040987
     5  C   -0.165654  -0.004169  -5.882068  -0.199217  14.025209  -3.435867
     6  C   -0.023073  -0.088659  -7.698339  -0.040987  -3.435867  18.074204
     7  O    0.004740   0.006535   0.394848   0.000521   0.278722  -0.330056
     8  O   -0.002755   0.000082   0.217106   0.001499  -0.286266  -0.165267
     9  C    0.000142  -0.000972   0.062361   0.000472  -0.212499   0.035531
    10  C   -0.000638  -0.000335   0.053813   0.000912  -0.071007  -0.115435
    11  H    0.000013  -0.000026   0.004151  -0.000056   0.017835  -0.005666
    12  H   -0.000161  -0.000077  -0.017840  -0.000090  -0.036912   0.038189
    13  H   -0.000043  -0.000034   0.005534   0.000039   0.012315  -0.022496
    14  H    0.000030   0.000032  -0.015969  -0.000113  -0.007885   0.034921
    15  H    0.000120  -0.000190   0.002442  -0.000100  -0.028412   0.007638
               7          8          9         10         11         12
     1  O    0.004740  -0.002755   0.000142  -0.000638   0.000013  -0.000161
     2  H    0.006535   0.000082  -0.000972  -0.000335  -0.000026  -0.000077
     3  C    0.394848   0.217106   0.062361   0.053813   0.004151  -0.017840
     4  H    0.000521   0.001499   0.000472   0.000912  -0.000056  -0.000090
     5  C    0.278722  -0.286266  -0.212499  -0.071007   0.017835  -0.036912
     6  C   -0.330056  -0.165267   0.035531  -0.115435  -0.005666   0.038189
     7  O    8.075471  -0.133143   0.043371  -0.062504   0.002540  -0.022738
     8  O   -0.133143   8.327882   0.168290  -0.034258  -0.087093  -0.005588
     9  C    0.043371   0.168290   5.366265   0.035146   0.433842   0.401795
    10  C   -0.062504  -0.034258   0.035146   5.471240  -0.050993  -0.017779
    11  H    0.002540  -0.087093   0.433842  -0.050993   0.521873  -0.035693
    12  H   -0.022738  -0.005588   0.401795  -0.017779  -0.035693   0.506395
    13  H   -0.000132   0.017538  -0.042783   0.397615   0.001131  -0.005431
    14  H    0.000583  -0.009462  -0.031769   0.410245  -0.010681   0.004623
    15  H    0.004416  -0.017716  -0.001238   0.387486   0.009465  -0.010030
              13         14         15
     1  O   -0.000043   0.000030   0.000120
     2  H   -0.000034   0.000032  -0.000190
     3  C    0.005534  -0.015969   0.002442
     4  H    0.000039  -0.000113  -0.000100
     5  C    0.012315  -0.007885  -0.028412
     6  C   -0.022496   0.034921   0.007638
     7  O   -0.000132   0.000583   0.004416
     8  O    0.017538  -0.009462  -0.017716
     9  C   -0.042783  -0.031769  -0.001238
    10  C    0.397615   0.410245   0.387486
    11  H    0.001131  -0.010681   0.009465
    12  H   -0.005431   0.004623  -0.010030
    13  H    0.534403  -0.034004  -0.030803
    14  H   -0.034004   0.537765  -0.047396
    15  H   -0.030803  -0.047396   0.538245
          Atomic-Atomic Spin Densities.
               1          2          3          4          5          6
     1  O    0.850439   0.006685   0.109724   0.001853  -0.188499  -0.050070
     2  H    0.006685  -0.028968  -0.023541  -0.000507   0.008582   0.021730
     3  C    0.109724  -0.023541   0.897418   0.052064  -0.667231  -0.543280
     4  H    0.001853  -0.000507   0.052064   0.015723  -0.041699  -0.003346
     5  C   -0.188499   0.008582  -0.667231  -0.041699   1.078043   0.244714
     6  C   -0.050070   0.021730  -0.543280  -0.003346   0.244714   0.311724
     7  O    0.005816  -0.001386   0.035732   0.000267  -0.034947  -0.028439
     8  O   -0.001024   0.000119  -0.002663  -0.000434  -0.008585   0.031461
     9  C    0.000173   0.000010   0.009945   0.000086  -0.007605  -0.009004
    10  C    0.000561  -0.000260   0.014233   0.000115  -0.004680  -0.004215
    11  H   -0.000001   0.000012  -0.000400   0.000003  -0.002327   0.002850
    12  H   -0.000161   0.000091  -0.003895  -0.000036   0.002305   0.002575
    13  H    0.000019  -0.000021   0.001129   0.000004  -0.000330  -0.001100
    14  H   -0.000049   0.000027  -0.002245  -0.000019   0.000639   0.001758
    15  H   -0.000014   0.000017  -0.001030  -0.000004  -0.000178   0.000919
               7          8          9         10         11         12
     1  O    0.005816  -0.001024   0.000173   0.000561  -0.000001  -0.000161
     2  H   -0.001386   0.000119   0.000010  -0.000260   0.000012   0.000091
     3  C    0.035732  -0.002663   0.009945   0.014233  -0.000400  -0.003895
     4  H    0.000267  -0.000434   0.000086   0.000115   0.000003  -0.000036
     5  C   -0.034947  -0.008585  -0.007605  -0.004680  -0.002327   0.002305
     6  C   -0.028439   0.031461  -0.009004  -0.004215   0.002850   0.002575
     7  O    0.046170  -0.001570  -0.002796   0.001459  -0.000174   0.000284
     8  O   -0.001570  -0.011407   0.003650  -0.005717  -0.000408   0.000216
     9  C   -0.002796   0.003650   0.003350   0.001708   0.000191  -0.000378
    10  C    0.001459  -0.005717   0.001708  -0.000085  -0.000427  -0.000946
    11  H   -0.000174  -0.000408   0.000191  -0.000427   0.000448   0.000332
    12  H    0.000284   0.000216  -0.000378  -0.000946   0.000332  -0.000103
    13  H   -0.000085  -0.000181   0.000038   0.000300  -0.000128   0.000026
    14  H    0.000043   0.000113   0.000122  -0.000658   0.000138   0.000020
    15  H   -0.000096   0.000278  -0.000096   0.000093   0.000028  -0.000009
              13         14         15
     1  O    0.000019  -0.000049  -0.000014
     2  H   -0.000021   0.000027   0.000017
     3  C    0.001129  -0.002245  -0.001030
     4  H    0.000004  -0.000019  -0.000004
     5  C   -0.000330   0.000639  -0.000178
     6  C   -0.001100   0.001758   0.000919
     7  O   -0.000085   0.000043  -0.000096
     8  O   -0.000181   0.000113   0.000278
     9  C    0.000038   0.000122  -0.000096
    10  C    0.000300  -0.000658   0.000093
    11  H   -0.000128   0.000138   0.000028
    12  H    0.000026   0.000020  -0.000009
    13  H    0.000547  -0.000110   0.000010
    14  H   -0.000110   0.000215  -0.000013
    15  H    0.000010  -0.000013  -0.000017
 Mulliken charges and spin densities:
               1          2
     1  O   -0.300098   0.735454
     2  H    0.254609  -0.017409
     3  C   -1.896279  -0.124039
     4  H    0.203016   0.024068
     5  C    1.995876   0.378203
     6  C   -0.264637  -0.021723
     7  O   -0.263175   0.020277
     8  O    0.009152   0.003849
     9  C   -0.257954  -0.000606
    10  C   -0.403508   0.001480
    11  H    0.199357   0.000137
    12  H    0.201336   0.000321
    13  H    0.167151   0.000118
    14  H    0.169081  -0.000018
    15  H    0.186072  -0.000110
 Sum of Mulliken charges =  -0.00000   1.00000
 Mulliken charges and spin densities with hydrogens summed into heavy atoms:
               1          2
     1  O   -0.045489   0.718045
     3  C   -1.693262  -0.099972
     5  C    1.995876   0.378203
     6  C   -0.264637  -0.021723
     7  O   -0.263175   0.020277
     8  O    0.009152   0.003849
     9  C    0.142739  -0.000148
    10  C    0.118796   0.001469
 APT charges:
               1
     1  O   -0.274712
     2  H    0.120299
     3  C   -0.754319
     4  H    0.939141
     5  C   -0.522018
     6  C    0.511345
     7  O   -0.280845
     8  O    0.122320
     9  C   -0.798125
    10  C   -1.294782
    11  H    0.610031
    12  H    0.342772
    13  H    0.707664
    14  H    0.378888
    15  H    0.192341
 Sum of APT charges =  -0.00000
 APT charges with hydrogens summed into heavy atoms:
               1
     1  O   -0.154412
     3  C    0.184822
     5  C   -0.522018
     6  C    0.511345
     7  O   -0.280845
     8  O    0.122320
     9  C    0.154678
    10  C   -0.015889
 Electronic spatial extent (au):  <R**2>=           1348.6364
 Charge=             -0.0000 electrons
 Dipole moment (field-independent basis, Debye):
    X=             -2.9219    Y=             -1.5702    Z=              0.1109  Tot=              3.3190
 Quadrupole moment (field-independent basis, Debye-Ang):
   XX=            -44.7752   YY=            -48.3659   ZZ=            -47.8462
   XY=             -5.0001   XZ=              1.1253   YZ=             -0.2032
 Traceless Quadrupole moment (field-independent basis, Debye-Ang):
   XX=              2.2206   YY=             -1.3701   ZZ=             -0.8504
   XY=             -5.0001   XZ=              1.1253   YZ=             -0.2032
 Octapole moment (field-independent basis, Debye-Ang**2):
  XXX=            -45.8657  YYY=              5.3413  ZZZ=             -3.3614  XYY=             12.0515
  XXY=            -19.8741  XXZ=             -1.2194  XZZ=             -4.2470  YZZ=              0.9354
  YYZ=              1.2387  XYZ=             -4.6996
 Hexadecapole moment (field-independent basis, Debye-Ang**3):
 XXXX=          -1453.1181 YYYY=           -221.1096 ZZZZ=           -115.3012 XXXY=            -74.5138
 XXXZ=             19.8087 YYYX=             15.5397 YYYZ=             -0.5720 ZZZX=              2.5376
 ZZZY=             -2.3168 XXYY=           -231.0038 XXZZ=           -261.1805 YYZZ=            -56.8453
 XXYZ=            -13.5260 YYXZ=              3.7876 ZZXY=              3.2312
 N-N= 3.459287972007D+02 E-N=-1.676072644337D+03  KE= 4.185007164279D+02
  Exact polarizability:   0.000   0.000   0.000   0.000   0.000   0.000
 Approx polarizability: 113.710   2.761  90.082   6.627  -4.740  58.847
                          Isotropic Fermi Contact Couplings
        Atom                 a.u.       MegaHertz       Gauss      10(-4) cm-1
     1  O(17)              0.11508     -69.76050     -24.89228     -23.26960
     2  H(1)              -0.01277     -57.09106     -20.37151     -19.04353
     3  C(13)              0.00469       5.27234       1.88130       1.75866
     4  H(1)               0.00889      39.75367      14.18510      13.26040
     5  C(13)              0.06264      70.41646      25.12634      23.48840
     6  C(13)             -0.01848     -20.77596      -7.41338      -6.93011
     7  O(17)              0.01050      -6.36222      -2.27020      -2.12221
     8  O(17)              0.01793     -10.87168      -3.87929      -3.62640
     9  C(13)              0.00208       2.33954       0.83481       0.78039
    10  C(13)              0.00000       0.00517       0.00184       0.00172
    11  H(1)               0.00004       0.16795       0.05993       0.05602
    12  H(1)              -0.00001      -0.06292      -0.02245      -0.02099
    13  H(1)               0.00005       0.21592       0.07704       0.07202
    14  H(1)               0.00001       0.06246       0.02229       0.02084
    15  H(1)              -0.00001      -0.03880      -0.01384      -0.01294
 --------------------------------------------------------
       Center         ----  Spin Dipole Couplings  ----
                      3XX-RR        3YY-RR        3ZZ-RR
 --------------------------------------------------------
     1   Atom        0.594498      0.870291     -1.464789
     2   Atom        0.046585      0.042859     -0.089444
     3   Atom        0.073052     -0.036998     -0.036053
     4   Atom       -0.010534      0.014296     -0.003762
     5   Atom       -0.153441      0.339032     -0.185591
     6   Atom        0.014680      0.000222     -0.014901
     7   Atom        0.049752     -0.034884     -0.014868
     8   Atom        0.016350     -0.009488     -0.006862
     9   Atom        0.005963     -0.002842     -0.003121
    10   Atom        0.001804     -0.000798     -0.001006
    11   Atom        0.001870     -0.000797     -0.001073
    12   Atom        0.001966     -0.000960     -0.001006
    13   Atom        0.001133     -0.000533     -0.000601
    14   Atom        0.001482     -0.000887     -0.000595
    15   Atom        0.001781     -0.000795     -0.000987
 --------------------------------------------------------
                        XY            XZ            YZ
 --------------------------------------------------------
     1   Atom        2.197729     -0.067219     -0.070613
     2   Atom       -0.079338      0.032449     -0.033339
     3   Atom       -0.075005      0.026721     -0.010277
     4   Atom        0.002691     -0.001303     -0.002423
     5   Atom        0.283360     -0.038815     -0.042824
     6   Atom       -0.003314      0.004400     -0.002897
     7   Atom       -0.063094      0.018584     -0.005666
     8   Atom       -0.009765      0.004365     -0.001161
     9   Atom       -0.001070      0.000878     -0.000108
    10   Atom       -0.000489     -0.000645      0.000147
    11   Atom        0.000547      0.000633      0.000173
    12   Atom       -0.000515      0.001313     -0.000467
    13   Atom       -0.000274     -0.000183      0.000044
    14   Atom        0.000000     -0.000861      0.000005
    15   Atom       -0.000891     -0.000914      0.000299
 --------------------------------------------------------


 ---------------------------------------------------------------------------------
              Anisotropic Spin Dipole Couplings in Principal Axis System
 ---------------------------------------------------------------------------------

       Atom             a.u.   MegaHertz   Gauss  10(-4) cm-1        Axes

              Baa    -1.4698   106.354    37.950    35.476  0.7139 -0.6637  0.2231
     1 O(17)  Bbb    -1.4668   106.137    37.872    35.403 -0.1479  0.1685  0.9745
              Bcc     2.9366  -212.491   -75.822   -70.879  0.6844  0.7287 -0.0221
 
              Baa    -0.0992   -52.904   -18.878   -17.647 -0.1334  0.1552  0.9788
     2 H(1)   Bbb    -0.0346   -18.470    -6.591    -6.161  0.7022  0.7117 -0.0172
              Bcc     0.1338    71.375    25.468    23.808  0.6993 -0.6851  0.2040
 
              Baa    -0.0752   -10.097    -3.603    -3.368  0.4617  0.8831 -0.0832
     3 C(13)  Bbb    -0.0411    -5.520    -1.970    -1.841 -0.1255  0.1579  0.9795
              Bcc     0.1164    15.616     5.572     5.209  0.8781 -0.4417  0.1837
 
              Baa    -0.0110    -5.857    -2.090    -1.954  0.9849 -0.0907  0.1475
     4 H(1)   Bbb    -0.0040    -2.111    -0.753    -0.704 -0.1329  0.1497  0.9798
              Bcc     0.0149     7.967     2.843     2.658  0.1109  0.9846 -0.1354
 
              Baa    -0.2858   -38.353   -13.685   -12.793  0.9005 -0.3961  0.1795
     5 C(13)  Bbb    -0.1870   -25.093    -8.954    -8.370 -0.1296  0.1496  0.9802
              Bcc     0.4728    63.446    22.639    21.163  0.4151  0.9060 -0.0834
 
              Baa    -0.0159    -2.134    -0.762    -0.712 -0.1248  0.1505  0.9807
     6 C(13)  Bbb    -0.0003    -0.038    -0.013    -0.013  0.2473  0.9619 -0.1162
              Bcc     0.0162     2.172     0.775     0.725  0.9609 -0.2280  0.1573
 
              Baa    -0.0688     4.979     1.777     1.661  0.4774  0.8757 -0.0725
     7 O(17)  Bbb    -0.0182     1.315     0.469     0.438 -0.1280  0.1509  0.9802
              Bcc     0.0870    -6.294    -2.246    -2.099  0.8693 -0.4587  0.1841
 
              Baa    -0.0128     0.925     0.330     0.308  0.3247  0.9443 -0.0542
     8 O(17)  Bbb    -0.0076     0.549     0.196     0.183 -0.1373  0.1037  0.9851
              Bcc     0.0204    -1.474    -0.526    -0.492  0.9358 -0.3124  0.1633
 
              Baa    -0.0032    -0.430    -0.153    -0.143 -0.0925  0.0238  0.9954
     9 C(13)  Bbb    -0.0030    -0.399    -0.142    -0.133  0.1202  0.9927 -0.0125
              Bcc     0.0062     0.829     0.296     0.276  0.9884 -0.1185  0.0947
 
              Baa    -0.0012    -0.155    -0.055    -0.052  0.1883 -0.1425  0.9717
    10 C(13)  Bbb    -0.0009    -0.119    -0.042    -0.040  0.2020  0.9739  0.1037
              Bcc     0.0020     0.273     0.097     0.091  0.9611 -0.1768 -0.2122
 
              Baa    -0.0012    -0.648    -0.231    -0.216 -0.1667 -0.1821  0.9691
    11 H(1)   Bbb    -0.0009    -0.479    -0.171    -0.160 -0.2232  0.9643  0.1428
              Bcc     0.0021     1.127     0.402     0.376  0.9604  0.1925  0.2014
 
              Baa    -0.0016    -0.864    -0.308    -0.288 -0.2598  0.4146  0.8722
    12 H(1)   Bbb    -0.0010    -0.514    -0.183    -0.171  0.3061  0.8920 -0.3328
              Bcc     0.0026     1.378     0.492     0.460  0.9159 -0.1805  0.3586
 
              Baa    -0.0006    -0.333    -0.119    -0.111  0.0521 -0.3012  0.9521
    13 H(1)   Bbb    -0.0006    -0.305    -0.109    -0.102  0.1821  0.9403  0.2875
              Bcc     0.0012     0.639     0.228     0.213  0.9819 -0.1584 -0.1038
 
              Baa    -0.0009    -0.484    -0.173    -0.161  0.3313 -0.2122  0.9193
    14 H(1)   Bbb    -0.0009    -0.473    -0.169    -0.158  0.0725  0.9772  0.1995
              Bcc     0.0018     0.956     0.341     0.319  0.9407 -0.0005 -0.3391
 
              Baa    -0.0013    -0.675    -0.241    -0.225  0.2450 -0.1458  0.9585
    15 H(1)   Bbb    -0.0011    -0.572    -0.204    -0.191  0.3159  0.9467  0.0632
              Bcc     0.0023     1.247     0.445     0.416  0.9166 -0.2873 -0.2780
 

 ---------------------------------------------------------------------------------

 Calling FoFJK, ICntrl=    100147 FMM=F ISym2X=0 I1Cent= 0 IOpClX= 1 NMat=1 NMatS=1 NMatT=0.
 ***** Axes restored to original set *****
 -------------------------------------------------------------------
 Center     Atomic                   Forces (Hartrees/Bohr)
 Number     Number              X              Y              Z
 -------------------------------------------------------------------
      1        8          -0.013041123    0.007531204   -0.002981423
      2        1           0.010948664   -0.012329940    0.003452540
      3        6          -0.014001847    0.011037689   -0.003578261
      4        1          -0.000897436   -0.000907607    0.000011974
      5        6           0.018876883   -0.007764297    0.003800383
      6        6          -0.030494397    0.039285430   -0.010255974
      7        8           0.004750494   -0.046108053    0.007781856
      8        8           0.007069514    0.012725861   -0.000972703
      9        6           0.015005622   -0.001297298    0.003588061
     10        6           0.000384452   -0.000170506   -0.000159575
     11        1           0.000502121    0.000664321    0.000344803
     12        1           0.000091274   -0.001274666    0.001117179
     13        1           0.001296287   -0.000749130   -0.000257187
     14        1          -0.000010832    0.000681742   -0.001014163
     15        1          -0.000479675   -0.001324751   -0.000877510
 -------------------------------------------------------------------
 Cartesian Forces:  Max     0.046108053 RMS     0.012049383
 FormGI is forming the generalized inverse of G from B-inverse, IUseBI=4.

 GradGradGradGradGradGradGradGradGradGradGradGradGradGradGradGradGradGrad
 Berny optimization.
 Internal  Forces:  Max     0.046927058 RMS     0.008455854
 Search for a saddle point.
 Step number   1 out of a maximum of   65
 All quantities printed in internal units (Hartrees-Bohrs-Radians)
 Swapping is turned off.
 Second derivative matrix not updated -- analytic derivatives used.
 ITU=  0
     Eigenvalues ---   -0.08774   0.00095   0.00180   0.00251   0.00627
     Eigenvalues ---    0.00751   0.01682   0.02071   0.02168   0.04364
     Eigenvalues ---    0.04462   0.04499   0.05958   0.06240   0.06878
     Eigenvalues ---    0.08900   0.09443   0.09939   0.12221   0.12358
     Eigenvalues ---    0.13104   0.16587   0.16858   0.22099   0.23759
     Eigenvalues ---    0.26196   0.29485   0.32301   0.34142   0.34260
     Eigenvalues ---    0.34416   0.34892   0.35566   0.39408   0.40681
     Eigenvalues ---    0.44380   0.45072   0.74194   0.91367
 Eigenvectors required to have negative eigenvalues:
                          R2        A4        A3        A2        R4
   1                   -0.91464  -0.30562   0.20002   0.10560   0.10266
                          A5        R3        R1        A7        A1
   1                   -0.08886   0.01292  -0.01190  -0.00574   0.00549
 RFO step:  Lambda0=1.715193981D-04 Lambda=-6.99187043D-03.
 Linear search not attempted -- option 19 set.
 Iteration  1 RMS(Cart)=  0.05054140 RMS(Int)=  0.00094389
 Iteration  2 RMS(Cart)=  0.00078919 RMS(Int)=  0.00003764
 Iteration  3 RMS(Cart)=  0.00000103 RMS(Int)=  0.00003763
 Iteration  4 RMS(Cart)=  0.00000000 RMS(Int)=  0.00003763
 Variable       Old X    -DE/DX   Delta X   Delta X   Delta X     New X
                                 (Linear)    (Quad)   (Total)
    R1        1.87166  -0.01675   0.00000  -0.03599  -0.03599   1.83566
    R2        3.75376  -0.00522   0.00000   0.04191   0.04191   3.79566
    R3        2.01803  -0.00029   0.00000  -0.00182  -0.00182   2.01621
    R4        2.32232  -0.01801   0.00000  -0.02338  -0.02338   2.29894
    R5        2.72060   0.00291   0.00000   0.02723   0.02723   2.74783
    R6        2.33366  -0.04693   0.00000  -0.06591  -0.06591   2.26775
    R7        2.55037  -0.02459   0.00000  -0.04624  -0.04624   2.50413
    R8        2.78696  -0.01692   0.00000  -0.06079  -0.06079   2.72617
    R9        2.86817  -0.00301   0.00000  -0.00379  -0.00379   2.86437
   R10        2.05749  -0.00090   0.00000  -0.00108  -0.00108   2.05642
   R11        2.06417  -0.00167   0.00000  -0.00349  -0.00349   2.06068
   R12        2.06731  -0.00141   0.00000  -0.00446  -0.00446   2.06285
   R13        2.06473  -0.00121   0.00000  -0.00317  -0.00317   2.06156
   R14        2.06437  -0.00155   0.00000  -0.00426  -0.00426   2.06011
    A1        1.79427  -0.00338   0.00000  -0.04046  -0.04046   1.75381
    A2        1.60588   0.00123   0.00000   0.00537   0.00537   1.61125
    A3        1.85438   0.00004   0.00000  -0.01658  -0.01658   1.83780
    A4        2.82292  -0.00127   0.00000   0.01121   0.01121   2.83413
    A5        2.86100  -0.00216   0.00000  -0.02913  -0.02913   2.83187
    A6        2.13805  -0.00166   0.00000  -0.01259  -0.01259   2.12547
    A7        1.97840  -0.00283   0.00000  -0.01602  -0.01602   1.96238
    A8        2.16672   0.00449   0.00000   0.02861   0.02861   2.19533
    A9        2.05029  -0.01132   0.00000  -0.02258  -0.02258   2.02770
   A10        1.92764  -0.00005   0.00000   0.00881   0.00883   1.93647
   A11        1.80040   0.00007   0.00000   0.01351   0.01355   1.81396
   A12        1.88750  -0.00025   0.00000   0.00692   0.00693   1.89443
   A13        1.96351  -0.00003   0.00000  -0.01150  -0.01161   1.95191
   A14        1.95361   0.00027   0.00000  -0.00560  -0.00571   1.94790
   A15        1.92393  -0.00003   0.00000  -0.00983  -0.01000   1.91392
   A16        1.91452  -0.00065   0.00000  -0.00326  -0.00326   1.91126
   A17        1.92774   0.00006   0.00000  -0.00045  -0.00045   1.92729
   A18        1.93447  -0.00070   0.00000  -0.00126  -0.00126   1.93321
   A19        1.89212   0.00029   0.00000   0.00085   0.00085   1.89297
   A20        1.88858   0.00065   0.00000   0.00255   0.00254   1.89113
   A21        1.90547   0.00040   0.00000   0.00170   0.00170   1.90717
    D1        3.13544   0.00001   0.00000   0.00262   0.00261   3.13805
    D2       -0.00595   0.00001   0.00000   0.00238   0.00238  -0.00357
    D3       -0.00392   0.00001   0.00000   0.00237   0.00237  -0.00155
    D4        3.13834   0.00001   0.00000   0.00162   0.00162   3.13997
    D5        0.00375  -0.00009   0.00000  -0.00018  -0.00018   0.00357
    D6        3.13989   0.00008   0.00000   0.00063   0.00063   3.14052
    D7        3.13233  -0.00006   0.00000  -0.00096  -0.00097   3.13136
    D8       -0.01482   0.00009   0.00000  -0.00028  -0.00028  -0.01509
    D9       -1.39828   0.00003   0.00000   0.00369   0.00371  -1.39457
   D10        2.78290   0.00005   0.00000   0.00517   0.00514   2.78804
   D11        0.74496   0.00016   0.00000   0.00683   0.00684   0.75180
   D12       -3.06038  -0.00010   0.00000  -0.00252  -0.00251  -3.06290
   D13       -0.97578  -0.00012   0.00000  -0.00381  -0.00380  -0.97958
   D14        1.13838  -0.00004   0.00000  -0.00281  -0.00280   1.13559
   D15       -1.05907  -0.00007   0.00000   0.01282   0.01276  -1.04631
   D16        1.02553  -0.00009   0.00000   0.01153   0.01147   1.03700
   D17        3.13970  -0.00001   0.00000   0.01254   0.01248  -3.13101
   D18        1.11865   0.00007   0.00000  -0.01361  -0.01356   1.10509
   D19       -3.07994   0.00005   0.00000  -0.01490  -0.01485  -3.09478
   D20       -0.96577   0.00013   0.00000  -0.01389  -0.01384  -0.97961
         Item               Value     Threshold  Converged?
 Maximum Force            0.046927     0.000015     NO 
 RMS     Force            0.008456     0.000010     NO 
 Maximum Displacement     0.213396     0.000060     NO 
 RMS     Displacement     0.050528     0.000040     NO 
 Predicted change in Energy=-3.476737D-03
 GradGradGradGradGradGradGradGradGradGradGradGradGradGradGradGradGradGrad

                          Input orientation:                          
 ---------------------------------------------------------------------
 Center     Atomic      Atomic             Coordinates (Angstroms)
 Number     Number       Type             X           Y           Z
 ---------------------------------------------------------------------
      1          8           0        3.333403    0.786617    0.123261
      2          1           0        2.579051    1.368477   -0.066454
      3          6           0        2.401975   -0.988002    0.255773
      4          1           0        3.315897   -1.501748    0.453638
      5          6           0        1.225118   -0.748056    0.062315
      6          6           0       -0.018888   -0.044933   -0.206834
      7          8           0       -0.048515    1.141409   -0.385190
      8          8           0       -1.064438   -0.858652   -0.232338
      9          6           0       -2.344850   -0.242120   -0.480555
     10          6           0       -2.892849    0.395751    0.780536
     11          1           0       -2.969829   -1.064694   -0.822570
     12          1           0       -2.228577    0.488121   -1.282021
     13          1           0       -3.894592    0.783931    0.587015
     14          1           0       -2.956806   -0.340683    1.582849
     15          1           0       -2.260046    1.223426    1.101422
 ---------------------------------------------------------------------
                    Distance matrix (angstroms):
                    1          2          3          4          5
     1  O    0.000000
     2  H    0.971391   0.000000
     3  C    2.008579   2.384990   0.000000
     4  H    2.312157   3.008593   1.066930   0.000000
     5  C    2.608410   2.515835   1.216549   2.256666   0.000000
     6  C    3.469624   2.960864   2.638931   3.698557   1.454089
     7  O    3.438281   2.656550   3.309097   4.359953   2.322172
     8  O    4.708967   4.273480   3.502999   4.480120   2.311087
     9  C    5.802194   5.197143   4.861158   5.873962   3.646279
    10  C    6.273038   5.621857   5.497755   6.500454   4.333796
    11  H    6.637219   6.105907   5.479505   6.428847   4.298937
    12  H    5.744523   5.036458   5.097622   6.141114   3.906838
    13  H    7.242858   6.532745   6.549520   7.565267   5.369704
    14  H    6.554994   6.023881   5.558478   6.478426   4.468385
    15  H    5.695110   4.980144   5.228763   6.239979   4.136768
                    6          7          8          9         10
     6  C    0.000000
     7  O    1.200040   0.000000
     8  O    1.325129   2.248490   0.000000
     9  C    2.350299   2.682610   1.442628   0.000000
    10  C    3.070628   3.163093   2.437730   1.515762   0.000000
    11  H    3.182310   3.686769   2.005328   1.088210   2.169971
    12  H    2.514538   2.446172   2.066603   1.090467   2.168855
    13  H    4.042065   3.983124   3.373305   2.143405   1.091614
    14  H    3.452796   3.811552   2.672873   2.154493   1.090932
    15  H    2.888435   2.666010   2.746532   2.158163   1.090162
                   11         12         13         14         15
    11  H    0.000000
    12  H    1.780950   0.000000
    13  H    2.501905   2.521191   0.000000
    14  H    2.512051   3.069969   1.770842   0.000000
    15  H    3.072625   2.494486   1.769042   1.778675   0.000000
 Stoichiometry    C5H7O3(2)
 Framework group  C1[X(C5H7O3)]
 Deg. of freedom    39
 Full point group                 C1      NOp   1
 Largest Abelian subgroup         C1      NOp   1
 Largest concise Abelian subgroup C1      NOp   1
                         Standard orientation:                         
 ---------------------------------------------------------------------
 Center     Atomic      Atomic             Coordinates (Angstroms)
 Number     Number       Type             X           Y           Z
 ---------------------------------------------------------------------
      1          8           0        3.341893    0.786354    0.109766
      2          1           0        2.588653    1.366483   -0.089435
      3          6           0        2.407118   -0.984136    0.270863
      4          1           0        3.320055   -1.496328    0.477130
      5          6           0        1.230733   -0.745143    0.073400
      6          6           0       -0.011924   -0.044134   -0.207249
      7          8           0       -0.039305    1.139220   -0.404784
      8          8           0       -1.058999   -0.856195   -0.219712
      9          6           0       -2.338226   -0.241357   -0.478035
     10          6           0       -2.885146    0.417866    0.772500
     11          1           0       -2.964717   -1.068184   -0.806771
     12          1           0       -2.220505    0.475598   -1.291198
     13          1           0       -3.886139    0.804743    0.572597
     14          1           0       -2.950563   -0.305366    1.586617
     15          1           0       -2.250819    1.249436    1.080028
 ---------------------------------------------------------------------
 Rotational constants (GHZ):           5.4464286           0.9507216           0.8693515
 Standard basis: 6-311++G(d,p) (5D, 7F)
 There are   233 symmetry adapted cartesian basis functions of A   symmetry.
 There are   225 symmetry adapted basis functions of A   symmetry.
   225 basis functions,   351 primitive gaussians,   233 cartesian basis functions
    31 alpha electrons       30 beta electrons
       nuclear repulsion energy       350.0376547885 Hartrees.
 NAtoms=   15 NActive=   15 NUniq=   15 SFac= 1.00D+00 NAtFMM=   60 NAOKFM=F Big=F
 Integral buffers will be    131072 words long.
 Raffenetti 2 integral format.
 Two-electron integral symmetry is turned on.
 One-electron integrals computed using PRISM.
 NBasis=   225 RedAO= T EigKep=  2.46D-06  NBF=   225
 NBsUse=   225 1.00D-06 EigRej= -1.00D+00 NBFU=   225
 Initial guess from the checkpoint file:  "ethyl_propiolate.chk"
 B after Tr=     0.000000    0.000000   -0.000000
         Rot=    0.999962    0.008713   -0.000010   -0.000517 Ang=   1.00 deg.
 Initial guess <Sx>= 0.0000 <Sy>= 0.0000 <Sz>= 0.5000 <S**2>= 0.7779 S= 0.5138
 ExpMin= 3.60D-02 ExpMax= 8.59D+03 ExpMxC= 1.30D+03 IAcc=3 IRadAn=         5 AccDes= 0.00D+00
 Harris functional with IExCor= 1009 and IRadAn=       5 diagonalized for initial guess.
 HarFok:  IExCor= 1009 AccDes= 0.00D+00 IRadAn=         5 IDoV= 1 UseB2=F ITyADJ=14
 ICtDFT=  3500011 ScaDFX=  1.000000  1.000000  1.000000  1.000000
 FoFCou: FMM=F IPFlag=           0 FMFlag=      100000 FMFlg1=           0
         NFxFlg=           0 DoJE=T BraDBF=F KetDBF=T FulRan=T
         wScrn=  0.000000 ICntrl=       500 IOpCl=  0 I1Cent=   200000004 NGrid=           0
         NMat0=    1 NMatS0=      1 NMatT0=    0 NMatD0=    1 NMtDS0=    0 NMtDT0=    0
 Petite list used in FoFCou.
 Requested convergence on RMS density matrix=1.00D-08 within 128 cycles.
 Requested convergence on MAX density matrix=1.00D-06.
 Requested convergence on             energy=1.00D-06.
 No special actions if energy rises.
 Restarting incremental Fock formation.
 SCF Done:  E(UM062X) =  -420.205216043     A.U. after   21 cycles
            NFock= 21  Conv=0.23D-08     -V/T= 2.0032
 <Sx>= 0.0000 <Sy>= 0.0000 <Sz>= 0.5000 <S**2>= 0.7745 S= 0.5122
 <L.S>=  0.00000000000    
 Annihilation of the first spin contaminant:
 S**2 before annihilation     0.7745,   after     0.7502
 Calling FoFJK, ICntrl=      2127 FMM=F ISym2X=0 I1Cent= 0 IOpClX= 1 NMat=1 NMatS=1 NMatT=0.
 ***** Axes restored to original set *****
 -------------------------------------------------------------------
 Center     Atomic                   Forces (Hartrees/Bohr)
 Number     Number              X              Y              Z
 -------------------------------------------------------------------
      1        8           0.000730729   -0.000668198    0.000195418
      2        1          -0.000757315    0.000348248   -0.000150269
      3        6           0.001230019    0.000315979    0.000110384
      4        1          -0.000046072   -0.000116142    0.000002833
      5        6          -0.000524853   -0.000215625   -0.000004650
      6        6           0.001000201   -0.004522359    0.000823819
      7        8          -0.000074004    0.005782454   -0.000860702
      8        8          -0.000142567   -0.001302423    0.000085053
      9        6          -0.000894033    0.000289807   -0.000038387
     10        6          -0.000103987    0.000070161    0.000001195
     11        1          -0.000150755    0.000114441   -0.000060098
     12        1          -0.000255196   -0.000051332   -0.000079087
     13        1           0.000019899   -0.000006926   -0.000008624
     14        1          -0.000021102   -0.000004097   -0.000024772
     15        1          -0.000010966   -0.000033990    0.000007888
 -------------------------------------------------------------------
 Cartesian Forces:  Max     0.005782454 RMS     0.001180896

 GradGradGradGradGradGradGradGradGradGradGradGradGradGradGradGradGradGrad
 Berny optimization.
 FormGI is forming the generalized inverse of G from B-inverse, IUseBI=4.
 Internal  Forces:  Max     0.005845771 RMS     0.000886219
 Search for a saddle point.
 Step number   2 out of a maximum of   65
 All quantities printed in internal units (Hartrees-Bohrs-Radians)
 Swapping is turned off.
 Update second derivatives using D2CorX and points    1    2
 ITU=  0  0
     Eigenvalues ---   -0.08836   0.00094   0.00179   0.00249   0.00615
     Eigenvalues ---    0.00750   0.01674   0.01992   0.02166   0.04318
     Eigenvalues ---    0.04434   0.04463   0.05959   0.06227   0.06845
     Eigenvalues ---    0.08837   0.09427   0.09937   0.12220   0.12356
     Eigenvalues ---    0.13109   0.16585   0.16868   0.22119   0.23758
     Eigenvalues ---    0.26187   0.29671   0.32427   0.34142   0.34260
     Eigenvalues ---    0.34422   0.34888   0.35595   0.39417   0.40682
     Eigenvalues ---    0.44424   0.45276   0.78967   0.91629
 Eigenvectors required to have negative eigenvalues:
                          R2        A4        A3        A2        R4
   1                    0.91563   0.30425  -0.20066  -0.10360  -0.10135
                          A5        A1        R3        R1        R6
   1                    0.08355  -0.01311  -0.01288   0.01284   0.00967
 RFO step:  Lambda0=1.837780437D-06 Lambda=-6.34058633D-05.
 Linear search not attempted -- option 19 set.
 Iteration  1 RMS(Cart)=  0.00539396 RMS(Int)=  0.00002150
 Iteration  2 RMS(Cart)=  0.00001968 RMS(Int)=  0.00000025
 Iteration  3 RMS(Cart)=  0.00000000 RMS(Int)=  0.00000025
 Variable       Old X    -DE/DX   Delta X   Delta X   Delta X     New X
                                 (Linear)    (Quad)   (Total)
    R1        1.83566   0.00083   0.00000   0.00181   0.00181   1.83748
    R2        3.79566  -0.00030   0.00000   0.00516   0.00516   3.80083
    R3        2.01621   0.00002   0.00000   0.00004   0.00004   2.01625
    R4        2.29894   0.00117   0.00000   0.00082   0.00082   2.29976
    R5        2.74783   0.00073   0.00000   0.00052   0.00052   2.74835
    R6        2.26775   0.00585   0.00000   0.00785   0.00785   2.27560
    R7        2.50413   0.00180   0.00000   0.00170   0.00170   2.50583
    R8        2.72617   0.00145   0.00000   0.00442   0.00442   2.73059
    R9        2.86437   0.00003   0.00000  -0.00034  -0.00034   2.86403
   R10        2.05642   0.00002   0.00000   0.00003   0.00003   2.05644
   R11        2.06068  -0.00000   0.00000  -0.00005  -0.00005   2.06064
   R12        2.06285  -0.00002   0.00000  -0.00004  -0.00004   2.06282
   R13        2.06156  -0.00002   0.00000  -0.00007  -0.00007   2.06149
   R14        2.06011  -0.00003   0.00000  -0.00017  -0.00017   2.05994
    A1        1.75381  -0.00034   0.00000  -0.00607  -0.00607   1.74774
    A2        1.61125   0.00004   0.00000   0.00157   0.00157   1.61282
    A3        1.83780   0.00017   0.00000  -0.00115  -0.00115   1.83665
    A4        2.83413  -0.00021   0.00000  -0.00042  -0.00042   2.83372
    A5        2.83187   0.00011   0.00000  -0.00375  -0.00375   2.82811
    A6        2.12547  -0.00004   0.00000  -0.00126  -0.00126   2.12421
    A7        1.96238  -0.00009   0.00000   0.00155   0.00155   1.96394
    A8        2.19533   0.00012   0.00000  -0.00030  -0.00030   2.19503
    A9        2.02770   0.00081   0.00000   0.00127   0.00127   2.02897
   A10        1.93647   0.00008   0.00000   0.00105   0.00105   1.93751
   A11        1.81396   0.00007   0.00000   0.00000   0.00000   1.81396
   A12        1.89443   0.00008   0.00000   0.00068   0.00068   1.89511
   A13        1.95191  -0.00011   0.00000  -0.00045  -0.00045   1.95145
   A14        1.94790  -0.00004   0.00000   0.00045   0.00045   1.94835
   A15        1.91392  -0.00008   0.00000  -0.00176  -0.00176   1.91217
   A16        1.91126  -0.00002   0.00000  -0.00101  -0.00101   1.91025
   A17        1.92729  -0.00001   0.00000   0.00027   0.00027   1.92756
   A18        1.93321   0.00002   0.00000   0.00028   0.00028   1.93350
   A19        1.89297   0.00001   0.00000  -0.00009  -0.00009   1.89288
   A20        1.89113   0.00001   0.00000   0.00017   0.00017   1.89129
   A21        1.90717   0.00000   0.00000   0.00038   0.00038   1.90755
    D1        3.13805   0.00000   0.00000   0.00415   0.00415  -3.14099
    D2       -0.00357   0.00000   0.00000   0.00423   0.00423   0.00066
    D3       -0.00155   0.00000   0.00000   0.00270   0.00270   0.00115
    D4        3.13997   0.00000   0.00000   0.00297   0.00297  -3.14025
    D5        0.00357  -0.00001   0.00000  -0.00621  -0.00621  -0.00264
    D6        3.14052   0.00000   0.00000  -0.00635  -0.00635   3.13418
    D7        3.13136  -0.00002   0.00000  -0.00184  -0.00184   3.12953
    D8       -0.01509  -0.00001   0.00000  -0.00198  -0.00198  -0.01707
    D9       -1.39457  -0.00000   0.00000   0.00647   0.00646  -1.38811
   D10        2.78804   0.00004   0.00000   0.00647   0.00646   2.79451
   D11        0.75180   0.00005   0.00000   0.00817   0.00817   0.75997
   D12       -3.06290   0.00002   0.00000  -0.00426  -0.00426  -3.06715
   D13       -0.97958   0.00000   0.00000  -0.00484  -0.00484  -0.98442
   D14        1.13559   0.00001   0.00000  -0.00400  -0.00400   1.13159
   D15       -1.04631   0.00009   0.00000  -0.00388  -0.00388  -1.05019
   D16        1.03700   0.00008   0.00000  -0.00446  -0.00446   1.03254
   D17       -3.13101   0.00008   0.00000  -0.00362  -0.00362  -3.13463
   D18        1.10509  -0.00012   0.00000  -0.00617  -0.00617   1.09892
   D19       -3.09478  -0.00013   0.00000  -0.00675  -0.00675  -3.10154
   D20       -0.97961  -0.00012   0.00000  -0.00591  -0.00591  -0.98552
         Item               Value     Threshold  Converged?
 Maximum Force            0.005846     0.000015     NO 
 RMS     Force            0.000886     0.000010     NO 
 Maximum Displacement     0.019868     0.000060     NO 
 RMS     Displacement     0.005392     0.000040     NO 
 Predicted change in Energy=-3.080538D-05
 GradGradGradGradGradGradGradGradGradGradGradGradGradGradGradGradGradGrad

                          Input orientation:                          
 ---------------------------------------------------------------------
 Center     Atomic      Atomic             Coordinates (Angstroms)
 Number     Number       Type             X           Y           Z
 ---------------------------------------------------------------------
      1          8           0        3.330534    0.791771    0.121172
      2          1           0        2.568537    1.366965   -0.063160
      3          6           0        2.405517   -0.989162    0.255306
      4          1           0        3.321131   -1.500573    0.451505
      5          6           0        1.227202   -0.752678    0.063737
      6          6           0       -0.016729   -0.048607   -0.204770
      7          8           0       -0.044826    1.142519   -0.379468
      8          8           0       -1.064088   -0.861301   -0.235134
      9          6           0       -2.346405   -0.242358   -0.481118
     10          6           0       -2.891848    0.397414    0.779902
     11          1           0       -2.973213   -1.064397   -0.821107
     12          1           0       -2.232239    0.486115   -1.284461
     13          1           0       -3.891681    0.789839    0.585179
     14          1           0       -2.960047   -0.338945    1.581882
     15          1           0       -2.255791    1.222240    1.101382
 ---------------------------------------------------------------------
                    Distance matrix (angstroms):
                    1          2          3          4          5
     1  O    0.000000
     2  H    0.972351   0.000000
     3  C    2.011311   2.383134   0.000000
     4  H    2.316042   3.008996   1.066952   0.000000
     5  C    2.610100   2.511606   1.216983   2.257045   0.000000
     6  C    3.466503   2.950847   2.638861   3.698678   1.454365
     7  O    3.430265   2.641986   3.309257   4.359601   2.325136
     8  O    4.708748   4.265057   3.506428   4.484450   2.313252
     9  C    5.801707   5.188570   4.866291   5.879954   3.650748
    10  C    6.269567   5.609508   5.500896   6.504714   4.336148
    11  H    6.638560   6.098934   5.485896   6.436502   4.303906
    12  H    5.745753   5.031394   5.104518   6.148206   3.914075
    13  H    7.237105   6.518269   6.551973   7.568917   5.371613
    14  H    6.556188   6.015109   5.565237   6.486935   4.473142
    15  H    5.687983   4.965002   5.228187   6.240042   4.136213
                    6          7          8          9         10
     6  C    0.000000
     7  O    1.204197   0.000000
     8  O    1.326030   2.252781   0.000000
     9  C    2.353996   2.688026   1.444968   0.000000
    10  C    3.071616   3.163045   2.440362   1.515582   0.000000
    11  H    3.186299   3.693370   2.007329   1.088223   2.169503
    12  H    2.521933   2.456554   2.069104   1.090443   2.168997
    13  H    4.042556   3.981610   3.375567   2.142498   1.091595
    14  H    3.455364   3.813154   2.677510   2.154496   1.090892
    15  H    2.886951   2.662263   2.747285   2.158139   1.090071
                   11         12         13         14         15
    11  H    0.000000
    12  H    1.779839   0.000000
    13  H    2.501882   2.518243   0.000000
    14  H    2.510141   3.070236   1.770737   0.000000
    15  H    3.072356   2.496935   1.769059   1.778807   0.000000
 Stoichiometry    C5H7O3(2)
 Framework group  C1[X(C5H7O3)]
 Deg. of freedom    39
 Full point group                 C1      NOp   1
 Largest Abelian subgroup         C1      NOp   1
 Largest concise Abelian subgroup C1      NOp   1
                         Standard orientation:                         
 ---------------------------------------------------------------------
 Center     Atomic      Atomic             Coordinates (Angstroms)
 Number     Number       Type             X           Y           Z
 ---------------------------------------------------------------------
      1          8           0        3.338431    0.791530    0.104829
      2          1           0        2.577614    1.364625   -0.090584
      3          6           0        2.409791   -0.984618    0.273046
      4          1           0        3.324355   -1.494025    0.479113
      5          6           0        1.231970   -0.749464    0.076862
      6          6           0       -0.010514   -0.048155   -0.205230
      7          8           0       -0.036182    1.139452   -0.402768
      8          8           0       -1.059520   -0.859154   -0.220082
      9          6           0       -2.340563   -0.242447   -0.478024
     10          6           0       -2.884774    0.422524    0.770429
     11          1           0       -2.969022   -1.069589   -0.802226
     12          1           0       -2.224875    0.470234   -1.295196
     13          1           0       -3.883797    0.813167    0.568114
     14          1           0       -2.954512   -0.298161    1.586392
     15          1           0       -2.247061    1.252078    1.076072
 ---------------------------------------------------------------------
 Rotational constants (GHZ):           5.4294323           0.9509603           0.8688860
 Standard basis: 6-311++G(d,p) (5D, 7F)
 There are   233 symmetry adapted cartesian basis functions of A   symmetry.
 There are   225 symmetry adapted basis functions of A   symmetry.
   225 basis functions,   351 primitive gaussians,   233 cartesian basis functions
    31 alpha electrons       30 beta electrons
       nuclear repulsion energy       349.7925634090 Hartrees.
 NAtoms=   15 NActive=   15 NUniq=   15 SFac= 1.00D+00 NAtFMM=   60 NAOKFM=F Big=F
 Integral buffers will be    131072 words long.
 Raffenetti 2 integral format.
 Two-electron integral symmetry is turned on.
 One-electron integrals computed using PRISM.
 NBasis=   225 RedAO= T EigKep=  2.51D-06  NBF=   225
 NBsUse=   225 1.00D-06 EigRej= -1.00D+00 NBFU=   225
 Initial guess from the checkpoint file:  "ethyl_propiolate.chk"
 B after Tr=     0.000000    0.000000    0.000000
         Rot=    0.999999    0.001198   -0.000036   -0.000057 Ang=   0.14 deg.
 Initial guess <Sx>= 0.0000 <Sy>= 0.0000 <Sz>= 0.5000 <S**2>= 0.7746 S= 0.5122
 Requested convergence on RMS density matrix=1.00D-08 within 128 cycles.
 Requested convergence on MAX density matrix=1.00D-06.
 Requested convergence on             energy=1.00D-06.
 No special actions if energy rises.
 SCF Done:  E(UM062X) =  -420.205241095     A.U. after   18 cycles
            NFock= 18  Conv=0.86D-08     -V/T= 2.0033
 <Sx>= 0.0000 <Sy>= 0.0000 <Sz>= 0.5000 <S**2>= 0.7746 S= 0.5122
 <L.S>=  0.00000000000    
 Annihilation of the first spin contaminant:
 S**2 before annihilation     0.7746,   after     0.7502
 Calling FoFJK, ICntrl=      2127 FMM=F ISym2X=0 I1Cent= 0 IOpClX= 1 NMat=1 NMatS=1 NMatT=0.
 ***** Axes restored to original set *****
 -------------------------------------------------------------------
 Center     Atomic                   Forces (Hartrees/Bohr)
 Number     Number              X              Y              Z
 -------------------------------------------------------------------
      1        8          -0.000054739   -0.000089190    0.000014519
      2        1           0.000026663    0.000016498   -0.000007502
      3        6           0.000083183    0.000088535   -0.000000214
      4        1          -0.000003194   -0.000021443    0.000002017
      5        6          -0.000070611    0.000048116   -0.000034071
      6        6           0.000003833    0.000943742   -0.000139437
      7        8          -0.000017597   -0.001041049    0.000142900
      8        8          -0.000055583    0.000071764    0.000006437
      9        6          -0.000026206    0.000004867   -0.000037365
     10        6           0.000021768   -0.000015147    0.000011980
     11        1           0.000036300   -0.000026368    0.000011894
     12        1           0.000061419    0.000017974    0.000011800
     13        1          -0.000006471    0.000000643    0.000005655
     14        1           0.000004270   -0.000003322    0.000006400
     15        1          -0.000003035    0.000004379    0.000004986
 -------------------------------------------------------------------
 Cartesian Forces:  Max     0.001041049 RMS     0.000214390

 GradGradGradGradGradGradGradGradGradGradGradGradGradGradGradGradGradGrad
 Berny optimization.
 FormGI is forming the generalized inverse of G from B-inverse, IUseBI=4.
 Internal  Forces:  Max     0.001050430 RMS     0.000145326
 Search for a saddle point.
 Step number   3 out of a maximum of   65
 All quantities printed in internal units (Hartrees-Bohrs-Radians)
 Swapping is turned off.
 Update second derivatives using D2CorX and points    1    2    3
 ITU=  0  0  0
     Eigenvalues ---   -0.08723  -0.00705   0.00152   0.00184   0.00531
     Eigenvalues ---    0.00752   0.01689   0.02163   0.02200   0.04339
     Eigenvalues ---    0.04450   0.04462   0.05956   0.06192   0.06817
     Eigenvalues ---    0.08888   0.09433   0.09937   0.12222   0.12357
     Eigenvalues ---    0.13110   0.16593   0.16907   0.22122   0.23758
     Eigenvalues ---    0.26219   0.29733   0.32467   0.34142   0.34260
     Eigenvalues ---    0.34424   0.34890   0.35603   0.39426   0.40682
     Eigenvalues ---    0.44452   0.45291   0.81702   0.91645
 Eigenvectors required to have negative eigenvalues:
[...]
 ! D20   D(12,9,10,15)         -56.3997         -DE/DX =    0.0                 !
 --------------------------------------------------------------------------------
 GradGradGradGradGradGradGradGradGradGradGradGradGradGradGradGradGradGrad


 ----------------------------------------------------------------------

 Electric dipole moment (input orientation):
 (Debye = 10**-18 statcoulomb cm , SI units = C m)
                  (au)            (Debye)         (10**-30 SI)
   Tot        0.133156D+01      0.338450D+01      0.112895D+02
   x         -0.119562D+01     -0.303896D+01     -0.101369D+02
   y         -0.585690D+00     -0.148868D+01     -0.496569D+01
   z          0.229058D-01      0.582207D-01      0.194203D+00

 Dipole polarizability, Alpha (input orientation).
 (esu units = cm**3 , SI units = C**2 m**2 J**-1)
 Alpha(0;0):
               (au)            (10**-24 esu)      (10**-40 SI)
   iso        0.765264D+02      0.113400D+02      0.126175D+02
   aniso      0.514936D+02      0.763057D+01      0.849015D+01
   xx         0.107259D+03      0.158942D+02      0.176847D+02
   yx         0.693993D+01      0.102839D+01      0.114424D+01
   yy         0.718360D+02      0.106450D+02      0.118442D+02
   zx         0.317136D+01      0.469947D+00      0.522886D+00
   zy        -0.181195D+01     -0.268503D+00     -0.298750D+00
   zz         0.504840D+02      0.748095D+01      0.832368D+01

 ----------------------------------------------------------------------

 Dipole orientation:
     8          0.93836938         -1.13733703         -6.31432367
     1         -0.10113050          0.14918858         -5.51413431
     6          2.10187303         -3.06364817         -3.24996828
     1          3.17170932         -4.35685491         -4.36723485
     6          1.13703452         -1.99265721         -1.45826406
     6         -0.32286309         -0.22744677          0.06041971
     8         -1.50632963          1.46954550         -0.88397628
     8         -0.18490600         -0.72989404          2.51180103
     6         -1.55888914          0.95067915          4.16793821
     6         -0.10086691          3.37636527          4.60738227
     1         -1.77903907         -0.13356678          5.90139400
     1         -3.41103250          1.31647692          3.34210534
     1         -1.10948792          4.54648254          5.97441791
     1          1.77367483          2.96333342          5.35923068
     1          0.08855002          4.44280864          2.85514783

 Electric dipole moment (dipole orientation):
 (Debye = 10**-18 statcoulomb cm , SI units = C m)
                  (au)            (Debye)         (10**-30 SI)
   Tot        0.133156D+01      0.338450D+01      0.112895D+02
   x          0.000000D+00      0.000000D+00      0.000000D+00
   y          0.000000D+00      0.000000D+00      0.000000D+00
   z          0.133156D+01      0.338450D+01      0.112895D+02

 Dipole polarizability, Alpha (dipole orientation).
 (esu units = cm**3 , SI units = C**2 m**2 J**-1)
 Alpha(0;0):
               (au)            (10**-24 esu)      (10**-40 SI)
   iso        0.765264D+02      0.113400D+02      0.126175D+02
   aniso      0.514936D+02      0.763057D+01      0.849015D+01
   xx         0.574718D+02      0.851645D+01      0.947582D+01
   yx        -0.108980D+02     -0.161492D+01     -0.179684D+01
   yy         0.663071D+02      0.982569D+01      0.109326D+02
   zx        -0.695798D+01     -0.103107D+01     -0.114722D+01
   zy         0.737854D+01      0.109339D+01      0.121656D+01
   zz         0.105800D+03      0.156780D+02      0.174441D+02

 ----------------------------------------------------------------------
 1\1\GINC-AJ\Freq\UM062X\6-311++G(d,p)\C5H7O3(2)\AAYUSH\06-Jun-2025\0\\
 #N Geom=AllCheck Guess=TCheck SCRF=Check GenChk UM062X/6-311++G(d,p) F
 req\\Title Card Required\\0,2\O,3.3369254646,0.7895358246,0.1236626676
 \H,2.5782968122,1.3681753783,-0.0635223859\C,2.4043711792,-0.988256718
 2,0.2560312415\H,3.3183616675,-1.5021896697,0.4531892442\C,1.227101104
 6,-0.7481042609,0.0631797244\C,-0.0174115099,-0.0451949025,-0.20579915
 86\O,-0.0472335981,1.1449894337,-0.3817312366\O,-1.0638142302,-0.85943
 45684,-0.2348829712\C,-2.346819124,-0.2424403926,-0.4814883375\C,-2.89
 39872008,0.3951849391,0.7798938548\H,-2.9718639417,-1.0653168338,-0.82
 26814307\H,-2.2328554205,0.4870788857,-1.283911561\H,-3.8946472246,0.7
 856570358,0.5854458252\H,-2.9606340613,-0.3419569651,1.5812920556\H,-2
 .2597349169,1.221117814,1.1021694682\\Version=ES64L-G16RevA.03\State=2
 -A\HF=-420.2052423\S2=0.774452\S2-1=0.\S2A=0.750229\RMSD=1.061e-09\RMS
 F=1.176e-06\ZeroPoint=0.1123122\Thermal=0.1218644\Dipole=-1.1956193,-0
 .5856899,0.0229058\DipoleDeriv=-0.0764383,0.2858162,0.0071902,0.237196
 8,0.0485914,-0.0403198,0.0144444,-0.0319789,-0.4295104,0.1712335,0.025
 2337,-0.0265454,0.1936059,0.3282295,0.020861,-0.0493038,0.0016624,0.31
 44347,-0.7262481,-0.6608902,0.0184589,-0.4341022,-0.4484064,0.0027658,
 -0.0288417,-0.0299945,-0.0408856,0.3053469,-0.0083006,0.0125018,0.0431
 272,0.2510807,-0.0016316,0.0089104,-0.0086184,0.2005398,-0.2953963,0.5
 428034,-0.0882539,0.095034,-0.3303081,0.0438615,-0.0376825,0.1059603,-
 0.1278151,2.6487549,0.1947106,0.1582159,0.2858031,1.455143,-0.1837975,
 0.2244794,-0.1262012,0.4501896,-0.947882,0.0326987,-0.0468389,0.076611
 8,-1.0115752,0.1412238,-0.0645228,0.10751,-0.3831922,-1.9827551,-0.282
 0194,-0.01809,-0.3024996,-0.653825,0.0018424,-0.1377957,-0.0255002,-0.
 3309057,1.0205482,-0.0606896,-0.0191618,-0.2582072,0.2921336,0.0282807
 ,0.0664615,0.0688132,0.33303,-0.0880886,-0.0113517,0.0096069,0.0488912
 ,0.0108602,-0.0444136,0.0145257,-0.0898262,-0.052268,-0.0502659,-0.030
 885,-0.0192403,-0.0565858,-0.0296752,-0.0755857,-0.0215848,-0.0451731,
 0.0438521,-0.0202159,-0.0249178,0.0620769,0.0671453,0.0241221,0.066069
 9,0.0042188,0.0319954,-0.0345937,-0.0956301,0.0616468,-0.0178841,0.074
 4384,0.0767465,-0.0004222,-0.0179499,0.0170504,0.055222,0.0884928,0.01
 57354,0.0025016,-0.0089263,-0.0188264,0.0881623,0.0338928,0.0456861,-0
 .0344987,0.0485441,-0.0795905,-0.0345379,-0.0615325,0.0057094,-0.04689
 7,-0.009252,-0.0213855,0.0364013\Polar=107.2593426,6.9399283,71.836044
 2,3.1713572,-1.8119485,50.4839616\Quadrupole=1.4611239,-1.0125626,-0.4
 485613,-3.8354284,0.8371201,-0.1654345\PG=C01 [X(C5H7O3)]\NImag=1\\0.3
 2955423,-0.25176463,0.15305909,0.08102751,-0.05611575,0.02180046,-0.32
 361140,0.23573661,-0.07791169,0.32036286,0.21985546,-0.19055558,0.0572
 8896,-0.22517798,0.19604218,-0.07562344,0.05940872,-0.02128256,0.07583
 542,-0.05870237,0.02184592,0.03616773,0.09376511,-0.00808092,0.0001783
 3,0.01011549,-0.00133920,1.13094570,0.04513518,0.06464322,-0.00404340,
 -0.00596323,-0.00004205,-0.00084635,-0.51074630,0.11452542,-0.00105053
 ,0.00245507,-0.00561466,0.00097093,0.00131508,-0.00049666,0.21643319,-
 0.07548809,0.10800035,-0.00066636,-0.00917971,0.00103038,-0.00011740,-
 0.00045066,-0.00001757,-0.30614606,0.16035411,-0.06018718,0.30925863,-
 0.00295709,-0.02017417,0.00275917,-0.00107529,-0.00187031,0.00019150,0
 .18501026,-0.09889571,0.03476236,-0.15690708,0.11093690,0.00015040,0.0
 0194938,0.00131101,0.00006923,0.00027349,0.00046606,-0.06376130,0.0314
 3897,-0.04386407,0.06192379,-0.03464848,0.03063213,-0.04109369,-0.0719
 6769,0.00445559,0.00079247,-0.00372691,0.00066755,-0.85076910,0.305885
 55,-0.15357864,-0.00294803,-0.02598510,0.00235248,1.17165293,-0.011653
 59,-0.00826534,0.00013151,-0.00265422,-0.00228035,-0.00002242,0.237002
 38,-0.08398671,0.03914849,0.00474108,0.00671687,0.00066449,-0.33047350
 ,0.21923912,-0.00429678,-0.00794767,0.00404155,0.00053171,-0.00019923,
 -0.00008147,-0.14368472,0.04841458,-0.06073609,-0.00208920,-0.00345776
 ,0.00739838,0.19754232,-0.06813057,0.09313417,0.00102588,0.00384141,-0
 .00027314,0.00052149,-0.00436398,0.00054329,-0.00214213,0.00591682,-0.
 00141685,-0.00056508,0.00197370,-0.00112437,-0.21537470,0.08153444,-0.
 03132274,0.63188270,0.00543972,0.00081987,0.00051571,-0.00768965,0.000
 82219,-0.00109436,-0.01735857,0.00154157,-0.00229874,0.00160535,0.0033
 3178,0.00057330,0.08728613,-0.09002752,0.01441965,-0.01568472,0.971865
 82,-0.00052295,0.00028304,-0.00094876,0.00105492,-0.00058438,0.0010290
 3,0.00194625,0.00078916,0.00173552,-0.00105772,0.00061865,0.00558669,-
 0.03223644,0.01400214,-0.07634578,0.06002428,-0.11257195,0.23290344,-0
 .00121028,-0.00056077,-0.00021710,0.00119309,0.00233611,0.00006152,-0.
 00060340,-0.00147853,0.00010377,0.00022649,-0.00075823,0.00025920,-0.0
 0314281,0.03962403,-0.00913878,-0.10940428,0.04140257,-0.01041238,0.10
 824591,-0.00277782,0.00067242,-0.00036290,0.00482143,-0.00220426,0.000
 76655,-0.00122597,0.00280180,-0.00050815,-0.00010101,0.00051717,-0.000
 21571,0.03902158,-0.05280671,0.01601426,0.02205822,-0.72287233,0.09587
 199,-0.01371181,0.85750038,0.00014915,-0.00003991,0.00086147,-0.000331
 92,0.00039181,-0.00165919,0.00003467,-0.00054386,0.00047391,0.00015854
 ,-0.00030600,-0.00082620,-0.00903963,0.01606641,0.01769279,-0.00692102
 ,0.10007845,-0.09525963,0.01232476,-0.12066054,0.05403243,-0.00018636,
 0.00049030,-0.00011344,0.00106734,0.00185172,-0.00011949,-0.00838635,0
 .00024067,-0.00122773,0.00120102,0.00069106,0.00013892,-0.05865581,-0.
 01573405,-0.00760618,-0.24745127,-0.10330271,-0.00715149,0.00256546,-0
 .05783483,0.00239014,0.54078155,-0.00137592,-0.00035561,-0.00015135,0.
 00189739,-0.00015078,0.00031545,0.00484583,-0.00082902,0.00082743,-0.0
 0016020,-0.00067890,0.00001412,0.00361929,0.01291428,0.00041598,-0.078
 40628,-0.18285874,0.00645545,-0.06086121,-0.08021807,0.00712098,0.0726
 6198,0.37563548,0.00016119,0.00007773,-0.00010746,-0.00013888,0.000294
 06,0.00012898,-0.00172471,0.00019193,0.00052964,0.00023465,0.00013684,
 -0.00034805,-0.00963098,-0.00234521,0.00910206,-0.01302848,0.00233096,
 -0.06897774,0.00429433,0.00791590,0.03001891,0.04843654,-0.03139550,0.
 09539002,-0.00005002,-0.00044402,0.00011678,-0.00045370,-0.00070663,-0
 .00001644,0.00201852,0.00061969,0.00015034,-0.00041256,-0.00006867,-0.
 00006176,0.00156655,-0.00133912,0.00053617,-0.06459593,-0.01245776,-0.
 00941547,0.00463905,0.01720253,-0.00145506,-0.14977725,0.03203470,-0.0
 1912778,0.48381696,0.00010129,0.00019379,-0.00000338,0.00011898,0.0002
 9368,-0.00006039,-0.00184024,0.00026224,-0.00022312,0.00014820,0.00016
 179,-0.00004988,-0.00508441,-0.00198488,0.00000971,-0.01295602,0.02661
 153,-0.00580310,-0.00306292,-0.00828930,-0.00013954,0.05401071,-0.1186
 0787,0.01822137,0.10084913,0.60053996,-0.00000694,-0.00007057,-0.00008
 043,-0.00006296,-0.00008708,0.00008885,0.00027401,0.00007284,-0.000024
 85,-0.00001970,-0.00005548,-0.00036393,-0.00056381,0.00063792,0.006111
 13,-0.00939425,-0.00857522,0.00021285,-0.00047072,0.00359737,-0.006334
 68,-0.02228662,0.01638683,-0.07229460,0.00853988,-0.02302790,0.5589847
 6,0.00003428,0.00005606,-0.00001271,0.00004043,0.00013574,-0.00000305,
 -0.00050652,-0.00007712,-0.00007292,0.00007581,0.00004467,0.00011641,-
 0.00043709,-0.00041990,-0.00150125,0.00336188,0.00747045,0.00221326,-0
 .00009881,-0.00254297,0.00106835,-0.03377036,0.02108809,0.02847470,-0.
 08577079,0.00760615,0.02842882,0.57347258,0.00003903,-0.00001743,-0.00
 002685,-0.00005992,-0.00003641,0.00004953,0.00014538,0.00002066,-0.000
 02551,-0.00002204,-0.00000280,-0.00004026,0.00037037,0.00006561,0.0007
 6519,-0.00196476,0.00015503,0.00031043,0.00138429,0.00026542,-0.001740
 07,0.01654864,-0.00802993,-0.01106107,0.01032943,-0.10379640,-0.044353
 47,0.01757395,0.57213479,0.00000419,0.00000476,0.00000538,0.00001178,0
 .00005099,-0.00002302,-0.00027078,0.00003832,-0.00001435,0.00002978,0.
 00000855,0.00004665,0.00011230,-0.00029335,-0.00061292,0.00193308,0.00
 465049,0.00059889,0.00081178,-0.00239953,-0.00033241,-0.00450720,0.001
 32319,0.01035784,0.03955623,-0.04883706,-0.18665830,0.03228325,-0.0329
 1039,0.52433661,0.00000359,0.00003485,-0.00000464,0.00003800,0.0001026
 5,-0.00000576,-0.00060290,0.00010193,-0.00008058,0.00006223,0.00002806
 ,-0.00001888,-0.00126344,-0.00062124,0.00023868,-0.00127826,0.00556337
 ,-0.00278525,0.00051317,-0.00116987,0.00027896,-0.03628841,-0.02119635
 ,-0.01022746,-0.13060031,-0.11578408,-0.04551083,0.01003324,0.01063798
 ,0.00414186,0.15916704,-0.00002892,-0.00000575,0.00001213,0.00002490,-
 0.00000659,-0.00001417,0.00020631,-0.00010719,0.00005521,-0.00000649,-
 0.00002004,0.00002636,0.00063368,0.00037688,-0.00039420,0.00236607,-0.
 00360556,0.00153493,-0.00144009,0.00181247,-0.00068819,0.01799332,0.01
 334236,0.00675460,-0.12912048,-0.21785893,-0.06459995,-0.00651681,-0.0
 0910731,-0.00316406,0.12490147,0.22743782,0.00000623,-0.00000426,0.000
 00558,-0.00001570,-0.00001086,-0.00000990,-0.00004411,0.00003663,-0.00
 002597,0.00000368,-0.00000385,-0.00001587,-0.00032544,-0.00004773,0.00
 022208,0.00063607,0.00308823,-0.00062734,0.00137083,-0.00088686,0.0007
 9298,-0.00803275,-0.00424572,-0.00122104,-0.04645160,-0.06103891,-0.07
 786089,-0.01556933,-0.02303595,-0.00889483,0.05213839,0.07013786,0.080
 26775,0.00003537,0.00001224,0.00000374,-0.00001795,0.00003652,-0.00001
 045,-0.00016239,-0.00001387,-0.00006056,0.00004712,0.00000907,-0.00005
 609,-0.00030908,-0.00005277,0.00105858,0.00387090,0.00727209,-0.002034
 36,-0.00114281,-0.00358885,0.00002307,-0.01357252,0.02712826,-0.028526
 52,-0.05489893,-0.03071813,0.03081079,0.00002782,-0.00892649,0.0091047
 9,-0.00003588,-0.01098318,0.01402358,0.06603803,0.00000695,-0.00002516
 ,-0.00001752,-0.00002563,-0.00004609,0.00002835,0.00015052,0.00008065,
 -0.00004754,-0.00003136,-0.00000624,0.00000341,0.00031394,-0.00013266,
 0.00035550,-0.00382831,-0.00158951,-0.00033856,-0.00135899,0.00074237,
 -0.00111035,0.01027844,-0.01169257,0.01025399,-0.02181278,-0.17225411,
 0.13328075,0.00108783,0.01210319,-0.01280671,-0.00289467,-0.01356529,0
 .01699479,0.01762702,0.18633663,0.00001956,-0.00000562,0.00000794,-0.0
 0003513,-0.00001212,-0.00000992,0.00005432,0.00001111,0.00001821,-0.00
 000155,0.00001209,-0.00000724,-0.00007546,-0.00023574,-0.00006643,0.00
 154844,0.00423078,0.00033959,0.00145722,-0.00199824,0.00055043,-0.0063
 0420,0.00367026,-0.00257510,0.02255935,0.13103590,-0.19628669,0.004523
 02,0.01786935,-0.01993042,-0.00005769,-0.00755273,0.00968740,-0.025380
 95,-0.14448547,0.21008278,-0.00000226,0.00002018,0.00000831,0.00003748
 ,0.00006225,-0.00001803,-0.00015594,-0.00005495,-0.00000105,0.00003668
 ,-0.00000175,0.00001224,-0.00011494,0.00004447,-0.00026181,0.00172495,
 0.00064943,-0.00013165,-0.00037191,-0.00026394,0.00048474,-0.00085681,
 0.00059196,0.00271330,-0.01069600,0.00243259,-0.00459452,-0.27567800,0
 .08960024,-0.04480896,0.00036701,0.00022345,0.00018252,0.00012330,-0.0
 0031421,0.00031950,0.29786052,-0.00000434,-0.00000963,0.00000751,-0.00
 000260,-0.00002084,-0.00000654,0.00007648,0.00002452,0.00002481,-0.000
 01745,-0.00000700,-0.00000715,0.00012896,0.00006939,0.00004227,-0.0012
 2998,-0.00246735,-0.00035309,-0.00033244,0.00108826,0.00037845,0.00384
 053,-0.00015196,-0.00311588,0.01102483,-0.00556758,0.00537624,0.088720
 10,-0.08026941,0.01650028,-0.00047970,-0.00006092,0.00037587,-0.000094
 66,0.00038027,-0.00001570,-0.09878424,0.08397308,-0.00001055,-0.000005
 94,0.00001702,-0.00000645,-0.00003408,-0.00001087,0.00019362,-0.000018
 38,0.00001367,-0.00001811,-0.00001442,-0.00003056,0.00018200,0.0002032
 1,0.00041345,-0.00139641,-0.00271574,-0.00051876,-0.00001375,0.0011882
 4,-0.00012428,0.00675383,-0.00322654,-0.00479108,0.02398166,-0.0075822
 4,0.00843458,-0.04657629,0.01761250,-0.05701028,-0.00082144,-0.0000567
 7,0.00104012,-0.00039473,0.00113055,0.00057459,0.04854664,-0.01759878,
 0.05829050,-0.00001542,-0.00002004,-0.00001641,0.00000747,-0.00002311,
 0.00001377,0.00004870,0.00004221,0.00000361,-0.00002131,-0.00000572,0.
 00000636,0.00000897,0.00006005,-0.00003949,-0.00090694,-0.00151897,0.0
 0024627,-0.00033722,0.00087246,0.00009163,0.00198708,-0.00078682,-0.00
 070452,-0.00275461,-0.00783145,0.01027652,-0.04805241,-0.01205782,0.01
 024841,0.00019590,0.00025305,-0.00079234,-0.00019014,0.00119616,0.0021
 7256,0.00347403,0.02011226,-0.02255880,0.04737942,-0.00000928,-0.00000
 102,-0.00001993,0.00001537,0.00000648,0.00001523,-0.00003873,-0.000008
 36,-0.00000559,0.00000501,-0.00000007,0.00001360,-0.00005659,0.0000742
 9,-0.00012249,0.00029024,-0.00029309,0.00034917,-0.00037080,0.00032746
 ,0.00024773,-0.00191751,0.00084966,0.00061581,0.00165275,0.01138816,-0
 .01354499,-0.01195334,-0.17688832,0.13717343,-0.00043488,0.00091287,0.
 00069653,0.00183187,-0.00092440,-0.00295938,-0.00168217,-0.00778520,0.
 00673978,0.01172673,0.18731887,0.00000534,0.00000323,0.00000987,-0.000
 00829,-0.00000622,-0.00000870,0.00004578,-0.00002514,0.00000989,-0.000
 00254,0.00000611,-0.00000090,0.00007210,0.00000984,-0.00003967,0.00022
 667,0.00037687,-0.00013337,-0.00007784,-0.00022051,0.00019108,-0.00130
 513,0.00003608,0.00285324,0.00119159,0.02075058,-0.02366451,0.01173469
 ,0.13429576,-0.19138770,-0.00044169,0.00000600,0.00090464,0.00201202,-
 0.00361822,-0.00338838,0.00028281,0.00226559,-0.00361221,-0.01418999,-
 0.14665020,0.20995948,0.00001471,-0.00001991,-0.00001225,-0.00003850,-
 0.00004668,0.00003189,0.00011581,0.00003784,0.00001421,-0.00003117,0.0
 0000209,-0.00000662,0.00008777,-0.00005804,0.00003349,-0.00066920,0.00
 132326,0.00026275,-0.00107164,-0.00075915,0.00074361,0.00134269,-0.001
 08072,-0.00120537,0.00796903,0.01201020,0.00458032,-0.14273203,-0.1235
 9828,-0.04865052,-0.00031099,0.00149373,0.00286997,0.00018717,-0.00039
 490,-0.00079900,-0.01574812,-0.02295775,-0.00786120,-0.00082349,0.0009
 4132,0.00045447,0.15170797,-0.00000602,0.00002128,0.00002611,0.0000338
 4,0.00004874,-0.00002874,-0.00010796,-0.00003103,0.00000828,0.00002224
 ,-0.00000927,0.00000435,0.00003471,0.00002772,-0.00018522,0.00045314,-
 0.00143370,-0.00056389,-0.00081121,0.00066291,0.00094463,0.00018173,0.
 00083168,0.00112448,-0.00776359,-0.01109208,-0.00503729,-0.12227290,-0
 .20659669,-0.05933888,0.00121047,0.00045518,-0.00205576,0.00046089,0.0
 0059292,0.00043550,0.00747666,0.01080437,0.00437861,-0.01201898,-0.014
 97732,-0.00722975,0.13310699,0.22069529,-0.00001238,0.00000779,-0.0000
 2643,0.00003704,0.00002194,0.00002345,-0.00007610,-0.00002831,-0.00000
 456,0.00001275,-0.00000928,0.00001590,0.00006607,0.00021101,-0.0002332
 4,-0.00003456,-0.00300844,0.00040536,-0.00035285,0.00189814,-0.0000775
 9,0.00093482,0.00245333,0.00193438,-0.02010389,-0.02325203,-0.01026329
 ,-0.04510695,-0.05770919,-0.07048115,0.00315633,-0.00205702,-0.0042647
 1,-0.00057292,0.00037704,0.00100323,-0.00273404,-0.00387387,-0.0026858
 9,0.01524242,0.01745129,0.00830724,0.04954425,0.06751759,0.07634730\\-
 0.00000021,0.00000097,-0.00000063,-0.00000030,0.00000052,-0.00000169,0
 .00000018,0.00000098,0.00000218,0.00000032,0.00000154,0.00000311,0.000
 00025,0.00000036,0.00000153,0.00000008,-0.00000047,0.00000025,-0.00000
 021,-0.00000054,-0.00000176,0.00000028,-0.00000069,0.00000134,0.000000
 13,-0.00000139,0.00000011,-0.00000020,0.00000052,-0.00000098,0.0000004
 4,-0.00000212,0.00000139,0.00000012,-0.00000266,-0.00000103,-0.0000002
 6,-0.00000003,-0.00000179,-0.00000016,0.00000180,0.00000019,-0.0000004
 5,0.00000119,-0.00000222\\\@


 THESE ARE THE TIMES THAT TRY MENS SOULS.
 THE SUMMER SOLDIER AND THE SUNSHINE PATRIOT WILL IN THIS CRISIS,
 SHRINK FROM THE SERVICE OF HIS COUNTRY.  BUT HE THAT STANDS NOW,
 DESERVES THE LOVE AND THANKS OF MAN AND WOMAN.
 TYRANNY, LIKE HELL, IS NOT EASILY CONQUERED,
 YET WE HAVE THIS CONSOLATION WITH US,
 THAT THE HARDER THE CONFLICT, THE MORE GLORIOUS THE TRIUMPH.
 WHAT WE OBTAIN TOO CHEAP, WE ESTEEM TOO LIGHTLY, 
 'TIS DEARNESS ONLY THAT GIVES EVERYTHING ITS VALUE.

                                              -- TOM PAINE
 Job cpu time:       0 days  0 hours 44 minutes 32.2 seconds.
 Elapsed time:       0 days  0 hours  1 minutes 51.6 seconds.
 File lengths (MBytes):  RWF=    153 Int=      0 D2E=      0 Chk=      9 Scr=      1
 Normal termination of Gaussian 16 at Fri Jun  6 19:09:00 2025.
