 Entering Gaussian System, Link 0=g16
 Initial command:
 /opt/g16/l1.exe "/home/aayush/scratches/g16/Gau-34722.inp" -scrdir="/home/aayush/scratches/g16/"
 Entering Link 1 = /opt/g16/l1.exe PID=     34725.
  
 Copyright (c) 1988,1990,1992,1993,1995,1998,2003,2009,2016,
            Gaussian, Inc.  All Rights Reserved.
  
 This is part of the Gaussian(R) 16 program.  It is based on
 the Gaussian(R) 09 system (copyright 2009, Gaussian, Inc.),
 the Gaussian(R) 03 system (copyright 2003, Gaussian, Inc.),
 the Gaussian(R) 98 system (copyright 1998, Gaussian, Inc.),
 the Gaussian(R) 94 system (copyright 1995, Gaussian, Inc.),
 the Gaussian 92(TM) system (copyright 1992, Gaussian, Inc.),
 the Gaussian 90(TM) system (copyright 1990, Gaussian, Inc.),
 the Gaussian 88(TM) system (copyright 1988, Gaussian, Inc.),
 the Gaussian 86(TM) system (copyright 1986, Carnegie Mellon
 University), and the Gaussian 82(TM) system (copyright 1983,
 Carnegie Mellon University). Gaussian is a federally registered
 trademark of Gaussian, Inc.
  
 This software contains proprietary and confidential information,
 including trade secrets, belonging to Gaussian, Inc.
  
 This software is provided under written license and may be
 used, copied, transmitted, or stored only in accord with that
 written license.
  
 The following legend is applicable only to US Government
 contracts under FAR:
  
                    RESTRICTED RIGHTS LEGEND
  
 Use, reproduction and disclosure by the US Government is
 subject to restrictions as set forth in subparagraphs (a)
 and (c) of the Commercial Computer Software - Restricted
 Rights clause in FAR 52.227-19.
  
 Gaussian, Inc.
 340 Quinnipiac St., Bldg. 40, Wallingford CT 06492
  
  
 ---------------------------------------------------------------
 Warning -- This program may not be used in any manner that
 competes with the business of Gaussian, Inc. or will provide
 assistance to any competitor of Gaussian, Inc.  The licensee
 of this program is prohibited from giving any competitor of
 Gaussian, Inc. access to this program.  By using this program,
 the user acknowledges that Gaussian, Inc. is engaged in the
 business of creating and licensing software in the field of
 computational chemistry and represents and warrants to the
 licensee that it is not a competitor of Gaussian, Inc. and that
 it will not use this program in any manner prohibited above.
 ---------------------------------------------------------------
  

 Cite this work as:
 Gaussian 16, Revision A.03,
 M. J. Frisch, G. W. Trucks, H. B. Schlegel, G. E. Scuseria, 
 M. A. Robb, J. R. Cheeseman, G. Scalmani, V. Barone, 
 G. A. Petersson, H. Nakatsuji, X. Li, M. Caricato, A. V. Marenich, 
 J. Bloino, B. G. Janesko, R. Gomperts, B. Mennucci, H. P. Hratchian, 
 J. V. Ortiz, A. F. Izmaylov, J. L. Sonnenberg, D. Williams-Young, 
 F. Ding, F. Lipparini, F. Egidi, J. Goings, B. Peng, A. Petrone, 
 T. Henderson, D. Ranasinghe, V. G. Zakrzewski, J. Gao, N. Rega, 
 G. Zheng, W. Liang, M. Hada, M. Ehara, K. Toyota, R. Fukuda, 
 J. Hasegawa, M. Ishida, T. Nakajima, Y. Honda, O. Kitao, H. Nakai, 
 T. Vreven, K. Throssell, J. A. Montgomery, Jr., J. E. Peralta, 
 F. Ogliaro, M. J. Bearpark, J. J. Heyd, E. N. Brothers, K. N. Kudin, 
 V. N. Staroverov, T. A. Keith, R. Kobayashi, J. Normand, 
 K. Raghavachari, A. P. Rendell, J. C. Burant, S. S. Iyengar, 
 J. Tomasi, M. Cossi, J. M. Millam, M. Klene, C. Adamo, R. Cammi, 
 J. W. Ochterski, R. L. Martin, K. Morokuma, O. Farkas, 
 J. B. Foresman, and D. J. Fox, Gaussian, Inc., Wallingford CT, 2016.
 
 ******************************************
 Gaussian 16:  ES64L-G16RevA.03 25-Dec-2016
                 8-Jun-2025 
 ******************************************
 %chk=ethyl_propiolate.chk
 %nprocshared=24
 Will use up to   24 processors via shared memory.
 %mem=12GB
 -----------------------
 # ccsd(t)/6-311++g** sp
 -----------------------
 1/38=1,172=1/1;
 2/12=2,17=6,18=5,40=1/2;
 3/5=4,6=6,7=1111,11=9,25=1,30=1/1,2,3;
 4//1;
 5/5=2,38=5/2;
 8/6=4,9=120000,10=2/1,4;
 9/5=7,14=2/13;
 6/7=2,8=2,9=2,10=2/1;
 99/5=1,9=1/99;
 -------------------
 Title Card Required
 -------------------
 Symbolic Z-matrix:
 Charge =  0 Multiplicity = 2
 O                     2.10051   1.37596   0.08053 
 H                     2.95745   1.27141   0.56069 
 C                     2.49072  -1.1267   -0.63227 
 H                     3.35364  -1.61435  -1.02643 
 C                     1.53971  -0.48295  -0.194 
 C                     0.19728  -0.22577   0.32016 
 O                    -0.16441  -0.50961   1.45852 
 O                    -0.58868   0.34532  -0.61534 
 C                    -1.95558   0.71839  -0.21424 
 C                    -2.87537  -0.48791  -0.26793 
 H                    -2.22858   1.48252  -0.94035 
 H                    -1.90851   1.15144   0.78764 
 H                    -3.90173  -0.18109  -0.04536 
 H                    -2.8577   -0.9366   -1.26423 
 H                    -2.57451  -1.23709   0.468 
 
                          Input orientation:                          
 ---------------------------------------------------------------------
 Center     Atomic      Atomic             Coordinates (Angstroms)
 Number     Number       Type             X           Y           Z
 ---------------------------------------------------------------------
      1          8           0        2.100506    1.375958    0.080528
      2          1           0        2.957453    1.271412    0.560693
      3          6           0        2.490718   -1.126703   -0.632268
      4          1           0        3.353641   -1.614346   -1.026432
      5          6           0        1.539713   -0.482949   -0.194001
      6          6           0        0.197283   -0.225769    0.320161
      7          8           0       -0.164412   -0.509610    1.458519
      8          8           0       -0.588677    0.345323   -0.615338
      9          6           0       -1.955575    0.718389   -0.214237
     10          6           0       -2.875372   -0.487907   -0.267930
     11          1           0       -2.228583    1.482524   -0.940350
     12          1           0       -1.908514    1.151440    0.787644
     13          1           0       -3.901728   -0.181085   -0.045355
     14          1           0       -2.857700   -0.936596   -1.264229
     15          1           0       -2.574505   -1.237088    0.468001
 ---------------------------------------------------------------------
                    Distance matrix (angstroms):
                    1          2          3          4          5
     1  O    0.000000
     2  H    0.987849   0.000000
     3  C    2.631284   2.718815   0.000000
     4  H    3.426022   3.317157   1.066676   0.000000
     5  C    1.960967   2.378515   1.229190   2.294196   0.000000
     6  C    2.499042   3.149277   2.641713   3.701899   1.460350
     7  O    3.253318   3.704615   3.435391   4.446585   2.373937
     8  O    2.962793   3.849120   3.413183   4.421671   2.322413
     9  C    4.119597   5.004418   4.832043   5.855689   3.696033
    10  C    5.324920   6.148469   5.416246   6.375327   4.415707
    11  H    4.449108   5.403024   5.401369   6.384296   4.315110
    12  H    4.077090   4.872734   5.153574   6.215362   3.940193
    13  H    6.202180   7.037429   6.488607   7.460371   5.451834
    14  H    5.633834   6.482410   5.388979   6.252731   4.548453
    15  H    5.369718   6.074843   5.184521   6.125240   4.234827
                    6          7          8          9         10
     6  C    0.000000
     7  O    1.227700   0.000000
     8  O    1.348717   2.282935   0.000000
     9  C    2.410770   2.741233   1.472573   0.000000
    10  C    3.139391   3.214094   2.458442   1.517913   0.000000
    11  H    3.223659   3.739515   2.021918   1.088887   2.180157
    12  H    2.559224   2.500210   2.088098   1.092480   2.176352
    13  H    4.115518   4.041917   3.402689   2.150601   1.094114
    14  H    3.514042   3.853502   2.685673   2.157612   1.092816
    15  H    2.954223   2.705346   2.760645   2.161577   1.092423
                   11         12         13         14         15
    11  H    0.000000
    12  H    1.788302   0.000000
    13  H    2.523495   2.538191   0.000000
    14  H    2.520482   3.077504   1.773822   0.000000
    15  H    3.082110   2.500156   1.772060   1.780763   0.000000
 Stoichiometry    C5H7O3(2)
 Framework group  C1[X(C5H7O3)]
 Deg. of freedom    39
 Full point group                 C1      NOp   1
 Largest Abelian subgroup         C1      NOp   1
 Largest concise Abelian subgroup C1      NOp   1
                         Standard orientation:                         
 ---------------------------------------------------------------------
 Center     Atomic      Atomic             Coordinates (Angstroms)
 Number     Number       Type             X           Y           Z
 ---------------------------------------------------------------------
      1          8           0        2.100506    1.375958    0.080528
      2          1           0        2.957453    1.271412    0.560693
      3          6           0        2.490718   -1.126703   -0.632268
      4          1           0        3.353641   -1.614346   -1.026432
      5          6           0        1.539713   -0.482949   -0.194001
      6          6           0        0.197283   -0.225769    0.320161
      7          8           0       -0.164412   -0.509610    1.458519
      8          8           0       -0.588677    0.345323   -0.615338
      9          6           0       -1.955575    0.718389   -0.214237
     10          6           0       -2.875372   -0.487907   -0.267930
     11          1           0       -2.228583    1.482524   -0.940350
     12          1           0       -1.908514    1.151440    0.787644
     13          1           0       -3.901728   -0.181085   -0.045355
     14          1           0       -2.857700   -0.936596   -1.264229
     15          1           0       -2.574505   -1.237088    0.468001
 ---------------------------------------------------------------------
 Rotational constants (GHZ):           3.9767483           1.1586990           1.1028632
 Standard basis: 6-311++G(d,p) (5D, 7F)
 There are   233 symmetry adapted cartesian basis functions of A   symmetry.
 There are   225 symmetry adapted basis functions of A   symmetry.
   225 basis functions,   351 primitive gaussians,   233 cartesian basis functions
    31 alpha electrons       30 beta electrons
       nuclear repulsion energy       356.8514520774 Hartrees.
 NAtoms=   15 NActive=   15 NUniq=   15 SFac= 1.00D+00 NAtFMM=   60 NAOKFM=F Big=F
 Integral buffers will be    131072 words long.
 Raffenetti 2 integral format.
 Two-electron integral symmetry is turned on.
 One-electron integrals computed using PRISM.
 NBasis=   225 RedAO= T EigKep=  3.19D-06  NBF=   225
 NBsUse=   225 1.00D-06 EigRej= -1.00D+00 NBFU=   225
 ExpMin= 3.60D-02 ExpMax= 8.59D+03 ExpMxC= 1.30D+03 IAcc=3 IRadAn=         5 AccDes= 0.00D+00
 Harris functional with IExCor=  205 and IRadAn=       5 diagonalized for initial guess.
 HarFok:  IExCor=  205 AccDes= 0.00D+00 IRadAn=         5 IDoV= 1 UseB2=F ITyADJ=14
 ICtDFT=  3500011 ScaDFX=  1.000000  1.000000  1.000000  1.000000
 FoFCou: FMM=F IPFlag=           0 FMFlag=      100000 FMFlg1=           0
         NFxFlg=           0 DoJE=T BraDBF=F KetDBF=T FulRan=T
         wScrn=  0.000000 ICntrl=       500 IOpCl=  0 I1Cent=   200000004 NGrid=           0
         NMat0=    1 NMatS0=      1 NMatT0=    0 NMatD0=    1 NMtDS0=    0 NMtDT0=    0
 Petite list used in FoFCou.
 Initial guess <Sx>= 0.0000 <Sy>= 0.0000 <Sz>= 0.5000 <S**2>= 0.7500 S= 0.5000
 Requested convergence on RMS density matrix=1.00D-08 within 128 cycles.
 Requested convergence on MAX density matrix=1.00D-06.
 Requested convergence on             energy=1.00D-06.
 No special actions if energy rises.
 Initial convergence to 1.1D-05 achieved.  Increase integral accuracy.
 SCF Done:  E(UHF) =  -417.971388291     A.U. after   36 cycles
            NFock= 36  Conv=0.57D-08     -V/T= 2.0013
 <Sx>= 0.0000 <Sy>= 0.0000 <Sz>= 0.5000 <S**2>= 1.0735 S= 0.6504
 <L.S>=  0.00000000000    
 Annihilation of the first spin contaminant:
 S**2 before annihilation     1.0735,   after     0.8186
 ExpMin= 3.60D-02 ExpMax= 8.59D+03 ExpMxC= 1.30D+03 IAcc=3 IRadAn=         5 AccDes= 0.00D+00
 HarFok:  IExCor=  205 AccDes= 0.00D+00 IRadAn=         5 IDoV=-2 UseB2=F ITyADJ=14
 ICtDFT= 12500011 ScaDFX=  1.000000  1.000000  1.000000  1.000000
 Range of M.O.s used for correlation:     9   225
 NBasis=   225 NAE=    31 NBE=    30 NFC=     8 NFV=     0
 NROrb=    217 NOA=    23 NOB=    22 NVA=   194 NVB=   195

 **** Warning!!: The largest alpha MO coefficient is  0.19726324D+03


 **** Warning!!: The largest beta MO coefficient is  0.19674218D+03

 Semi-Direct transformation.
 ModeAB=           4 MOrb=            23 LenV=    1609177093
 LASXX=    109339976 LTotXX=   109339976 LenRXX=   221407890
 LTotAB=   112067914 MaxLAS=   128413439 LenRXY=           0
 NonZer=   330747866 LenScr=   498067456 LnRSAI=   128413439
 LnScr1=   193384448 LExtra=           0 Total=   1041273233
 MaxDsk=          -1 SrtSym=           T ITran=            4
 JobTyp=1 Pass  1:  I=   1 to  23.
 (rs|ai) integrals will be sorted in core.
 ModeAB=           4 MOrb=            22 LenV=    1609177093
 LASXX=    104936601 LTotXX=   104936601 LenRXX=   190867446
 LTotAB=    85930845 MaxLAS=   122830246 LenRXY=           0
 NonZer=   295804047 LenScr=   445446144 LnRSAI=   122830246
 LnScr1=   185006592 LExtra=           0 Total=    944150428
 MaxDsk=          -1 SrtSym=           T ITran=            4
 JobTyp=2 Pass  1:  I=   1 to  22.
 (rs|ai) integrals will be sorted in core.
 SymMOI:  orbitals are not symmetric.
 Spin components of T(2) and E(2):
     alpha-alpha T2 =       0.5292997846D-01 E2=     -0.1705177037D+00
     alpha-beta  T2 =       0.2838997241D+00 E2=     -0.9312019432D+00
     beta-beta   T2 =       0.5031540611D-01 E2=     -0.1575065142D+00
 ANorm=    0.1177771246D+01
 E2 =    -0.1259226161D+01 EUMP2 =    -0.41923061445195D+03
 (S**2,0)=  0.10735D+01           (S**2,1)=  0.98748D+00
 E(PUHF)=      -0.41799727070D+03        E(PMP2)=      -0.41925343763D+03
 Keep R2 and R3 ints in memory in canonical form, NReq=652884060.
 CIDS: In Core Option IDoMem=           1.
 Iterations=  50 Convergence= 0.100D-06
 Produce multiple copies of IABC intergrals
 Iteration Nr.   1
 **********************
 DD1Dir will call FoFMem   1 times, MxPair=      1496
 NAB=   506 NAA=   253 NBB=   231.
 E(PMP3)=      -0.41927684856D+03
 MP4(R+Q)=  0.24688057D-01
 E3=       -0.28667646D-01        EUMP3=      -0.41925928210D+03
 E4(DQ)=   -0.65889849D-02        UMP4(DQ)=   -0.41926587108D+03
 E4(SDQ)=  -0.29543527D-01        UMP4(SDQ)=  -0.41928882562D+03
 DE(Corr)=  -1.2629253     E(Corr)=     -419.23431361    
 NORM(A)=   0.11881062D+01
 Iteration Nr.   2
 **********************
 DD1Dir will call FoFMem   1 times, MxPair=      1496
 NAB=   506 NAA=   253 NBB=   231.
 DE(Corr)=  -1.3087689     E(CORR)=     -419.28015724     Delta=-4.58D-02
 NORM(A)=   0.12117935D+01
 Iteration Nr.   3
 **********************
 DD1Dir will call FoFMem   1 times, MxPair=      1496
 NAB=   506 NAA=   253 NBB=   231.
 DE(Corr)=  -1.3124041     E(CORR)=     -419.28379240     Delta=-3.64D-03
 NORM(A)=   0.12274482D+01
 Iteration Nr.   4
 **********************
 DD1Dir will call FoFMem   1 times, MxPair=      1496
 NAB=   506 NAA=   253 NBB=   231.
 DE(Corr)=  -1.3213168     E(CORR)=     -419.29270509     Delta=-8.91D-03
 NORM(A)=   0.12382454D+01
 Iteration Nr.   5
 **********************
 DD1Dir will call FoFMem   1 times, MxPair=      1496
 NAB=   506 NAA=   253 NBB=   231.
 DE(Corr)=  -1.3241245     E(CORR)=     -419.29551275     Delta=-2.81D-03
 NORM(A)=   0.12431191D+01
 Iteration Nr.   6
 **********************
 DD1Dir will call FoFMem   1 times, MxPair=      1496
 NAB=   506 NAA=   253 NBB=   231.
 DE(Corr)=  -1.3249305     E(CORR)=     -419.29631880     Delta=-8.06D-04
 NORM(A)=   0.12438062D+01
 Iteration Nr.   7
 **********************
 DD1Dir will call FoFMem   1 times, MxPair=      1496
 NAB=   506 NAA=   253 NBB=   231.
 DE(Corr)=  -1.3250276     E(CORR)=     -419.29641589     Delta=-9.71D-05
 NORM(A)=   0.12439303D+01
 Iteration Nr.   8
 **********************
 DD1Dir will call FoFMem   1 times, MxPair=      1496
 NAB=   506 NAA=   253 NBB=   231.
 DE(Corr)=  -1.3250045     E(CORR)=     -419.29639283     Delta= 2.31D-05
 NORM(A)=   0.12439420D+01
 Iteration Nr.   9
 **********************
 DD1Dir will call FoFMem   1 times, MxPair=      1496
 NAB=   506 NAA=   253 NBB=   231.
 DE(Corr)=  -1.3250183     E(CORR)=     -419.29640655     Delta=-1.37D-05
 NORM(A)=   0.12438988D+01
 Iteration Nr.  10
 **********************
 DD1Dir will call FoFMem   1 times, MxPair=      1496
 NAB=   506 NAA=   253 NBB=   231.
 DE(Corr)=  -1.3249991     E(CORR)=     -419.29638738     Delta= 1.92D-05
 NORM(A)=   0.12438704D+01
 Iteration Nr.  11
 **********************
 DD1Dir will call FoFMem   1 times, MxPair=      1496
 NAB=   506 NAA=   253 NBB=   231.
 DE(Corr)=  -1.3250168     E(CORR)=     -419.29640505     Delta=-1.77D-05
 NORM(A)=   0.12439049D+01
 Iteration Nr.  12
 **********************
 DD1Dir will call FoFMem   1 times, MxPair=      1496
 NAB=   506 NAA=   253 NBB=   231.
 DE(Corr)=  -1.3250131     E(CORR)=     -419.29640139     Delta= 3.65D-06
 NORM(A)=   0.12439920D+01
 Iteration Nr.  13
 **********************
 DD1Dir will call FoFMem   1 times, MxPair=      1496
 NAB=   506 NAA=   253 NBB=   231.
 DE(Corr)=  -1.3250321     E(CORR)=     -419.29642044     Delta=-1.90D-05
 NORM(A)=   0.12440947D+01
 Iteration Nr.  14
 **********************
 DD1Dir will call FoFMem   1 times, MxPair=      1496
 NAB=   506 NAA=   253 NBB=   231.
 DE(Corr)=  -1.3250492     E(CORR)=     -419.29643750     Delta=-1.71D-05
 NORM(A)=   0.12441746D+01
 Iteration Nr.  15
 **********************
 DD1Dir will call FoFMem   1 times, MxPair=      1496
 NAB=   506 NAA=   253 NBB=   231.
 DE(Corr)=  -1.3250594     E(CORR)=     -419.29644766     Delta=-1.02D-05
 NORM(A)=   0.12442191D+01
 Iteration Nr.  16
 **********************
 DD1Dir will call FoFMem   1 times, MxPair=      1496
 NAB=   506 NAA=   253 NBB=   231.
 DE(Corr)=  -1.3250695     E(CORR)=     -419.29645782     Delta=-1.02D-05
 NORM(A)=   0.12442327D+01
 Iteration Nr.  17
 **********************
 DD1Dir will call FoFMem   1 times, MxPair=      1496
 NAB=   506 NAA=   253 NBB=   231.
 DE(Corr)=  -1.3250695     E(CORR)=     -419.29645777     Delta= 5.36D-08
 NORM(A)=   0.12442314D+01
 Iteration Nr.  18
 **********************
 DD1Dir will call FoFMem   1 times, MxPair=      1496
 NAB=   506 NAA=   253 NBB=   231.
 DE(Corr)=  -1.3250695     E(CORR)=     -419.29645774     Delta= 2.66D-08
 NORM(A)=   0.12442256D+01
 Iteration Nr.  19
 **********************
 DD1Dir will call FoFMem   1 times, MxPair=      1496
 NAB=   506 NAA=   253 NBB=   231.
 DE(Corr)=  -1.3250678     E(CORR)=     -419.29645612     Delta= 1.62D-06
 NORM(A)=   0.12442204D+01
 Iteration Nr.  20
 **********************
 DD1Dir will call FoFMem   1 times, MxPair=      1496
 NAB=   506 NAA=   253 NBB=   231.
 DE(Corr)=  -1.3250665     E(CORR)=     -419.29645477     Delta= 1.35D-06
 NORM(A)=   0.12442161D+01
 Iteration Nr.  21
 **********************
 DD1Dir will call FoFMem   1 times, MxPair=      1496
 NAB=   506 NAA=   253 NBB=   231.
 DE(Corr)=  -1.3250656     E(CORR)=     -419.29645385     Delta= 9.20D-07
 NORM(A)=   0.12442149D+01
 Iteration Nr.  22
 **********************
 DD1Dir will call FoFMem   1 times, MxPair=      1496
 NAB=   506 NAA=   253 NBB=   231.
 DE(Corr)=  -1.3250651     E(CORR)=     -419.29645339     Delta= 4.58D-07
 NORM(A)=   0.12442162D+01
 Iteration Nr.  23
 **********************
 DD1Dir will call FoFMem   1 times, MxPair=      1496
 NAB=   506 NAA=   253 NBB=   231.
 DE(Corr)=  -1.3250653     E(CORR)=     -419.29645357     Delta=-1.76D-07
 NORM(A)=   0.12442198D+01
 Iteration Nr.  24
 **********************
 DD1Dir will call FoFMem   1 times, MxPair=      1496
 NAB=   506 NAA=   253 NBB=   231.
 DE(Corr)=  -1.3250658     E(CORR)=     -419.29645413     Delta=-5.68D-07
 NORM(A)=   0.12442238D+01
 Iteration Nr.  25
 **********************
 DD1Dir will call FoFMem   1 times, MxPair=      1496
 NAB=   506 NAA=   253 NBB=   231.
 DE(Corr)=  -1.3250665     E(CORR)=     -419.29645481     Delta=-6.76D-07
 NORM(A)=   0.12442264D+01
 Iteration Nr.  26
 **********************
 DD1Dir will call FoFMem   1 times, MxPair=      1496
 NAB=   506 NAA=   253 NBB=   231.
 DE(Corr)=  -1.3250669     E(CORR)=     -419.29645521     Delta=-3.95D-07
 NORM(A)=   0.12442276D+01
 Iteration Nr.  27
 **********************
 DD1Dir will call FoFMem   1 times, MxPair=      1496
 NAB=   506 NAA=   253 NBB=   231.
 DE(Corr)=  -1.3250671     E(CORR)=     -419.29645538     Delta=-1.71D-07
 NORM(A)=   0.12442275D+01
 Iteration Nr.  28
 **********************
 DD1Dir will call FoFMem   1 times, MxPair=      1496
 NAB=   506 NAA=   253 NBB=   231.
 DE(Corr)=  -1.3250670     E(CORR)=     -419.29645527     Delta= 1.03D-07
 NORM(A)=   0.12442269D+01
 Iteration Nr.  29
 **********************
 DD1Dir will call FoFMem   1 times, MxPair=      1496
 NAB=   506 NAA=   253 NBB=   231.
 DE(Corr)=  -1.3250668     E(CORR)=     -419.29645512     Delta= 1.49D-07
 NORM(A)=   0.12442263D+01
 Iteration Nr.  30
 **********************
 DD1Dir will call FoFMem   1 times, MxPair=      1496
 NAB=   506 NAA=   253 NBB=   231.
 DE(Corr)=  -1.3250667     E(CORR)=     -419.29645498     Delta= 1.42D-07
 NORM(A)=   0.12442259D+01
 Iteration Nr.  31
 **********************
 DD1Dir will call FoFMem   1 times, MxPair=      1496
 NAB=   506 NAA=   253 NBB=   231.
 DE(Corr)=  -1.3250666     E(CORR)=     -419.29645488     Delta= 1.01D-07
 NORM(A)=   0.12442257D+01
 Iteration Nr.  32
 **********************
 DD1Dir will call FoFMem   1 times, MxPair=      1496
 NAB=   506 NAA=   253 NBB=   231.
 DE(Corr)=  -1.3250666     E(CORR)=     -419.29645484     Delta= 3.66D-08
 NORM(A)=   0.12442257D+01
 Wavefunction amplitudes converged. E(Corr)=     -419.29645484    
 Largest amplitude= 7.55D-02
 Time for triples=    37716.76 seconds.
 T4(CCSD)= -0.60239423D-01
 T5(CCSD)=  0.46094131D-02
 CCSD(T)= -0.41935208485D+03

 S**2, projected HF & approx projected MPn energies after annihilation of
 unwanted spin states (see manual for definitions):

 spins       (S**2,0) (S**2,1)    PUHF        PMP2        PMP3        PMP4
 annihilated
 s+1         0.70976  0.73378 -417.997271 -419.253438 -419.276849
 s+1,s+2     0.75090  0.74989 -417.994660 -419.250954 -419.274537
 s+1 to s+3  0.74999  0.75001 -417.994730 -419.251005 -419.274559
 s+1 to s+4  0.75000  0.75000 -417.994729 -419.251005 -419.274559
 s+1 to s+5  0.75000  0.75000 -417.994729
 s+1 to s+6  0.75000  0.75000 -417.994729

 Discarding MO integrals.

 **********************************************************************

            Population analysis using the SCF density.

 **********************************************************************

 Orbital symmetries:
 Alpha Orbitals:
       Occupied  (A) (A) (A) (A) (A) (A) (A) (A) (A) (A) (A) (A)
                 (A) (A) (A) (A) (A) (A) (A) (A) (A) (A) (A) (A)
                 (A) (A) (A) (A) (A) (A) (A)
       Virtual   (A) (A) (A) (A) (A) (A) (A) (A) (A) (A) (A) (A)
                 (A) (A) (A) (A) (A) (A) (A) (A) (A) (A) (A) (A)
                 (A) (A) (A) (A) (A) (A) (A) (A) (A) (A) (A) (A)
                 (A) (A) (A) (A) (A) (A) (A) (A) (A) (A) (A) (A)
                 (A) (A) (A) (A) (A) (A) (A) (A) (A) (A) (A) (A)
                 (A) (A) (A) (A) (A) (A) (A) (A) (A) (A) (A) (A)
                 (A) (A) (A) (A) (A) (A) (A) (A) (A) (A) (A) (A)
                 (A) (A) (A) (A) (A) (A) (A) (A) (A) (A) (A) (A)
                 (A) (A) (A) (A) (A) (A) (A) (A) (A) (A) (A) (A)
                 (A) (A) (A) (A) (A) (A) (A) (A) (A) (A) (A) (A)
                 (A) (A) (A) (A) (A) (A) (A) (A) (A) (A) (A) (A)
                 (A) (A) (A) (A) (A) (A) (A) (A) (A) (A) (A) (A)
                 (A) (A) (A) (A) (A) (A) (A) (A) (A) (A) (A) (A)
                 (A) (A) (A) (A) (A) (A) (A) (A) (A) (A) (A) (A)
                 (A) (A) (A) (A) (A) (A) (A) (A) (A) (A) (A) (A)
                 (A) (A) (A) (A) (A) (A) (A) (A) (A) (A) (A) (A)
                 (A) (A)
 Beta  Orbitals:
       Occupied  (A) (A) (A) (A) (A) (A) (A) (A) (A) (A) (A) (A)
                 (A) (A) (A) (A) (A) (A) (A) (A) (A) (A) (A) (A)
                 (A) (A) (A) (A) (A) (A)
       Virtual   (A) (A) (A) (A) (A) (A) (A) (A) (A) (A) (A) (A)
                 (A) (A) (A) (A) (A) (A) (A) (A) (A) (A) (A) (A)
                 (A) (A) (A) (A) (A) (A) (A) (A) (A) (A) (A) (A)
                 (A) (A) (A) (A) (A) (A) (A) (A) (A) (A) (A) (A)
                 (A) (A) (A) (A) (A) (A) (A) (A) (A) (A) (A) (A)
                 (A) (A) (A) (A) (A) (A) (A) (A) (A) (A) (A) (A)
                 (A) (A) (A) (A) (A) (A) (A) (A) (A) (A) (A) (A)
                 (A) (A) (A) (A) (A) (A) (A) (A) (A) (A) (A) (A)
                 (A) (A) (A) (A) (A) (A) (A) (A) (A) (A) (A) (A)
                 (A) (A) (A) (A) (A) (A) (A) (A) (A) (A) (A) (A)
                 (A) (A) (A) (A) (A) (A) (A) (A) (A) (A) (A) (A)
                 (A) (A) (A) (A) (A) (A) (A) (A) (A) (A) (A) (A)
                 (A) (A) (A) (A) (A) (A) (A) (A) (A) (A) (A) (A)
                 (A) (A) (A) (A) (A) (A) (A) (A) (A) (A) (A) (A)
                 (A) (A) (A) (A) (A) (A) (A) (A) (A) (A) (A) (A)
                 (A) (A) (A) (A) (A) (A) (A) (A) (A) (A) (A) (A)
                 (A) (A) (A)
 The electronic state is 2-A.
 Alpha  occ. eigenvalues --  -20.62359 -20.60629 -20.55305 -11.41663 -11.29749
 Alpha  occ. eigenvalues --  -11.27768 -11.27193 -11.22507  -1.45733  -1.37483
 Alpha  occ. eigenvalues --   -1.35398  -1.07950  -1.04021  -0.92379  -0.84067
 Alpha  occ. eigenvalues --   -0.75674  -0.72789  -0.69037  -0.67138  -0.64912
 Alpha  occ. eigenvalues --   -0.63983  -0.62500  -0.57560  -0.55083  -0.53391
 Alpha  occ. eigenvalues --   -0.53001  -0.50225  -0.47035  -0.45168  -0.43274
 Alpha  occ. eigenvalues --   -0.42418
 Alpha virt. eigenvalues --    0.03546   0.04579   0.05733   0.06630   0.07052
 Alpha virt. eigenvalues --    0.08296   0.09376   0.10463   0.11181   0.12353
 Alpha virt. eigenvalues --    0.13449   0.13786   0.14386   0.14907   0.16794
 Alpha virt. eigenvalues --    0.16964   0.18008   0.18609   0.18898   0.19588
 Alpha virt. eigenvalues --    0.20497   0.20795   0.21117   0.22141   0.22557
 Alpha virt. eigenvalues --    0.24358   0.25323   0.26064   0.27827   0.29287
 Alpha virt. eigenvalues --    0.29918   0.30329   0.31410   0.33339   0.34041
 Alpha virt. eigenvalues --    0.34200   0.35409   0.36968   0.38009   0.39056
 Alpha virt. eigenvalues --    0.39805   0.41041   0.42652   0.44319   0.44598
 Alpha virt. eigenvalues --    0.46200   0.46590   0.46669   0.47675   0.50259
 Alpha virt. eigenvalues --    0.50953   0.55056   0.57647   0.58645   0.60353
 Alpha virt. eigenvalues --    0.63985   0.66984   0.68197   0.68810   0.71877
 Alpha virt. eigenvalues --    0.72734   0.74282   0.79078   0.79822   0.81783
 Alpha virt. eigenvalues --    0.83582   0.86573   0.87051   0.88237   0.89259
 Alpha virt. eigenvalues --    0.89832   0.91138   0.91711   0.94708   0.97157
 Alpha virt. eigenvalues --    0.97804   1.04335   1.08870   1.10361   1.13306
 Alpha virt. eigenvalues --    1.19968   1.23758   1.24789   1.26757   1.29278
 Alpha virt. eigenvalues --    1.33665   1.37302   1.38161   1.40642   1.43145
 Alpha virt. eigenvalues --    1.44387   1.46000   1.49369   1.52148   1.54436
 Alpha virt. eigenvalues --    1.55288   1.56462   1.58370   1.60845   1.66847
 Alpha virt. eigenvalues --    1.69666   1.70742   1.73838   1.74902   1.79433
 Alpha virt. eigenvalues --    1.81043   1.82180   1.83807   1.84560   1.88160
 Alpha virt. eigenvalues --    1.88965   1.91498   1.94452   1.96434   1.98128
 Alpha virt. eigenvalues --    2.03192   2.06084   2.08607   2.10752   2.13280
 Alpha virt. eigenvalues --    2.16875   2.18837   2.25183   2.31425   2.32617
 Alpha virt. eigenvalues --    2.33058   2.36956   2.41594   2.48206   2.59834
 Alpha virt. eigenvalues --    2.63580   2.65339   2.74851   2.82077   2.83054
 Alpha virt. eigenvalues --    2.84010   2.84665   2.86913   2.91399   2.93995
 Alpha virt. eigenvalues --    2.95252   2.97092   3.01616   3.04204   3.06349
 Alpha virt. eigenvalues --    3.11103   3.12079   3.15427   3.17687   3.24094
 Alpha virt. eigenvalues --    3.25302   3.26078   3.30553   3.31762   3.36914
 Alpha virt. eigenvalues --    3.42980   3.45072   3.46050   3.47896   3.53991
 Alpha virt. eigenvalues --    3.57566   3.61979   3.65016   3.67175   3.70521
 Alpha virt. eigenvalues --    3.76932   3.83128   3.97362   4.10958   4.20623
 Alpha virt. eigenvalues --    4.22217   4.22356   4.26364   4.40128   4.51158
 Alpha virt. eigenvalues --    4.56988   4.65674   5.53468   5.54517   5.60471
 Alpha virt. eigenvalues --    5.65997   5.77231   5.90113   6.01821   6.16930
 Alpha virt. eigenvalues --    6.41416  24.67120  24.95978  25.00848  25.13794
 Alpha virt. eigenvalues --   26.07279  51.52417  51.60549  51.69415
  Beta  occ. eigenvalues --  -20.60623 -20.58686 -20.55847 -11.41231 -11.29752
  Beta  occ. eigenvalues --  -11.29321 -11.25330 -11.22507  -1.45924  -1.36288
  Beta  occ. eigenvalues --   -1.24513  -1.07748  -1.03284  -0.91063  -0.83427
  Beta  occ. eigenvalues --   -0.75195  -0.71870  -0.68776  -0.65712  -0.63461
  Beta  occ. eigenvalues --   -0.62338  -0.57964  -0.54792  -0.53420  -0.50844
  Beta  occ. eigenvalues --   -0.50142  -0.48180  -0.46583  -0.44542  -0.42263
  Beta virt. eigenvalues --    0.03640   0.04422   0.04602   0.06547   0.07039
  Beta virt. eigenvalues --    0.07957   0.08688   0.09472   0.10407   0.11723
  Beta virt. eigenvalues --    0.13010   0.13732   0.14197   0.14873   0.15801
  Beta virt. eigenvalues --    0.16990   0.17621   0.18267   0.18801   0.18927
  Beta virt. eigenvalues --    0.19972   0.20528   0.21080   0.21444   0.22388
  Beta virt. eigenvalues --    0.22687   0.24475   0.25001   0.26159   0.28506
  Beta virt. eigenvalues --    0.29253   0.29883   0.30587   0.32089   0.33704
  Beta virt. eigenvalues --    0.34733   0.35369   0.36076   0.37429   0.38085
  Beta virt. eigenvalues --    0.39222   0.39999   0.41146   0.42588   0.44149
  Beta virt. eigenvalues --    0.44644   0.46262   0.46485   0.47031   0.48201
  Beta virt. eigenvalues --    0.50131   0.51061   0.55006   0.57676   0.59010
  Beta virt. eigenvalues --    0.60739   0.64100   0.67055   0.68438   0.69711
  Beta virt. eigenvalues --    0.73470   0.75434   0.75702   0.79554   0.80201
  Beta virt. eigenvalues --    0.81847   0.85462   0.86477   0.86905   0.88376
  Beta virt. eigenvalues --    0.88601   0.89385   0.90979   0.91980   0.94264
  Beta virt. eigenvalues --    0.96890   0.97651   1.03970   1.09497   1.10624
  Beta virt. eigenvalues --    1.13281   1.20111   1.23686   1.24949   1.27267
  Beta virt. eigenvalues --    1.32599   1.34762   1.38640   1.40387   1.42164
  Beta virt. eigenvalues --    1.43406   1.44708   1.46216   1.49962   1.54321
  Beta virt. eigenvalues --    1.55374   1.56362   1.57412   1.59265   1.62749
  Beta virt. eigenvalues --    1.68441   1.70922   1.71284   1.74138   1.75963
  Beta virt. eigenvalues --    1.79763   1.81354   1.82519   1.83714   1.84692
  Beta virt. eigenvalues --    1.88095   1.88224   1.91413   1.94324   1.96371
  Beta virt. eigenvalues --    1.98008   2.03269   2.06031   2.08863   2.10884
  Beta virt. eigenvalues --    2.13449   2.16873   2.19425   2.25263   2.31838
  Beta virt. eigenvalues --    2.33187   2.33866   2.37130   2.41610   2.48222
  Beta virt. eigenvalues --    2.59872   2.63581   2.65139   2.74858   2.82071
  Beta virt. eigenvalues --    2.83012   2.84057   2.84640   2.87476   2.91574
  Beta virt. eigenvalues --    2.94140   2.95433   2.97203   3.02096   3.04228
  Beta virt. eigenvalues --    3.06773   3.11124   3.14310   3.19045   3.23855
  Beta virt. eigenvalues --    3.24458   3.25545   3.25850   3.30999   3.35200
  Beta virt. eigenvalues --    3.37586   3.44192   3.45521   3.49155   3.52768
  Beta virt. eigenvalues --    3.55016   3.57716   3.63897   3.64914   3.67150
  Beta virt. eigenvalues --    3.70696   3.76206   3.84413   3.97181   4.10586
  Beta virt. eigenvalues --    4.20624   4.22324   4.24737   4.26808   4.40112
  Beta virt. eigenvalues --    4.50903   4.56932   4.65671   5.55765   5.60228
  Beta virt. eigenvalues --    5.63600   5.67089   5.76983   5.90101   6.04139
  Beta virt. eigenvalues --    6.16829   6.41294  24.66990  24.96307  25.00852
  Beta virt. eigenvalues --   25.13794  26.07550  51.54329  51.60700  51.69125
          Condensed to atoms (all electrons):
               1          2          3          4          5          6
     1  O    8.078441   0.246371  -0.143543  -0.000458   0.290216  -0.285016
     2  H    0.246371   0.476441  -0.094374  -0.003918   0.069896   0.048788
     3  C   -0.143543  -0.094374  18.019733   0.566332  -3.016030  -8.472138
     4  H   -0.000458  -0.003918   0.566332   0.404619  -0.118665  -0.063126
     5  C    0.290216   0.069896  -3.016030  -0.118665  12.806170  -4.275401
     6  C   -0.285016   0.048788  -8.472138  -0.063126  -4.275401  18.602103
     7  O   -0.011354  -0.000153   0.011738  -0.001826   0.281582   0.125677
     8  O    0.007779   0.000175  -0.058950  -0.003006  -0.195879   0.169885
     9  C   -0.009124   0.001320  -0.178795  -0.000975  -0.444885   0.416426
    10  C    0.002755  -0.000226  -0.029186  -0.000043  -0.041769   0.034812
    11  H   -0.001000   0.000005  -0.007117   0.000132  -0.042243   0.051094
    12  H    0.000733   0.000017   0.010027  -0.000166   0.022674  -0.043790
    13  H    0.000028   0.000021   0.003147   0.000038   0.010193  -0.012597
    14  H    0.000117   0.000014  -0.003439  -0.000208   0.004946  -0.006105
    15  H   -0.000731   0.000069  -0.024874  -0.000107  -0.067073   0.072441
               7          8          9         10         11         12
     1  O   -0.011354   0.007779  -0.009124   0.002755  -0.001000   0.000733
     2  H   -0.000153   0.000175   0.001320  -0.000226   0.000005   0.000017
     3  C    0.011738  -0.058950  -0.178795  -0.029186  -0.007117   0.010027
     4  H   -0.001826  -0.003006  -0.000975  -0.000043   0.000132  -0.000166
     5  C    0.281582  -0.195879  -0.444885  -0.041769  -0.042243   0.022674
     6  C    0.125677   0.169885   0.416426   0.034812   0.051094  -0.043790
     7  O    8.045653  -0.113313   0.037298  -0.065140   0.001323  -0.017548
     8  O   -0.113313   8.261312   0.192910  -0.101072  -0.081334  -0.018355
     9  C    0.037298   0.192910   5.434083  -0.059537   0.446550   0.421709
    10  C   -0.065140  -0.101072  -0.059537   5.493796  -0.057874  -0.031095
    11  H    0.001323  -0.081334   0.446550  -0.057874   0.551359  -0.033309
    12  H   -0.017548  -0.018355   0.421709  -0.031095  -0.033309   0.513490
    13  H   -0.001275   0.016229  -0.038839   0.399264  -0.002266  -0.003767
    14  H    0.004064  -0.004541  -0.035992   0.422026  -0.004261  -0.000842
    15  H   -0.004950  -0.010684  -0.031884   0.415588   0.007319  -0.002803
              13         14         15
     1  O    0.000028   0.000117  -0.000731
     2  H    0.000021   0.000014   0.000069
     3  C    0.003147  -0.003439  -0.024874
     4  H    0.000038  -0.000208  -0.000107
     5  C    0.010193   0.004946  -0.067073
     6  C   -0.012597  -0.006105   0.072441
     7  O   -0.001275   0.004064  -0.004950
     8  O    0.016229  -0.004541  -0.010684
     9  C   -0.038839  -0.035992  -0.031884
    10  C    0.399264   0.422026   0.415588
    11  H   -0.002266  -0.004261   0.007319
    12  H   -0.003767  -0.000842  -0.002803
    13  H    0.569501  -0.031947  -0.036887
    14  H   -0.031947   0.556827  -0.045198
    15  H   -0.036887  -0.045198   0.545018
          Atomic-Atomic Spin Densities.
               1          2          3          4          5          6
     1  O    0.895864   0.015447  -0.400487  -0.005345   0.064622   0.297729
     2  H    0.015447  -0.047198   0.053011   0.000927  -0.022984  -0.036477
     3  C   -0.400487   0.053011   1.144616  -0.021903  -0.770755   1.206668
     4  H   -0.005345   0.000927  -0.021903  -0.078639   0.000292   0.013963
     5  C    0.064622  -0.022984  -0.770755   0.000292  -1.051613   0.626455
     6  C    0.297729  -0.036477   1.206668   0.013963   0.626455  -1.812922
     7  O    0.000612   0.000157  -0.009910  -0.000117   0.025855   0.009271
     8  O   -0.000172   0.000667  -0.034315  -0.000708   0.034188  -0.012115
     9  C   -0.001044   0.000519   0.012723   0.000032   0.035885  -0.045782
    10  C   -0.000878   0.000047  -0.023278  -0.000205  -0.028805   0.046955
    11  H    0.000533  -0.000055   0.007916   0.000042   0.015409  -0.020636
    12  H    0.000450  -0.000062   0.000102  -0.000001   0.001426  -0.000257
    13  H   -0.000175   0.000021  -0.001853  -0.000015  -0.003152   0.004012
    14  H    0.000252  -0.000023   0.001204   0.000010   0.002454  -0.003182
    15  H    0.000261  -0.000017   0.009796   0.000068   0.015750  -0.023396
               7          8          9         10         11         12
     1  O    0.000612  -0.000172  -0.001044  -0.000878   0.000533   0.000450
     2  H    0.000157   0.000667   0.000519   0.000047  -0.000055  -0.000062
     3  C   -0.009910  -0.034315   0.012723  -0.023278   0.007916   0.000102
     4  H   -0.000117  -0.000708   0.000032  -0.000205   0.000042  -0.000001
     5  C    0.025855   0.034188   0.035885  -0.028805   0.015409   0.001426
     6  C    0.009271  -0.012115  -0.045782   0.046955  -0.020636  -0.000257
     7  O   -0.143693  -0.000321   0.006209  -0.000307   0.000178  -0.000540
     8  O   -0.000321   0.016790  -0.003729   0.001228   0.000474   0.000405
     9  C    0.006209  -0.003729   0.005194  -0.000344  -0.002502  -0.003286
    10  C   -0.000307   0.001228  -0.000344  -0.002114   0.001723   0.001540
    11  H    0.000178   0.000474  -0.002502   0.001723  -0.002197   0.000052
    12  H   -0.000540   0.000405  -0.003286   0.001540   0.000052   0.000823
    13  H    0.000606  -0.000302   0.001744  -0.002134   0.000216  -0.000168
    14  H   -0.000559   0.000170  -0.001068   0.001880  -0.000067  -0.000041
    15  H   -0.000208   0.000208  -0.001838   0.002583  -0.000840  -0.000282
              13         14         15
     1  O   -0.000175   0.000252   0.000261
     2  H    0.000021  -0.000023  -0.000017
     3  C   -0.001853   0.001204   0.009796
     4  H   -0.000015   0.000010   0.000068
     5  C   -0.003152   0.002454   0.015750
     6  C    0.004012  -0.003182  -0.023396
     7  O    0.000606  -0.000559  -0.000208
     8  O   -0.000302   0.000170   0.000208
     9  C    0.001744  -0.001068  -0.001838
    10  C   -0.002134   0.001880   0.002583
    11  H    0.000216  -0.000067  -0.000840
    12  H   -0.000168  -0.000041  -0.000282
    13  H    0.000204   0.000198   0.000814
    14  H    0.000198  -0.000659  -0.000521
    15  H    0.000814  -0.000521  -0.002052
 Mulliken charges and spin densities:
               1          2
     1  O   -0.175214   0.867669
     2  H    0.255554  -0.036020
     3  C   -0.582531   1.173536
     4  H    0.221377  -0.091600
     5  C    0.716268  -1.054973
     6  C   -0.363052   0.250286
     7  O   -0.291778  -0.112765
     8  O   -0.061156   0.002467
     9  C   -0.150265   0.002713
    10  C   -0.382299  -0.002109
    11  H    0.171620   0.000244
    12  H    0.183025   0.000161
    13  H    0.129158   0.000016
    14  H    0.144538   0.000048
    15  H    0.184755   0.000327
 Sum of Mulliken charges =  -0.00000   1.00000
 Mulliken charges and spin densities with hydrogens summed into heavy atoms:
               1          2
     1  O    0.080340   0.831649
     3  C   -0.361153   1.081936
     5  C    0.716268  -1.054973
     6  C   -0.363052   0.250286
     7  O   -0.291778  -0.112765
     8  O   -0.061156   0.002467
     9  C    0.204380   0.003118
    10  C    0.076152  -0.001718
 Electronic spatial extent (au):  <R**2>=           1138.5468
 Charge=             -0.0000 electrons
 Dipole moment (field-independent basis, Debye):
    X=              0.9963    Y=             -0.1792    Z=             -1.3060  Tot=              1.6524
 Quadrupole moment (field-independent basis, Debye-Ang):
   XX=            -28.9093   YY=            -46.6816   ZZ=            -52.8446
   XY=             -4.3257   XZ=              1.0488   YZ=              4.6554
 Traceless Quadrupole moment (field-independent basis, Debye-Ang):
   XX=             13.9025   YY=             -3.8698   ZZ=            -10.0328
   XY=             -4.3257   XZ=              1.0488   YZ=              4.6554
 Octapole moment (field-independent basis, Debye-Ang**2):
  XXX=             41.0334  YYY=              5.8898  ZZZ=             -3.8206  XYY=              4.5456
  XXY=             -0.5433  XXZ=             -0.5241  XZZ=              2.4019  YZZ=              4.8219
  YYZ=             -0.5367  XYZ=             10.1569
 Hexadecapole moment (field-independent basis, Debye-Ang**3):
 XXXX=           -866.7718 YYYY=           -234.0304 ZZZZ=           -186.1287 XXXY=            -19.1188
 XXXZ=             -4.4668 YYYX=              2.3287 YYYZ=              4.1324 ZZZX=              5.5948
 ZZZY=              4.3805 XXYY=           -185.3333 XXZZ=           -198.2540 YYZZ=            -65.8114
 XXYZ=             31.9175 YYXZ=             -1.3347 ZZXY=             -0.4675
 N-N= 3.568514520774D+02 E-N=-1.696774634118D+03  KE= 4.174191460547D+02
 1\1\GINC-AJ\SP\UCCSD(T)-FC\6-311++G(d,p)\C5H7O3(2)\AAYUSH\08-Jun-2025\
 0\\# ccsd(t)/6-311++g** sp\\Title Card Required\\0,2\O,0,2.100506,1.37
 5958,0.080528\H,0,2.957453,1.271412,0.560693\C,0,2.490718,-1.126703,-0
 .632268\H,0,3.353641,-1.614346,-1.026432\C,0,1.539713,-0.482949,-0.194
 001\C,0,0.197283,-0.225769,0.320161\O,0,-0.164412,-0.50961,1.458519\O,
 0,-0.588677,0.345323,-0.615338\C,0,-1.955575,0.718389,-0.214237\C,0,-2
 .875372,-0.487907,-0.26793\H,0,-2.228583,1.482524,-0.94035\H,0,-1.9085
 14,1.15144,0.787644\H,0,-3.901728,-0.181085,-0.045355\H,0,-2.8577,-0.9
 36596,-1.264229\H,0,-2.574505,-1.237088,0.468001\\Version=ES64L-G16Rev
 A.03\State=2-A\HF=-417.9713883\MP2=-419.2306145\MP3=-419.2592821\MP4D=
 -419.2905591\MP4DQ=-419.2658711\PUHF=-417.9972707\PMP2-0=-419.2534376\
 PMP3-0=-419.2768486\MP4SDQ=-419.2888256\CCSD=-419.2964548\CCSD(T)=-419
 .3520849\S2=1.073454\S2-1=0.987478\S2A=0.818565\RMSD=5.744e-09\PG=C01 
 [X(C5H7O3)]\\@


 MAN IS THE MEASURE OF ALL THINGS.
  -- PROTAGORAS (5TH CENTURY B.C.)
 Job cpu time:       0 days 21 hours 13 minutes 15.0 seconds.
 Elapsed time:       0 days  0 hours 53 minutes 23.7 seconds.
 File lengths (MBytes):  RWF=  44733 Int=      0 D2E=      0 Chk=      6 Scr=      1
 Normal termination of Gaussian 16 at Sun Jun  8 04:57:53 2025.
