 Entering Gaussian System, Link 0=g16
 Initial command:
 /opt/g16/l1.exe "/home/aayush/scratches/g16/Gau-104840.inp" -scrdir="/home/aayush/scratches/g16/"
 Entering Link 1 = /opt/g16/l1.exe PID=    104843.
  
 Copyright (c) 1988,1990,1992,1993,1995,1998,2003,2009,2016,
            Gaussian, Inc.  All Rights Reserved.
  
 This is part of the Gaussian(R) 16 program.  It is based on
 the Gaussian(R) 09 system (copyright 2009, Gaussian, Inc.),
 the Gaussian(R) 03 system (copyright 2003, Gaussian, Inc.),
 the Gaussian(R) 98 system (copyright 1998, Gaussian, Inc.),
 the Gaussian(R) 94 system (copyright 1995, Gaussian, Inc.),
 the Gaussian 92(TM) system (copyright 1992, Gaussian, Inc.),
 the Gaussian 90(TM) system (copyright 1990, Gaussian, Inc.),
 the Gaussian 88(TM) system (copyright 1988, Gaussian, Inc.),
 the Gaussian 86(TM) system (copyright 1986, Carnegie Mellon
 University), and the Gaussian 82(TM) system (copyright 1983,
 Carnegie Mellon University). Gaussian is a federally registered
 trademark of Gaussian, Inc.
  
 This software contains proprietary and confidential information,
 including trade secrets, belonging to Gaussian, Inc.
  
 This software is provided under written license and may be
 used, copied, transmitted, or stored only in accord with that
 written license.
  
 The following legend is applicable only to US Government
 contracts under FAR:
  
                    RESTRICTED RIGHTS LEGEND
  
 Use, reproduction and disclosure by the US Government is
 subject to restrictions as set forth in subparagraphs (a)
 and (c) of the Commercial Computer Software - Restricted
 Rights clause in FAR 52.227-19.
  
 Gaussian, Inc.
 340 Quinnipiac St., Bldg. 40, Wallingford CT 06492
  
  
 ---------------------------------------------------------------
 Warning -- This program may not be used in any manner that
 competes with the business of Gaussian, Inc. or will provide
 assistance to any competitor of Gaussian, Inc.  The licensee
 of this program is prohibited from giving any competitor of
 Gaussian, Inc. access to this program.  By using this program,
 the user acknowledges that Gaussian, Inc. is engaged in the
 business of creating and licensing software in the field of
 computational chemistry and represents and warrants to the
 licensee that it is not a competitor of Gaussian, Inc. and that
 it will not use this program in any manner prohibited above.
 ---------------------------------------------------------------
  

 Cite this work as:
 Gaussian 16, Revision A.03,
 M. J. Frisch, G. W. Trucks, H. B. Schlegel, G. E. Scuseria, 
 M. A. Robb, J. R. Cheeseman, G. Scalmani, V. Barone, 
 G. A. Petersson, H. Nakatsuji, X. Li, M. Caricato, A. V. Marenich, 
 J. Bloino, B. G. Janesko, R. Gomperts, B. Mennucci, H. P. Hratchian, 
 J. V. Ortiz, A. F. Izmaylov, J. L. Sonnenberg, D. Williams-Young, 
 F. Ding, F. Lipparini, F. Egidi, J. Goings, B. Peng, A. Petrone, 
 T. Henderson, D. Ranasinghe, V. G. Zakrzewski, J. Gao, N. Rega, 
 G. Zheng, W. Liang, M. Hada, M. Ehara, K. Toyota, R. Fukuda, 
 J. Hasegawa, M. Ishida, T. Nakajima, Y. Honda, O. Kitao, H. Nakai, 
 T. Vreven, K. Throssell, J. A. Montgomery, Jr., J. E. Peralta, 
 F. Ogliaro, M. J. Bearpark, J. J. Heyd, E. N. Brothers, K. N. Kudin, 
 V. N. Staroverov, T. A. Keith, R. Kobayashi, J. Normand, 
 K. Raghavachari, A. P. Rendell, J. C. Burant, S. S. Iyengar, 
 J. Tomasi, M. Cossi, J. M. Millam, M. Klene, C. Adamo, R. Cammi, 
 J. W. Ochterski, R. L. Martin, K. Morokuma, O. Farkas, 
 J. B. Foresman, and D. J. Fox, Gaussian, Inc., Wallingford CT, 2016.
 
 ******************************************
 Gaussian 16:  ES64L-G16RevA.03 25-Dec-2016
                 6-Jun-2025 
 ******************************************
 %chk=ethyl_propiolate.chk
 %nprocshared=24
 Will use up to   24 processors via shared memory.
 %mem=12GB
 ------------------------------------------------------------
 # opt=(calcfc,tight,ts,noeigentest) freq 6-311++g(d,p) m062x
 ------------------------------------------------------------
 1/5=1,7=10,10=4,11=1,18=20,26=3,38=1/1,3;
 2/9=110,12=2,17=6,18=5,40=1/2;
 3/5=4,6=6,7=1111,11=2,25=1,30=1,71=2,74=-55,140=1/1,2,3;
 4//1;
 5/5=2,38=5/2;
 8/6=4,10=90,11=11/1;
 11/6=1,8=1,9=11,15=111,16=1/1,2,10;
 10/6=1,13=1/2;
 6/7=2,8=2,9=2,10=2,28=1/1;
 7/10=1,18=20,25=1/1,2,3,16;
 1/5=1,7=10,10=4,11=1,18=20,26=3/3(2);
 2/9=110/2;
 99//99;
 2/9=110/2;
 3/5=4,6=6,7=1111,11=2,25=1,30=1,71=1,74=-55/1,2,3;
 4/5=5,16=3,69=1/1;
 5/5=2,38=5/2;
 7//1,2,3,16;
 1/5=1,7=10,11=1,18=20,26=3/3(-5);
 2/9=110/2;
 6/7=2,8=2,9=2,10=2,19=2,28=1/1;
 99/9=1/99;
 -------------------
 Title Card Required
 -------------------
 Symbolic Z-matrix:
 Charge =  0 Multiplicity = 2
 O                     2.02509  -1.72813   0.34604 
 H                     2.74802  -1.51353  -0.27537 
 C                     1.82417  -0.14004   1.29072 
 H                     0.91792   0.2092    0.85427 
 C                     2.84347  -0.53294   1.78252 
 C                     4.11273  -0.98013   2.34054 
 O                     5.18269  -0.62988   1.92589 
 O                     3.91848  -1.81404   3.36249 
 C                     5.10732  -2.33617   3.98988 
 C                     5.68986  -3.48173   3.18552 
 H                     4.76581  -2.66477   4.96979 
 H                     5.82584  -1.52418   4.10739 
 H                     6.54253  -3.90627   3.71897 
 H                     4.94438  -4.26593   3.0456 
 H                     6.03262  -3.13323   2.21117 
 
 Add virtual bond connecting atoms C3         and O1         Dist= 3.51D+00.

 GradGradGradGradGradGradGradGradGradGradGradGradGradGradGradGradGradGrad
 Berny optimization.
 Initialization pass.
                           ----------------------------
                           !    Initial Parameters    !
                           ! (Angstroms and Degrees)  !
 --------------------------                            --------------------------
 ! Name  Definition              Value          Derivative Info.                !
 --------------------------------------------------------------------------------
 ! R1    R(1,2)                  0.9772         calculate D2E/DX2 analytically  !
 ! R2    R(1,3)                  1.8587         calculate D2E/DX2 analytically  !
 ! R3    R(3,4)                  1.0648         calculate D2E/DX2 analytically  !
 ! R4    R(3,5)                  1.198          calculate D2E/DX2 analytically  !
 ! R5    R(5,6)                  1.4568         calculate D2E/DX2 analytically  !
 ! R6    R(6,7)                  1.1998         calculate D2E/DX2 analytically  !
 ! R7    R(6,8)                  1.3332         calculate D2E/DX2 analytically  !
 ! R8    R(8,9)                  1.4421         calculate D2E/DX2 analytically  !
 ! R9    R(9,10)                 1.5161         calculate D2E/DX2 analytically  !
 ! R10   R(9,11)                 1.0885         calculate D2E/DX2 analytically  !
 ! R11   R(9,12)                 1.0906         calculate D2E/DX2 analytically  !
 ! R12   R(10,13)                1.0917         calculate D2E/DX2 analytically  !
 ! R13   R(10,14)                1.091          calculate D2E/DX2 analytically  !
 ! R14   R(10,15)                1.0901         calculate D2E/DX2 analytically  !
 ! A1    A(2,1,3)              102.4469         calculate D2E/DX2 analytically  !
 ! A2    A(1,3,4)               99.4343         calculate D2E/DX2 analytically  !
 ! A3    A(1,3,5)               80.5877         calculate D2E/DX2 analytically  !
 ! A4    A(5,6,7)              123.7101         calculate D2E/DX2 analytically  !
 ! A5    A(5,6,8)              111.0176         calculate D2E/DX2 analytically  !
 ! A6    A(7,6,8)              125.2717         calculate D2E/DX2 analytically  !
 ! A7    A(6,8,9)              116.0929         calculate D2E/DX2 analytically  !
 ! A8    A(8,9,10)             111.0706         calculate D2E/DX2 analytically  !
 ! A9    A(8,9,11)             104.0231         calculate D2E/DX2 analytically  !
 ! A10   A(8,9,12)             108.6904         calculate D2E/DX2 analytically  !
 ! A11   A(10,9,11)            111.7188         calculate D2E/DX2 analytically  !
 ! A12   A(10,9,12)            111.5044         calculate D2E/DX2 analytically  !
 ! A13   A(11,9,12)            109.54           calculate D2E/DX2 analytically  !
 ! A14   A(9,10,13)            109.5535         calculate D2E/DX2 analytically  !
 ! A15   A(9,10,14)            110.4018         calculate D2E/DX2 analytically  !
 ! A16   A(9,10,15)            110.6987         calculate D2E/DX2 analytically  !
 ! A17   A(13,10,14)           108.4715         calculate D2E/DX2 analytically  !
 ! A18   A(13,10,15)           108.3907         calculate D2E/DX2 analytically  !
 ! A19   A(14,10,15)           109.2695         calculate D2E/DX2 analytically  !
 ! A20   L(4,3,5,1,-1)         180.0221         calculate D2E/DX2 analytically  !
 ! A21   L(3,5,6,2,-1)         179.1158         calculate D2E/DX2 analytically  !
 ! A22   L(4,3,5,1,-2)         180.0329         calculate D2E/DX2 analytically  !
 ! A23   L(3,5,6,2,-2)         177.8008         calculate D2E/DX2 analytically  !
 ! D1    D(2,1,3,4)            105.7605         calculate D2E/DX2 analytically  !
 ! D2    D(2,1,3,5)            -74.2724         calculate D2E/DX2 analytically  !
 ! D3    D(1,3,6,7)             94.4991         calculate D2E/DX2 analytically  !
 ! D4    D(1,3,6,8)            -85.734          calculate D2E/DX2 analytically  !
 ! D5    D(5,6,8,9)            179.3849         calculate D2E/DX2 analytically  !
 ! D6    D(7,6,8,9)             -0.8882         calculate D2E/DX2 analytically  !
 ! D7    D(6,8,9,10)           -79.8164         calculate D2E/DX2 analytically  !
 ! D8    D(6,8,9,11)           159.854          calculate D2E/DX2 analytically  !
 ! D9    D(6,8,9,12)            43.2115         calculate D2E/DX2 analytically  !
 ! D10   D(8,9,10,13)         -175.7796         calculate D2E/DX2 analytically  !
 ! D11   D(8,9,10,14)          -56.3848         calculate D2E/DX2 analytically  !
 ! D12   D(8,9,10,15)           64.7415         calculate D2E/DX2 analytically  !
 ! D13   D(11,9,10,13)         -60.1223         calculate D2E/DX2 analytically  !
 ! D14   D(11,9,10,14)          59.2724         calculate D2E/DX2 analytically  !
 ! D15   D(11,9,10,15)        -179.6013         calculate D2E/DX2 analytically  !
 ! D16   D(12,9,10,13)          62.8272         calculate D2E/DX2 analytically  !
 ! D17   D(12,9,10,14)        -177.7781         calculate D2E/DX2 analytically  !
 ! D18   D(12,9,10,15)         -56.6518         calculate D2E/DX2 analytically  !
 --------------------------------------------------------------------------------
 Trust Radius=3.00D-01 FncErr=1.00D-07 GrdErr=1.00D-06 EigMax=2.50D+02 EigMin=1.00D-04
 Number of steps in this run=     65 maximum allowed number of steps=    100.
 Search for a saddle point of order  1.
 GradGradGradGradGradGradGradGradGradGradGradGradGradGradGradGradGradGrad

                          Input orientation:                          
 ---------------------------------------------------------------------
 Center     Atomic      Atomic             Coordinates (Angstroms)
 Number     Number       Type             X           Y           Z
 ---------------------------------------------------------------------
      1          8           0        2.025089   -1.728135    0.346037
      2          1           0        2.748016   -1.513529   -0.275368
      3          6           0        1.824173   -0.140044    1.290718
      4          1           0        0.917924    0.209204    0.854267
      5          6           0        2.843471   -0.532944    1.782524
      6          6           0        4.112730   -0.980130    2.340539
      7          8           0        5.182686   -0.629876    1.925890
      8          8           0        3.918476   -1.814043    3.362493
      9          6           0        5.107317   -2.336166    3.989876
     10          6           0        5.689861   -3.481732    3.185522
     11          1           0        4.765815   -2.664768    4.969785
     12          1           0        5.825844   -1.524185    4.107387
     13          1           0        6.542526   -3.906271    3.718974
     14          1           0        4.944381   -4.265927    3.045596
     15          1           0        6.032624   -3.133228    2.211169
 ---------------------------------------------------------------------
                    Distance matrix (angstroms):
                    1          2          3          4          5
     1  O    0.000000
     2  H    0.977150   0.000000
     3  C    1.858715   2.278722   0.000000
     4  H    2.288536   2.755562   1.064778   0.000000
     5  C    2.040030   2.281573   1.198004   2.262781   0.000000
     6  C    2.982582   2.998321   2.654310   3.718912   1.456837
     7  O    3.697637   3.399117   3.452968   4.476676   2.345607
     8  O    3.562485   3.833317   3.388308   4.403185   2.300685
     9  C    4.811174   4.943212   4.784082   5.819104   3.639919
    10  C    4.956645   4.950357   5.449835   6.467546   4.331938
    11  H    5.455997   5.736593   5.344438   6.324829   4.289372
    12  H    5.351176   5.355528   5.085552   6.138005   3.909232
    13  H    6.043857   6.006521   6.507207   7.535239   5.367698
    14  H    4.717019   4.840302   5.462436   6.406331   4.465908
    15  H    4.638247   4.426617   5.245707   6.258849   4.137137
                    6          7          8          9         10
     6  C    0.000000
     7  O    1.199757   0.000000
     8  O    1.333243   2.250401   0.000000
     9  C    2.355494   2.679020   1.442070   0.000000
    10  C    3.075606   3.158637   2.439326   1.516134   0.000000
    11  H    3.190213   3.685087   2.006266   1.088497   2.169075
    12  H    2.520418   2.443844   2.068076   1.090598   2.168022
    13  H    4.045528   3.974806   3.374927   2.144397   1.091715
    14  H    3.461967   3.812007   2.676684   2.154574   1.091000
    15  H    2.887656   2.659050   2.745071   2.157614   1.090095
                   11         12         13         14         15
    11  H    0.000000
    12  H    1.779978   0.000000
    13  H    2.502511   2.517704   0.000000
    14  H    2.509601   3.069451   1.771117   0.000000
    15  H    3.071518   2.495480   1.769484   1.778637   0.000000
 Stoichiometry    C5H7O3(2)
 Framework group  C1[X(C5H7O3)]
 Deg. of freedom    39
 Full point group                 C1      NOp   1
 Largest Abelian subgroup         C1      NOp   1
 Largest concise Abelian subgroup C1      NOp   1
                         Standard orientation:                         
 ---------------------------------------------------------------------
 Center     Atomic      Atomic             Coordinates (Angstroms)
 Number     Number       Type             X           Y           Z
 ---------------------------------------------------------------------
      1          8           0       -2.356574    1.309534    0.219829
      2          1           0       -2.280958    1.137404    1.178722
      3          6           0       -2.636063   -0.392853   -0.471970
      4          1           0       -3.673756   -0.320628   -0.699408
      5          6           0       -1.468377   -0.474320   -0.216854
      6          6           0       -0.062587   -0.595181    0.145808
      7          8           0        0.319472   -1.051587    1.187509
      8          8           0        0.723785   -0.139909   -0.829836
      9          6           0        2.142756   -0.195621   -0.578873
     10          6           0        2.587057    0.959086    0.297433
     11          1           0        2.588270   -0.143270   -1.570640
     12          1           0        2.379525   -1.157639   -0.122950
     13          1           0        3.672728    0.935843    0.409771
     14          1           0        2.306812    1.910767   -0.156492
     15          1           0        2.137201    0.886548    1.287723
 ---------------------------------------------------------------------
 Rotational constants (GHZ):           4.1134118           1.1309599           1.0703698
 Standard basis: 6-311++G(d,p) (5D, 7F)
 There are   233 symmetry adapted cartesian basis functions of A   symmetry.
 There are   225 symmetry adapted basis functions of A   symmetry.
   225 basis functions,   351 primitive gaussians,   233 cartesian basis functions
    31 alpha electrons       30 beta electrons
       nuclear repulsion energy       359.4366697275 Hartrees.
 NAtoms=   15 NActive=   15 NUniq=   15 SFac= 1.00D+00 NAtFMM=   60 NAOKFM=F Big=F
 Integral buffers will be    131072 words long.
 Raffenetti 2 integral format.
 Two-electron integral symmetry is turned on.
 One-electron integrals computed using PRISM.
 NBasis=   225 RedAO= T EigKep=  7.16D-06  NBF=   225
 NBsUse=   224 1.00D-06 EigRej=  8.04D-07 NBFU=   224
 ExpMin= 3.60D-02 ExpMax= 8.59D+03 ExpMxC= 1.30D+03 IAcc=3 IRadAn=         5 AccDes= 0.00D+00
 Harris functional with IExCor= 1009 and IRadAn=       5 diagonalized for initial guess.
 HarFok:  IExCor= 1009 AccDes= 0.00D+00 IRadAn=         5 IDoV= 1 UseB2=F ITyADJ=14
 ICtDFT=  3500011 ScaDFX=  1.000000  1.000000  1.000000  1.000000
 FoFCou: FMM=F IPFlag=           0 FMFlag=      100000 FMFlg1=           0
         NFxFlg=           0 DoJE=T BraDBF=F KetDBF=T FulRan=T
         wScrn=  0.000000 ICntrl=       500 IOpCl=  0 I1Cent=   200000004 NGrid=           0
         NMat0=    1 NMatS0=      1 NMatT0=    0 NMatD0=    1 NMtDS0=    0 NMtDT0=    0
 Petite list used in FoFCou.
 Initial guess <Sx>= 0.0000 <Sy>= 0.0000 <Sz>= 0.5000 <S**2>= 0.7500 S= 0.5000
 Requested convergence on RMS density matrix=1.00D-08 within 128 cycles.
 Requested convergence on MAX density matrix=1.00D-06.
 Requested convergence on             energy=1.00D-06.
 No special actions if energy rises.
 SCF Done:  E(UM062X) =  -420.187250016     A.U. after   18 cycles
            NFock= 18  Conv=0.81D-08     -V/T= 2.0028
 <Sx>= 0.0000 <Sy>= 0.0000 <Sz>= 0.5000 <S**2>= 0.7618 S= 0.5059
 <L.S>=  0.00000000000    
 Annihilation of the first spin contaminant:
 S**2 before annihilation     0.7618,   after     0.7501
 DoSCS=F DFT=T ScalE2(SS,OS)=  1.000000  1.000000
 Range of M.O.s used for correlation:     1   224
 NBasis=   225 NAE=    31 NBE=    30 NFC=     0 NFV=     0
 NROrb=    224 NOA=    31 NOB=    30 NVA=   193 NVB=   194

 **** Warning!!: The largest alpha MO coefficient is  0.98427215D+02


 **** Warning!!: The largest beta MO coefficient is  0.85179933D+02

 Symmetrizing basis deriv contribution to polar:
 IMax=3 JMax=2 DiffMx= 0.00D+00
 G2DrvN: will do    16 centers at a time, making    1 passes.
 Calling FoFCou, ICntrl=  3107 FMM=F I1Cent=   0 AccDes= 0.00D+00.
 End of G2Drv F.D. properties file   721 does not exist.
 End of G2Drv F.D. properties file   722 does not exist.
 End of G2Drv F.D. properties file   788 does not exist.
          IDoAtm=111111111111111
          Differentiating once with respect to nuclear coordinates.
 Keep R1 and R2 ints in memory in canonical form, NReq=671901989.
          There are    48 degrees of freedom in the 1st order CPHF.  IDoFFX=6 NUNeed=     0.
     42 vectors produced by pass  0 Test12= 2.46D-14 2.08D-09 XBig12= 2.80D-01 1.10D-01.
 AX will form    42 AO Fock derivatives at one time.
     42 vectors produced by pass  1 Test12= 2.46D-14 2.08D-09 XBig12= 3.82D-02 3.73D-02.
     42 vectors produced by pass  2 Test12= 2.46D-14 2.08D-09 XBig12= 1.24D-03 7.32D-03.
     42 vectors produced by pass  3 Test12= 2.46D-14 2.08D-09 XBig12= 4.00D-05 1.29D-03.
     42 vectors produced by pass  4 Test12= 2.46D-14 2.08D-09 XBig12= 6.29D-07 1.15D-04.
     42 vectors produced by pass  5 Test12= 2.46D-14 2.08D-09 XBig12= 7.68D-09 8.37D-06.
     37 vectors produced by pass  6 Test12= 2.46D-14 2.08D-09 XBig12= 7.74D-11 8.17D-07.
     21 vectors produced by pass  7 Test12= 2.46D-14 2.08D-09 XBig12= 5.82D-13 8.39D-08.
      4 vectors produced by pass  8 Test12= 2.46D-14 2.08D-09 XBig12= 3.93D-15 7.83D-09.
 InvSVY:  IOpt=1 It=  1 EMax= 1.78D-15
 Solved reduced A of dimension   314 with    42 vectors.
 End of Minotr F.D. properties file   721 does not exist.
 End of Minotr F.D. properties file   722 does not exist.
 End of Minotr F.D. properties file   788 does not exist.

 **********************************************************************

            Population analysis using the SCF density.

 **********************************************************************

 Orbital symmetries:
 Alpha Orbitals:
       Occupied  (A) (A) (A) (A) (A) (A) (A) (A) (A) (A) (A) (A)
                 (A) (A) (A) (A) (A) (A) (A) (A) (A) (A) (A) (A)
                 (A) (A) (A) (A) (A) (A) (A)
       Virtual   (A) (A) (A) (A) (A) (A) (A) (A) (A) (A) (A) (A)
                 (A) (A) (A) (A) (A) (A) (A) (A) (A) (A) (A) (A)
                 (A) (A) (A) (A) (A) (A) (A) (A) (A) (A) (A) (A)
                 (A) (A) (A) (A) (A) (A) (A) (A) (A) (A) (A) (A)
                 (A) (A) (A) (A) (A) (A) (A) (A) (A) (A) (A) (A)
                 (A) (A) (A) (A) (A) (A) (A) (A) (A) (A) (A) (A)
                 (A) (A) (A) (A) (A) (A) (A) (A) (A) (A) (A) (A)
                 (A) (A) (A) (A) (A) (A) (A) (A) (A) (A) (A) (A)
                 (A) (A) (A) (A) (A) (A) (A) (A) (A) (A) (A) (A)
                 (A) (A) (A) (A) (A) (A) (A) (A) (A) (A) (A) (A)
                 (A) (A) (A) (A) (A) (A) (A) (A) (A) (A) (A) (A)
                 (A) (A) (A) (A) (A) (A) (A) (A) (A) (A) (A) (A)
                 (A) (A) (A) (A) (A) (A) (A) (A) (A) (A) (A) (A)
                 (A) (A) (A) (A) (A) (A) (A) (A) (A) (A) (A) (A)
                 (A) (A) (A) (A) (A) (A) (A) (A) (A) (A) (A) (A)
                 (A) (A) (A) (A) (A) (A) (A) (A) (A) (A) (A) (A)
                 (A)
 Beta  Orbitals:
       Occupied  (A) (A) (A) (A) (A) (A) (A) (A) (A) (A) (A) (A)
                 (A) (A) (A) (A) (A) (A) (A) (A) (A) (A) (A) (A)
                 (A) (A) (A) (A) (A) (A)
       Virtual   (A) (A) (A) (A) (A) (A) (A) (A) (A) (A) (A) (A)
                 (A) (A) (A) (A) (A) (A) (A) (A) (A) (A) (A) (A)
                 (A) (A) (A) (A) (A) (A) (A) (A) (A) (A) (A) (A)
                 (A) (A) (A) (A) (A) (A) (A) (A) (A) (A) (A) (A)
                 (A) (A) (A) (A) (A) (A) (A) (A) (A) (A) (A) (A)
                 (A) (A) (A) (A) (A) (A) (A) (A) (A) (A) (A) (A)
                 (A) (A) (A) (A) (A) (A) (A) (A) (A) (A) (A) (A)
                 (A) (A) (A) (A) (A) (A) (A) (A) (A) (A) (A) (A)
                 (A) (A) (A) (A) (A) (A) (A) (A) (A) (A) (A) (A)
                 (A) (A) (A) (A) (A) (A) (A) (A) (A) (A) (A) (A)
                 (A) (A) (A) (A) (A) (A) (A) (A) (A) (A) (A) (A)
                 (A) (A) (A) (A) (A) (A) (A) (A) (A) (A) (A) (A)
                 (A) (A) (A) (A) (A) (A) (A) (A) (A) (A) (A) (A)
                 (A) (A) (A) (A) (A) (A) (A) (A) (A) (A) (A) (A)
                 (A) (A) (A) (A) (A) (A) (A) (A) (A) (A) (A) (A)
                 (A) (A) (A) (A) (A) (A) (A) (A) (A) (A) (A) (A)
                 (A) (A)
 The electronic state is 2-A.
 Alpha  occ. eigenvalues --  -19.68324 -19.64640 -19.63390 -10.70855 -10.60651
 Alpha  occ. eigenvalues --  -10.60333 -10.58551 -10.53782  -1.25846  -1.16666
 Alpha  occ. eigenvalues --   -1.12588  -0.91713  -0.87948  -0.78714  -0.71373
 Alpha  occ. eigenvalues --   -0.64919  -0.62914  -0.58777  -0.57177  -0.55031
 Alpha  occ. eigenvalues --   -0.53702  -0.50617  -0.48698  -0.46631  -0.45408
 Alpha  occ. eigenvalues --   -0.42182  -0.41705  -0.39249  -0.38959  -0.37183
 Alpha  occ. eigenvalues --   -0.29166
 Alpha virt. eigenvalues --   -0.00850  -0.00222   0.00498   0.01585   0.02328
 Alpha virt. eigenvalues --    0.02670   0.02875   0.04404   0.05540   0.06340
 Alpha virt. eigenvalues --    0.06903   0.07644   0.08452   0.09729   0.09818
 Alpha virt. eigenvalues --    0.10876   0.11591   0.12346   0.12921   0.13340
 Alpha virt. eigenvalues --    0.14087   0.14643   0.15237   0.15321   0.16158
 Alpha virt. eigenvalues --    0.17019   0.17886   0.18245   0.19311   0.20731
 Alpha virt. eigenvalues --    0.21181   0.22374   0.23519   0.24822   0.25171
 Alpha virt. eigenvalues --    0.26577   0.27102   0.28141   0.28928   0.29880
 Alpha virt. eigenvalues --    0.30948   0.31304   0.32135   0.32822   0.34524
 Alpha virt. eigenvalues --    0.34703   0.36835   0.36949   0.40025   0.40185
 Alpha virt. eigenvalues --    0.42580   0.44461   0.46562   0.48692   0.50098
 Alpha virt. eigenvalues --    0.52631   0.54210   0.55546   0.58697   0.59036
 Alpha virt. eigenvalues --    0.61072   0.63710   0.64604   0.67059   0.68436
 Alpha virt. eigenvalues --    0.69421   0.70347   0.70858   0.73463   0.74867
 Alpha virt. eigenvalues --    0.75286   0.76341   0.78731   0.81166   0.83484
 Alpha virt. eigenvalues --    0.89031   0.92178   0.96208   1.00694   1.01459
 Alpha virt. eigenvalues --    1.05453   1.06835   1.09453   1.11978   1.15225
 Alpha virt. eigenvalues --    1.15898   1.17150   1.19429   1.22065   1.23497
 Alpha virt. eigenvalues --    1.24513   1.28509   1.30876   1.34377   1.34987
 Alpha virt. eigenvalues --    1.35665   1.37449   1.39307   1.45102   1.49040
 Alpha virt. eigenvalues --    1.50604   1.51202   1.53088   1.57888   1.59369
 Alpha virt. eigenvalues --    1.60127   1.61921   1.62388   1.64617   1.66073
 Alpha virt. eigenvalues --    1.67692   1.69814   1.73259   1.74519   1.77344
 Alpha virt. eigenvalues --    1.80337   1.84357   1.85090   1.86911   1.92367
 Alpha virt. eigenvalues --    1.96166   2.00415   2.02103   2.05478   2.09153
 Alpha virt. eigenvalues --    2.10676   2.13232   2.21189   2.31284   2.35497
 Alpha virt. eigenvalues --    2.41662   2.47884   2.51370   2.53912   2.55650
 Alpha virt. eigenvalues --    2.56403   2.61566   2.62448   2.63924   2.65472
 Alpha virt. eigenvalues --    2.67262   2.71283   2.71582   2.74200   2.78301
 Alpha virt. eigenvalues --    2.81487   2.82224   2.91199   2.92892   2.94649
 Alpha virt. eigenvalues --    2.97646   3.00478   3.04088   3.06780   3.11235
 Alpha virt. eigenvalues --    3.15140   3.18165   3.21382   3.22875   3.25216
 Alpha virt. eigenvalues --    3.29030   3.31221   3.37568   3.43649   3.45330
 Alpha virt. eigenvalues --    3.57043   3.66118   3.73552   3.84977   3.86254
 Alpha virt. eigenvalues --    3.89904   3.91159   4.03905   4.12746   4.18153
 Alpha virt. eigenvalues --    4.28080   5.13454   5.16048   5.16396   5.18819
 Alpha virt. eigenvalues --    5.32712   5.46051   5.57564   5.72673   5.94590
 Alpha virt. eigenvalues --   23.62781  23.93600  23.94213  24.05869  25.15493
 Alpha virt. eigenvalues --   49.98637  49.99961  50.11268
  Beta  occ. eigenvalues --  -19.68296 -19.63277 -19.63251 -10.70887 -10.60652
  Beta  occ. eigenvalues --  -10.60331 -10.58213 -10.53780  -1.25711  -1.16421
  Beta  occ. eigenvalues --   -1.08022  -0.90452  -0.87367  -0.78465  -0.71083
  Beta  occ. eigenvalues --   -0.64793  -0.62643  -0.58510  -0.56443  -0.53775
  Beta  occ. eigenvalues --   -0.52267  -0.49369  -0.46755  -0.45428  -0.42545
  Beta  occ. eigenvalues --   -0.41831  -0.39726  -0.38447  -0.37380  -0.36313
  Beta virt. eigenvalues --   -0.06410  -0.00276   0.00599   0.00784   0.02140
  Beta virt. eigenvalues --    0.02435   0.02881   0.03387   0.04672   0.05716
  Beta virt. eigenvalues --    0.06361   0.07126   0.07818   0.08771   0.09897
  Beta virt. eigenvalues --    0.10214   0.11072   0.11744   0.12314   0.12845
  Beta virt. eigenvalues --    0.13413   0.14232   0.14780   0.15325   0.15419
  Beta virt. eigenvalues --    0.16414   0.17350   0.18148   0.18241   0.19518
  Beta virt. eigenvalues --    0.20810   0.21164   0.22190   0.23595   0.24814
  Beta virt. eigenvalues --    0.25418   0.26609   0.26684   0.28303   0.29047
  Beta virt. eigenvalues --    0.29957   0.30842   0.31365   0.32252   0.32926
  Beta virt. eigenvalues --    0.34556   0.34855   0.36878   0.36906   0.40076
  Beta virt. eigenvalues --    0.40365   0.42687   0.44575   0.46594   0.48835
  Beta virt. eigenvalues --    0.50172   0.52685   0.54520   0.55816   0.58875
  Beta virt. eigenvalues --    0.59055   0.61278   0.63710   0.64710   0.67288
  Beta virt. eigenvalues --    0.68746   0.69482   0.70594   0.70922   0.73542
  Beta virt. eigenvalues --    0.74916   0.75351   0.76492   0.78790   0.81309
  Beta virt. eigenvalues --    0.83598   0.89583   0.92180   0.96233   1.01287
  Beta virt. eigenvalues --    1.01529   1.05830   1.07017   1.10015   1.14041
  Beta virt. eigenvalues --    1.15480   1.16470   1.18157   1.20155   1.22590
  Beta virt. eigenvalues --    1.23724   1.25149   1.28844   1.31652   1.34469
  Beta virt. eigenvalues --    1.35507   1.35775   1.37721   1.39362   1.45409
  Beta virt. eigenvalues --    1.49253   1.50826   1.51450   1.53540   1.57966
  Beta virt. eigenvalues --    1.59411   1.60340   1.62177   1.62983   1.65118
  Beta virt. eigenvalues --    1.66323   1.68203   1.69878   1.73328   1.74637
  Beta virt. eigenvalues --    1.78159   1.80392   1.84708   1.85440   1.87057
  Beta virt. eigenvalues --    1.92645   1.96279   2.00731   2.02263   2.05721
  Beta virt. eigenvalues --    2.09313   2.11336   2.13240   2.21207   2.31299
  Beta virt. eigenvalues --    2.35520   2.42504   2.48109   2.51384   2.53957
  Beta virt. eigenvalues --    2.55814   2.56783   2.61808   2.62473   2.64165
  Beta virt. eigenvalues --    2.65519   2.67280   2.71639   2.72092   2.74423
  Beta virt. eigenvalues --    2.79013   2.81567   2.82373   2.91308   2.94737
  Beta virt. eigenvalues --    2.95612   2.98336   3.00933   3.04824   3.10643
  Beta virt. eigenvalues --    3.11618   3.15288   3.19500   3.22940   3.24939
  Beta virt. eigenvalues --    3.25412   3.29724   3.31522   3.37805   3.43985
  Beta virt. eigenvalues --    3.46031   3.57280   3.66315   3.73773   3.84983
  Beta virt. eigenvalues --    3.86261   3.90735   3.92771   4.03962   4.13060
  Beta virt. eigenvalues --    4.18558   4.28106   5.14289   5.17379   5.19333
  Beta virt. eigenvalues --    5.23177   5.32963   5.46135   5.60002   5.72817
  Beta virt. eigenvalues --    5.94653  23.62913  23.93602  23.94259  24.05871
  Beta virt. eigenvalues --   25.15899  49.97993  49.99898  50.11120
          Condensed to atoms (all electrons):
               1          2          3          4          5          6
     1  O    8.329044   0.248269  -0.045691  -0.012194  -0.348493   0.077613
     2  H    0.248269   0.495682  -0.017214   0.001505   0.075670  -0.026837
     3  C   -0.045691  -0.017214   5.709017   0.436830  -0.366410   0.774507
     4  H   -0.012194   0.001505   0.436830   0.416961  -0.056146   0.004078
     5  C   -0.348493   0.075670  -0.366410  -0.056146   8.403141  -2.181926
     6  C    0.077613  -0.026837   0.774507   0.004078  -2.181926   7.738960
     7  O   -0.002081  -0.000208  -0.079995  -0.002322   0.147905   0.290375
     8  O    0.001683  -0.002380  -0.078241  -0.004030  -0.194239   0.065246
     9  C    0.000615  -0.001038   0.042872   0.001189  -0.237674   0.025887
    10  C   -0.003062   0.001385  -0.006130  -0.000402  -0.038851  -0.062071
    11  H    0.000317   0.000073   0.003735   0.000214  -0.011092   0.018376
    12  H    0.000014  -0.000088  -0.005314  -0.000499   0.009165  -0.017263
    13  H   -0.000388   0.000219  -0.000497   0.000066   0.002138  -0.005647
    14  H    0.001649  -0.000361  -0.001079  -0.000122   0.006809   0.002667
    15  H    0.000368  -0.000906   0.004765   0.000075  -0.039204   0.011034
               7          8          9         10         11         12
     1  O   -0.002081   0.001683   0.000615  -0.003062   0.000317   0.000014
     2  H   -0.000208  -0.002380  -0.001038   0.001385   0.000073  -0.000088
     3  C   -0.079995  -0.078241   0.042872  -0.006130   0.003735  -0.005314
     4  H   -0.002322  -0.004030   0.001189  -0.000402   0.000214  -0.000499
     5  C    0.147905  -0.194239  -0.237674  -0.038851  -0.011092   0.009165
     6  C    0.290375   0.065246   0.025887  -0.062071   0.018376  -0.017263
     7  O    8.023979  -0.134948   0.057086  -0.077950   0.004029  -0.018450
     8  O   -0.134948   8.284831   0.166358  -0.036376  -0.095679  -0.005069
     9  C    0.057086   0.166358   5.408138   0.032968   0.448894   0.397824
    10  C   -0.077950  -0.036376   0.032968   5.474661  -0.060095  -0.019437
    11  H    0.004029  -0.095679   0.448894  -0.060095   0.533765  -0.039089
    12  H   -0.018450  -0.005069   0.397824  -0.019437  -0.039089   0.517313
    13  H   -0.001527   0.017229  -0.038172   0.394505   0.000293  -0.006861
    14  H    0.002202  -0.005920  -0.038658   0.418745  -0.011106   0.005072
    15  H    0.006170  -0.018341   0.005142   0.379568   0.010389  -0.010905
              13         14         15
     1  O   -0.000388   0.001649   0.000368
     2  H    0.000219  -0.000361  -0.000906
     3  C   -0.000497  -0.001079   0.004765
     4  H    0.000066  -0.000122   0.000075
     5  C    0.002138   0.006809  -0.039204
     6  C   -0.005647   0.002667   0.011034
     7  O   -0.001527   0.002202   0.006170
     8  O    0.017229  -0.005920  -0.018341
     9  C   -0.038172  -0.038658   0.005142
    10  C    0.394505   0.418745   0.379568
    11  H    0.000293  -0.011106   0.010389
    12  H   -0.006861   0.005072  -0.010905
    13  H    0.541382  -0.034057  -0.033758
    14  H   -0.034057   0.532446  -0.046803
    15  H   -0.033758  -0.046803   0.549694
          Atomic-Atomic Spin Densities.
               1          2          3          4          5          6
     1  O    0.940920   0.001713  -0.067394  -0.007948  -0.372762   0.095535
     2  H    0.001713  -0.026547   0.001854   0.000225   0.025276  -0.009752
     3  C   -0.067394   0.001854   0.015781   0.006195  -0.018727   0.076790
     4  H   -0.007948   0.000225   0.006195   0.005351   0.003795   0.002353
     5  C   -0.372762   0.025276  -0.018727   0.003795   1.035811  -0.298555
     6  C    0.095535  -0.009752   0.076790   0.002353  -0.298555   0.115469
     7  O    0.003323  -0.000772  -0.001058  -0.000051  -0.017074  -0.005775
     8  O    0.001424  -0.000134  -0.002336  -0.000292  -0.007106   0.007667
     9  C    0.008191  -0.001107   0.007475  -0.000015  -0.056910   0.025891
    10  C   -0.002164   0.000169  -0.002738  -0.000086   0.024887  -0.004863
    11  H    0.000505  -0.000068   0.000653  -0.000005  -0.004836   0.001750
    12  H   -0.000440   0.000082  -0.000363   0.000032   0.002761  -0.002489
    13  H    0.000084  -0.000053  -0.000012  -0.000013  -0.000495  -0.000071
    14  H   -0.000303   0.000113   0.000120   0.000027   0.000060  -0.000040
    15  H    0.001020  -0.000254   0.000790  -0.000016  -0.008316   0.003378
               7          8          9         10         11         12
     1  O    0.003323   0.001424   0.008191  -0.002164   0.000505  -0.000440
     2  H   -0.000772  -0.000134  -0.001107   0.000169  -0.000068   0.000082
     3  C   -0.001058  -0.002336   0.007475  -0.002738   0.000653  -0.000363
     4  H   -0.000051  -0.000292  -0.000015  -0.000086  -0.000005   0.000032
     5  C   -0.017074  -0.007106  -0.056910   0.024887  -0.004836   0.002761
     6  C   -0.005775   0.007667   0.025891  -0.004863   0.001750  -0.002489
     7  O    0.077249   0.001268   0.000180  -0.001659  -0.000109  -0.000216
     8  O    0.001268   0.009483   0.000055  -0.002304  -0.000129   0.000390
     9  C    0.000180   0.000055   0.026185  -0.019010   0.003440   0.000363
    10  C   -0.001659  -0.002304  -0.019010   0.016356  -0.002517  -0.000122
    11  H   -0.000109  -0.000129   0.003440  -0.002517   0.000983   0.000176
    12  H   -0.000216   0.000390   0.000363  -0.000122   0.000176  -0.000160
    13  H    0.000046  -0.000099   0.002228  -0.002898   0.000098   0.000205
    14  H    0.000076   0.000061   0.000256  -0.000300   0.000023  -0.000157
    15  H    0.000799   0.000214   0.004351  -0.003483   0.000494  -0.000089
              13         14         15
     1  O    0.000084  -0.000303   0.001020
     2  H   -0.000053   0.000113  -0.000254
     3  C   -0.000012   0.000120   0.000790
     4  H   -0.000013   0.000027  -0.000016
     5  C   -0.000495   0.000060  -0.008316
     6  C   -0.000071  -0.000040   0.003378
     7  O    0.000046   0.000076   0.000799
     8  O   -0.000099   0.000061   0.000214
     9  C    0.002228   0.000256   0.004351
    10  C   -0.002898  -0.000300  -0.003483
    11  H    0.000098   0.000023   0.000494
    12  H    0.000205  -0.000157  -0.000089
    13  H    0.000579   0.000174   0.000429
    14  H    0.000174  -0.000100  -0.000019
    15  H    0.000429  -0.000019   0.000725
 Mulliken charges and spin densities:
               1          2
     1  O   -0.247664   0.601703
     2  H    0.226229  -0.009256
     3  C   -0.371154   0.017030
     4  H    0.214797   0.009554
     5  C    0.829206   0.307809
     6  C   -0.714999   0.007288
     7  O   -0.214267   0.056228
     8  O    0.039876   0.008161
     9  C   -0.271431   0.001572
    10  C   -0.397459  -0.000733
    11  H    0.196976   0.000458
    12  H    0.193588  -0.000027
    13  H    0.165078   0.000201
    14  H    0.168515  -0.000010
    15  H    0.182710   0.000022
 Sum of Mulliken charges =  -0.00000   1.00000
 Mulliken charges and spin densities with hydrogens summed into heavy atoms:
               1          2
     1  O   -0.021435   0.592446
     3  C   -0.156358   0.026584
     5  C    0.829206   0.307809
     6  C   -0.714999   0.007288
     7  O   -0.214267   0.056228
     8  O    0.039876   0.008161
     9  C    0.119133   0.002003
    10  C    0.118844  -0.000520
 APT charges:
               1
     1  O   -0.600798
     2  H    0.412769
     3  C    0.106002
     4  H    0.899294
     5  C   -0.455855
     6  C   -0.428315
     7  O   -0.178368
     8  O    0.124540
     9  C   -0.859782
    10  C   -1.220418
    11  H    0.559479
    12  H    0.404315
    13  H    0.683790
    14  H    0.323737
    15  H    0.229611
 Sum of APT charges =  -0.00000
 APT charges with hydrogens summed into heavy atoms:
               1
     1  O   -0.188029
     3  C    1.005296
     5  C   -0.455855
     6  C   -0.428315
     7  O   -0.178368
     8  O    0.124540
     9  C    0.104012
    10  C    0.016720
 Electronic spatial extent (au):  <R**2>=           1153.1221
 Charge=              0.0000 electrons
 Dipole moment (field-independent basis, Debye):
    X=              0.3553    Y=             -0.4003    Z=             -0.5649  Tot=              0.7782
 Quadrupole moment (field-independent basis, Debye-Ang):
   XX=            -34.2942   YY=            -51.6504   ZZ=            -48.8172
   XY=              4.2425   XZ=             -2.0661   YZ=              4.3800
 Traceless Quadrupole moment (field-independent basis, Debye-Ang):
   XX=             10.6264   YY=             -6.7298   ZZ=             -3.8966
   XY=              4.2425   XZ=             -2.0661   YZ=              4.3800
 Octapole moment (field-independent basis, Debye-Ang**2):
  XXX=            -17.6958  YYY=             -0.9025  ZZZ=              2.1012  XYY=              8.4923
  XXY=            -10.6306  XXZ=             -6.1275  XZZ=             -5.3163  YZZ=              7.3924
  YYZ=             -0.6919  XYZ=             -3.2971
 Hexadecapole moment (field-independent basis, Debye-Ang**3):
 XXXX=           -926.0269 YYYY=           -241.7847 ZZZZ=           -166.9737 XXXY=             23.0890
 XXXZ=             14.3306 YYYX=             -4.8326 YYYZ=              2.2426 ZZZX=            -17.2439
 ZZZY=              6.4882 XXYY=           -244.7379 XXZZ=           -194.1151 YYZZ=            -68.6851
 XXYZ=             10.2299 YYXZ=             -7.1354 ZZXY=             -9.8846
 N-N= 3.594366697275D+02 E-N=-1.703664840538D+03  KE= 4.190157292396D+02
  Exact polarizability:   0.000   0.000   0.000   0.000   0.000   0.000
 Approx polarizability:  98.598  -7.815  77.518   6.492  -2.287  76.779
                          Isotropic Fermi Contact Couplings
        Atom                 a.u.       MegaHertz       Gauss      10(-4) cm-1
     1  O(17)              0.27858    -168.87427     -60.25854     -56.33039
     2  H(1)              -0.01124     -50.22019     -17.91981     -16.75165
     3  C(13)              0.02552      28.68427      10.23526       9.56804
     4  H(1)               0.00322      14.38023       5.13122       4.79673
     5  C(13)              0.11332     127.38789      45.45517      42.49203
     6  C(13)             -0.01838     -20.66404      -7.37344      -6.89278
     7  O(17)              0.01364      -8.26888      -2.95054      -2.75820
     8  O(17)              0.00178      -1.08027      -0.38547      -0.36034
     9  C(13)             -0.00040      -0.44517      -0.15885      -0.14849
    10  C(13)              0.00139       1.55704       0.55559       0.51937
    11  H(1)               0.00003       0.11183       0.03990       0.03730
    12  H(1)               0.00025       1.11406       0.39753       0.37161
    13  H(1)               0.00002       0.08110       0.02894       0.02705
    14  H(1)              -0.00002      -0.07462      -0.02662      -0.02489
    15  H(1)              -0.00002      -0.08673      -0.03095      -0.02893
 --------------------------------------------------------
       Center         ----  Spin Dipole Couplings  ----
                      3XX-RR        3YY-RR        3ZZ-RR
 --------------------------------------------------------
     1   Atom       -1.033425      2.160063     -1.126638
     2   Atom       -0.087234     -0.038839      0.126073
     3   Atom        0.034571      0.026227     -0.060798
     4   Atom        0.005492      0.000923     -0.006414
     5   Atom       -0.209727      0.347235     -0.137508
     6   Atom        0.012487     -0.008503     -0.003983
     7   Atom       -0.116343      0.176805     -0.060462
     8   Atom       -0.017863      0.034385     -0.016522
     9   Atom        0.003006     -0.001165     -0.001840
    10   Atom        0.002449     -0.000513     -0.001935
    11   Atom        0.002054     -0.001233     -0.000821
    12   Atom        0.002838     -0.001385     -0.001453
    13   Atom        0.001572     -0.000700     -0.000872
    14   Atom        0.002171     -0.000640     -0.001531
    15   Atom        0.002516     -0.001176     -0.001340
 --------------------------------------------------------
                        XY            XZ            YZ
 --------------------------------------------------------
     1   Atom       -0.986447     -0.258260      0.885036
     2   Atom       -0.016755      0.007891     -0.013268
     3   Atom        0.055084      0.051812      0.057951
     4   Atom        0.009582      0.007451      0.006581
     5   Atom       -0.128240     -0.053717      0.174998
     6   Atom       -0.009056      0.003578     -0.007127
     7   Atom       -0.022580     -0.009641      0.136981
     8   Atom       -0.007989     -0.004694      0.032391
     9   Atom       -0.000486     -0.000977      0.000101
    10   Atom        0.001523      0.000451      0.000388
    11   Atom       -0.000136     -0.001323     -0.000018
    12   Atom       -0.001118     -0.000565     -0.000062
    13   Atom        0.000339      0.000131      0.000015
    14   Atom        0.001264     -0.000209     -0.000098
    15   Atom        0.000932      0.001194      0.000280
 --------------------------------------------------------


 ---------------------------------------------------------------------------------
              Anisotropic Spin Dipole Couplings in Principal Axis System
 ---------------------------------------------------------------------------------

       Atom             a.u.   MegaHertz   Gauss  10(-4) cm-1        Axes

              Baa    -1.3519    97.825    34.906    32.631  0.2237 -0.1786  0.9582
     1 O(17)  Bbb    -1.3125    94.969    33.887    31.678  0.9377  0.3076 -0.1616
              Bcc     2.6644  -192.794   -68.794   -64.309 -0.2658  0.9346  0.2363
 
              Baa    -0.0925   -49.369   -17.616   -16.468  0.9556  0.2941 -0.0166
     2 H(1)   Bbb    -0.0350   -18.676    -6.664    -6.230 -0.2914  0.9521  0.0927
              Bcc     0.1275    68.044    24.280    22.697  0.0431 -0.0837  0.9956
 
              Baa    -0.0948   -12.716    -4.537    -4.241 -0.2231 -0.3366  0.9148
     3 C(13)  Bbb    -0.0243    -3.256    -1.162    -1.086  0.7177 -0.6918 -0.0795
              Bcc     0.1190    15.971     5.699     5.327  0.6596  0.6388  0.3959
 
              Baa    -0.0106    -5.680    -2.027    -1.895 -0.2232 -0.3357  0.9151
     4 H(1)   Bbb    -0.0066    -3.512    -1.253    -1.171 -0.6592  0.7435  0.1120
              Bcc     0.0172     9.192     3.280     3.066  0.7180  0.5783  0.3873
 
              Baa    -0.2423   -32.509   -11.600   -10.844  0.9515  0.1233  0.2820
     5 C(13)  Bbb    -0.1914   -25.683    -9.164    -8.567 -0.2244 -0.3490  0.9098
              Bcc     0.4337    58.192    20.764    19.411 -0.2106  0.9290  0.3044
 
              Baa    -0.0149    -1.997    -0.713    -0.666  0.2174  0.8481  0.4831
     6 C(13)  Bbb    -0.0026    -0.353    -0.126    -0.118 -0.4166 -0.3670  0.8317
              Bcc     0.0175     2.350     0.839     0.784  0.8827 -0.3821  0.2736
 
              Baa    -0.1231     8.908     3.179     2.972 -0.1193 -0.4199  0.8997
     7 O(17)  Bbb    -0.1180     8.535     3.046     2.847  0.9905  0.0122  0.1370
              Bcc     0.2411   -17.444    -6.224    -5.819 -0.0685  0.9075  0.4144
 
              Baa    -0.0323     2.337     0.834     0.780  0.0543 -0.4310  0.9007
     8 O(17)  Bbb    -0.0191     1.379     0.492     0.460  0.9897  0.1428  0.0086
              Bcc     0.0514    -3.716    -1.326    -1.240 -0.1323  0.8910  0.4343
 
              Baa    -0.0020    -0.272    -0.097    -0.091  0.1897 -0.0077  0.9818
     9 C(13)  Bbb    -0.0012    -0.164    -0.058    -0.055  0.1110  0.9937 -0.0136
              Bcc     0.0033     0.436     0.156     0.146  0.9755 -0.1116 -0.1894
 
              Baa    -0.0020    -0.273    -0.097    -0.091 -0.0204 -0.2279  0.9735
    10 C(13)  Bbb    -0.0011    -0.150    -0.054    -0.050 -0.4060  0.8917  0.2003
              Bcc     0.0032     0.423     0.151     0.141  0.9137  0.3911  0.1107
 
              Baa    -0.0014    -0.731    -0.261    -0.244  0.3387  0.4415  0.8309
    11 H(1)   Bbb    -0.0012    -0.642    -0.229    -0.214 -0.1340  0.8967 -0.4219
              Bcc     0.0026     1.373     0.490     0.458  0.9313 -0.0315 -0.3628
 
              Baa    -0.0018    -0.959    -0.342    -0.320  0.2579  0.7840  0.5646
    12 H(1)   Bbb    -0.0014    -0.737    -0.263    -0.246 -0.0429 -0.5745  0.8174
              Bcc     0.0032     1.695     0.605     0.565  0.9652 -0.2350 -0.1146
 
              Baa    -0.0009    -0.469    -0.167    -0.157 -0.0561  0.0204  0.9982
    13 H(1)   Bbb    -0.0007    -0.400    -0.143    -0.133 -0.1428  0.9894 -0.0283
              Bcc     0.0016     0.869     0.310     0.290  0.9882  0.1441  0.0526
 
              Baa    -0.0015    -0.824    -0.294    -0.275  0.0372  0.0556  0.9978
    14 H(1)   Bbb    -0.0011    -0.600    -0.214    -0.200 -0.3601  0.9321 -0.0385
              Bcc     0.0027     1.424     0.508     0.475  0.9322  0.3578 -0.0547
 
              Baa    -0.0017    -0.897    -0.320    -0.299 -0.2631 -0.0494  0.9635
    15 H(1)   Bbb    -0.0014    -0.746    -0.266    -0.249 -0.2281  0.9736 -0.0123
              Bcc     0.0031     1.642     0.586     0.548  0.9374  0.2230  0.2674
 

 ---------------------------------------------------------------------------------

 Calling FoFJK, ICntrl=    100147 FMM=F ISym2X=0 I1Cent= 0 IOpClX= 1 NMat=1 NMatS=1 NMatT=0.
 ***** Axes restored to original set *****
 -------------------------------------------------------------------
 Center     Atomic                   Forces (Hartrees/Bohr)
 Number     Number              X              Y              Z
 -------------------------------------------------------------------
      1        8          -0.003317393   -0.022741916   -0.029729029
      2        1          -0.008270746   -0.001000342    0.003540825
      3        6          -0.033784753    0.003845807   -0.027216219
      4        1          -0.001222608    0.008767867    0.006634560
      5        6           0.051865923    0.008589751    0.047366764
      6        6          -0.007739404    0.000098752    0.003838700
      7        8           0.003455818    0.001661702   -0.003691383
      8        8          -0.000841914    0.000883139   -0.000383898
      9        6           0.000041205   -0.000172632   -0.000384916
     10        6          -0.000160643   -0.000151343    0.000080136
     11        1          -0.000079248    0.000019789   -0.000054308
     12        1           0.000031434    0.000039019    0.000060784
     13        1           0.000062010    0.000046294    0.000036161
     14        1          -0.000011885    0.000158158   -0.000105611
     15        1          -0.000027798   -0.000044044    0.000007436
 -------------------------------------------------------------------
 Cartesian Forces:  Max     0.051865923 RMS     0.013844890
 FormGI is forming the generalized inverse of G from B-inverse, IUseBI=4.

 GradGradGradGradGradGradGradGradGradGradGradGradGradGradGradGradGradGrad
 Berny optimization.
 Internal  Forces:  Max     0.055192611 RMS     0.012372955
 Search for a saddle point.
 Step number   1 out of a maximum of   65
 All quantities printed in internal units (Hartrees-Bohrs-Radians)
 Swapping is turned off.
 Second derivative matrix not updated -- analytic derivatives used.
 ITU=  0
     Eigenvalues ---   -0.07492   0.00246   0.00303   0.00757   0.00923
     Eigenvalues ---    0.02096   0.03571   0.03597   0.04394   0.04517
     Eigenvalues ---    0.04705   0.06137   0.06507   0.06941   0.09178
     Eigenvalues ---    0.09776   0.11518   0.12450   0.12570   0.13393
     Eigenvalues ---    0.16786   0.18491   0.23871   0.24939   0.27000
     Eigenvalues ---    0.27556   0.31044   0.34480   0.34519   0.34704
     Eigenvalues ---    0.34745   0.35305   0.37264   0.38552   0.41295
     Eigenvalues ---    0.49309   0.51507   0.92456   1.09919
 Eigenvectors required to have negative eigenvalues:
                          R2        A20       A3        R4        R5
   1                    0.81603  -0.39967  -0.39843  -0.08862   0.05369
                          A21       D1        D2        R7        R6
   1                    0.03719  -0.03207  -0.02971  -0.02212  -0.01464
 RFO step:  Lambda0=2.382938307D-03 Lambda=-2.10087698D-02.
 Linear search not attempted -- option 19 set.
 Maximum step size (   0.300) exceeded in Quadratic search.
    -- Step size scaled by   0.879
 Iteration  1 RMS(Cart)=  0.04896931 RMS(Int)=  0.00895379
 Iteration  2 RMS(Cart)=  0.01063817 RMS(Int)=  0.00002102
 Iteration  3 RMS(Cart)=  0.00005151 RMS(Int)=  0.00001216
 Iteration  4 RMS(Cart)=  0.00000000 RMS(Int)=  0.00001216
 Variable       Old X    -DE/DX   Delta X   Delta X   Delta X     New X
                                 (Linear)    (Quad)   (Total)
    R1        1.84655  -0.00857   0.00000  -0.01187  -0.01187   1.83468
    R2        3.51246   0.03233   0.00000   0.26759   0.26759   3.78006
    R3        2.01214   0.00120   0.00000  -0.00028  -0.00028   2.01186
    R4        2.26390   0.05519   0.00000   0.01803   0.01803   2.28193
    R5        2.75302  -0.00560   0.00000  -0.00034  -0.00034   2.75269
    R6        2.26721   0.00484   0.00000   0.00134   0.00134   2.26856
    R7        2.51946  -0.00091   0.00000  -0.00880  -0.00880   2.51066
    R8        2.72512  -0.00024   0.00000   0.00192   0.00192   2.72703
    R9        2.86508  -0.00007   0.00000  -0.00054  -0.00054   2.86454
   R10        2.05696  -0.00003   0.00000  -0.00030  -0.00030   2.05666
   R11        2.06093   0.00006   0.00000   0.00001   0.00001   2.06094
   R12        2.06304   0.00005   0.00000  -0.00006  -0.00006   2.06299
   R13        2.06169  -0.00009   0.00000  -0.00039  -0.00039   2.06130
   R14        2.05998  -0.00003   0.00000   0.00002   0.00002   2.06000
    A1        1.78804  -0.00000   0.00000  -0.05431  -0.05431   1.73373
    A2        1.73546  -0.01450   0.00000   0.00686   0.00686   1.74232
    A3        1.40652   0.05103   0.00000   0.07335   0.07335   1.47987
    A4        2.15915  -0.00189   0.00000  -0.00887  -0.00887   2.15028
    A5        1.93762  -0.00057   0.00000   0.00026   0.00026   1.93789
    A6        2.18640   0.00247   0.00000   0.00861   0.00860   2.19501
    A7        2.02620   0.00018   0.00000   0.00133   0.00133   2.02753
    A8        1.93855  -0.00017   0.00000  -0.00262  -0.00262   1.93592
    A9        1.81555  -0.00005   0.00000  -0.00085  -0.00085   1.81469
   A10        1.89701   0.00011   0.00000  -0.00016  -0.00015   1.89685
   A11        1.94986   0.00003   0.00000   0.00102   0.00102   1.95088
   A12        1.94612   0.00010   0.00000   0.00192   0.00192   1.94804
   A13        1.91183  -0.00003   0.00000   0.00048   0.00048   1.91231
   A14        1.91207  -0.00005   0.00000  -0.00065  -0.00065   1.91142
   A15        1.92687  -0.00005   0.00000  -0.00038  -0.00038   1.92650
   A16        1.93206   0.00004   0.00000   0.00050   0.00050   1.93256
   A17        1.89318   0.00010   0.00000   0.00138   0.00138   1.89457
   A18        1.89177   0.00000   0.00000  -0.00000  -0.00000   1.89177
   A19        1.90711  -0.00005   0.00000  -0.00083  -0.00083   1.90628
   A20        3.14198   0.03653   0.00000   0.08021   0.08021   3.22219
   A21        3.12616   0.00251   0.00000  -0.04528  -0.04530   3.08086
   A22        3.14217   0.00311   0.00000   0.00869   0.00869   3.15086
   A23        3.10321  -0.00029   0.00000   0.02650   0.02651   3.12972
    D1        1.84587  -0.00102   0.00000   0.01227   0.01227   1.85814
    D2       -1.29630  -0.00413   0.00000   0.00357   0.00357  -1.29272
    D3        1.64932  -0.00164   0.00000  -0.04913  -0.04909   1.60023
    D4       -1.49634  -0.00069   0.00000  -0.02439  -0.02444  -1.52078
    D5        3.13086  -0.00145   0.00000  -0.01265  -0.01269   3.11817
    D6       -0.01550   0.00041   0.00000  -0.01214  -0.01210  -0.02760
    D7       -1.39306  -0.00007   0.00000   0.00042   0.00042  -1.39264
    D8        2.78998   0.00001   0.00000   0.00106   0.00106   2.79104
    D9        0.75418   0.00001   0.00000   0.00101   0.00101   0.75519
   D10       -3.06793   0.00007   0.00000   0.00069   0.00069  -3.06725
   D11       -0.98410   0.00014   0.00000   0.00175   0.00175  -0.98235
   D12        1.12995   0.00007   0.00000   0.00079   0.00079   1.13074
   D13       -1.04933  -0.00007   0.00000  -0.00139  -0.00139  -1.05072
   D14        1.03450  -0.00000   0.00000  -0.00032  -0.00032   1.03418
   D15       -3.13463  -0.00007   0.00000  -0.00129  -0.00129  -3.13592
   D16        1.09654  -0.00002   0.00000   0.00139   0.00139   1.09793
   D17       -3.10281   0.00005   0.00000   0.00245   0.00245  -3.10036
   D18       -0.98876  -0.00002   0.00000   0.00149   0.00149  -0.98727
         Item               Value     Threshold  Converged?
 Maximum Force            0.055193     0.000015     NO 
 RMS     Force            0.012373     0.000010     NO 
 Maximum Displacement     0.242285     0.000060     NO 
 RMS     Displacement     0.057733     0.000040     NO 
 Predicted change in Energy=-9.879284D-03
 GradGradGradGradGradGradGradGradGradGradGradGradGradGradGradGradGradGrad

                          Input orientation:                          
 ---------------------------------------------------------------------
 Center     Atomic      Atomic             Coordinates (Angstroms)
 Number     Number       Type             X           Y           Z
 ---------------------------------------------------------------------
      1          8           0        2.020556   -1.816868    0.217825
      2          1           0        2.737377   -1.534212   -0.372820
      3          6           0        1.822094   -0.151153    1.307453
      4          1           0        0.908303    0.220244    0.906841
      5          6           0        2.854112   -0.500454    1.828116
      6          6           0        4.124480   -0.955491    2.376714
      7          8           0        5.189279   -0.604044    1.947980
      8          8           0        3.933570   -1.787952    3.394407
      9          6           0        5.123371   -2.331590    4.003768
     10          6           0        5.674229   -3.481562    3.184065
     11          1           0        4.789083   -2.659722    4.986141
     12          1           0        5.855536   -1.531070    4.115643
     13          1           0        6.527068   -3.923541    3.702812
     14          1           0        4.912958   -4.251125    3.049632
     15          1           0        6.008917   -3.133235    2.206832
 ---------------------------------------------------------------------
                    Distance matrix (angstroms):
                    1          2          3          4          5
     1  O    0.000000
     2  H    0.970870   0.000000
     3  C    2.000320   2.360913   0.000000
     4  H    2.421090   2.839219   1.064631   0.000000
     5  C    2.240713   2.434421   1.207544   2.270314   0.000000
     6  C    3.135166   3.133515   2.662943   3.726483   1.456659
     7  O    3.808567   3.501879   3.457358   4.482207   2.340535
     8  O    3.708251   3.960715   3.390107   4.401486   2.296987
     9  C    4.921967   5.048099   4.787782   5.819761   3.638139
    10  C    4.991905   5.006866   5.426993   6.450052   4.321883
    11  H    5.577811   5.847627   5.350579   6.324187   4.287152
    12  H    5.475557   5.465275   5.104778   6.151311   3.911968
    13  H    6.073866   6.056520   6.488871   7.520567   5.359349
    14  H    4.723423   4.881388   5.422030   6.373536   4.449549
    15  H    4.647149   4.462562   5.218351   6.241159   4.126471
                    6          7          8          9         10
     6  C    0.000000
     7  O    1.200468   0.000000
     8  O    1.328585   2.251798   0.000000
     9  C    2.353452   2.686079   1.443083   0.000000
    10  C    3.071575   3.169100   2.437715   1.515848   0.000000
    11  H    3.186724   3.690039   2.006365   1.088336   2.169420
    12  H    2.520261   2.449905   2.068846   1.090602   2.169131
    13  H    4.042312   3.985997   3.373735   2.143654   1.091686
    14  H    3.454812   3.819842   2.673068   2.153896   1.090794
    15  H    2.884880   2.671257   2.743572   2.157731   1.090106
                   11         12         13         14         15
    11  H    0.000000
    12  H    1.780152   0.000000
    13  H    2.502951   2.518989   0.000000
    14  H    2.509577   3.069777   1.771808   0.000000
    15  H    3.071932   2.496801   1.769469   1.777952   0.000000
 Stoichiometry    C5H7O3(2)
 Framework group  C1[X(C5H7O3)]
 Deg. of freedom    39
 Full point group                 C1      NOp   1
 Largest Abelian subgroup         C1      NOp   1
 Largest concise Abelian subgroup C1      NOp   1
                         Standard orientation:                         
 ---------------------------------------------------------------------
 Center     Atomic      Atomic             Coordinates (Angstroms)
 Number     Number       Type             X           Y           Z
 ---------------------------------------------------------------------
      1          8           0       -2.426345    1.410971    0.152098
      2          1           0       -2.370672    1.256573    1.108993
      3          6           0       -2.614177   -0.480402   -0.471366
      4          1           0       -3.644563   -0.481958   -0.739215
      5          6           0       -1.439600   -0.568754   -0.205424
      6          6           0       -0.036717   -0.618303    0.183571
      7          8           0        0.331718   -0.964587    1.272363
      8          8           0        0.749525   -0.239380   -0.818117
      9          6           0        2.165896   -0.218311   -0.542544
     10          6           0        2.551048    1.036078    0.216377
     11          1           0        2.625953   -0.251097   -1.528316
     12          1           0        2.427202   -1.119912    0.012659
     13          1           0        3.634584    1.065558    0.346211
     14          1           0        2.243552    1.924350   -0.337023
     15          1           0        2.086065    1.048611    1.202260
 ---------------------------------------------------------------------
 Rotational constants (GHZ):           3.8363202           1.1211508           1.0481670
 Standard basis: 6-311++G(d,p) (5D, 7F)
 There are   233 symmetry adapted cartesian basis functions of A   symmetry.
 There are   225 symmetry adapted basis functions of A   symmetry.
   225 basis functions,   351 primitive gaussians,   233 cartesian basis functions
    31 alpha electrons       30 beta electrons
       nuclear repulsion energy       355.6496850176 Hartrees.
 NAtoms=   15 NActive=   15 NUniq=   15 SFac= 1.00D+00 NAtFMM=   60 NAOKFM=F Big=F
 Integral buffers will be    131072 words long.
 Raffenetti 2 integral format.
 Two-electron integral symmetry is turned on.
 One-electron integrals computed using PRISM.
 NBasis=   225 RedAO= T EigKep=  1.02D-06  NBF=   225
 NBsUse=   225 1.00D-06 EigRej= -1.00D+00 NBFU=   225
 Initial guess from the checkpoint file:  "ethyl_propiolate.chk"
 B after Tr=    -0.000000    0.000000   -0.000000
         Rot=    0.999156    0.040481    0.002389   -0.006574 Ang=   4.71 deg.
 Initial guess <Sx>= 0.0000 <Sy>= 0.0000 <Sz>= 0.5000 <S**2>= 0.7624 S= 0.5062
 ExpMin= 3.60D-02 ExpMax= 8.59D+03 ExpMxC= 1.30D+03 IAcc=3 IRadAn=         5 AccDes= 0.00D+00
 Harris functional with IExCor= 1009 and IRadAn=       5 diagonalized for initial guess.
 HarFok:  IExCor= 1009 AccDes= 0.00D+00 IRadAn=         5 IDoV= 1 UseB2=F ITyADJ=14
 ICtDFT=  3500011 ScaDFX=  1.000000  1.000000  1.000000  1.000000
 FoFCou: FMM=F IPFlag=           0 FMFlag=      100000 FMFlg1=           0
         NFxFlg=           0 DoJE=T BraDBF=F KetDBF=T FulRan=T
         wScrn=  0.000000 ICntrl=       500 IOpCl=  0 I1Cent=   200000004 NGrid=           0
         NMat0=    1 NMatS0=      1 NMatT0=    0 NMatD0=    1 NMtDS0=    0 NMtDT0=    0
 Petite list used in FoFCou.
 Requested convergence on RMS density matrix=1.00D-08 within 128 cycles.
 Requested convergence on MAX density matrix=1.00D-06.
 Requested convergence on             energy=1.00D-06.
 No special actions if energy rises.
 Restarting incremental Fock formation.
 SCF Done:  E(UM062X) =  -420.198481374     A.U. after   21 cycles
            NFock= 21  Conv=0.43D-08     -V/T= 2.0031
 <Sx>= 0.0000 <Sy>= 0.0000 <Sz>= 0.5000 <S**2>= 0.7628 S= 0.5064
 <L.S>=  0.00000000000    
 Annihilation of the first spin contaminant:
 S**2 before annihilation     0.7628,   after     0.7501
 Calling FoFJK, ICntrl=      2127 FMM=F ISym2X=0 I1Cent= 0 IOpClX= 1 NMat=1 NMatS=1 NMatT=0.
 ***** Axes restored to original set *****
 -------------------------------------------------------------------
 Center     Atomic                   Forces (Hartrees/Bohr)
 Number     Number              X              Y              Z
 -------------------------------------------------------------------
      1        8          -0.002951448   -0.011412849   -0.012733069
      2        1          -0.001375278    0.000050699    0.000340530
      3        6          -0.005374314    0.000486795   -0.005331031
      4        1          -0.000579561    0.002954482    0.002456455
      5        6           0.011935061    0.006907893    0.015558254
      6        6          -0.003302144    0.001261893    0.000222819
      7        8           0.001797162    0.000041286   -0.001290886
      8        8          -0.000083137   -0.000218114    0.000991718
      9        6          -0.000045089   -0.000035168   -0.000254676
     10        6          -0.000015046   -0.000039078    0.000067245
     11        1          -0.000030815   -0.000035304   -0.000000037
     12        1           0.000000815    0.000019262   -0.000009842
     13        1           0.000021256   -0.000009710    0.000004813
     14        1          -0.000015084    0.000021191   -0.000044094
     15        1           0.000017621    0.000006721    0.000021801
 -------------------------------------------------------------------
 Cartesian Forces:  Max     0.015558254 RMS     0.004285716

 GradGradGradGradGradGradGradGradGradGradGradGradGradGradGradGradGradGrad
 Berny optimization.
 FormGI is forming the generalized inverse of G from B-inverse, IUseBI=4.
 Internal  Forces:  Max     0.020795693 RMS     0.004500391
 Search for a saddle point.
 Step number   2 out of a maximum of   65
 All quantities printed in internal units (Hartrees-Bohrs-Radians)
 Swapping is turned off.
 Update second derivatives using D2CorX and points    1    2
 ITU=  0  0
     Eigenvalues ---   -0.06923   0.00246   0.00381   0.00758   0.00912
     Eigenvalues ---    0.02115   0.03573   0.03739   0.04393   0.04517
     Eigenvalues ---    0.04706   0.06137   0.06665   0.06923   0.09085
     Eigenvalues ---    0.09775   0.11502   0.12450   0.12570   0.13393
     Eigenvalues ---    0.16786   0.18458   0.21238   0.23874   0.24939
     Eigenvalues ---    0.27162   0.31044   0.34476   0.34519   0.34703
     Eigenvalues ---    0.34744   0.35304   0.37257   0.38532   0.41285
     Eigenvalues ---    0.49309   0.51507   0.92404   1.09157
 Eigenvectors required to have negative eigenvalues:
                          R2        A20       A3        R4        A21
   1                    0.81823  -0.40687  -0.38159  -0.08551   0.06237
                          R5        D1        D2        D3        A2
   1                    0.05154  -0.03871  -0.03542   0.02855  -0.02529
 RFO step:  Lambda0=5.078030053D-05 Lambda=-5.55614484D-03.
 Linear search not attempted -- option 19 set.
 Iteration  1 RMS(Cart)=  0.06867957 RMS(Int)=  0.00327683
 Iteration  2 RMS(Cart)=  0.00405269 RMS(Int)=  0.00002930
 Iteration  3 RMS(Cart)=  0.00001820 RMS(Int)=  0.00002568
 Iteration  4 RMS(Cart)=  0.00000000 RMS(Int)=  0.00002568
 Variable       Old X    -DE/DX   Delta X   Delta X   Delta X     New X
                                 (Linear)    (Quad)   (Total)
    R1        1.83468  -0.00120   0.00000  -0.00092  -0.00092   1.83376
    R2        3.78006   0.01578   0.00000   0.13441   0.13441   3.91447
    R3        2.01186   0.00060   0.00000   0.00075   0.00075   2.01261
    R4        2.28193   0.01307   0.00000   0.00352   0.00352   2.28545
    R5        2.75269  -0.00186   0.00000  -0.00425  -0.00425   2.74843
    R6        2.26856   0.00207   0.00000   0.00173   0.00173   2.27029
    R7        2.51066   0.00080   0.00000   0.00099   0.00099   2.51165
    R8        2.72703  -0.00012   0.00000   0.00021   0.00021   2.72724
    R9        2.86454  -0.00001   0.00000  -0.00007  -0.00007   2.86447
   R10        2.05666   0.00002   0.00000   0.00007   0.00007   2.05672
   R11        2.06094   0.00001   0.00000   0.00003   0.00003   2.06097
   R12        2.06299   0.00002   0.00000   0.00003   0.00003   2.06302
   R13        2.06130   0.00000   0.00000  -0.00002  -0.00002   2.06129
   R14        2.06000  -0.00001   0.00000  -0.00012  -0.00012   2.05989
    A1        1.73373  -0.00032   0.00000  -0.03525  -0.03525   1.69848
    A2        1.74232  -0.00657   0.00000  -0.01217  -0.01217   1.73015
    A3        1.47987   0.02080   0.00000   0.09402   0.09402   1.57389
    A4        2.15028  -0.00013   0.00000  -0.00209  -0.00209   2.14820
    A5        1.93789   0.00004   0.00000   0.00284   0.00284   1.94072
    A6        2.19501   0.00009   0.00000  -0.00074  -0.00075   2.19426
    A7        2.02753  -0.00002   0.00000   0.00016   0.00016   2.02770
    A8        1.93592   0.00007   0.00000   0.00092   0.00092   1.93685
    A9        1.81469  -0.00005   0.00000  -0.00080  -0.00080   1.81389
   A10        1.89685  -0.00001   0.00000  -0.00017  -0.00017   1.89668
   A11        1.95088  -0.00003   0.00000  -0.00039  -0.00039   1.95049
   A12        1.94804  -0.00001   0.00000   0.00021   0.00021   1.94825
   A13        1.91231   0.00003   0.00000   0.00015   0.00015   1.91247
   A14        1.91142   0.00001   0.00000  -0.00065  -0.00065   1.91077
   A15        1.92650   0.00001   0.00000   0.00030   0.00030   1.92680
   A16        1.93256  -0.00002   0.00000   0.00052   0.00052   1.93308
   A17        1.89457   0.00001   0.00000   0.00014   0.00014   1.89471
   A18        1.89177  -0.00001   0.00000  -0.00015  -0.00015   1.89162
   A19        1.90628  -0.00000   0.00000  -0.00018  -0.00018   1.90610
   A20        3.22219   0.01423   0.00000   0.08185   0.08185   3.30404
   A21        3.08086   0.00061   0.00000  -0.05994  -0.05998   3.02088
   A22        3.15086   0.00107   0.00000   0.00003   0.00003   3.15089
   A23        3.12972  -0.00038   0.00000   0.02123   0.02124   3.15096
    D1        1.85814  -0.00012   0.00000   0.06953   0.06953   1.92767
    D2       -1.29272  -0.00119   0.00000   0.06950   0.06950  -1.22322
    D3        1.60023  -0.00128   0.00000  -0.13409  -0.13399   1.46624
    D4       -1.52078  -0.00071   0.00000  -0.10422  -0.10431  -1.62509
    D5        3.11817  -0.00058   0.00000  -0.00614  -0.00624   3.11193
    D6       -0.02760   0.00022   0.00000  -0.00449  -0.00440  -0.03200
    D7       -1.39264   0.00001   0.00000   0.00429   0.00429  -1.38834
    D8        2.79104   0.00004   0.00000   0.00475   0.00475   2.79579
    D9        0.75519   0.00004   0.00000   0.00505   0.00505   0.76024
   D10       -3.06725   0.00002   0.00000   0.00240   0.00240  -3.06485
   D11       -0.98235   0.00005   0.00000   0.00235   0.00235  -0.97999
   D12        1.13074   0.00004   0.00000   0.00268   0.00268   1.13342
   D13       -1.05072  -0.00001   0.00000   0.00175   0.00175  -1.04897
   D14        1.03418   0.00002   0.00000   0.00170   0.00170   1.03588
   D15       -3.13592   0.00000   0.00000   0.00202   0.00202  -3.13390
   D16        1.09793  -0.00001   0.00000   0.00182   0.00182   1.09975
   D17       -3.10036   0.00002   0.00000   0.00177   0.00177  -3.09858
   D18       -0.98727   0.00001   0.00000   0.00210   0.00210  -0.98517
         Item               Value     Threshold  Converged?
 Maximum Force            0.020796     0.000015     NO 
 RMS     Force            0.004500     0.000010     NO 
 Maximum Displacement     0.337391     0.000060     NO 
 RMS     Displacement     0.070872     0.000040     NO 
 Predicted change in Energy=-2.966645D-03
 GradGradGradGradGradGradGradGradGradGradGradGradGradGradGradGradGradGrad

                          Input orientation:                          
 ---------------------------------------------------------------------
 Center     Atomic      Atomic             Coordinates (Angstroms)
 Number     Number       Type             X           Y           Z
 ---------------------------------------------------------------------
      1          8           0        2.015391   -1.805933    0.039286
      2          1           0        2.769031   -1.461584   -0.465784
      3          6           0        1.805021   -0.198139    1.328331
      4          1           0        0.884344    0.192586    0.962308
      5          6           0        2.838118   -0.500267    1.879778
      6          6           0        4.116553   -0.959176    2.399692
      7          8           0        5.171971   -0.629913    1.929581
      8          8           0        3.949376   -1.768653    3.440522
      9          6           0        5.151740   -2.319007    4.018656
     10          6           0        5.660160   -3.489821    3.201104
     11          1           0        4.845479   -2.626656    5.016708
     12          1           0        5.897593   -1.526803    4.093231
     13          1           0        6.522398   -3.935600    3.700744
     14          1           0        4.884370   -4.250287    3.102846
     15          1           0        5.969387   -3.162523    2.208405
 ---------------------------------------------------------------------
                    Distance matrix (angstroms):
                    1          2          3          4          5
     1  O    0.000000
     2  H    0.970384   0.000000
     3  C    2.071448   2.396760   0.000000
     4  H    2.474937   2.885787   1.065029   0.000000
     5  C    2.401886   2.535856   1.209406   2.266943   0.000000
     6  C    3.271605   3.206116   2.658979   3.720189   1.454408
     7  O    3.862673   3.493361   3.447358   4.471674   2.337982
     8  O    3.912812   4.092277   3.395014   4.402548   2.297742
     9  C    5.092673   5.150017   4.789202   5.818937   3.638057
    10  C    5.110472   5.091016   5.404123   6.432787   4.318248
    11  H    5.784265   5.977185   5.361548   6.330630   4.288515
    12  H    5.619953   5.529626   5.114602   6.155618   3.913251
    13  H    6.185053   6.129313   6.469204   7.505239   5.356431
    14  H    4.857089   4.998664   5.389916   6.349900   4.443613
    15  H    4.709512   4.504082   5.186911   6.218294   4.123160
                    6          7          8          9         10
     6  C    0.000000
     7  O    1.201385   0.000000
     8  O    1.329107   2.252645   0.000000
     9  C    2.354102   2.686575   1.443193   0.000000
    10  C    3.070692   3.167677   2.438549   1.515813   0.000000
    11  H    3.187569   3.691061   2.005874   1.088371   2.169142
    12  H    2.522375   2.452003   2.068832   1.090617   2.169263
    13  H    4.042268   3.986006   3.373991   2.143163   1.091702
    14  H    3.451866   3.816592   2.673340   2.154075   1.090786
    15  H    2.885190   2.669781   2.746166   2.158026   1.090044
                   11         12         13         14         15
    11  H    0.000000
    12  H    1.780289   0.000000
    13  H    2.501430   2.519272   0.000000
    14  H    2.510091   3.069992   1.771905   0.000000
    15  H    3.071952   2.496658   1.769335   1.777784   0.000000
 Stoichiometry    C5H7O3(2)
 Framework group  C1[X(C5H7O3)]
 Deg. of freedom    39
 Full point group                 C1      NOp   1
 Largest Abelian subgroup         C1      NOp   1
 Largest concise Abelian subgroup C1      NOp   1
                         Standard orientation:                         
 ---------------------------------------------------------------------
 Center     Atomic      Atomic             Coordinates (Angstroms)
 Number     Number       Type             X           Y           Z
 ---------------------------------------------------------------------
      1          8           0       -2.564076    1.436732    0.047660
      2          1           0       -2.466060    1.315566    1.005448
      3          6           0       -2.574024   -0.568391   -0.472223
      4          1           0       -3.592230   -0.660554   -0.770633
      5          6           0       -1.401118   -0.651435   -0.189277
      6          6           0       -0.012896   -0.602197    0.241675
      7          8           0        0.324502   -0.751378    1.385018
      8          8           0        0.801201   -0.377719   -0.784670
      9          6           0        2.205881   -0.270122   -0.471454
     10          6           0        2.535412    1.103309    0.078807
     11          1           0        2.701256   -0.452891   -1.423163
     12          1           0        2.467702   -1.059316    0.234285
     13          1           0        3.613038    1.184550    0.233518
     14          1           0        2.226092    1.878485   -0.623500
     15          1           0        2.037655    1.266093    1.034807
 ---------------------------------------------------------------------
 Rotational constants (GHZ):           3.7336437           1.0926699           1.0238424
 Standard basis: 6-311++G(d,p) (5D, 7F)
 There are   233 symmetry adapted cartesian basis functions of A   symmetry.
 There are   225 symmetry adapted basis functions of A   symmetry.
   225 basis functions,   351 primitive gaussians,   233 cartesian basis functions
    31 alpha electrons       30 beta electrons
       nuclear repulsion energy       352.9523757766 Hartrees.
 NAtoms=   15 NActive=   15 NUniq=   15 SFac= 1.00D+00 NAtFMM=   60 NAOKFM=F Big=F
 Integral buffers will be    131072 words long.
 Raffenetti 2 integral format.
 Two-electron integral symmetry is turned on.
 One-electron integrals computed using PRISM.
 NBasis=   225 RedAO= T EigKep=  1.44D-06  NBF=   225
 NBsUse=   225 1.00D-06 EigRej= -1.00D+00 NBFU=   225
 Initial guess from the checkpoint file:  "ethyl_propiolate.chk"
 B after Tr=     0.000000    0.000000    0.000000
         Rot=    0.998055    0.061535    0.004200   -0.009065 Ang=   7.15 deg.
 Initial guess <Sx>= 0.0000 <Sy>= 0.0000 <Sz>= 0.5000 <S**2>= 0.7634 S= 0.5067
 ExpMin= 3.60D-02 ExpMax= 8.59D+03 ExpMxC= 1.30D+03 IAcc=3 IRadAn=         5 AccDes= 0.00D+00
 Harris functional with IExCor= 1009 and IRadAn=       5 diagonalized for initial guess.
 HarFok:  IExCor= 1009 AccDes= 0.00D+00 IRadAn=         5 IDoV= 1 UseB2=F ITyADJ=14
 ICtDFT=  3500011 ScaDFX=  1.000000  1.000000  1.000000  1.000000
 FoFCou: FMM=F IPFlag=           0 FMFlag=      100000 FMFlg1=           0
         NFxFlg=           0 DoJE=T BraDBF=F KetDBF=T FulRan=T
         wScrn=  0.000000 ICntrl=       500 IOpCl=  0 I1Cent=   200000004 NGrid=           0
         NMat0=    1 NMatS0=      1 NMatT0=    0 NMatD0=    1 NMtDS0=    0 NMtDT0=    0
 Petite list used in FoFCou.
 Requested convergence on RMS density matrix=1.00D-08 within 128 cycles.
 Requested convergence on MAX density matrix=1.00D-06.
 Requested convergence on             energy=1.00D-06.
 No special actions if energy rises.
 SCF Done:  E(UM062X) =  -420.202485969     A.U. after   20 cycles
            NFock= 20  Conv=0.82D-08     -V/T= 2.0032
 <Sx>= 0.0000 <Sy>= 0.0000 <Sz>= 0.5000 <S**2>= 0.7645 S= 0.5072
 <L.S>=  0.00000000000    
 Annihilation of the first spin contaminant:
 S**2 before annihilation     0.7645,   after     0.7501
 Calling FoFJK, ICntrl=      2127 FMM=F ISym2X=0 I1Cent= 0 IOpClX= 1 NMat=1 NMatS=1 NMatT=0.
 ***** Axes restored to original set *****
 -------------------------------------------------------------------
 Center     Atomic                   Forces (Hartrees/Bohr)
 Number     Number              X              Y              Z
 -------------------------------------------------------------------
      1        8          -0.001555501   -0.006572675   -0.008031378
      2        1          -0.000023897   -0.000146492   -0.000093667
      3        6           0.000914761    0.003603607    0.003485226
      4        1          -0.000407459   -0.000146273    0.000124366
      5        6           0.000822065    0.002745822    0.004104432
      6        6          -0.000335016    0.001017641    0.000437519
      7        8           0.000558304   -0.000526952   -0.000421531
      8        8           0.000106995   -0.000030304    0.000450394
      9        6          -0.000129686    0.000054420   -0.000015685
     10        6           0.000052078   -0.000015729    0.000017466
     11        1           0.000034192   -0.000011790    0.000004060
     12        1           0.000005402   -0.000000527   -0.000028786
     13        1          -0.000010734   -0.000038694   -0.000011716
     14        1          -0.000021320    0.000000808    0.000000862
     15        1          -0.000010187    0.000067140   -0.000021561
 -------------------------------------------------------------------
 Cartesian Forces:  Max     0.008031378 RMS     0.001907540

 GradGradGradGradGradGradGradGradGradGradGradGradGradGradGradGradGradGrad
 Berny optimization.
 FormGI is forming the generalized inverse of G from B-inverse, IUseBI=4.
 Internal  Forces:  Max     0.010106370 RMS     0.002028831
 Search for a saddle point.
 Step number   3 out of a maximum of   65
 All quantities printed in internal units (Hartrees-Bohrs-Radians)
 Swapping is turned off.
[...]
 ! D11   D(8,9,10,14)          -56.3522         -DE/DX =    0.0                 !
 ! D12   D(8,9,10,15)           64.8753         -DE/DX =    0.0                 !
 ! D13   D(11,9,10,13)         -60.1447         -DE/DX =    0.0                 !
 ! D14   D(11,9,10,14)          59.1944         -DE/DX =    0.0                 !
 ! D15   D(11,9,10,15)        -179.5781         -DE/DX =    0.0                 !
 ! D16   D(12,9,10,13)          63.0339         -DE/DX =    0.0                 !
 ! D17   D(12,9,10,14)        -177.627          -DE/DX =    0.0                 !
 ! D18   D(12,9,10,15)         -56.3995         -DE/DX =    0.0                 !
 --------------------------------------------------------------------------------
 GradGradGradGradGradGradGradGradGradGradGradGradGradGradGradGradGradGrad


 ----------------------------------------------------------------------

 Electric dipole moment (input orientation):
 (Debye = 10**-18 statcoulomb cm , SI units = C m)
                  (au)            (Debye)         (10**-30 SI)
   Tot        0.133156D+01      0.338449D+01      0.112894D+02
   x          0.357845D+00      0.909551D+00      0.303394D+01
   y         -0.510176D+00     -0.129674D+01     -0.432545D+01
   z          0.117674D+01      0.299098D+01      0.997684D+01

 Dipole polarizability, Alpha (input orientation).
 (esu units = cm**3 , SI units = C**2 m**2 J**-1)
 Alpha(0;0):
               (au)            (10**-24 esu)      (10**-40 SI)
   iso        0.765264D+02      0.113400D+02      0.126175D+02
   aniso      0.514934D+02      0.763053D+01      0.849011D+01
   xx         0.798938D+02      0.118390D+02      0.131727D+02
   yx        -0.120408D+02     -0.178426D+01     -0.198526D+01
   yy         0.584188D+02      0.865678D+01      0.963197D+01
   zx         0.136726D+02      0.202608D+01      0.225432D+01
   zy        -0.165434D+02     -0.245148D+01     -0.272764D+01
   zz         0.912666D+02      0.135243D+02      0.150478D+02

 ----------------------------------------------------------------------

 Dipole orientation:
     8          4.25968645         -0.64125744          0.41105686
     1          5.90476532         -0.81278312          1.21124786
     6          2.07384395         -0.10594249          3.47540616
     1          0.40262556          0.04884139          2.35813765
     6          3.51353456         -0.17826617          5.26710903
     6          5.79443343         -0.38983515          6.78579576
     8          7.83191602         -0.74905425          5.84139892
     8          5.34110278         -0.13300681          9.23718030
     6          7.50140469         -0.34571563         10.89331942
     6          8.19088379         -3.09061136         11.33270470
     1          6.88863263          0.57542528         12.62679396
     1          9.06772048          0.70829847         10.06751543
     1          9.73168878         -3.20189696         12.69974993
     1          6.57529480         -4.12715806         12.08451672
     1          8.81274270         -3.97741267          9.58045461

 Electric dipole moment (dipole orientation):
 (Debye = 10**-18 statcoulomb cm , SI units = C m)
                  (au)            (Debye)         (10**-30 SI)
   Tot        0.133156D+01      0.338449D+01      0.112894D+02
   x          0.000000D+00      0.000000D+00      0.000000D+00
   y          0.000000D+00      0.000000D+00      0.000000D+00
   z          0.133156D+01      0.338449D+01      0.112894D+02

 Dipole polarizability, Alpha (dipole orientation).
 (esu units = cm**3 , SI units = C**2 m**2 J**-1)
 Alpha(0;0):
               (au)            (10**-24 esu)      (10**-40 SI)
   iso        0.765264D+02      0.113400D+02      0.126175D+02
   aniso      0.514934D+02      0.763053D+01      0.849011D+01
   xx         0.728041D+02      0.107885D+02      0.120038D+02
   yx        -0.437631D+01     -0.648502D+00     -0.721556D+00
   yy         0.509749D+02      0.755370D+01      0.840462D+01
   zx         0.101380D+02      0.150230D+01      0.167154D+01
   zy        -0.277871D+00     -0.411762D-01     -0.458147D-01
   zz         0.105800D+03      0.156780D+02      0.174441D+02

 ----------------------------------------------------------------------
 1\1\GINC-AJ\Freq\UM062X\6-311++G(d,p)\C5H7O3(2)\AAYUSH\06-Jun-2025\0\\
 #N Geom=AllCheck Guess=TCheck SCRF=Check GenChk UM062X/6-311++G(d,p) F
 req\\Title Card Required\\0,2\O,2.2076150527,-0.2730243964,-0.54356012
 62\H,3.1536121475,-0.4713727452,-0.4380762567\C,1.5465342424,-0.696344
 0852,1.3088714075\H,0.5416587077,-0.4426335142,1.0554290074\C,2.531885
 4116,-1.0532572516,1.9273581055\C,3.9024642587,-1.3984277682,2.2703072
 275\O,4.7946216383,-1.3232945453,1.4660745178\O,4.0278133141,-1.783240
 6706,3.5332392762\C,5.3565360711,-2.1603240251,3.9573872665\C,5.690493
 5836,-3.5688077562,3.5082880791\H,5.3178673955,-2.0800488754,5.0419516
 966\H,6.0666651116,-1.4332922936,3.5621521643\H,6.6657825299,-3.855708
 1232,3.9059042486\H,4.9452727056,-4.2737398592,3.8794695162\H,5.732109
 6297,-3.6282577006,2.4206133297\\Version=ES64L-G16RevA.03\State=2-A\HF
 =-420.2052423\S2=0.774452\S2-1=0.\S2A=0.750229\RMSD=1.746e-09\RMSF=1.1
 80e-06\ZeroPoint=0.1123122\Thermal=0.1218643\Dipole=0.3578449,-0.51017
 56,1.1767427\DipoleDeriv=-0.2687054,-0.0107219,-0.0602424,0.0019902,-0
 .385796,-0.1741451,-0.1079336,-0.1670714,0.1971437,0.1441531,0.0780562
 ,-0.1549817,0.0296406,0.3123729,0.0158081,0.0057894,-0.0165029,0.35737
 13,-0.0290966,0.0668739,-0.2080171,-0.006137,-0.1431392,0.3295861,0.01
 25298,0.3018099,-1.0433003,0.2590589,-0.0122373,-0.003065,-0.0238627,0
 .2109888,-0.024646,0.0463368,-0.0360849,0.2869197,-0.6331452,0.0343863
 ,0.2421878,0.1489074,-0.1196782,-0.0736085,-0.1896222,0.012036,-0.0006
 998,1.7689345,-0.3983894,0.4334155,-0.4101646,0.6967715,-0.5936264,0.4
 860092,-0.7080854,2.0883806,-1.0389466,0.1065787,0.0471333,0.1035101,-
 0.4397478,0.1631733,0.102331,0.1811091,-0.8639551,-0.9317062,0.3845527
 ,-0.5494576,0.319772,-0.5741683,0.4297289,-0.5488463,0.5360202,-1.4616
 102,0.7214425,-0.3075887,0.4054254,-0.2191404,0.4595741,-0.0967927,0.2
 054884,-0.1105235,0.4646965,-0.0158879,0.0501747,-0.0828099,0.0667288,
 -0.0764194,-0.034328,-0.0091624,-0.0301274,-0.0371914,0.029376,0.04882
 24,0.0020166,0.0346103,0.0374825,-0.0100662,-0.0342258,-0.0187525,-0.1
 029476,-0.028578,0.0080076,-0.0559745,-0.0367364,-0.0536277,0.0262343,
 0.0449185,0.0545665,0.0515173,-0.0680009,0.0590969,-0.0773679,0.044677
 ,0.0378003,0.0287285,-0.0735466,0.0130326,0.0665396,-0.0040919,-0.0939
 208,0.0573783,-0.0377414,-0.0182873,0.0114469,0.0520343,0.026045,0.057
 5472,0.0951937,-0.0136914,0.0043592,-0.0160539,0.0558738,0.0025069,0.0
 078996,-0.0374714,-0.0604115\Polar=79.8938127,-12.0407992,58.4188374,1
 3.6726478,-16.5434316,91.2665621\Quadrupole=3.8743216,-0.5625298,-3.31
 17918,-1.3536425,1.2243394,0.8003871\PG=C01 [X(C5H7O3)]\NImag=1\\0.492
 09047,-0.10908656,0.02465892,0.07688545,-0.00928502,-0.01233570,-0.485
 23771,0.09925703,-0.04717579,0.48398942,0.10373192,-0.02511483,0.01498
 786,-0.09992388,0.02552464,-0.06248370,0.01774133,-0.02509651,0.050544
 59,-0.01649871,0.02873652,-0.01814099,0.00051267,0.00611084,-0.0020159
 1,-0.00198338,0.00782315,1.10987677,0.01422813,0.00259209,-0.03501481,
 0.00253278,-0.00030264,-0.00207221,-0.32358441,0.15255800,-0.04076800,
 -0.02660298,0.11074431,-0.00768145,0.00071018,0.00195807,0.46971330,-0
 .09100269,0.09103871,-0.00504562,-0.00089218,0.00708895,-0.00029224,-0
 .00021317,0.00122743,-0.37145616,0.09176156,-0.10565811,0.36361534,-0.
 00264657,0.00095204,0.00374284,-0.00003864,0.00038928,0.00038933,0.084
 81869,-0.05107370,0.01764739,-0.08768967,0.04013457,0.01307687,0.00263
 935,-0.01543580,0.00062614,0.00050068,-0.00161867,-0.08187668,0.013407
 23,-0.02637624,0.08824371,-0.02449441,0.04707772,0.01822074,0.00995225
 ,-0.04303392,0.00236331,-0.00077920,0.00103014,-0.72029094,0.21595653,
 -0.31899538,0.01283933,0.00456700,-0.01911198,1.00396608,-0.00707029,-
 0.00299480,0.02641084,-0.00104656,-0.00024063,0.00085251,0.23529828,-0
 .10498659,0.09699721,-0.00408833,0.00570416,0.00761559,-0.29562229,0.1
 5514906,0.01511880,0.01601289,-0.06054299,0.00207768,0.00067534,-0.003
 69207,-0.38542130,0.10891686,-0.17021531,0.01051498,0.00231098,-0.0073
 7617,0.43260110,-0.15589518,0.32491138,-0.00373859,0.00075857,-0.00080
 773,0.00674727,-0.00150384,0.00153666,0.00552933,-0.00355925,0.0095729
 8,-0.00032168,0.00154987,-0.00149944,-0.23449988,0.04715746,-0.0602208
 3,0.83442273,0.00030616,-0.00044672,-0.00157057,-0.00058472,0.00052359
 ,0.00137979,0.00301796,0.00099655,0.00027636,0.00166602,0.00522629,0.0
 0097722,0.04525417,-0.08094126,0.00973935,-0.05506699,0.25384701,0.000
 74254,-0.00182201,0.00508225,-0.00169983,0.00189193,-0.00489815,-0.012
 85444,0.00431815,-0.00539075,-0.00185362,0.00103426,0.00344878,-0.0548
 2532,0.00857546,-0.06630672,-0.19251596,-0.12272080,0.74838256,0.00146
 245,-0.00018854,0.00024100,-0.00420494,0.00037527,0.00034247,0.0025770
 9,0.00014127,-0.00178200,0.00082345,-0.00015777,-0.00051560,-0.0697013
 7,0.00849620,0.02613220,-0.47115353,-0.02426676,0.32185530,0.52483096,
 0.00045331,0.00055424,0.00071954,-0.00032374,-0.00112987,-0.00130859,0
 .00004765,0.00023465,0.00046932,-0.00034572,-0.00078902,-0.00013862,0.
 00869282,0.02026353,-0.00178974,-0.01932712,-0.08465641,0.02895830,0.0
 2452059,0.04554509,-0.00191062,0.00105485,-0.00169309,0.00275900,-0.00
 168790,0.00266445,-0.00153572,0.00044883,-0.00013944,0.00011937,-0.000
 24687,-0.00011697,0.02556317,-0.00167543,0.01118109,0.30245633,0.03079
 385,-0.37172693,-0.38316132,-0.05210345,0.44940324,0.00015970,-0.00035
 633,0.00097660,-0.00145649,0.00015012,0.00053642,-0.00688462,0.0030715
 8,-0.00558814,-0.00005021,-0.00040571,0.00129104,-0.01504332,0.0161697
 5,-0.04229570,-0.12239410,0.02134282,-0.03468946,0.01725232,-0.0117195
 9,0.04502929,0.38159602,0.00018639,-0.00012340,-0.00004354,0.00013752,
 0.00034563,-0.00066160,0.00190871,-0.00010335,0.00181302,-0.00019120,-
 0.00020426,-0.00046294,0.01138554,0.00308926,0.01796558,0.01316087,-0.
 09058650,0.06974310,-0.01004173,0.02557393,0.02659748,-0.07286537,0.13
 677394,-0.00081382,0.00028889,-0.00068574,0.00058790,-0.00065090,0.002
 15641,-0.00114986,0.00091438,-0.00169773,0.00046811,-0.00030284,0.0004
 2854,-0.02360778,0.01420383,-0.02468537,-0.01020687,0.06749780,-0.2863
 0713,0.04185494,0.02587251,-0.09045992,0.05970696,-0.13099165,0.493436
 88,0.00025140,0.00006282,-0.00037480,0.00023541,0.00018842,-0.00073105
 ,0.00160915,-0.00092872,0.00190886,-0.00016778,0.00003130,-0.00039710,
 0.00313281,0.00043237,0.00387614,-0.00379981,0.01221426,-0.04444162,-0
 .01018804,-0.00386907,0.01536844,-0.18079478,0.02259751,-0.02372380,0.
 47474565,-0.00012733,-0.00011192,0.00008557,-0.00004408,0.00002392,0.0
 0029762,-0.00038355,0.00022507,-0.00063713,0.00000895,-0.00034702,0.00
 002216,0.00020974,0.00542029,0.00118978,0.01411045,-0.00485063,0.01261
 969,-0.00022277,-0.00365839,-0.00648352,0.01571594,-0.07144224,0.01178
 246,0.07041854,0.53039590,0.00015101,0.00001813,-0.00007615,0.00002393
 ,0.00005172,-0.00033051,-0.00043457,-0.00003274,0.00042169,-0.00020258
 ,-0.00008030,-0.00009990,0.00030575,0.00287342,-0.00286032,-0.04367514
 ,0.01455619,-0.02912119,-0.00450431,-0.00231197,0.00386156,-0.00302318
 ,0.00726407,-0.08844262,-0.04584494,-0.01753450,0.63819983,-0.00003136
 ,0.00001510,0.00003725,-0.00005871,-0.00006282,0.00012808,-0.00031079,
 0.00019391,-0.00037343,0.00006688,0.00007579,0.00010222,-0.00063658,-0
 .00133381,-0.00105918,-0.00113278,-0.00018837,0.00763185,0.00197971,0.
 00172718,-0.00194043,-0.02477268,0.04265040,0.00009306,-0.07662477,0.0
 0798176,0.00749111,0.58201868,0.00001192,0.00001060,-0.00001893,-0.000
 00186,-0.00001099,-0.00002260,-0.00004890,0.00002528,0.00004739,-0.000
 00088,-0.00000762,-0.00001674,0.00030658,-0.00000489,0.00018315,-0.000
 67208,-0.00038266,0.00064621,0.00093163,-0.00121200,-0.00043470,0.0119
 3311,-0.00907376,0.00018026,0.01822706,-0.19907249,-0.03993581,0.02310
 996,0.50420364,0.00000713,-0.00004457,0.00004298,-0.00004893,0.0000362
 0,0.00005070,-0.00019025,0.00006186,-0.00021472,0.00002606,0.00003483,
 0.00006040,0.00001915,-0.00052033,-0.00034291,-0.00271662,0.00142797,0
 .00563130,0.00188619,-0.00123969,-0.00093360,-0.00747669,0.01633349,0.
 00240405,0.01124773,-0.04561558,-0.10052815,0.00667584,-0.02398849,0.5
 8372190,-0.00000461,-0.00001745,0.00003091,-0.00004313,0.00000529,0.00
 005012,-0.00048467,0.00015801,-0.00025745,-0.00000418,-0.00005020,0.00
 004151,-0.00023179,0.00100357,-0.00121556,-0.00734100,-0.00135533,0.00
 300873,0.00304687,-0.00008810,-0.00030025,-0.01220084,0.00499868,-0.04
 486385,-0.04814568,-0.00316700,0.02723789,0.00071318,-0.00058050,0.007
 26425,0.06170148,0.00001747,0.00000480,-0.00001070,0.00001622,0.000003
 16,-0.00006060,0.00016915,-0.00009109,0.00014026,-0.00000563,0.0000057
 1,-0.00002889,0.00004545,-0.00005203,0.00039095,0.00099583,0.00012154,
 0.00108511,0.00090506,0.00007856,0.00059540,0.00332287,-0.00051376,0.0
 1171365,-0.00262306,-0.05263526,-0.02117902,0.00205424,-0.00224954,-0.
 03331905,-0.00564712,0.05589177,-0.00001975,0.00001514,0.00000324,-0.0
 0002048,-0.00002820,0.00006148,-0.00015781,0.00009006,-0.00016030,0.00
 002244,-0.00001259,0.00002479,-0.00020874,0.00010557,-0.00038066,-0.00
 073990,-0.00109669,0.00170832,-0.00051942,0.00007555,-0.00000681,-0.00
 501969,0.00327034,-0.01145251,0.01377001,-0.01805705,-0.32553922,0.001
 73717,-0.00106661,-0.00643257,-0.01038865,0.01968015,0.34927945,0.0000
 0640,0.00000583,0.00003694,-0.00004905,-0.00002065,0.00002496,-0.00007
 882,0.00007854,-0.00016172,0.00000825,-0.00005807,0.00003202,-0.000114
 83,0.00055947,-0.00018965,-0.00166602,-0.00289727,0.00859954,0.0031944
 5,0.00034899,-0.00186224,-0.03892393,-0.01403982,0.00129221,-0.1564599
 3,-0.11274930,0.06089426,0.00837752,0.00583149,-0.00302741,0.00186865,
 -0.00010441,0.00108654,0.18341072,0.00001125,0.00000223,-0.00000596,0.
 00000310,0.00000690,-0.00003816,0.00008248,-0.00001921,0.00010688,-0.0
 0001317,0.00002724,-0.00000555,0.00000920,-0.00050008,-0.00021994,-0.0
 0027088,0.00131795,0.00034774,0.00137499,-0.00039209,0.00107201,0.0107
 3948,0.00874409,-0.00339496,-0.11967964,-0.17482255,0.06802597,-0.0195
 0010,-0.02087860,0.01176888,0.00300711,0.00310253,-0.00121805,0.121862
 53,0.18623372,0.00002606,-0.00002246,0.00000952,-0.00001162,0.00002670
 ,-0.00003180,-0.00004667,-0.00006750,0.00003450,-0.00001124,-0.0000338
 1,-0.00000185,0.00046469,0.00079946,0.00010673,-0.00356906,-0.00105289
 ,0.00296909,0.00044316,-0.00013222,-0.00265225,-0.01223634,-0.00830011
 ,0.00233967,0.07034836,0.07190163,-0.09215701,-0.00721884,-0.00830702,
 0.00470171,0.01992172,0.02118377,-0.00888498,-0.06766747,-0.07444299,0
 .09281260,-0.00001101,0.00000763,0.00001287,-0.00001741,-0.00001765,0.
 00004250,-0.00001768,0.00002145,-0.00009819,0.00002013,-0.00001114,0.0
 0001761,-0.00011560,0.00000169,-0.00003434,0.00014564,-0.00059215,0.00
 172557,0.00032301,-0.00001398,-0.00036291,0.00074054,0.00221656,-0.000
 40374,-0.00678171,-0.00052807,-0.00266475,-0.26405719,0.06390014,-0.08
 939334,0.00014260,0.00010020,0.00034977,0.00018989,0.00037245,0.000069
 97,0.28496111,0.00000875,0.00001379,-0.00001313,0.00002511,0.00000434,
 -0.00005783,0.00015657,-0.00009476,0.00016595,-0.00002460,-0.00001590,
 -0.00003890,0.00020204,0.00035062,0.00038883,0.00046692,0.00035988,-0.
 00351723,-0.00087147,-0.00025534,0.00091320,0.00438884,-0.00818707,0.0
 0041690,0.02627774,-0.00336726,0.01355235,0.06213703,-0.06593801,0.024
 65662,-0.00017610,0.00118154,-0.00046758,-0.00093023,0.00058580,0.0006
 9363,-0.07069370,0.06943283,-0.00000212,0.00001707,0.00000236,-0.00000
 429,-0.00002496,0.00001883,0.00002724,0.00001414,-0.00000531,0.0000084
 9,-0.00000799,-0.00000511,-0.00005505,-0.00004641,0.00013288,0.0011490
 3,-0.00047423,-0.00176671,-0.00075006,0.00075908,0.00052439,0.00232239
 ,-0.00342250,0.00164669,0.00904948,-0.00068048,0.00231996,-0.09056685,
 0.02546253,-0.08296253,-0.00003264,0.00074358,0.00002208,-0.00019362,0
 .00036837,0.00030246,0.09793738,-0.02709006,0.08573021,0.00000878,0.00
 000599,-0.00000733,0.00000738,-0.00000165,-0.00002231,0.00003453,-0.00
 002232,0.00006648,-0.00001248,0.00000283,-0.00001382,0.00006636,0.0000
 0827,0.00004936,-0.00005727,0.00015342,-0.00093891,-0.00018377,-0.0000
 2649,0.00018196,0.00213075,-0.00085436,0.00059134,0.00469567,0.0073582
 8,-0.00354860,-0.17650578,-0.12169051,0.06518099,0.00024529,-0.0007327
 0,-0.00033919,0.00029685,0.00226032,0.00023718,-0.01794580,-0.01862516
 ,0.01074441,0.18751711,0.00000444,0.00000920,0.00001932,-0.00001425,-0
 .00000702,-0.00000597,0.00004192,-0.00000383,-0.00001748,-0.00000173,-
 0.00000527,0.00000974,0.00003661,-0.00004876,0.00002003,-0.00035042,-0
 .00039877,0.00105633,0.00046989,0.00007325,-0.00033599,-0.00063175,0.0
 0357348,-0.00029069,-0.02340878,-0.02350090,0.01115935,-0.11881522,-0.
 15760126,0.05988681,0.00013891,0.00129510,-0.00004560,0.00239332,-0.00
 483321,-0.00261823,0.00656414,0.00648981,-0.00430981,0.13098058,0.1738
 3339,-0.00000909,-0.00001415,-0.00002455,0.00002289,0.00000904,0.00000
 489,-0.00000002,-0.00000480,0.00001953,-0.00000039,0.00001676,-0.00000
 454,-0.00011978,-0.00009895,0.00002599,0.00067291,0.00040631,-0.000877
 36,-0.00071813,0.00052255,0.00029183,-0.00013370,0.00089254,-0.0000142
 2,-0.00953825,-0.00797659,0.00377426,0.06644877,0.06067829,-0.08222160
 ,-0.00067416,0.00040286,0.00047298,0.00110549,-0.00231437,0.00003345,-
 0.00817990,-0.00922144,0.00353264,-0.07171216,-0.06398674,0.08330746,0
 .00000995,-0.00003685,-0.00002124,0.00003280,0.00005522,-0.00004946,0.
 00005370,-0.00004906,0.00010224,-0.00002302,0.00001227,-0.00001652,0.0
 0004568,0.00003422,0.00006630,-0.00074031,0.00099680,0.00025563,-0.000
 05866,-0.00007673,-0.00040406,0.00064164,-0.00124969,0.00017520,-0.001
 70758,0.00141844,0.00779413,-0.04902532,-0.00125716,0.01054589,0.00073
 783,0.00148643,0.00044770,-0.00006014,-0.00025911,-0.00074989,0.002423
 47,-0.00234172,-0.02963379,-0.00029762,0.00259233,0.02283553,0.0479675
 8,-0.00002899,-0.00000625,-0.00000331,0.00000596,-0.00001548,0.0000656
 8,-0.00005386,0.00004353,-0.00011368,0.00002976,0.00000348,0.00001408,
 -0.00021644,-0.00020789,0.00011112,0.00255064,-0.00012985,-0.00221623,
 -0.00146587,-0.00023013,0.00149224,-0.00085574,0.00213401,0.00276036,0
 .00005924,-0.00225653,-0.03642688,-0.00004505,-0.04780770,-0.00947894,
 0.00177022,-0.00614303,-0.00124443,-0.00028043,0.00142527,0.00037204,-
 0.00132757,-0.00056026,0.00869166,0.00118351,0.00112478,0.02068869,-0.
 00132538,0.05262603,-0.00000075,0.00000354,0.00000586,0.00000026,0.000
 00102,0.00001636,-0.00000722,0.00002324,-0.00001701,0.00000640,0.00000
 241,-0.00000500,-0.00002605,-0.00019760,0.00004446,0.00056364,-0.00013
 965,-0.00082737,-0.00080443,0.00164742,-0.00019755,0.00060020,0.000002
 73,0.00133300,-0.00051745,-0.00091407,-0.00942225,0.01081340,-0.013406
 92,-0.32297697,0.00017744,-0.00133749,0.00128472,0.00003013,-0.0000498
 7,0.00041818,0.00098151,-0.00038133,-0.00949285,-0.00046940,-0.0005410
 6,-0.00832075,-0.01134768,0.01528763,0.34815718\\0.00000096,0.00000038
 ,-0.00000023,0.00000113,0.00000132,0.00000030,-0.00000044,-0.00000189,
 -0.00000181,-0.00000028,-0.00000270,-0.00000209,-0.00000020,-0.0000012
 0,-0.00000075,-0.00000038,-0.00000040,0.00000014,0.00000030,0.00000161
 ,0.00000111,-0.00000107,-0.00000096,0.00000002,-0.00000110,0.,0.000000
 88,0.00000084,0.00000077,0.,-0.00000220,-0.00000093,0.00000091,-0.0000
 0153,0.00000113,0.00000215,0.00000078,0.00000149,0.00000066,0.00000126
 ,-0.00000035,-0.00000128,0.00000191,0.00000173,0.\\\@


 HE WHO LAUGHS LAST PROBABLY DIDN'T GET THE JOKE.
 Job cpu time:       0 days  0 hours 44 minutes 39.6 seconds.
 Elapsed time:       0 days  0 hours  1 minutes 52.0 seconds.
 File lengths (MBytes):  RWF=    153 Int=      0 D2E=      0 Chk=     10 Scr=      1
 Normal termination of Gaussian 16 at Fri Jun  6 19:41:57 2025.
