 Entering Gaussian System, Link 0=g16
 Initial command:
 /opt/g16/l1.exe "/home/aayush/scratches/g16/Gau-57426.inp" -scrdir="/home/aayush/scratches/g16/"
 Entering Link 1 = /opt/g16/l1.exe PID=     57429.
  
 Copyright (c) 1988,1990,1992,1993,1995,1998,2003,2009,2016,
            Gaussian, Inc.  All Rights Reserved.
  
 This is part of the Gaussian(R) 16 program.  It is based on
 the Gaussian(R) 09 system (copyright 2009, Gaussian, Inc.),
 the Gaussian(R) 03 system (copyright 2003, Gaussian, Inc.),
 the Gaussian(R) 98 system (copyright 1998, Gaussian, Inc.),
 the Gaussian(R) 94 system (copyright 1995, Gaussian, Inc.),
 the Gaussian 92(TM) system (copyright 1992, Gaussian, Inc.),
 the Gaussian 90(TM) system (copyright 1990, Gaussian, Inc.),
 the Gaussian 88(TM) system (copyright 1988, Gaussian, Inc.),
 the Gaussian 86(TM) system (copyright 1986, Carnegie Mellon
 University), and the Gaussian 82(TM) system (copyright 1983,
 Carnegie Mellon University). Gaussian is a federally registered
 trademark of Gaussian, Inc.
  
 This software contains proprietary and confidential information,
 including trade secrets, belonging to Gaussian, Inc.
  
 This software is provided under written license and may be
 used, copied, transmitted, or stored only in accord with that
 written license.
  
 The following legend is applicable only to US Government
 contracts under FAR:
  
                    RESTRICTED RIGHTS LEGEND
  
 Use, reproduction and disclosure by the US Government is
 subject to restrictions as set forth in subparagraphs (a)
 and (c) of the Commercial Computer Software - Restricted
 Rights clause in FAR 52.227-19.
  
 Gaussian, Inc.
 340 Quinnipiac St., Bldg. 40, Wallingford CT 06492
  
  
 ---------------------------------------------------------------
 Warning -- This program may not be used in any manner that
 competes with the business of Gaussian, Inc. or will provide
 assistance to any competitor of Gaussian, Inc.  The licensee
 of this program is prohibited from giving any competitor of
 Gaussian, Inc. access to this program.  By using this program,
 the user acknowledges that Gaussian, Inc. is engaged in the
 business of creating and licensing software in the field of
 computational chemistry and represents and warrants to the
 licensee that it is not a competitor of Gaussian, Inc. and that
 it will not use this program in any manner prohibited above.
 ---------------------------------------------------------------
  

 Cite this work as:
 Gaussian 16, Revision A.03,
 M. J. Frisch, G. W. Trucks, H. B. Schlegel, G. E. Scuseria, 
 M. A. Robb, J. R. Cheeseman, G. Scalmani, V. Barone, 
 G. A. Petersson, H. Nakatsuji, X. Li, M. Caricato, A. V. Marenich, 
 J. Bloino, B. G. Janesko, R. Gomperts, B. Mennucci, H. P. Hratchian, 
 J. V. Ortiz, A. F. Izmaylov, J. L. Sonnenberg, D. Williams-Young, 
 F. Ding, F. Lipparini, F. Egidi, J. Goings, B. Peng, A. Petrone, 
 T. Henderson, D. Ranasinghe, V. G. Zakrzewski, J. Gao, N. Rega, 
 G. Zheng, W. Liang, M. Hada, M. Ehara, K. Toyota, R. Fukuda, 
 J. Hasegawa, M. Ishida, T. Nakajima, Y. Honda, O. Kitao, H. Nakai, 
 T. Vreven, K. Throssell, J. A. Montgomery, Jr., J. E. Peralta, 
 F. Ogliaro, M. J. Bearpark, J. J. Heyd, E. N. Brothers, K. N. Kudin, 
 V. N. Staroverov, T. A. Keith, R. Kobayashi, J. Normand, 
 K. Raghavachari, A. P. Rendell, J. C. Burant, S. S. Iyengar, 
 J. Tomasi, M. Cossi, J. M. Millam, M. Klene, C. Adamo, R. Cammi, 
 J. W. Ochterski, R. L. Martin, K. Morokuma, O. Farkas, 
 J. B. Foresman, and D. J. Fox, Gaussian, Inc., Wallingford CT, 2016.
 
 ******************************************
 Gaussian 16:  ES64L-G16RevA.03 25-Dec-2016
                 6-Jun-2025 
 ******************************************
 %chk=ethyl_propiolate.chk
 %nprocshared=24
 Will use up to   24 processors via shared memory.
 %mem=12GB
 -----------------------------------------------------
 # opt=(calcfc,tight,ts,noeigentest) freq 6-31+g m062x
 -----------------------------------------------------
 1/5=1,7=10,10=4,11=1,18=20,26=3,38=1/1,3;
 2/9=110,12=2,17=6,18=5,40=1/2;
 3/5=1,6=6,7=10,11=2,25=1,30=1,71=2,74=-55,140=1/1,2,3;
 4//1;
 5/5=2,38=5/2;
 8/6=4,10=90,11=11/1;
 11/6=1,8=1,9=11,15=111,16=1/1,2,10;
 10/6=1,13=1/2;
 6/7=2,8=2,9=2,10=2,28=1/1;
 7/10=1,18=20,25=1/1,2,3,16;
 1/5=1,7=10,10=4,11=1,18=20,26=3/3(2);
 2/9=110/2;
 99//99;
 2/9=110/2;
 3/5=1,6=6,7=10,11=2,25=1,30=1,71=1,74=-55/1,2,3;
 4/5=5,16=3,69=1/1;
 5/5=2,38=5/2;
 7//1,2,3,16;
 1/5=1,7=10,11=1,18=20,26=3/3(-5);
 2/9=110/2;
 6/7=2,8=2,9=2,10=2,19=2,28=1/1;
 99/9=1/99;
 -------------------
 Title Card Required
 -------------------
 Symbolic Z-matrix:
 Charge =  0 Multiplicity = 2
 O                     2.02509  -1.72813   0.34604 
 H                     2.74802  -1.51353  -0.27537 
 C                     1.82417  -0.14004   1.29072 
 H                     0.91792   0.2092    0.85427 
 C                     2.84347  -0.53294   1.78252 
 C                     4.11273  -0.98013   2.34054 
 O                     5.18269  -0.62988   1.92589 
 O                     3.91848  -1.81404   3.36249 
 C                     5.10732  -2.33617   3.98988 
 C                     5.68986  -3.48173   3.18552 
 H                     4.76581  -2.66477   4.96979 
 H                     5.82584  -1.52418   4.10739 
 H                     6.54253  -3.90627   3.71897 
 H                     4.94438  -4.26593   3.0456 
 H                     6.03262  -3.13323   2.21117 
 
 Add virtual bond connecting atoms C3         and O1         Dist= 3.51D+00.

 GradGradGradGradGradGradGradGradGradGradGradGradGradGradGradGradGradGrad
 Berny optimization.
 Initialization pass.
                           ----------------------------
                           !    Initial Parameters    !
                           ! (Angstroms and Degrees)  !
 --------------------------                            --------------------------
 ! Name  Definition              Value          Derivative Info.                !
 --------------------------------------------------------------------------------
 ! R1    R(1,2)                  0.9772         calculate D2E/DX2 analytically  !
 ! R2    R(1,3)                  1.8587         calculate D2E/DX2 analytically  !
 ! R3    R(3,4)                  1.0648         calculate D2E/DX2 analytically  !
 ! R4    R(3,5)                  1.198          calculate D2E/DX2 analytically  !
 ! R5    R(5,6)                  1.4568         calculate D2E/DX2 analytically  !
 ! R6    R(6,7)                  1.1998         calculate D2E/DX2 analytically  !
 ! R7    R(6,8)                  1.3332         calculate D2E/DX2 analytically  !
 ! R8    R(8,9)                  1.4421         calculate D2E/DX2 analytically  !
 ! R9    R(9,10)                 1.5161         calculate D2E/DX2 analytically  !
 ! R10   R(9,11)                 1.0885         calculate D2E/DX2 analytically  !
 ! R11   R(9,12)                 1.0906         calculate D2E/DX2 analytically  !
 ! R12   R(10,13)                1.0917         calculate D2E/DX2 analytically  !
 ! R13   R(10,14)                1.091          calculate D2E/DX2 analytically  !
 ! R14   R(10,15)                1.0901         calculate D2E/DX2 analytically  !
 ! A1    A(2,1,3)              102.4469         calculate D2E/DX2 analytically  !
 ! A2    A(1,3,4)               99.4343         calculate D2E/DX2 analytically  !
 ! A3    A(1,3,5)               80.5877         calculate D2E/DX2 analytically  !
 ! A4    A(5,6,7)              123.7101         calculate D2E/DX2 analytically  !
 ! A5    A(5,6,8)              111.0176         calculate D2E/DX2 analytically  !
 ! A6    A(7,6,8)              125.2717         calculate D2E/DX2 analytically  !
 ! A7    A(6,8,9)              116.0929         calculate D2E/DX2 analytically  !
 ! A8    A(8,9,10)             111.0706         calculate D2E/DX2 analytically  !
 ! A9    A(8,9,11)             104.0231         calculate D2E/DX2 analytically  !
 ! A10   A(8,9,12)             108.6904         calculate D2E/DX2 analytically  !
 ! A11   A(10,9,11)            111.7188         calculate D2E/DX2 analytically  !
 ! A12   A(10,9,12)            111.5044         calculate D2E/DX2 analytically  !
 ! A13   A(11,9,12)            109.54           calculate D2E/DX2 analytically  !
 ! A14   A(9,10,13)            109.5535         calculate D2E/DX2 analytically  !
 ! A15   A(9,10,14)            110.4018         calculate D2E/DX2 analytically  !
 ! A16   A(9,10,15)            110.6987         calculate D2E/DX2 analytically  !
 ! A17   A(13,10,14)           108.4715         calculate D2E/DX2 analytically  !
 ! A18   A(13,10,15)           108.3907         calculate D2E/DX2 analytically  !
 ! A19   A(14,10,15)           109.2695         calculate D2E/DX2 analytically  !
 ! A20   L(4,3,5,1,-1)         180.0221         calculate D2E/DX2 analytically  !
 ! A21   L(3,5,6,2,-1)         179.1158         calculate D2E/DX2 analytically  !
 ! A22   L(4,3,5,1,-2)         180.0329         calculate D2E/DX2 analytically  !
 ! A23   L(3,5,6,2,-2)         177.8008         calculate D2E/DX2 analytically  !
 ! D1    D(2,1,3,4)            105.7605         calculate D2E/DX2 analytically  !
 ! D2    D(2,1,3,5)            -74.2724         calculate D2E/DX2 analytically  !
 ! D3    D(1,3,6,7)             94.4991         calculate D2E/DX2 analytically  !
 ! D4    D(1,3,6,8)            -85.734          calculate D2E/DX2 analytically  !
 ! D5    D(5,6,8,9)            179.3849         calculate D2E/DX2 analytically  !
 ! D6    D(7,6,8,9)             -0.8882         calculate D2E/DX2 analytically  !
 ! D7    D(6,8,9,10)           -79.8164         calculate D2E/DX2 analytically  !
 ! D8    D(6,8,9,11)           159.854          calculate D2E/DX2 analytically  !
 ! D9    D(6,8,9,12)            43.2115         calculate D2E/DX2 analytically  !
 ! D10   D(8,9,10,13)         -175.7796         calculate D2E/DX2 analytically  !
 ! D11   D(8,9,10,14)          -56.3848         calculate D2E/DX2 analytically  !
 ! D12   D(8,9,10,15)           64.7415         calculate D2E/DX2 analytically  !
 ! D13   D(11,9,10,13)         -60.1223         calculate D2E/DX2 analytically  !
 ! D14   D(11,9,10,14)          59.2724         calculate D2E/DX2 analytically  !
 ! D15   D(11,9,10,15)        -179.6013         calculate D2E/DX2 analytically  !
 ! D16   D(12,9,10,13)          62.8272         calculate D2E/DX2 analytically  !
 ! D17   D(12,9,10,14)        -177.7781         calculate D2E/DX2 analytically  !
 ! D18   D(12,9,10,15)         -56.6518         calculate D2E/DX2 analytically  !
 --------------------------------------------------------------------------------
 Trust Radius=3.00D-01 FncErr=1.00D-07 GrdErr=1.00D-06 EigMax=2.50D+02 EigMin=1.00D-04
 Number of steps in this run=     65 maximum allowed number of steps=    100.
 Search for a saddle point of order  1.
 GradGradGradGradGradGradGradGradGradGradGradGradGradGradGradGradGradGrad

                          Input orientation:                          
 ---------------------------------------------------------------------
 Center     Atomic      Atomic             Coordinates (Angstroms)
 Number     Number       Type             X           Y           Z
 ---------------------------------------------------------------------
      1          8           0        2.025089   -1.728135    0.346037
      2          1           0        2.748016   -1.513529   -0.275368
      3          6           0        1.824173   -0.140044    1.290718
      4          1           0        0.917924    0.209204    0.854267
      5          6           0        2.843471   -0.532944    1.782524
      6          6           0        4.112730   -0.980130    2.340539
      7          8           0        5.182686   -0.629876    1.925890
      8          8           0        3.918476   -1.814043    3.362493
      9          6           0        5.107317   -2.336166    3.989876
     10          6           0        5.689861   -3.481732    3.185522
     11          1           0        4.765815   -2.664768    4.969785
     12          1           0        5.825844   -1.524185    4.107387
     13          1           0        6.542526   -3.906271    3.718974
     14          1           0        4.944381   -4.265927    3.045596
     15          1           0        6.032624   -3.133228    2.211169
 ---------------------------------------------------------------------
                    Distance matrix (angstroms):
                    1          2          3          4          5
     1  O    0.000000
     2  H    0.977150   0.000000
     3  C    1.858715   2.278722   0.000000
     4  H    2.288536   2.755562   1.064778   0.000000
     5  C    2.040030   2.281573   1.198004   2.262781   0.000000
     6  C    2.982582   2.998321   2.654310   3.718912   1.456837
     7  O    3.697637   3.399117   3.452968   4.476676   2.345607
     8  O    3.562485   3.833317   3.388308   4.403185   2.300685
     9  C    4.811174   4.943212   4.784082   5.819104   3.639919
    10  C    4.956645   4.950357   5.449835   6.467546   4.331938
    11  H    5.455997   5.736593   5.344438   6.324829   4.289372
    12  H    5.351176   5.355528   5.085552   6.138005   3.909232
    13  H    6.043857   6.006521   6.507207   7.535239   5.367698
    14  H    4.717019   4.840302   5.462436   6.406331   4.465908
    15  H    4.638247   4.426617   5.245707   6.258849   4.137137
                    6          7          8          9         10
     6  C    0.000000
     7  O    1.199757   0.000000
     8  O    1.333243   2.250401   0.000000
     9  C    2.355494   2.679020   1.442070   0.000000
    10  C    3.075606   3.158637   2.439326   1.516134   0.000000
    11  H    3.190213   3.685087   2.006266   1.088497   2.169075
    12  H    2.520418   2.443844   2.068076   1.090598   2.168022
    13  H    4.045528   3.974806   3.374927   2.144397   1.091715
    14  H    3.461967   3.812007   2.676684   2.154574   1.091000
    15  H    2.887656   2.659050   2.745071   2.157614   1.090095
                   11         12         13         14         15
    11  H    0.000000
    12  H    1.779978   0.000000
    13  H    2.502511   2.517704   0.000000
    14  H    2.509601   3.069451   1.771117   0.000000
    15  H    3.071518   2.495480   1.769484   1.778637   0.000000
 Stoichiometry    C5H7O3(2)
 Framework group  C1[X(C5H7O3)]
 Deg. of freedom    39
 Full point group                 C1      NOp   1
 Largest Abelian subgroup         C1      NOp   1
 Largest concise Abelian subgroup C1      NOp   1
                         Standard orientation:                         
 ---------------------------------------------------------------------
 Center     Atomic      Atomic             Coordinates (Angstroms)
 Number     Number       Type             X           Y           Z
 ---------------------------------------------------------------------
      1          8           0       -2.356574    1.309534    0.219829
      2          1           0       -2.280958    1.137404    1.178722
      3          6           0       -2.636063   -0.392853   -0.471970
      4          1           0       -3.673756   -0.320628   -0.699408
      5          6           0       -1.468377   -0.474320   -0.216854
      6          6           0       -0.062587   -0.595181    0.145808
      7          8           0        0.319472   -1.051587    1.187509
      8          8           0        0.723785   -0.139909   -0.829836
      9          6           0        2.142756   -0.195621   -0.578873
     10          6           0        2.587057    0.959086    0.297433
     11          1           0        2.588270   -0.143270   -1.570640
     12          1           0        2.379525   -1.157639   -0.122950
     13          1           0        3.672728    0.935843    0.409771
     14          1           0        2.306812    1.910767   -0.156492
     15          1           0        2.137201    0.886548    1.287723
 ---------------------------------------------------------------------
 Rotational constants (GHZ):           4.1134118           1.1309599           1.0703698
 Standard basis: 6-31+G (6D, 7F)
 There are   118 symmetry adapted cartesian basis functions of A   symmetry.
 There are   118 symmetry adapted basis functions of A   symmetry.
   118 basis functions,   236 primitive gaussians,   118 cartesian basis functions
    31 alpha electrons       30 beta electrons
       nuclear repulsion energy       359.4366697275 Hartrees.
 NAtoms=   15 NActive=   15 NUniq=   15 SFac= 1.00D+00 NAtFMM=   60 NAOKFM=F Big=F
 Integral buffers will be    131072 words long.
 Raffenetti 2 integral format.
 Two-electron integral symmetry is turned on.
 One-electron integrals computed using PRISM.
 NBasis=   118 RedAO= T EigKep=  1.56D-06  NBF=   118
 NBsUse=   118 1.00D-06 EigRej= -1.00D+00 NBFU=   118
 ExpMin= 4.38D-02 ExpMax= 5.48D+03 ExpMxC= 8.25D+02 IAcc=3 IRadAn=         5 AccDes= 0.00D+00
 Harris functional with IExCor= 1009 and IRadAn=       5 diagonalized for initial guess.
 HarFok:  IExCor= 1009 AccDes= 0.00D+00 IRadAn=         5 IDoV= 1 UseB2=F ITyADJ=14
 ICtDFT=  3500011 ScaDFX=  1.000000  1.000000  1.000000  1.000000
 FoFCou: FMM=F IPFlag=           0 FMFlag=      100000 FMFlg1=           0
         NFxFlg=           0 DoJE=T BraDBF=F KetDBF=T FulRan=T
         wScrn=  0.000000 ICntrl=       500 IOpCl=  0 I1Cent=   200000004 NGrid=           0
         NMat0=    1 NMatS0=      1 NMatT0=    0 NMatD0=    1 NMtDS0=    0 NMtDT0=    0
 Petite list used in FoFCou.
 Initial guess <Sx>= 0.0000 <Sy>= 0.0000 <Sz>= 0.5000 <S**2>= 0.7500 S= 0.5000
 Requested convergence on RMS density matrix=1.00D-08 within 128 cycles.
 Requested convergence on MAX density matrix=1.00D-06.
 Requested convergence on             energy=1.00D-06.
 No special actions if energy rises.
 SCF Done:  E(UM062X) =  -419.935874430     A.U. after   20 cycles
            NFock= 20  Conv=0.84D-08     -V/T= 2.0045
 <Sx>= 0.0000 <Sy>= 0.0000 <Sz>= 0.5000 <S**2>= 0.7613 S= 0.5056
 <L.S>=  0.00000000000    
 Annihilation of the first spin contaminant:
 S**2 before annihilation     0.7613,   after     0.7501
 DoSCS=F DFT=T ScalE2(SS,OS)=  1.000000  1.000000
 Range of M.O.s used for correlation:     1   118
 NBasis=   118 NAE=    31 NBE=    30 NFC=     0 NFV=     0
 NROrb=    118 NOA=    31 NOB=    30 NVA=    87 NVB=    88

 **** Warning!!: The largest alpha MO coefficient is  0.25554718D+03


 **** Warning!!: The largest beta MO coefficient is  0.23759987D+03

 Symmetrizing basis deriv contribution to polar:
 IMax=3 JMax=2 DiffMx= 0.00D+00
 G2DrvN: will do    16 centers at a time, making    1 passes.
 Calling FoFCou, ICntrl=  3107 FMM=F I1Cent=   0 AccDes= 0.00D+00.
 End of G2Drv F.D. properties file   721 does not exist.
 End of G2Drv F.D. properties file   722 does not exist.
 End of G2Drv F.D. properties file   788 does not exist.
          IDoAtm=111111111111111
          Differentiating once with respect to nuclear coordinates.
 Keep R1 and R2 ints in memory in canonical form, NReq=71861349.
          There are    48 degrees of freedom in the 1st order CPHF.  IDoFFX=6 NUNeed=     0.
     42 vectors produced by pass  0 Test12= 1.11D-14 2.08D-09 XBig12= 1.05D+00 1.99D-01.
 AX will form    42 AO Fock derivatives at one time.
     42 vectors produced by pass  1 Test12= 1.11D-14 2.08D-09 XBig12= 3.54D-02 4.57D-02.
     42 vectors produced by pass  2 Test12= 1.11D-14 2.08D-09 XBig12= 8.73D-04 4.68D-03.
     42 vectors produced by pass  3 Test12= 1.11D-14 2.08D-09 XBig12= 1.08D-05 5.70D-04.
     42 vectors produced by pass  4 Test12= 1.11D-14 2.08D-09 XBig12= 1.31D-07 3.66D-05.
     42 vectors produced by pass  5 Test12= 1.11D-14 2.08D-09 XBig12= 1.06D-09 3.48D-06.
     30 vectors produced by pass  6 Test12= 1.11D-14 2.08D-09 XBig12= 5.79D-12 2.76D-07.
     15 vectors produced by pass  7 Test12= 1.11D-14 2.08D-09 XBig12= 4.09D-14 1.86D-08.
      3 vectors produced by pass  8 Test12= 1.11D-14 2.08D-09 XBig12= 6.24D-16 4.05D-09.
      1 vectors produced by pass  9 Test12= 1.11D-14 2.08D-09 XBig12= 2.93D-16 2.30D-09.
 InvSVY:  IOpt=1 It=  1 EMax= 1.55D-15
 Solved reduced A of dimension   301 with    42 vectors.
 End of Minotr F.D. properties file   721 does not exist.
 End of Minotr F.D. properties file   722 does not exist.
 End of Minotr F.D. properties file   788 does not exist.

 **********************************************************************

            Population analysis using the SCF density.

 **********************************************************************

 Orbital symmetries:
 Alpha Orbitals:
       Occupied  (A) (A) (A) (A) (A) (A) (A) (A) (A) (A) (A) (A)
                 (A) (A) (A) (A) (A) (A) (A) (A) (A) (A) (A) (A)
                 (A) (A) (A) (A) (A) (A) (A)
       Virtual   (A) (A) (A) (A) (A) (A) (A) (A) (A) (A) (A) (A)
                 (A) (A) (A) (A) (A) (A) (A) (A) (A) (A) (A) (A)
                 (A) (A) (A) (A) (A) (A) (A) (A) (A) (A) (A) (A)
                 (A) (A) (A) (A) (A) (A) (A) (A) (A) (A) (A) (A)
                 (A) (A) (A) (A) (A) (A) (A) (A) (A) (A) (A) (A)
                 (A) (A) (A) (A) (A) (A) (A) (A) (A) (A) (A) (A)
                 (A) (A) (A) (A) (A) (A) (A) (A) (A) (A) (A) (A)
                 (A) (A) (A)
 Beta  Orbitals:
       Occupied  (A) (A) (A) (A) (A) (A) (A) (A) (A) (A) (A) (A)
                 (A) (A) (A) (A) (A) (A) (A) (A) (A) (A) (A) (A)
                 (A) (A) (A) (A) (A) (A)
       Virtual   (A) (A) (A) (A) (A) (A) (A) (A) (A) (A) (A) (A)
                 (A) (A) (A) (A) (A) (A) (A) (A) (A) (A) (A) (A)
                 (A) (A) (A) (A) (A) (A) (A) (A) (A) (A) (A) (A)
                 (A) (A) (A) (A) (A) (A) (A) (A) (A) (A) (A) (A)
                 (A) (A) (A) (A) (A) (A) (A) (A) (A) (A) (A) (A)
                 (A) (A) (A) (A) (A) (A) (A) (A) (A) (A) (A) (A)
                 (A) (A) (A) (A) (A) (A) (A) (A) (A) (A) (A) (A)
                 (A) (A) (A) (A)
 The electronic state is 2-A.
 Alpha  occ. eigenvalues --  -19.70723 -19.67426 -19.66601 -10.73283 -10.61900
 Alpha  occ. eigenvalues --  -10.61671 -10.60396 -10.54626  -1.28267  -1.18958
 Alpha  occ. eigenvalues --   -1.14038  -0.92690  -0.88725  -0.79279  -0.72050
 Alpha  occ. eigenvalues --   -0.65073  -0.63326  -0.58891  -0.57562  -0.55132
 Alpha  occ. eigenvalues --   -0.54170  -0.50671  -0.48715  -0.46928  -0.45446
 Alpha  occ. eigenvalues --   -0.42288  -0.41787  -0.39264  -0.38818  -0.37552
 Alpha  occ. eigenvalues --   -0.29669
 Alpha virt. eigenvalues --   -0.00936   0.01903   0.02179   0.03159   0.03444
 Alpha virt. eigenvalues --    0.03912   0.05233   0.05930   0.07555   0.08218
 Alpha virt. eigenvalues --    0.08631   0.08682   0.09568   0.11152   0.12321
 Alpha virt. eigenvalues --    0.12596   0.14607   0.15410   0.16238   0.16671
 Alpha virt. eigenvalues --    0.17590   0.18311   0.19143   0.19754   0.21559
 Alpha virt. eigenvalues --    0.21808   0.24000   0.25430   0.26221   0.26905
 Alpha virt. eigenvalues --    0.28144   0.29254   0.30050   0.30225   0.31176
 Alpha virt. eigenvalues --    0.32610   0.33189   0.33576   0.35181   0.36233
 Alpha virt. eigenvalues --    0.36916   0.38020   0.41897   0.42733   0.44366
 Alpha virt. eigenvalues --    0.46990   0.57854   0.60420   0.68214   0.69514
 Alpha virt. eigenvalues --    0.71242   0.72601   0.73999   0.75818   0.77560
 Alpha virt. eigenvalues --    0.80456   0.82911   0.85216   0.87901   0.91730
 Alpha virt. eigenvalues --    0.97562   0.97717   1.07320   1.08727   1.09629
 Alpha virt. eigenvalues --    1.11221   1.14759   1.15434   1.19237   1.20655
 Alpha virt. eigenvalues --    1.24695   1.26086   1.27345   1.28294   1.31277
 Alpha virt. eigenvalues --    1.35754   1.36739   1.39373   1.44098   1.46010
 Alpha virt. eigenvalues --    1.47641   1.60074   1.69888   1.77015   1.82265
 Alpha virt. eigenvalues --    2.00309   2.03923
  Beta  occ. eigenvalues --  -19.70698 -19.66474 -19.65973 -10.73318 -10.61899
  Beta  occ. eigenvalues --  -10.61671 -10.60063 -10.54624  -1.28119  -1.18731
  Beta  occ. eigenvalues --   -1.09496  -0.91393  -0.88269  -0.79038  -0.71751
  Beta  occ. eigenvalues --   -0.64966  -0.63087  -0.58536  -0.56911  -0.54230
  Beta  occ. eigenvalues --   -0.52229  -0.49609  -0.46999  -0.45493  -0.42648
  Beta  occ. eigenvalues --   -0.41938  -0.39701  -0.38269  -0.37428  -0.36580
  Beta virt. eigenvalues --   -0.06652   0.00576   0.01898   0.02381   0.03500
  Beta virt. eigenvalues --    0.03734   0.03991   0.05279   0.06229   0.07895
  Beta virt. eigenvalues --    0.08345   0.08475   0.08877   0.09614   0.11291
  Beta virt. eigenvalues --    0.12218   0.12501   0.14573   0.15450   0.16435
  Beta virt. eigenvalues --    0.17349   0.17575   0.18572   0.19175   0.19710
  Beta virt. eigenvalues --    0.21475   0.21794   0.24049   0.25377   0.26219
  Beta virt. eigenvalues --    0.27066   0.28192   0.29164   0.30123   0.30239
  Beta virt. eigenvalues --    0.31201   0.32566   0.33300   0.33641   0.34949
  Beta virt. eigenvalues --    0.36368   0.36948   0.38079   0.41833   0.42864
  Beta virt. eigenvalues --    0.44485   0.47023   0.57973   0.60663   0.68402
  Beta virt. eigenvalues --    0.69518   0.71226   0.72731   0.73976   0.75809
  Beta virt. eigenvalues --    0.78111   0.80524   0.83133   0.85686   0.88672
  Beta virt. eigenvalues --    0.91993   0.97815   0.97963   1.07417   1.09228
  Beta virt. eigenvalues --    1.09742   1.11354   1.14994   1.16179   1.19533
  Beta virt. eigenvalues --    1.20877   1.24942   1.27792   1.28001   1.29481
  Beta virt. eigenvalues --    1.33779   1.36330   1.37345   1.39903   1.44219
  Beta virt. eigenvalues --    1.46170   1.47765   1.60634   1.70007   1.78119
  Beta virt. eigenvalues --    1.83142   2.00319   2.04111
          Condensed to atoms (all electrons):
               1          2          3          4          5          6
     1  O    8.561571   0.150229   0.423699  -0.010719  -0.234849  -0.418344
     2  H    0.150229   0.430443  -0.239132   0.000857   0.146026   0.110349
     3  C    0.423699  -0.239132  43.074374   0.715445 -14.518267 -21.874042
     4  H   -0.010719   0.000857   0.715445   0.330344  -0.291909  -0.090566
     5  C   -0.234849   0.146026 -14.518267  -0.291909  24.039162  -1.734602
     6  C   -0.418344   0.110349 -21.874042  -0.090566  -1.734602  28.016054
     7  O   -0.004235   0.000062   0.000027  -0.000268   0.267004  -0.146530
     8  O   -0.000770  -0.002109  -0.802089  -0.000480  -1.218798   1.403091
     9  C    0.003925  -0.001248  -0.118697  -0.000222  -0.460442   0.307028
    10  C   -0.004851   0.001446  -0.201819  -0.000152  -0.286987   0.311834
    11  H    0.000029  -0.000000   0.003165   0.000000  -0.001557   0.011356
    12  H    0.000016  -0.000001   0.002975  -0.000000   0.024322  -0.028110
    13  H    0.000002  -0.000000  -0.000028   0.000000   0.001251   0.007355
    14  H    0.000050  -0.000002   0.004805  -0.000000   0.016308  -0.014215
    15  H    0.000007  -0.000003   0.001894   0.000000  -0.009477   0.002056
               7          8          9         10         11         12
     1  O   -0.004235  -0.000770   0.003925  -0.004851   0.000029   0.000016
     2  H    0.000062  -0.002109  -0.001248   0.001446  -0.000000  -0.000001
     3  C    0.000027  -0.802089  -0.118697  -0.201819   0.003165   0.002975
     4  H   -0.000268  -0.000480  -0.000222  -0.000152   0.000000  -0.000000
     5  C    0.267004  -1.218798  -0.460442  -0.286987  -0.001557   0.024322
     6  C   -0.146530   1.403091   0.307028   0.311834   0.011356  -0.028110
     7  O    8.527282  -0.237534  -0.022646  -0.035264  -0.000559   0.002741
     8  O   -0.237534   9.068927   0.053321   0.029841  -0.071149  -0.033448
     9  C   -0.022646   0.053321   5.885719  -0.081395   0.428148   0.417003
    10  C   -0.035264   0.029841  -0.081395   5.760965  -0.056234  -0.074863
    11  H   -0.000559  -0.071149   0.428148  -0.056234   0.500248  -0.032403
    12  H    0.002741  -0.033448   0.417003  -0.074863  -0.032403   0.491240
    13  H   -0.000367   0.006845  -0.070944   0.397378  -0.000796  -0.000662
    14  H   -0.000239  -0.001842  -0.054185   0.392277  -0.004482   0.003746
    15  H    0.001607  -0.008807  -0.046108   0.405154   0.003582  -0.004632
              13         14         15
     1  O    0.000002   0.000050   0.000007
     2  H   -0.000000  -0.000002  -0.000003
     3  C   -0.000028   0.004805   0.001894
     4  H    0.000000  -0.000000   0.000000
     5  C    0.001251   0.016308  -0.009477
     6  C    0.007355  -0.014215   0.002056
     7  O   -0.000367  -0.000239   0.001607
     8  O    0.006845  -0.001842  -0.008807
     9  C   -0.070944  -0.054185  -0.046108
    10  C    0.397378   0.392277   0.405154
    11  H   -0.000796  -0.004482   0.003582
    12  H   -0.000662   0.003746  -0.004632
    13  H    0.500966  -0.025171  -0.023585
    14  H   -0.025171   0.484390  -0.026547
    15  H   -0.023585  -0.026547   0.470572
          Atomic-Atomic Spin Densities.
               1          2          3          4          5          6
     1  O    0.951628  -0.005171   0.010646  -0.005423  -0.354763   0.018634
     2  H   -0.005171  -0.027120   0.010862   0.000100   0.014923  -0.009122
     3  C    0.010646   0.010862  -1.811535  -0.008034   0.865458   0.977663
     4  H   -0.005423   0.000100  -0.008034   0.005870   0.013949   0.000481
     5  C   -0.354763   0.014923   0.865458   0.013949  -0.032745  -0.134348
     6  C    0.018634  -0.009122   0.977663   0.000481  -0.134348  -0.926036
     7  O    0.003397  -0.000377  -0.011518  -0.000006  -0.035766   0.021293
     8  O    0.002061  -0.000064   0.003467  -0.000008  -0.018463   0.016663
     9  C    0.003975  -0.000250   0.002168  -0.000060  -0.012840  -0.000806
    10  C   -0.000960  -0.000000   0.000946   0.000013   0.002248   0.004132
    11  H    0.000004  -0.000000   0.000444  -0.000000   0.000839  -0.001441
    12  H    0.000012  -0.000000   0.000969  -0.000000   0.001973  -0.003258
    13  H    0.000003  -0.000000   0.000152  -0.000000   0.000593  -0.001041
    14  H    0.000003  -0.000000   0.000125  -0.000000   0.000079  -0.000171
    15  H    0.000003  -0.000000   0.000031  -0.000000  -0.000261   0.000400
               7          8          9         10         11         12
     1  O    0.003397   0.002061   0.003975  -0.000960   0.000004   0.000012
     2  H   -0.000377  -0.000064  -0.000250  -0.000000  -0.000000  -0.000000
     3  C   -0.011518   0.003467   0.002168   0.000946   0.000444   0.000969
     4  H   -0.000006  -0.000008  -0.000060   0.000013  -0.000000  -0.000000
     5  C   -0.035766  -0.018463  -0.012840   0.002248   0.000839   0.001973
     6  C    0.021293   0.016663  -0.000806   0.004132  -0.001441  -0.003258
     7  O    0.082453   0.001222   0.000601  -0.000516   0.000003  -0.000288
     8  O    0.001222   0.003677   0.001901  -0.002601   0.000005   0.000257
     9  C    0.000601   0.001901   0.008924  -0.006539   0.000383   0.001243
    10  C   -0.000516  -0.002601  -0.006539   0.006732  -0.000295  -0.000844
    11  H    0.000003   0.000005   0.000383  -0.000295   0.000134   0.000002
    12  H   -0.000288   0.000257   0.001243  -0.000844   0.000002   0.000040
    13  H    0.000039   0.000045   0.001204  -0.001387   0.000014   0.000017
    14  H   -0.000003   0.000124   0.000163  -0.000355   0.000008   0.000003
    15  H   -0.000048  -0.000009  -0.000010  -0.000119   0.000002   0.000014
              13         14         15
     1  O    0.000003   0.000003   0.000003
     2  H   -0.000000  -0.000000  -0.000000
     3  C    0.000152   0.000125   0.000031
     4  H   -0.000000  -0.000000  -0.000000
     5  C    0.000593   0.000079  -0.000261
     6  C   -0.001041  -0.000171   0.000400
     7  O    0.000039  -0.000003  -0.000048
     8  O    0.000045   0.000124  -0.000009
     9  C    0.001204   0.000163  -0.000010
    10  C   -0.001387  -0.000355  -0.000119
    11  H    0.000014   0.000008   0.000002
    12  H    0.000017   0.000003   0.000014
    13  H    0.000442   0.000051   0.000037
    14  H    0.000051  -0.000046   0.000004
    15  H    0.000037   0.000004  -0.000190
 Mulliken charges and spin densities:
               1          2
     1  O   -0.465759   0.624050
     2  H    0.403084  -0.016220
     3  C   -0.472309   0.041842
     4  H    0.347670   0.006882
     5  C    0.262816   0.310876
     6  C    0.137287  -0.036957
     7  O   -0.351082   0.060486
     8  O   -0.184999   0.008278
     9  C   -0.239258   0.000058
    10  C   -0.557329   0.000454
    11  H    0.220652   0.000102
    12  H    0.232078   0.000140
    13  H    0.207758   0.000168
    14  H    0.225106  -0.000014
    15  H    0.234286  -0.000147
 Sum of Mulliken charges =  -0.00000   1.00000
 Mulliken charges and spin densities with hydrogens summed into heavy atoms:
               1          2
     1  O   -0.062675   0.607830
     3  C   -0.124639   0.048724
     5  C    0.262816   0.310876
     6  C    0.137287  -0.036957
     7  O   -0.351082   0.060486
     8  O   -0.184999   0.008278
     9  C    0.213473   0.000301
    10  C    0.109820   0.000462
 APT charges:
               1
     1  O   -0.684440
     2  H    0.526058
     3  C    0.287776
     4  H    1.009239
     5  C   -1.250561
     6  C    0.317487
     7  O   -0.382058
     8  O    0.128529
     9  C   -0.919965
    10  C   -1.433064
    11  H    0.598227
    12  H    0.453554
    13  H    0.692955
    14  H    0.381747
    15  H    0.274515
 Sum of APT charges =  -0.00000
 APT charges with hydrogens summed into heavy atoms:
               1
     1  O   -0.158381
     3  C    1.297016
     5  C   -1.250561
     6  C    0.317487
     7  O   -0.382058
     8  O    0.128529
     9  C    0.131816
    10  C   -0.083848
 Electronic spatial extent (au):  <R**2>=           1154.2173
 Charge=             -0.0000 electrons
 Dipole moment (field-independent basis, Debye):
    X=              0.3528    Y=             -0.5491    Z=             -0.2827  Tot=              0.7113
 Quadrupole moment (field-independent basis, Debye-Ang):
   XX=            -34.1727   YY=            -52.3221   ZZ=            -49.7401
   XY=              4.5762   XZ=             -2.7655   YZ=              5.0598
 Traceless Quadrupole moment (field-independent basis, Debye-Ang):
   XX=             11.2389   YY=             -6.9105   ZZ=             -4.3284
   XY=              4.5762   XZ=             -2.7655   YZ=              5.0598
 Octapole moment (field-independent basis, Debye-Ang**2):
  XXX=            -16.5514  YYY=             -1.2949  ZZZ=              1.7548  XYY=              9.1102
  XXY=            -11.1460  XXZ=             -4.9892  XZZ=             -6.1205  YZZ=              8.1290
  YYZ=             -0.5966  XYZ=             -3.7240
 Hexadecapole moment (field-independent basis, Debye-Ang**3):
 XXXX=           -930.7640 YYYY=           -244.6297 ZZZZ=           -169.8754 XXXY=             24.2612
 XXXZ=              9.2707 YYYX=             -2.7396 YYYZ=              3.9022 ZZZX=            -17.0727
 ZZZY=              7.5297 XXYY=           -246.7696 XXZZ=           -193.8263 YYZZ=            -69.3008
 XXYZ=             12.5393 YYXZ=             -8.3896 ZZXY=            -10.0721
 N-N= 3.594366697275D+02 E-N=-1.701624688558D+03  KE= 4.180678656761D+02
  Exact polarizability:   0.000   0.000   0.000   0.000   0.000   0.000
 Approx polarizability:  92.402  -8.243  69.139   7.107  -4.526  70.943
                          Isotropic Fermi Contact Couplings
        Atom                 a.u.       MegaHertz       Gauss      10(-4) cm-1
     1  O(17)              0.24556    -148.85476     -53.11508     -49.65260
     2  H(1)              -0.01186     -53.00897     -18.91492     -17.68189
     3  C(13)              0.02324      26.12551       9.32223       8.71453
     4  H(1)               0.00350      15.63040       5.57732       5.21374
     5  C(13)              0.08490      95.43932      34.05512      31.83513
     6  C(13)             -0.01550     -17.42206      -6.21662      -5.81137
     7  O(17)              0.01182      -7.16705      -2.55738      -2.39067
     8  O(17)              0.00155      -0.94163      -0.33600      -0.31409
     9  C(13)             -0.00030      -0.33313      -0.11887      -0.11112
    10  C(13)              0.00113       1.26992       0.45314       0.42360
    11  H(1)               0.00004       0.15950       0.05691       0.05320
    12  H(1)               0.00025       1.11682       0.39851       0.37253
    13  H(1)               0.00001       0.05219       0.01862       0.01741
    14  H(1)              -0.00001      -0.05213      -0.01860      -0.01739
    15  H(1)              -0.00002      -0.06878      -0.02454      -0.02294
 --------------------------------------------------------
       Center         ----  Spin Dipole Couplings  ----
                      3XX-RR        3YY-RR        3ZZ-RR
 --------------------------------------------------------
     1   Atom       -0.967931      2.043011     -1.075080
     2   Atom       -0.085887     -0.042146      0.128033
     3   Atom        0.026208      0.028919     -0.055127
     4   Atom        0.005109      0.001322     -0.006431
     5   Atom       -0.190667      0.315089     -0.124422
     6   Atom        0.013000     -0.011065     -0.001935
     7   Atom       -0.112812      0.172422     -0.059610
     8   Atom       -0.012217      0.025335     -0.013118
     9   Atom        0.002755     -0.001022     -0.001734
    10   Atom        0.002512     -0.000557     -0.001955
    11   Atom        0.001973     -0.001181     -0.000792
    12   Atom        0.002720     -0.001349     -0.001371
    13   Atom        0.001555     -0.000696     -0.000860
    14   Atom        0.002203     -0.000702     -0.001501
    15   Atom        0.002529     -0.001137     -0.001392
 --------------------------------------------------------
                        XY            XZ            YZ
 --------------------------------------------------------
     1   Atom       -0.921692     -0.231769      0.807335
     2   Atom       -0.015461      0.009130     -0.018019
     3   Atom        0.050333      0.045461      0.054054
     4   Atom        0.011331      0.008051      0.007026
     5   Atom       -0.116548     -0.048573      0.157820
     6   Atom       -0.009071      0.003221     -0.009985
     7   Atom       -0.025089     -0.009591      0.133949
     8   Atom       -0.007973     -0.005868      0.026429
     9   Atom       -0.000533     -0.001090      0.000098
    10   Atom        0.001439      0.000403      0.000269
    11   Atom       -0.000179     -0.001268      0.000010
    12   Atom       -0.001114     -0.000616     -0.000024
    13   Atom        0.000310      0.000106      0.000004
    14   Atom        0.001195     -0.000219     -0.000113
    15   Atom        0.000895      0.001149      0.000228
 --------------------------------------------------------


 ---------------------------------------------------------------------------------
              Anisotropic Spin Dipole Couplings in Principal Axis System
 ---------------------------------------------------------------------------------

       Atom             a.u.   MegaHertz   Gauss  10(-4) cm-1        Axes

              Baa    -1.2728    92.096    32.862    30.720  0.1466 -0.1953  0.9697
     1 O(17)  Bbb    -1.2273    88.808    31.689    29.623  0.9532  0.2898 -0.0858
              Bcc     2.5001  -180.904   -64.551   -60.343 -0.2643  0.9369  0.2287
 
              Baa    -0.0908   -48.473   -17.296   -16.169  0.9546  0.2974 -0.0153
     2 H(1)   Bbb    -0.0396   -21.130    -7.540    -7.048 -0.2936  0.9486  0.1180
              Bcc     0.1305    69.603    24.836    23.217  0.0496 -0.1081  0.9929
 
              Baa    -0.0858   -11.520    -4.110    -3.843 -0.2215 -0.3343  0.9161
     3 C(13)  Bbb    -0.0225    -3.015    -1.076    -1.006  0.7450 -0.6642 -0.0623
              Bcc     0.1083    14.535     5.186     4.848  0.6293  0.6686  0.3962
 
              Baa    -0.0109    -5.816    -2.075    -1.940 -0.2574 -0.2911  0.9214
     4 H(1)   Bbb    -0.0083    -4.409    -1.573    -1.471 -0.6632  0.7468  0.0506
              Bcc     0.0192    10.225     3.649     3.411  0.7028  0.5980  0.3852
 
              Baa    -0.2201   -29.542   -10.541    -9.854  0.9530  0.1264  0.2753
     5 C(13)  Bbb    -0.1729   -23.198    -8.278    -7.738 -0.2175 -0.3470  0.9123
              Bcc     0.3930    52.740    18.819    17.592 -0.2108  0.9293  0.3032
 
              Baa    -0.0187    -2.505    -0.894    -0.836  0.1976  0.8581  0.4740
     6 C(13)  Bbb     0.0005     0.063     0.023     0.021 -0.4605 -0.3456  0.8176
              Bcc     0.0182     2.442     0.871     0.815  0.8654 -0.3798  0.3268
 
              Baa    -0.1213     8.774     3.131     2.927 -0.2563 -0.4192  0.8710
     7 O(17)  Bbb    -0.1144     8.280     2.954     2.762  0.9636 -0.0393  0.2646
              Bcc     0.2357   -17.053    -6.085    -5.688 -0.0767  0.9071  0.4140
 
              Baa    -0.0268     1.937     0.691     0.646  0.1221 -0.4340  0.8926
     8 O(17)  Bbb    -0.0138     1.000     0.357     0.334  0.9757  0.2174 -0.0277
              Bcc     0.0406    -2.938    -1.048    -0.980 -0.1820  0.8743  0.4500
 
              Baa    -0.0020    -0.266    -0.095    -0.089  0.2269  0.0270  0.9735
     9 C(13)  Bbb    -0.0011    -0.147    -0.052    -0.049  0.1216  0.9910 -0.0558
              Bcc     0.0031     0.413     0.147     0.138  0.9663 -0.1310 -0.2216
 
              Baa    -0.0020    -0.270    -0.096    -0.090 -0.0438 -0.1395  0.9893
    10 C(13)  Bbb    -0.0011    -0.150    -0.053    -0.050 -0.3774  0.9191  0.1129
              Bcc     0.0031     0.419     0.150     0.140  0.9250  0.3684  0.0928
 
              Baa    -0.0013    -0.699    -0.250    -0.233  0.3473  0.4140  0.8414
    11 H(1)   Bbb    -0.0012    -0.621    -0.221    -0.207 -0.1105  0.9091 -0.4017
              Bcc     0.0025     1.320     0.471     0.440  0.9312 -0.0466 -0.3615
 
              Baa    -0.0017    -0.928    -0.331    -0.310  0.2742  0.8145  0.5114
    12 H(1)   Bbb    -0.0013    -0.717    -0.256    -0.239 -0.0160 -0.5278  0.8492
              Bcc     0.0031     1.645     0.587     0.549  0.9616 -0.2410 -0.1316
 
              Baa    -0.0009    -0.462    -0.165    -0.154 -0.0534  0.0763  0.9957
    13 H(1)   Bbb    -0.0007    -0.393    -0.140    -0.131 -0.1296  0.9881 -0.0827
              Bcc     0.0016     0.855     0.305     0.285  0.9901  0.1335  0.0428
 
              Baa    -0.0015    -0.810    -0.289    -0.270  0.0273  0.0972  0.9949
    14 H(1)   Bbb    -0.0011    -0.602    -0.215    -0.201 -0.3413  0.9363 -0.0821
              Bcc     0.0026     1.411     0.504     0.471  0.9395  0.3374 -0.0587
 
              Baa    -0.0017    -0.909    -0.324    -0.303 -0.2694  0.0386  0.9622
    15 H(1)   Bbb    -0.0013    -0.715    -0.255    -0.239 -0.1977  0.9757 -0.0945
              Bcc     0.0030     1.625     0.580     0.542  0.9425  0.2157  0.2552
 

 ---------------------------------------------------------------------------------

 Calling FoFJK, ICntrl=    100147 FMM=F ISym2X=0 I1Cent= 0 IOpClX= 1 NMat=1 NMatS=1 NMatT=0.
 ***** Axes restored to original set *****
 -------------------------------------------------------------------
 Center     Atomic                   Forces (Hartrees/Bohr)
 Number     Number              X              Y              Z
 -------------------------------------------------------------------
      1        8          -0.015286468   -0.033642441   -0.025890397
      2        1           0.004696978   -0.000341319   -0.009497233
      3        6          -0.052670256    0.018928028   -0.028807368
      4        1          -0.001874257    0.008747180    0.006653636
      5        6           0.073360587    0.002529653    0.058844779
      6        6          -0.061664147    0.005089597   -0.002494707
      7        8           0.050035401    0.014487952   -0.018685515
      8        8          -0.009429470   -0.006507132    0.009038863
      9        6           0.010425609   -0.008196889    0.011526613
     10        6           0.000098381   -0.000433640    0.000074080
     11        1          -0.000309909   -0.000187489    0.000741000
     12        1           0.001380932    0.001087414    0.000138126
     13        1           0.001316041   -0.000777159    0.000312295
     14        1          -0.000814060   -0.000720060   -0.000415011
     15        1           0.000734636   -0.000063695   -0.001539162
 -------------------------------------------------------------------
 Cartesian Forces:  Max     0.073360587 RMS     0.022368246
 FormGI is forming the generalized inverse of G from B-inverse, IUseBI=4.

 GradGradGradGradGradGradGradGradGradGradGradGradGradGradGradGradGradGrad
 Berny optimization.
 Internal  Forces:  Max     0.076968936 RMS     0.017863997
 Search for a saddle point.
 Step number   1 out of a maximum of   65
 All quantities printed in internal units (Hartrees-Bohrs-Radians)
 Swapping is turned off.
 Second derivative matrix not updated -- analytic derivatives used.
 ITU=  0
     Eigenvalues ---   -0.05482   0.00233   0.00241   0.00703   0.00809
     Eigenvalues ---    0.02221   0.04628   0.04751   0.04873   0.04951
     Eigenvalues ---    0.05455   0.06364   0.07078   0.07685   0.09717
     Eigenvalues ---    0.10227   0.13092   0.13342   0.13412   0.14099
     Eigenvalues ---    0.17493   0.20139   0.24376   0.25636   0.27361
     Eigenvalues ---    0.31615   0.33059   0.35371   0.35475   0.35607
     Eigenvalues ---    0.35826   0.36074   0.39751   0.40671   0.42202
     Eigenvalues ---    0.49675   0.56921   0.98275   1.16923
 Eigenvectors required to have negative eigenvalues:
                          R2        A20       A3        R4        D2
   1                    0.80185  -0.41902  -0.40007  -0.07960  -0.06193
                          D1        A1        R5        A21       R7
   1                   -0.06095  -0.05221   0.04911   0.02247  -0.02016
 RFO step:  Lambda0=1.576621197D-03 Lambda=-3.09036225D-02.
 Linear search not attempted -- option 19 set.
 Maximum step size (   0.300) exceeded in Quadratic search.
    -- Step size scaled by   0.905
 Iteration  1 RMS(Cart)=  0.06407587 RMS(Int)=  0.00849529
 Iteration  2 RMS(Cart)=  0.01051722 RMS(Int)=  0.00003217
 Iteration  3 RMS(Cart)=  0.00007461 RMS(Int)=  0.00002188
 Iteration  4 RMS(Cart)=  0.00000000 RMS(Int)=  0.00002188
 Variable       Old X    -DE/DX   Delta X   Delta X   Delta X     New X
                                 (Linear)    (Quad)   (Total)
    R1        1.84655   0.00947   0.00000   0.01909   0.01909   1.86563
    R2        3.51246   0.04586   0.00000   0.26590   0.26590   3.77836
    R3        2.01214   0.00174   0.00000   0.00158   0.00158   2.01372
    R4        2.26390   0.07697   0.00000   0.03474   0.03474   2.29864
    R5        2.75302  -0.00883   0.00000  -0.02560  -0.02560   2.72742
    R6        2.26721   0.05531   0.00000   0.04849   0.04849   2.31570
    R7        2.51946   0.02462   0.00000   0.02988   0.02988   2.54935
    R8        2.72512   0.01866   0.00000   0.04227   0.04227   2.76739
    R9        2.86508   0.00285   0.00000   0.00368   0.00368   2.86876
   R10        2.05696   0.00082   0.00000   0.00092   0.00092   2.05788
   R11        2.06093   0.00173   0.00000   0.00329   0.00329   2.06422
   R12        2.06304   0.00148   0.00000   0.00362   0.00362   2.06667
   R13        2.06169   0.00113   0.00000   0.00241   0.00241   2.06410
   R14        2.05998   0.00159   0.00000   0.00364   0.00364   2.06362
    A1        1.78804   0.00675   0.00000  -0.02509  -0.02509   1.76294
    A2        1.73546  -0.01727   0.00000  -0.00508  -0.00508   1.73037
    A3        1.40652   0.05652   0.00000   0.07254   0.07253   1.47906
    A4        2.15915   0.00075   0.00000   0.00486   0.00486   2.16401
    A5        1.93762   0.00202   0.00000   0.01269   0.01269   1.95031
    A6        2.18640  -0.00277   0.00000  -0.01754  -0.01754   2.16886
    A7        2.02620   0.01300   0.00000   0.01837   0.01837   2.04457
    A8        1.93855  -0.00019   0.00000  -0.00709  -0.00708   1.93147
    A9        1.81555  -0.00007   0.00000  -0.00780  -0.00777   1.80777
   A10        1.89701   0.00036   0.00000  -0.00332  -0.00331   1.89369
   A11        1.94986   0.00010   0.00000   0.00786   0.00782   1.95768
   A12        1.94612  -0.00021   0.00000   0.00416   0.00411   1.95023
   A13        1.91183   0.00004   0.00000   0.00524   0.00517   1.91700
   A14        1.91207   0.00055   0.00000   0.00197   0.00197   1.91404
   A15        1.92687  -0.00016   0.00000  -0.00020  -0.00020   1.92667
   A16        1.93206   0.00076   0.00000   0.00174   0.00174   1.93379
   A17        1.89318  -0.00014   0.00000   0.00047   0.00047   1.89365
   A18        1.89177  -0.00063   0.00000  -0.00199  -0.00199   1.88978
   A19        1.90711  -0.00042   0.00000  -0.00205  -0.00205   1.90507
   A20        3.14198   0.03925   0.00000   0.06745   0.06745   3.20943
   A21        3.12616   0.00416   0.00000  -0.00999  -0.00996   3.11620
   A22        3.14217   0.00376   0.00000   0.00818   0.00818   3.15034
   A23        3.10321  -0.00008   0.00000   0.01539   0.01538   3.11859
    D1        1.84587  -0.00094   0.00000   0.01727   0.01727   1.86314
    D2       -1.29630  -0.00470   0.00000   0.00909   0.00909  -1.28721
    D3        1.64932  -0.00160   0.00000  -0.03922  -0.03928   1.61004
    D4       -1.49634  -0.00131   0.00000  -0.03168  -0.03163  -1.52797
    D5        3.13086  -0.00158   0.00000  -0.01023  -0.01018   3.12068
    D6       -0.01550   0.00033   0.00000  -0.00947  -0.00953  -0.02503
    D7       -1.39306  -0.00006   0.00000  -0.00041  -0.00040  -1.39346
    D8        2.78998  -0.00003   0.00000  -0.00149  -0.00151   2.78847
    D9        0.75418  -0.00020   0.00000  -0.00208  -0.00207   0.75211
   D10       -3.06793   0.00014   0.00000   0.00131   0.00131  -3.06662
   D11       -0.98410   0.00022   0.00000   0.00300   0.00300  -0.98110
   D12        1.12995   0.00009   0.00000   0.00144   0.00144   1.13139
   D13       -1.04933  -0.00001   0.00000  -0.00795  -0.00797  -1.05730
   D14        1.03450   0.00007   0.00000  -0.00626  -0.00629   1.02821
   D15       -3.13463  -0.00006   0.00000  -0.00782  -0.00784   3.14071
   D16        1.09654  -0.00004   0.00000   0.00762   0.00764   1.10418
   D17       -3.10281   0.00004   0.00000   0.00930   0.00933  -3.09349
   D18       -0.98876  -0.00009   0.00000   0.00775   0.00777  -0.98099
         Item               Value     Threshold  Converged?
 Maximum Force            0.076969     0.000015     NO 
 RMS     Force            0.017864     0.000010     NO 
 Maximum Displacement     0.306922     0.000060     NO 
 RMS     Displacement     0.072800     0.000040     NO 
 Predicted change in Energy=-1.560413D-02
 GradGradGradGradGradGradGradGradGradGradGradGradGradGradGradGradGradGrad

                          Input orientation:                          
 ---------------------------------------------------------------------
 Center     Atomic      Atomic             Coordinates (Angstroms)
 Number     Number       Type             X           Y           Z
 ---------------------------------------------------------------------
      1          8           0        1.964993   -1.783448    0.183621
      2          1           0        2.690413   -1.523564   -0.433541
      3          6           0        1.808741   -0.135322    1.304764
      4          1           0        0.892797    0.247047    0.916988
      5          6           0        2.851339   -0.512179    1.805333
      6          6           0        4.110253   -0.953252    2.356397
      7          8           0        5.204621   -0.596133    1.936319
      8          8           0        3.933417   -1.800624    3.391115
      9          6           0        5.137581   -2.343659    4.023323
     10          6           0        5.699837   -3.492912    3.206217
     11          1           0        4.788192   -2.667979    5.002420
     12          1           0        5.863476   -1.535469    4.137800
     13          1           0        6.551788   -3.934978    3.730419
     14          1           0        4.941224   -4.265850    3.064305
     15          1           0        6.042258   -3.143452    2.229929
 ---------------------------------------------------------------------
                    Distance matrix (angstroms):
                    1          2          3          4          5
     1  O    0.000000
     2  H    0.987251   0.000000
     3  C    1.999424   2.392962   0.000000
     4  H    2.410465   2.861890   1.065613   0.000000
     5  C    2.243142   2.461982   1.216388   2.280673   0.000000
     6  C    3.164225   3.181974   2.659304   3.723525   1.443288
     7  O    3.869995   3.577375   3.484711   4.510191   2.358419
     8  O    3.763377   4.031106   3.411794   4.422627   2.312074
     9  C    5.012231   5.150226   4.832027   5.863384   3.674330
    10  C    5.099746   5.116913   5.479923   6.506573   4.354444
    11  H    5.654526   5.938016   5.381834   6.353128   4.315117
    12  H    5.558344   5.564677   5.140756   6.185357   3.944679
    13  H    6.184460   6.169578   6.543522   7.578186   5.395816
    14  H    4.828935   4.982089   5.474459   6.431716   4.476905
    15  H    4.760365   4.577442   5.275172   6.303669   4.157625
                    6          7          8          9         10
     6  C    0.000000
     7  O    1.225415   0.000000
     8  O    1.349056   2.276662   0.000000
     9  C    2.401516   2.722853   1.464440   0.000000
    10  C    3.114296   3.201438   2.453216   1.518084   0.000000
    11  H    3.225109   3.723833   2.019715   1.088984   2.176685
    12  H    2.566352   2.482530   2.086378   1.092338   2.173985
    13  H    4.091420   4.022628   3.395065   2.148970   1.093632
    14  H    3.487829   3.848189   2.683248   2.157102   1.092276
    15  H    2.923288   2.697532   2.756583   2.162030   1.092022
                   11         12         13         14         15
    11  H    0.000000
    12  H    1.785044   0.000000
    13  H    2.516654   2.529304   0.000000
    14  H    2.516526   3.075374   1.774007   0.000000
    15  H    3.079848   2.501508   1.771328   1.779954   0.000000
 Stoichiometry    C5H7O3(2)
 Framework group  C1[X(C5H7O3)]
 Deg. of freedom    39
 Full point group                 C1      NOp   1
 Largest Abelian subgroup         C1      NOp   1
 Largest concise Abelian subgroup C1      NOp   1
                         Standard orientation:                         
 ---------------------------------------------------------------------
 Center     Atomic      Atomic             Coordinates (Angstroms)
 Number     Number       Type             X           Y           Z
 ---------------------------------------------------------------------
      1          8           0       -2.494555    1.396256    0.169795
      2          1           0       -2.439130    1.251483    1.144799
      3          6           0       -2.623577   -0.487056   -0.489131
      4          1           0       -3.652368   -0.499275   -0.766565
      5          6           0       -1.441951   -0.548411   -0.207004
      6          6           0       -0.051544   -0.614712    0.174384
      7          8           0        0.340617   -0.996799    1.270677
      8          8           0        0.760419   -0.210087   -0.824088
      9          6           0        2.199739   -0.204394   -0.554066
     10          6           0        2.591661    1.031032    0.236311
     11          1           0        2.646223   -0.215519   -1.547250
     12          1           0        2.456228   -1.123293   -0.022051
     13          1           0        3.677623    1.057870    0.362787
     14          1           0        2.281895    1.935207   -0.292441
     15          1           0        2.131712    1.019812    1.226682
 ---------------------------------------------------------------------
 Rotational constants (GHZ):           3.8220030           1.0901798           1.0233217
 Standard basis: 6-31+G (6D, 7F)
 There are   118 symmetry adapted cartesian basis functions of A   symmetry.
 There are   118 symmetry adapted basis functions of A   symmetry.
   118 basis functions,   236 primitive gaussians,   118 cartesian basis functions
    31 alpha electrons       30 beta electrons
       nuclear repulsion energy       352.4343005022 Hartrees.
 NAtoms=   15 NActive=   15 NUniq=   15 SFac= 1.00D+00 NAtFMM=   60 NAOKFM=F Big=F
 Integral buffers will be    131072 words long.
 Raffenetti 2 integral format.
 Two-electron integral symmetry is turned on.
 One-electron integrals computed using PRISM.
 NBasis=   118 RedAO= T EigKep=  1.67D-06  NBF=   118
 NBsUse=   118 1.00D-06 EigRej= -1.00D+00 NBFU=   118
 Initial guess from the checkpoint file:  "ethyl_propiolate.chk"
 B after Tr=     0.000000    0.000000    0.000000
         Rot=    0.999476    0.031158    0.003065   -0.008269 Ang=   3.71 deg.
 Initial guess <Sx>= 0.0000 <Sy>= 0.0000 <Sz>= 0.5000 <S**2>= 0.7618 S= 0.5059
 ExpMin= 4.38D-02 ExpMax= 5.48D+03 ExpMxC= 8.25D+02 IAcc=2 IRadAn=         4 AccDes= 0.00D+00
 Harris functional with IExCor= 1009 and IRadAn=       4 diagonalized for initial guess.
 HarFok:  IExCor= 1009 AccDes= 0.00D+00 IRadAn=         4 IDoV= 1 UseB2=F ITyADJ=14
 ICtDFT=  3500011 ScaDFX=  1.000000  1.000000  1.000000  1.000000
 FoFCou: FMM=F IPFlag=           0 FMFlag=      100000 FMFlg1=           0
         NFxFlg=           0 DoJE=T BraDBF=F KetDBF=T FulRan=T
         wScrn=  0.000000 ICntrl=       500 IOpCl=  0 I1Cent=   200000004 NGrid=           0
         NMat0=    1 NMatS0=      1 NMatT0=    0 NMatD0=    1 NMtDS0=    0 NMtDT0=    0
 Petite list used in FoFCou.
 Requested convergence on RMS density matrix=1.00D-08 within 128 cycles.
 Requested convergence on MAX density matrix=1.00D-06.
 Requested convergence on             energy=1.00D-06.
 No special actions if energy rises.
 Restarting incremental Fock formation.
 SCF Done:  E(UM062X) =  -419.953324152     A.U. after   21 cycles
            NFock= 21  Conv=0.47D-08     -V/T= 2.0055
 <Sx>= 0.0000 <Sy>= 0.0000 <Sz>= 0.5000 <S**2>= 0.7632 S= 0.5066
 <L.S>=  0.00000000000    
 Annihilation of the first spin contaminant:
 S**2 before annihilation     0.7632,   after     0.7501
 Calling FoFJK, ICntrl=      2127 FMM=F ISym2X=0 I1Cent= 0 IOpClX= 1 NMat=1 NMatS=1 NMatT=0.
 ***** Axes restored to original set *****
 -------------------------------------------------------------------
 Center     Atomic                   Forces (Hartrees/Bohr)
 Number     Number              X              Y              Z
 -------------------------------------------------------------------
      1        8          -0.005320311   -0.014288351   -0.014459532
      2        1           0.000742177   -0.000442374   -0.001790246
      3        6          -0.007600464    0.004153155   -0.003421900
      4        1          -0.000707250    0.002839669    0.002696496
      5        6           0.014732332    0.006636954    0.017135980
      6        6          -0.013276349    0.001679944   -0.000477493
      7        8           0.010522895    0.002411083   -0.003968444
      8        8          -0.002037072   -0.001005271    0.002189217
      9        6           0.003363633   -0.002070108    0.002848318
     10        6          -0.000190623   -0.000010160   -0.000008605
     11        1          -0.000528189   -0.000006404   -0.000030233
     12        1           0.000066888    0.000375732   -0.000364119
     13        1           0.000242005   -0.000161201    0.000041119
     14        1          -0.000169164   -0.000103615   -0.000143306
     15        1           0.000159493   -0.000009054   -0.000247253
 -------------------------------------------------------------------
 Cartesian Forces:  Max     0.017135980 RMS     0.005674274

 GradGradGradGradGradGradGradGradGradGradGradGradGradGradGradGradGradGrad
 Berny optimization.
 FormGI is forming the generalized inverse of G from B-inverse, IUseBI=4.
 Internal  Forces:  Max     0.023205350 RMS     0.005591180
 Search for a saddle point.
 Step number   2 out of a maximum of   65
 All quantities printed in internal units (Hartrees-Bohrs-Radians)
 Swapping is turned off.
 Update second derivatives using D2CorX and points    1    2
 ITU=  0  0
     Eigenvalues ---   -0.05040   0.00233   0.00306   0.00703   0.00814
     Eigenvalues ---    0.02229   0.04629   0.04753   0.04873   0.04963
     Eigenvalues ---    0.05449   0.06364   0.07255   0.07675   0.09675
     Eigenvalues ---    0.10230   0.13090   0.13335   0.13386   0.14098
     Eigenvalues ---    0.17493   0.20118   0.24303   0.24449   0.25664
     Eigenvalues ---    0.27411   0.33059   0.35371   0.35475   0.35606
     Eigenvalues ---    0.35826   0.36075   0.39745   0.40666   0.42191
     Eigenvalues ---    0.49682   0.56910   0.97795   1.15972
 Eigenvectors required to have negative eigenvalues:
                          R2        A20       A3        R4        D2
   1                    0.80839  -0.42097  -0.37928  -0.07694  -0.07355
                          D1        R5        A1        A2        A21
   1                   -0.07340   0.05146  -0.04285  -0.04169   0.03015
 RFO step:  Lambda0=2.183923571D-06 Lambda=-6.86730290D-03.
 Linear search not attempted -- option 19 set.
 Iteration  1 RMS(Cart)=  0.08076648 RMS(Int)=  0.00480696
 Iteration  2 RMS(Cart)=  0.00560838 RMS(Int)=  0.00003489
 Iteration  3 RMS(Cart)=  0.00003977 RMS(Int)=  0.00000888
 Iteration  4 RMS(Cart)=  0.00000000 RMS(Int)=  0.00000888
 Variable       Old X    -DE/DX   Delta X   Delta X   Delta X     New X
                                 (Linear)    (Quad)   (Total)
    R1        1.86563   0.00156   0.00000   0.00373   0.00373   1.86936
    R2        3.77836   0.02089   0.00000   0.11178   0.11178   3.89014
    R3        2.01372   0.00065   0.00000   0.00120   0.00120   2.01491
    R4        2.29864   0.01563   0.00000   0.00764   0.00764   2.30628
    R5        2.72742  -0.00201   0.00000  -0.00925  -0.00925   2.71817
    R6        2.31570   0.01146   0.00000   0.01445   0.01445   2.33015
    R7        2.54935   0.00504   0.00000   0.00907   0.00907   2.55842
    R8        2.76739   0.00406   0.00000   0.01496   0.01496   2.78235
    R9        2.86876   0.00043   0.00000  -0.00004  -0.00004   2.86873
   R10        2.05788   0.00014   0.00000   0.00003   0.00003   2.05791
   R11        2.06422   0.00028   0.00000   0.00024   0.00024   2.06445
   R12        2.06667   0.00027   0.00000   0.00083   0.00083   2.06749
   R13        2.06410   0.00021   0.00000   0.00053   0.00053   2.06463
   R14        2.06362   0.00027   0.00000   0.00070   0.00070   2.06433
    A1        1.76294   0.00214   0.00000  -0.01395  -0.01395   1.74899
    A2        1.73037  -0.00772   0.00000  -0.02327  -0.02327   1.70710
    A3        1.47906   0.02321   0.00000   0.10637   0.10637   1.58542
    A4        2.16401   0.00040   0.00000   0.00079   0.00079   2.16480
    A5        1.95031   0.00064   0.00000   0.00672   0.00672   1.95702
    A6        2.16886  -0.00104   0.00000  -0.00750  -0.00750   2.16136
    A7        2.04457   0.00237   0.00000   0.00403   0.00403   2.04860
    A8        1.93147  -0.00010   0.00000  -0.00341  -0.00341   1.92806
    A9        1.80777  -0.00028   0.00000  -0.00655  -0.00655   1.80122
   A10        1.89369  -0.00006   0.00000  -0.00374  -0.00374   1.88995
   A11        1.95768   0.00019   0.00000   0.00409   0.00407   1.96175
   A12        1.95023   0.00004   0.00000   0.00267   0.00265   1.95289
   A13        1.91700   0.00018   0.00000   0.00606   0.00602   1.92303
   A14        1.91404   0.00014   0.00000   0.00084   0.00084   1.91488
   A15        1.92667  -0.00001   0.00000   0.00024   0.00024   1.92691
   A16        1.93379   0.00011   0.00000   0.00025   0.00025   1.93405
   A17        1.89365  -0.00002   0.00000   0.00007   0.00007   1.89372
   A18        1.88978  -0.00013   0.00000  -0.00087  -0.00087   1.88892
   A19        1.90507  -0.00009   0.00000  -0.00056  -0.00056   1.90451
   A20        3.20943   0.01548   0.00000   0.08309   0.08309   3.29253
   A21        3.11620   0.00117   0.00000  -0.02864  -0.02863   3.08756
   A22        3.15034   0.00129   0.00000  -0.00109  -0.00109   3.14926
   A23        3.11859  -0.00032   0.00000   0.01137   0.01137   3.12996
    D1        1.86314   0.00021   0.00000   0.11533   0.11533   1.97846
    D2       -1.28721  -0.00108   0.00000   0.11641   0.11641  -1.17079
    D3        1.61004  -0.00134   0.00000  -0.13193  -0.13195   1.47809
    D4       -1.52797  -0.00114   0.00000  -0.11697  -0.11696  -1.64492
    D5        3.12068  -0.00059   0.00000  -0.00485  -0.00483   3.11585
    D6       -0.02503   0.00010   0.00000  -0.00358  -0.00360  -0.02862
    D7       -1.39346  -0.00002   0.00000  -0.00150  -0.00150  -1.39495
    D8        2.78847  -0.00004   0.00000  -0.00083  -0.00083   2.78763
    D9        0.75211  -0.00007   0.00000  -0.00285  -0.00285   0.74926
   D10       -3.06662   0.00007   0.00000   0.00370   0.00370  -3.06291
   D11       -0.98110   0.00012   0.00000   0.00446   0.00446  -0.97664
   D12        1.13139   0.00008   0.00000   0.00408   0.00408   1.13548
   D13       -1.05730  -0.00022   0.00000  -0.00407  -0.00408  -1.06139
   D14        1.02821  -0.00017   0.00000  -0.00331  -0.00332   1.02489
   D15        3.14071  -0.00021   0.00000  -0.00369  -0.00370   3.13701
   D16        1.10418   0.00019   0.00000   0.00902   0.00903   1.11320
   D17       -3.09349   0.00024   0.00000   0.00977   0.00978  -3.08370
   D18       -0.98099   0.00020   0.00000   0.00939   0.00940  -0.97159
         Item               Value     Threshold  Converged?
 Maximum Force            0.023205     0.000015     NO 
 RMS     Force            0.005591     0.000010     NO 
 Maximum Displacement     0.409583     0.000060     NO 
 RMS     Displacement     0.083793     0.000040     NO 
 Predicted change in Energy=-3.747178D-03
 GradGradGradGradGradGradGradGradGradGradGradGradGradGradGradGradGradGrad

                          Input orientation:                          
 ---------------------------------------------------------------------
 Center     Atomic      Atomic             Coordinates (Angstroms)
 Number     Number       Type             X           Y           Z
 ---------------------------------------------------------------------
      1          8           0        1.904038   -1.728410   -0.033120
      2          1           0        2.692326   -1.441963   -0.557630
      3          6           0        1.787834   -0.184514    1.323572
      4          1           0        0.864904    0.232362    0.989964
      5          6           0        2.838869   -0.532718    1.836931
      6          6           0        4.102319   -0.966493    2.370329
      7          8           0        5.196837   -0.623241    1.917939
      8          8           0        3.950987   -1.794143    3.430998
      9          6           0        5.173732   -2.335116    4.047504
     10          6           0        5.702653   -3.505988    3.238912
     11          1           0        4.840631   -2.633307    5.040504
     12          1           0        5.905969   -1.527825    4.122229
     13          1           0        6.563045   -3.948538    3.749661
     14          1           0        4.932017   -4.272762    3.130028
     15          1           0        6.024771   -3.179117    2.247589
 ---------------------------------------------------------------------
                    Distance matrix (angstroms):
                    1          2          3          4          5
     1  O    0.000000
     2  H    0.989222   0.000000
     3  C    2.058575   2.436842   0.000000
     4  H    2.443588   2.921965   1.066245   0.000000
     5  C    2.408460   2.565564   1.220433   2.280183   0.000000
     6  C    3.345076   3.284371   2.657825   3.717999   1.438395
     7  O    3.983787   3.615428   3.488130   4.512076   2.361095
     8  O    4.024231   4.197309   3.422189   4.425977   2.317120
     9  C    5.264075   5.306821   4.848628   5.874222   3.686035
    10  C    5.319347   5.266497   5.479646   6.514356   4.359718
    11  H    5.931617   6.113396   5.397382   6.358091   4.322314
    12  H    5.772575   5.677671   5.157131   6.190450   3.952205
    13  H    6.398809   6.310162   6.546482   7.587138   5.403319
    14  H    5.064375   5.160277   5.464699   6.435636   4.476750
    15  H    4.928147   4.689578   5.270018   6.312213   4.161976
                    6          7          8          9         10
     6  C    0.000000
     7  O    1.233064   0.000000
     8  O    1.353855   2.283089   0.000000
     9  C    2.415361   2.732415   1.472357   0.000000
    10  C    3.124826   3.211082   2.456755   1.518065   0.000000
    11  H    3.233142   3.730637   2.021428   1.089001   2.179539
    12  H    2.576315   2.485968   2.090617   1.092463   2.175941
    13  H    4.104914   4.034765   3.400855   2.149892   1.094071
    14  H    3.492414   3.854645   2.682640   2.157467   1.092556
    15  H    2.933700   2.706778   2.760288   2.162476   1.092395
                   11         12         13         14         15
    11  H    0.000000
    12  H    1.788928   0.000000
    13  H    2.522463   2.535825   0.000000
    14  H    2.519144   3.076968   1.774633   0.000000
    15  H    3.082284   2.501032   1.771432   1.780132   0.000000
 Stoichiometry    C5H7O3(2)
 Framework group  C1[X(C5H7O3)]
 Deg. of freedom    39
 Full point group                 C1      NOp   1
 Largest Abelian subgroup         C1      NOp   1
 Largest concise Abelian subgroup C1      NOp   1
                         Standard orientation:                         
 ---------------------------------------------------------------------
 Center     Atomic      Atomic             Coordinates (Angstroms)
 Number     Number       Type             X           Y           Z
 ---------------------------------------------------------------------
      1          8           0       -2.709803    1.394038    0.069048
      2          1           0       -2.576291    1.306562    1.045308
      3          6           0       -2.578821   -0.581249   -0.495589
      4          1           0       -3.588869   -0.708619   -0.812544
      5          6           0       -1.397880   -0.609208   -0.188910
      6          6           0       -0.022238   -0.590986    0.230923
      7          8           0        0.348312   -0.790886    1.389879
      8          8           0        0.821025   -0.332005   -0.796091
      9          6           0        2.258700   -0.253332   -0.488298
     10          6           0        2.601387    1.101666    0.104209
     11          1           0        2.729597   -0.413747   -1.457032
     12          1           0        2.508760   -1.070518    0.192255
     13          1           0        3.682643    1.176403    0.253507
     14          1           0        2.288310    1.902385   -0.569966
     15          1           0        2.112697    1.237020    1.071777
 ---------------------------------------------------------------------
 Rotational constants (GHZ):           3.7603535           1.0402131           0.9839849
 Standard basis: 6-31+G (6D, 7F)
 There are   118 symmetry adapted cartesian basis functions of A   symmetry.
 There are   118 symmetry adapted basis functions of A   symmetry.
   118 basis functions,   236 primitive gaussians,   118 cartesian basis functions
    31 alpha electrons       30 beta electrons
       nuclear repulsion energy       348.5426307557 Hartrees.
 NAtoms=   15 NActive=   15 NUniq=   15 SFac= 1.00D+00 NAtFMM=   60 NAOKFM=F Big=F
 Integral buffers will be    131072 words long.
 Raffenetti 2 integral format.
 Two-electron integral symmetry is turned on.
 One-electron integrals computed using PRISM.
 NBasis=   118 RedAO= T EigKep=  1.79D-06  NBF=   118
 NBsUse=   118 1.00D-06 EigRej= -1.00D+00 NBFU=   118
 Initial guess from the checkpoint file:  "ethyl_propiolate.chk"
 B after Tr=    -0.000000   -0.000000   -0.000000
         Rot=    0.998150    0.059507    0.004423   -0.011655 Ang=   6.97 deg.
 Initial guess <Sx>= 0.0000 <Sy>= 0.0000 <Sz>= 0.5000 <S**2>= 0.7637 S= 0.5068
 ExpMin= 4.38D-02 ExpMax= 5.48D+03 ExpMxC= 8.25D+02 IAcc=2 IRadAn=         4 AccDes= 0.00D+00
 Harris functional with IExCor= 1009 and IRadAn=       4 diagonalized for initial guess.
 HarFok:  IExCor= 1009 AccDes= 0.00D+00 IRadAn=         4 IDoV= 1 UseB2=F ITyADJ=14
 ICtDFT=  3500011 ScaDFX=  1.000000  1.000000  1.000000  1.000000
 FoFCou: FMM=F IPFlag=           0 FMFlag=      100000 FMFlg1=           0
         NFxFlg=           0 DoJE=T BraDBF=F KetDBF=T FulRan=T
         wScrn=  0.000000 ICntrl=       500 IOpCl=  0 I1Cent=   200000004 NGrid=           0
         NMat0=    1 NMatS0=      1 NMatT0=    0 NMatD0=    1 NMtDS0=    0 NMtDT0=    0
 Petite list used in FoFCou.
 Requested convergence on RMS density matrix=1.00D-08 within 128 cycles.
 Requested convergence on MAX density matrix=1.00D-06.
 Requested convergence on             energy=1.00D-06.
 No special actions if energy rises.
 SCF Done:  E(UM062X) =  -419.958247829     A.U. after   20 cycles
            NFock= 20  Conv=0.43D-08     -V/T= 2.0057
 <Sx>= 0.0000 <Sy>= 0.0000 <Sz>= 0.5000 <S**2>= 0.7658 S= 0.5079
 <L.S>=  0.00000000000    
 Annihilation of the first spin contaminant:
 S**2 before annihilation     0.7658,   after     0.7501
 Calling FoFJK, ICntrl=      2127 FMM=F ISym2X=0 I1Cent= 0 IOpClX= 1 NMat=1 NMatS=1 NMatT=0.
 ***** Axes restored to original set *****
 -------------------------------------------------------------------
 Center     Atomic                   Forces (Hartrees/Bohr)
 Number     Number              X              Y              Z
 -------------------------------------------------------------------
      1        8          -0.002412009   -0.006853123   -0.009735848
      2        1           0.000165671   -0.000626574   -0.000325170
      3        6           0.002308398    0.003969261    0.005067424
      4        1          -0.000354557   -0.000442421    0.000242374
      5        6          -0.000245552    0.003468878    0.004362877
      6        6           0.000228072    0.000785130    0.000544592
      7        8           0.000390891   -0.000504026   -0.000428903
      8        8          -0.000202134    0.000201685    0.000245489
      9        6           0.000277975   -0.000095066    0.000209905
     10        6          -0.000032038   -0.000011456    0.000000341
     11        1          -0.000056569    0.000009433   -0.000029604
     12        1          -0.000050127    0.000056169   -0.000113316
     13        1          -0.000014784   -0.000040993   -0.000001091
     14        1          -0.000016204    0.000020682   -0.000022932
     15        1           0.000012969    0.000062420   -0.000016137
 -------------------------------------------------------------------
 Cartesian Forces:  Max     0.009735848 RMS     0.002252039

 GradGradGradGradGradGradGradGradGradGradGradGradGradGradGradGradGradGrad
 Berny optimization.
 FormGI is forming the generalized inverse of G from B-inverse, IUseBI=4.
 Internal  Forces:  Max     0.012111548 RMS     0.002371876
 Search for a saddle point.
 Step number   3 out of a maximum of   65
 All quantities printed in internal units (Hartrees-Bohrs-Radians)
 Swapping is turned off.
 Update second derivatives using D2CorX and points    1    2    3
 ITU=  0  0  0
     Eigenvalues ---   -0.05548   0.00233   0.00492   0.00704   0.01083
     Eigenvalues ---    0.02235   0.04628   0.04753   0.04873   0.04966
     Eigenvalues ---    0.05421   0.06363   0.07251   0.07655   0.09531
     Eigenvalues ---    0.10228   0.13082   0.13280   0.13356   0.14097
     Eigenvalues ---    0.17491   0.18453   0.20283   0.24378   0.25651
     Eigenvalues ---    0.27414   0.33059   0.35371   0.35475   0.35606
     Eigenvalues ---    0.35826   0.36075   0.39743   0.40676   0.42189
     Eigenvalues ---    0.49683   0.56920   0.97799   1.15884
 Eigenvectors required to have negative eigenvalues:
                          R2        A20       A3        R4        A2
   1                    0.85568  -0.38385  -0.31718  -0.07756  -0.06667
                          R5        A1        D4        D3        A21
   1                    0.05144  -0.04493  -0.03990  -0.03247   0.02094
 RFO step:  Lambda0=5.531902603D-04 Lambda=-2.90287101D-03.
 Linear search not attempted -- option 19 set.
 Iteration  1 RMS(Cart)=  0.09949140 RMS(Int)=  0.00818288
 Iteration  2 RMS(Cart)=  0.00718080 RMS(Int)=  0.00009411
 Iteration  3 RMS(Cart)=  0.00009962 RMS(Int)=  0.00001748
 Iteration  4 RMS(Cart)=  0.00000002 RMS(Int)=  0.00001748
 Variable       Old X    -DE/DX   Delta X   Delta X   Delta X     New X
                                 (Linear)    (Quad)   (Total)
    R1        1.86936   0.00013   0.00000  -0.00093  -0.00093   1.86843
    R2        3.89014   0.01211   0.00000  -0.02192  -0.02192   3.86822
    R3        2.01491   0.00006   0.00000   0.00136   0.00136   2.01627
    R4        2.30628   0.00112   0.00000   0.00731   0.00731   2.31360
    R5        2.71817   0.00047   0.00000  -0.00491  -0.00491   2.71327
    R6        2.33015   0.00037   0.00000   0.00338   0.00338   2.33354
    R7        2.55842   0.00010   0.00000   0.00436   0.00436   2.56278
    R8        2.78235   0.00011   0.00000   0.00272   0.00272   2.78507
    R9        2.86873  -0.00002   0.00000  -0.00002  -0.00002   2.86871
   R10        2.05791  -0.00001   0.00000  -0.00007  -0.00007   2.05785
   R11        2.06445   0.00000   0.00000  -0.00009  -0.00009   2.06437
   R12        2.06749   0.00000   0.00000   0.00002   0.00002   2.06751
   R13        2.06463   0.00000   0.00000   0.00014   0.00014   2.06478
   R14        2.06433   0.00004   0.00000   0.00013   0.00013   2.06446
    A1        1.74899   0.00127   0.00000   0.01091   0.01091   1.75990
    A2        1.70710  -0.00524   0.00000  -0.05801  -0.05801   1.64909
    A3        1.58542   0.01016   0.00000   0.15167   0.15167   1.73710
    A4        2.16480   0.00024   0.00000   0.00161   0.00161   2.16641
    A5        1.95702  -0.00014   0.00000   0.00177   0.00177   1.95879
    A6        2.16136  -0.00010   0.00000  -0.00338  -0.00338   2.15798
    A7        2.04860  -0.00014   0.00000  -0.00049  -0.00049   2.04811
    A8        1.92806  -0.00015   0.00000  -0.00065  -0.00065   1.92740
    A9        1.80122   0.00001   0.00000  -0.00099  -0.00099   1.80024
   A10        1.88995   0.00001   0.00000  -0.00106  -0.00106   1.88888
   A11        1.96175   0.00007   0.00000   0.00106   0.00106   1.96281
   A12        1.95289   0.00004   0.00000   0.00027   0.00027   1.95316
   A13        1.92303   0.00002   0.00000   0.00119   0.00118   1.92421
   A14        1.91488   0.00006   0.00000   0.00088   0.00088   1.91576
   A15        1.92691  -0.00002   0.00000  -0.00015  -0.00015   1.92676
   A16        1.93405  -0.00008   0.00000  -0.00073  -0.00073   1.93331
   A17        1.89372  -0.00001   0.00000  -0.00066  -0.00066   1.89306
   A18        1.88892   0.00002   0.00000   0.00015   0.00015   1.88907
   A19        1.90451   0.00003   0.00000   0.00051   0.00051   1.90501
   A20        3.29253   0.00492   0.00000   0.09366   0.09366   3.38618
   A21        3.08756   0.00096   0.00000  -0.01443  -0.01446   3.07311
   A22        3.14926   0.00066   0.00000   0.00510   0.00510   3.15435
   A23        3.12996  -0.00078   0.00000  -0.00382  -0.00380   3.12615
    D1        1.97846   0.00052   0.00000   0.17647   0.17647   2.15493
    D2       -1.17079  -0.00014   0.00000   0.17137   0.17137  -0.99942
    D3        1.47809  -0.00103   0.00000  -0.11347  -0.11341   1.36468
    D4       -1.64492  -0.00102   0.00000  -0.10725  -0.10731  -1.75223
[...]
 ! D12   D(8,9,10,15)           65.2261         -DE/DX =    0.0                 !
 ! D13   D(11,9,10,13)         -60.6788         -DE/DX =    0.0                 !
 ! D14   D(11,9,10,14)          58.7599         -DE/DX =    0.0                 !
 ! D15   D(11,9,10,15)         179.8929         -DE/DX =    0.0                 !
 ! D16   D(12,9,10,13)          64.0954         -DE/DX =    0.0                 !
 ! D17   D(12,9,10,14)        -176.4659         -DE/DX =    0.0                 !
 ! D18   D(12,9,10,15)         -55.3329         -DE/DX =    0.0                 !
 --------------------------------------------------------------------------------
 GradGradGradGradGradGradGradGradGradGradGradGradGradGradGradGradGradGrad


 ----------------------------------------------------------------------

 Electric dipole moment (input orientation):
 (Debye = 10**-18 statcoulomb cm , SI units = C m)
                  (au)            (Debye)         (10**-30 SI)
   Tot        0.130831D+01      0.332538D+01      0.110923D+02
   x          0.386475D+00      0.982322D+00      0.327667D+01
   y         -0.512496D+00     -0.130263D+01     -0.434512D+01
   z          0.114002D+01      0.289765D+01      0.966551D+01

 Dipole polarizability, Alpha (input orientation).
 (esu units = cm**3 , SI units = C**2 m**2 J**-1)
 Alpha(0;0):
               (au)            (10**-24 esu)      (10**-40 SI)
   iso        0.748160D+02      0.110866D+02      0.123355D+02
   aniso      0.551610D+02      0.817401D+01      0.909482D+01
   xx         0.794381D+02      0.117715D+02      0.130976D+02
   yx        -0.122264D+02     -0.181177D+01     -0.201586D+01
   yy         0.548398D+02      0.812642D+01      0.904186D+01
   zx         0.146329D+02      0.216837D+01      0.241264D+01
   zy        -0.179599D+02     -0.266138D+01     -0.296119D+01
   zz         0.901701D+02      0.133618D+02      0.148670D+02

 ----------------------------------------------------------------------

 Dipole orientation:
     8          4.08699862         -0.57648511          0.45634179
     1          5.80799297         -0.72749471          1.17638723
     6          1.95071854         -0.08364572          3.50333272
     1          0.27105621          0.04470271          2.39216056
     6          3.39330903         -0.12949316          5.32267777
     6          5.59985885         -0.29136968          6.90589989
     8          7.74171344         -0.62466730          6.04142272
     8          5.08324423         -0.03114897          9.38980769
     6          7.22047887         -0.19179648         11.17125687
     6          7.91594370         -2.93160247         11.65723199
     1          6.49943785          0.74788521         12.85363202
     1          8.79953889          0.87561112         10.37879153
     1          9.39593410         -3.02981233         13.09728570
     1          6.27408287         -3.98307410         12.33678963
     1          8.62872841         -3.82438625          9.93778450

 Electric dipole moment (dipole orientation):
 (Debye = 10**-18 statcoulomb cm , SI units = C m)
                  (au)            (Debye)         (10**-30 SI)
   Tot        0.130831D+01      0.332538D+01      0.110923D+02
   x          0.000000D+00      0.000000D+00      0.000000D+00
   y          0.000000D+00      0.000000D+00      0.000000D+00
   z          0.130831D+01      0.332538D+01      0.110923D+02

 Dipole polarizability, Alpha (dipole orientation).
 (esu units = cm**3 , SI units = C**2 m**2 J**-1)
 Alpha(0;0):
               (au)            (10**-24 esu)      (10**-40 SI)
   iso        0.748160D+02      0.110866D+02      0.123355D+02
   aniso      0.551610D+02      0.817401D+01      0.909482D+01
   xx         0.712531D+02      0.105586D+02      0.117480D+02
   yx        -0.375262D+01     -0.556081D+00     -0.618723D+00
   yy         0.467592D+02      0.692899D+01      0.770955D+01
   zx         0.100094D+02      0.148324D+01      0.165033D+01
   zy         0.360578D+00      0.534322D-01      0.594513D-01
   zz         0.106436D+03      0.157721D+02      0.175489D+02

 ----------------------------------------------------------------------
 1\1\GINC-AJ\Freq\UM062X\6-31+G\C5H7O3(2)\AAYUSH\06-Jun-2025\0\\#N Geom
 =AllCheck Guess=TCheck SCRF=Check GenChk UM062X/6-31+G Freq\\Title Car
 d Required\\0,2\O,2.114369618,-0.2409112806,-0.5479544399\H,3.09023019
 64,-0.4072154716,-0.5162620728\C,1.5290433245,-0.7030152617,1.29314883
 57\H,0.5121525562,-0.4652897704,1.0699453699\C,2.5397317655,-1.0552186
 8,1.8970589669\C,3.8951317397,-1.3898431253,2.2486166888\O,4.829660424
 9,-1.3024706391,1.446093624\O,4.0312969571,-1.7952295393,3.5286711254\
 C,5.3827542862,-2.1726158781,3.982723503\C,5.7199342141,-3.5815569828,
 3.53015784\H,5.3127238123,-2.0884677785,5.0659853362\H,6.090442236,-1.
 4381434883,3.5917362459\H,6.6884869424,-3.8793495883,3.942472133\H,4.9
 634349182,-4.2869380153,3.8822025662\H,5.7815388086,-3.6355081106,2.44
 08137376\\Version=ES64L-G16RevA.03\State=2-A\HF=-419.9617835\S2=0.7760
 57\S2-1=0.\S2A=0.750264\RMSD=1.714e-09\RMSF=9.287e-07\ZeroPoint=0.1123
 221\Thermal=0.1218707\Dipole=0.3864752,-0.5124958,1.1400223\DipoleDeri
 v=-0.2028412,-0.0336104,-0.0458854,-0.018144,-0.4454214,-0.1838889,-0.
 0986127,-0.1758564,0.127351,0.0545976,0.0965189,-0.1377845,0.048442,0.
 3706073,0.0163715,0.0126427,-0.0116607,0.3974721,0.0197907,0.0628757,-
 0.2220507,-0.0027956,-0.1491459,0.3343286,-0.0214168,0.3100242,-1.0184
 852,0.2670674,-0.0055208,-0.0108861,-0.0200521,0.2333452,-0.0200826,0.
 045258,-0.0314689,0.2971903,-0.6757422,0.0494298,0.2010293,0.141025,-0
 .1001727,-0.0682919,-0.1561433,0.0013006,0.0184989,1.6767026,-0.363410
 6,0.4228873,-0.3859104,0.7018373,-0.5720313,0.4996049,-0.6826937,1.990
 1093,-0.9534084,0.0707401,0.0694236,0.0858741,-0.4513905,0.1520716,0.0
 716419,0.1732963,-0.8361923,-0.8720195,0.3434235,-0.5220929,0.2983115,
 -0.6332463,0.4082721,-0.5450007,0.5112262,-1.4451372,0.658435,-0.27177
 86,0.4027281,-0.188577,0.4454413,-0.0954899,0.211164,-0.1211118,0.4787
 433,-0.0386588,0.0597941,-0.0915369,0.0716,-0.0992119,-0.0356024,-0.01
 84966,-0.0271163,-0.0534099,0.0404193,0.0513213,0.0063107,0.0356682,0.
 0541694,-0.0101316,-0.0306877,-0.0182644,-0.0959027,-0.0214333,0.00230
 29,-0.0578529,-0.041565,-0.0453134,0.0293539,0.043812,0.0630557,0.0599
 533,-0.0753025,0.0717696,-0.0914109,0.0478578,0.0541217,0.0297808,-0.0
 871395,0.0188258,0.0762668,0.0047829,-0.1167919,0.0676932,-0.0504857,-
 0.0101843,0.0092815,0.0582652,0.0299016,0.0735312,0.1176104,-0.0170635
 ,0.009428,-0.0212487,0.0745643,0.0060586,0.0151084,-0.0394582,-0.06998
 88\Polar=79.4380919,-12.2264214,54.8398196,14.6329113,-17.9598862,90.1
 700753\Quadrupole=3.6597559,-0.3885006,-3.2712553,-1.2696459,1.237067,
 0.8617144\PG=C01 [X(C5H7O3)]\NImag=1\\0.45340804,-0.08268222,0.0170209
 3,0.03433638,-0.00068080,-0.01200745,-0.44265241,0.07312391,-0.0082520
 5,0.44114713,0.07793403,-0.01733825,0.00604884,-0.07381447,0.01760913,
 -0.02417300,0.00865383,-0.01919955,0.01156263,-0.00770456,0.02323997,-
 0.02083220,-0.00141080,0.01232726,-0.00228823,-0.00244765,0.00938884,1
 .13944829,0.01334045,0.00276808,-0.03760872,0.00270591,0.00014171,-0.0
 0218174,-0.31127434,0.15032665,-0.03612879,-0.02944520,0.11008763,-0.0
 0764908,0.00061072,0.00212579,0.43982794,-0.06827498,0.05971168,-0.005
 89254,-0.00108883,0.00770587,0.00017155,-0.00030830,0.00136336,-0.3867
 1378,0.08866624,-0.09708977,0.37878384,-0.00321823,0.00078518,0.004761
 96,-0.00001074,0.00056343,0.00064590,0.08160706,-0.04988086,0.01179967
 ,-0.08432920,0.03839285,0.01473565,0.00356696,-0.01802535,0.00033155,0
 .00080400,-0.00213367,-0.07375740,0.00790829,-0.01806153,0.07904914,-0
 .02071080,0.04260229,0.01700111,0.01218370,-0.04699133,0.00278653,-0.0
 0068657,0.00039259,-0.73310396,0.20719771,-0.30311963,0.01382908,0.004
 83395,-0.01894643,1.04981233,-0.00600170,-0.00326294,0.02875179,-0.001
 35760,-0.00066912,0.00075051,0.22797278,-0.10844113,0.08117321,-0.0040
 7139,0.00652763,0.00828415,-0.29349412,0.16796567,0.01287902,0.0187612
 3,-0.06428651,0.00263465,0.00039152,-0.00333960,-0.37163277,0.09261577
 ,-0.14515284,0.01043526,0.00334228,-0.00853526,0.42905717,-0.14244796,
 0.30749892,-0.00195474,-0.00028443,0.00162770,0.00432195,-0.00072717,0
 .00037192,0.00419096,-0.00161737,0.00698398,-0.00069927,0.00153731,-0.
 00163887,-0.26789237,0.05284353,-0.07061627,0.81251675,0.00030132,-0.0
 0028580,-0.00217292,-0.00048645,0.00035940,0.00164377,0.00482919,0.005
 47885,0.00288296,0.00164697,0.00498561,0.00070279,0.04956288,-0.092243
 50,0.00864724,-0.06168249,0.25198881,-0.00043941,-0.00179382,0.0052568
 5,-0.00039220,0.00173797,-0.00469674,-0.01440783,0.00644794,-0.0062190
 0,-0.00192150,0.00076701,0.00402305,-0.06005155,0.00674599,-0.07033726
 ,-0.12764844,-0.11901682,0.66893496,0.00094525,0.00027189,-0.00094924,
 -0.00258343,-0.00010262,0.00088581,0.00406506,-0.00108949,0.00099601,0
 .00068142,-0.00004124,-0.00074918,-0.06979015,0.00744011,0.02668892,-0
 .42017293,-0.02434146,0.26848702,0.47486696,0.00025962,0.00063194,0.00
 072061,-0.00032975,-0.00109524,-0.00128984,-0.00023966,-0.00063869,0.0
 0024320,-0.00030281,-0.00086280,-0.00010795,0.00976465,0.02202023,-0.0
 0128523,-0.02045854,-0.08051624,0.02722155,0.02548293,0.04255482,-0.00
 084837,0.00066684,-0.00083450,0.00166446,-0.00139661,0.00211830,-0.001
 88788,0.00080998,-0.00201268,0.00008736,-0.00025064,-0.00017360,0.0186
 6009,-0.00007682,0.01250071,0.25350420,0.02845814,-0.30971941,-0.32672
 231,-0.05004155,0.37787364,-0.00015982,-0.00014986,0.00043533,-0.00104
 498,-0.00000107,0.00072755,-0.00564920,0.00277632,-0.00530586,-0.00009
 379,-0.00040134,0.00128041,-0.01542784,0.01598614,-0.04113546,-0.11457
 039,0.02436711,-0.04836159,0.01276939,-0.01230432,0.04680182,0.3531705
 4,0.00014054,-0.00017145,0.00014284,0.00018814,0.00035734,-0.00069794,
 0.00112066,0.00024459,0.00151281,-0.00020310,-0.00020555,-0.00045103,0
 .01033164,0.00248222,0.01771670,0.01311836,-0.08439392,0.06932511,-0.0
 0842243,0.02212400,0.02479399,-0.06844227,0.12928397,-0.00044496,0.000
 29591,-0.00090955,0.00007416,-0.00058469,0.00209300,0.00078331,0.00042
 327,-0.00106635,0.00049135,-0.00030200,0.00042580,-0.02062412,0.013868
 48,-0.02534874,-0.01356345,0.06562055,-0.26271858,0.03525158,0.0255392
 6,-0.08194380,0.06954268,-0.12830717,0.45732902,0.00018708,0.00003259,
 -0.00025845,0.00024348,0.00021004,-0.00071038,0.00165779,-0.00102260,0
 .00190734,-0.00012398,0.00005008,-0.00043748,0.00327765,0.00045982,0.0
 0446174,-0.00480685,0.00945954,-0.03283047,-0.00866499,-0.00340658,0.0
 1236759,-0.15606604,0.01909784,-0.03000355,0.45275486,-0.00009502,-0.0
 0016838,0.00005312,-0.00005379,0.00008707,0.00026792,-0.00050147,-0.00
 000646,-0.00072038,0.00000468,-0.00030528,0.00004786,0.00017713,0.0063
 6074,0.00142965,0.01478479,-0.00607942,0.01013509,-0.00020584,-0.00274
 651,-0.00551516,0.00990745,-0.06591097,0.01314604,0.07648240,0.5330640
 5,0.00008945,0.00001245,-0.00009240,0.00009176,0.00007383,-0.00032638,
 -0.00031197,-0.00025248,0.00082399,-0.00018049,-0.00004772,-0.00017245
 ,0.00169579,0.00296397,-0.00240758,-0.04503791,0.01475653,-0.03224065,
 -0.00435925,-0.00217254,0.00435435,-0.00058654,0.00665592,-0.08229542,
 -0.05707399,-0.01485277,0.64185103,-0.00003508,0.00002291,0.00001345,-
 0.00006957,-0.00008218,0.00015475,-0.00029175,0.00022179,-0.00036593,0
 .00007270,0.00006936,0.00010295,-0.00065594,-0.00142507,-0.00117256,-0
 .00100193,-0.00028408,0.00755410,0.00194026,0.00156541,-0.00183412,-0.
 02493540,0.04156058,-0.00064994,-0.07921010,0.00754746,0.00826777,0.58
 866845,0.00001026,0.00001189,-0.00002255,0.00000563,-0.00000722,-0.000
 03031,-0.00002895,0.00002131,0.00009039,-0.00000432,-0.00001357,-0.000
 02536,0.00024811,-0.00001384,0.00020566,-0.00093694,-0.00041135,0.0007
 1826,0.00079181,-0.00105062,-0.00014361,0.01113356,-0.00916376,-0.0012
 8019,0.01718964,-0.19694430,-0.03794955,0.02432796,0.51160660,-0.00000
 525,-0.00003226,0.00001415,-0.00004148,0.00002655,0.00007148,-0.000180
 10,0.00008428,-0.00012790,0.00003903,0.00003484,0.00004320,-0.00002179
 ,-0.00056184,-0.00043727,-0.00245928,0.00099928,0.00554858,0.00181245,
 -0.00105522,-0.00080758,-0.00863417,0.01632968,0.00243904,0.01163655,-
 0.04381115,-0.10378970,0.00565595,-0.02437881,0.59059252,-0.00001517,-
 0.00000918,-0.00000164,-0.00003357,0.00000328,0.00005545,-0.00046115,0
 .00013688,-0.00013947,-0.00000575,-0.00004698,0.00003230,0.00001528,0.
 00095588,-0.00131345,-0.00759962,-0.00118773,0.00176274,0.00271267,-0.
 00011970,0.00009503,-0.01278655,0.00554467,-0.04330535,-0.04815967,-0.
 00358191,0.03430499,0.00114105,-0.00025960,0.00754170,0.06246787,0.000
 01509,0.00000015,-0.00000479,0.00001876,0.00000733,-0.00005112,0.00016
 112,-0.00006517,0.00008812,-0.00000516,0.00000774,-0.00001919,-0.00003
 822,-0.00005587,0.00037725,0.00109065,0.00015140,0.00129016,0.00077999
 ,0.00005291,0.00044010,0.00358368,-0.00060177,0.01100731,-0.00267080,-
 0.05351860,-0.02201261,0.00321491,-0.00360762,-0.03449442,-0.00559299,
 0.05807804,-0.00001275,0.00001894,-0.00001269,-0.00002521,-0.00002827,
 0.00006011,-0.00010868,0.00009793,-0.00022444,0.00001831,-0.00001483,0
 .00003138,-0.00041702,0.00010465,-0.00028655,-0.00061505,-0.00131684,0
 .00186863,-0.00041839,0.00011700,0.00003775,-0.00326449,0.00309879,-0.
 01237144,0.02124772,-0.01928224,-0.33050411,0.00202197,-0.00036523,-0.
 00628773,-0.01954611,0.02107922,0.35528260,-0.00000910,0.00001156,0.00
 002039,-0.00002985,-0.00002523,0.00003102,-0.00009877,0.00005736,-0.00
 003569,0.00001229,-0.00005592,0.00001830,0.00005589,0.00050222,-0.0003
 7302,-0.00154003,-0.00286836,0.00781744,0.00312865,0.00033145,-0.00149
 403,-0.03857548,-0.01377532,0.00159645,-0.15773630,-0.11538407,0.06070
 051,0.00877502,0.00715455,-0.00213240,0.00161911,-0.00135764,0.0007777
 5,0.18418854,0.00000677,0.00000200,-0.00000392,0.00000668,0.00000658,-
 0.00002729,0.00010059,0.00004034,0.00006899,-0.00001583,0.00002757,-0.
 00000122,-0.00000916,-0.00061953,-0.00022272,-0.00042437,0.00131657,-0
 .00003128,0.00128562,-0.00045707,0.00100765,0.01168177,0.00755509,-0.0
 0166840,-0.12156004,-0.17721981,0.06707312,-0.02007233,-0.02231271,0.0
 1155308,0.00257384,0.00293602,-0.00212420,0.12423973,0.19127068,0.0000
 1009,-0.00002135,0.00000871,-0.00000374,0.00002966,-0.00003213,-0.0000
 5604,-0.00009209,0.00013752,-0.00000869,-0.00003662,-0.00001398,0.0005
 9797,0.00079544,-0.00005265,-0.00332971,-0.00083343,0.00321308,0.00101
 366,-0.00032835,-0.00193271,-0.01413978,-0.00785611,0.00189044,0.06987
 096,0.07087426,-0.09245239,-0.00678968,-0.00956390,0.00458462,0.021135
 00,0.02249289,-0.00922815,-0.06785332,-0.07388928,0.09317239,-0.000010
 10,0.00001045,0.00000670,-0.00001865,-0.00002105,0.00005096,-0.0000120
 5,0.00002386,-0.00011396,0.00002313,-0.00001510,0.00001885,-0.00017581
 ,0.00004347,-0.00003422,0.00035367,-0.00072017,0.00160425,0.00023449,0
 .00003991,-0.00035808,0.00089685,0.00211458,-0.00013959,-0.00730602,-0
 .00082288,-0.00376461,-0.26038446,0.06507414,-0.09092537,0.00009323,0.
 00009937,0.00044767,0.00015711,0.00033279,0.00003515,0.28397949,0.0000
 1000,0.00000440,-0.00000113,0.00002132,0.00000891,-0.00005615,0.000129
 06,-0.00008109,0.00013496,-0.00002387,-0.00001748,-0.00003060,0.000227
 80,0.00036108,0.00040249,0.00045040,0.00023691,-0.00316935,-0.00085534
 ,-0.00023984,0.00073382,0.00378702,-0.00759590,0.00022886,0.02831332,-
 0.00614557,0.01366507,0.06320346,-0.06903315,0.02630982,-0.00017897,0.
 00129851,-0.00039766,-0.00097333,0.00056337,0.00071278,-0.07264016,0.0
 7376295,0.00000172,0.00001342,0.00000961,-0.00001028,-0.00002450,0.000
 01953,0.00002415,0.00001974,-0.00002964,0.00000794,-0.00001154,-0.0000
 0127,-0.00008493,-0.00005700,0.00011714,0.00114801,-0.00058082,-0.0013
 7321,-0.00063573,0.00070681,0.00038033,0.00229068,-0.00307976,0.001312
 13,0.00923060,-0.00261937,0.00298630,-0.09216303,0.02716121,-0.0873779
 0,-0.00003518,0.00071452,-0.00005951,-0.00017468,0.00054688,0.00029483
 ,0.10088376,-0.02897150,0.09140305,0.00001370,0.00000492,-0.00000505,0
 .00000968,0.00000638,-0.00004046,0.00004665,-0.00004214,0.00010714,-0.
 00001886,0.00000610,-0.00001851,0.00012817,0.00001599,0.00004143,-0.00
 017655,0.00038212,-0.00111412,-0.00015248,-0.00011372,0.00026266,0.002
 06469,-0.00103451,0.00073006,0.00476754,0.00930809,-0.00247573,-0.1821
 3817,-0.12344182,0.06224370,0.00032255,-0.00074167,-0.00045555,0.00019
 145,0.00227709,0.00027033,-0.01979188,-0.01986672,0.01088088,0.1955237
 6,-0.00000060,0.00001494,0.00002106,-0.00001078,-0.00002024,0.00000428
 ,0.00002338,0.00000665,-0.00001905,0.00000198,-0.00000944,0.00001036,0
 .00003541,-0.00009142,-0.00001740,-0.00035635,-0.00045188,0.00110762,0
 .00053913,0.00004959,-0.00039942,-0.00085132,0.00386007,-0.00024799,-0
 .02447070,-0.02613779,0.01066234,-0.11984617,-0.15905165,0.05659869,0.
 00015684,0.00135702,0.00007791,0.00236153,-0.00458071,-0.00263830,0.00
 753304,0.00661162,-0.00323158,0.13339930,0.17730426,0.00000024,-0.0000
 2546,-0.00001745,0.00001465,0.00002118,-0.00000338,-0.00000222,0.00000
 294,0.00001605,-0.00000238,0.00001812,-0.00000204,-0.00011605,-0.00013
 158,0.00001362,0.00055183,0.00054818,-0.00069494,-0.00060578,0.0004519
 7,0.00016561,-0.00040338,0.00086199,-0.00034753,-0.00877631,-0.0093648
 4,0.00429296,0.06358587,0.05752194,-0.08123206,-0.00067070,0.00033487,
 0.00036777,0.00104523,-0.00224356,-0.00004325,-0.00979372,-0.00904010,
 0.00375960,-0.06943191,-0.06084452,0.08285363,0.00000598,-0.00003659,-
 0.00001532,0.00004036,0.00006260,-0.00006106,0.00004234,-0.00008059,0.
 00012578,-0.00002603,0.00001487,-0.00002128,0.00014003,0.00012991,0.00
 007954,-0.00096864,0.00102160,-0.00005845,0.00001981,-0.00016890,-0.00
 029840,0.00040803,-0.00133937,0.00026138,-0.00081445,0.00243297,0.0086
 4023,-0.05187507,-0.00126401,0.01547046,0.00068972,0.00144292,0.000349
 83,-0.00013852,-0.00042316,-0.00075218,0.00196099,-0.00160400,-0.03136
 394,-0.00079025,0.00148532,0.02460462,0.05130569,-0.00002029,-0.000012
 71,-0.00000538,-0.00000677,-0.00001083,0.00007275,-0.00004098,0.000085
 23,-0.00014542,0.00003294,0.00000498,0.00002174,-0.00033492,-0.0003202
 3,0.00008352,0.00266261,-0.00013544,-0.00148542,-0.00153306,0.00017352
 ,0.00091330,-0.00107288,0.00213605,0.00226075,0.00183546,-0.00432877,-
 0.03857556,-0.00002402,-0.05003000,-0.00760252,0.00160565,-0.00604009,
 -0.00106516,-0.00021853,0.00147162,0.00035440,-0.00105224,0.00026529,0
 .00941349,-0.00015942,0.00113899,0.02188887,-0.00167356,0.05560239,-0.
 00000003,0.00000931,0.00000851,0.00000018,-0.00000562,0.00000326,-0.00
 000661,-0.00000014,-0.00000829,0.00000521,0.00000437,-0.00000656,-0.00
 003076,-0.00016299,0.00005387,0.00072135,-0.00033861,-0.00084537,-0.00
 069556,0.00128028,-0.00000641,0.00075278,-0.00004580,0.00151198,-0.000
 63187,0.00021199,-0.01002756,0.01561844,-0.01193797,-0.32323345,0.0000
 8469,-0.00124232,0.00132638,0.00005604,-0.00003784,0.00045367,0.002082
 22,-0.00052131,-0.01144098,-0.00099488,-0.00108398,-0.00912860,-0.0169
 6122,0.01387064,0.35133956\\0.00000160,0.00000159,-0.00000050,0.000001
 48,0.00000205,0.00000042,0.00000031,0.00000004,-0.00000081,0.00000037,
 -0.00000041,-0.00000158,-0.00000046,-0.00000049,-0.00000015,0.00000084
 ,-0.00000004,0.,0.00000045,0.00000120,0.00000123,-0.00000096,-0.000000
 96,-0.00000005,-0.00000113,-0.00000073,0.00000061,-0.00000007,-0.00000
 023,-0.00000022,-0.00000181,-0.00000164,0.00000069,-0.00000108,-0.0000
 0012,0.00000177,-0.00000027,-0.00000016,0.00000027,-0.00000006,-0.0000
 0082,-0.00000145,0.00000080,0.00000072,-0.00000023\\\@


 MISERY NO LONGER LOVES COMPANY.  NOWADAYS IT INSISTS ON IT.

                                              -- BAKER'S LAW
 Job cpu time:       0 days  0 hours 12 minutes 47.1 seconds.
 Elapsed time:       0 days  0 hours  0 minutes 32.0 seconds.
 File lengths (MBytes):  RWF=     60 Int=      0 D2E=      0 Chk=      6 Scr=      1
 Normal termination of Gaussian 16 at Fri Jun  6 17:58:01 2025.
