 Entering Gaussian System, Link 0=g16
 Initial command:
 /opt/g16/l1.exe "/home/aayush/scratches/g16/Gau-35154.inp" -scrdir="/home/aayush/scratches/g16/"
 Entering Link 1 = /opt/g16/l1.exe PID=     35157.
  
 Copyright (c) 1988,1990,1992,1993,1995,1998,2003,2009,2016,
            Gaussian, Inc.  All Rights Reserved.
  
 This is part of the Gaussian(R) 16 program.  It is based on
 the Gaussian(R) 09 system (copyright 2009, Gaussian, Inc.),
 the Gaussian(R) 03 system (copyright 2003, Gaussian, Inc.),
 the Gaussian(R) 98 system (copyright 1998, Gaussian, Inc.),
 the Gaussian(R) 94 system (copyright 1995, Gaussian, Inc.),
 the Gaussian 92(TM) system (copyright 1992, Gaussian, Inc.),
 the Gaussian 90(TM) system (copyright 1990, Gaussian, Inc.),
 the Gaussian 88(TM) system (copyright 1988, Gaussian, Inc.),
 the Gaussian 86(TM) system (copyright 1986, Carnegie Mellon
 University), and the Gaussian 82(TM) system (copyright 1983,
 Carnegie Mellon University). Gaussian is a federally registered
 trademark of Gaussian, Inc.
  
 This software contains proprietary and confidential information,
 including trade secrets, belonging to Gaussian, Inc.
  
 This software is provided under written license and may be
 used, copied, transmitted, or stored only in accord with that
 written license.
  
 The following legend is applicable only to US Government
 contracts under FAR:
  
                    RESTRICTED RIGHTS LEGEND
  
 Use, reproduction and disclosure by the US Government is
 subject to restrictions as set forth in subparagraphs (a)
 and (c) of the Commercial Computer Software - Restricted
 Rights clause in FAR 52.227-19.
  
 Gaussian, Inc.
 340 Quinnipiac St., Bldg. 40, Wallingford CT 06492
  
  
 ---------------------------------------------------------------
 Warning -- This program may not be used in any manner that
 competes with the business of Gaussian, Inc. or will provide
 assistance to any competitor of Gaussian, Inc.  The licensee
 of this program is prohibited from giving any competitor of
 Gaussian, Inc. access to this program.  By using this program,
 the user acknowledges that Gaussian, Inc. is engaged in the
 business of creating and licensing software in the field of
 computational chemistry and represents and warrants to the
 licensee that it is not a competitor of Gaussian, Inc. and that
 it will not use this program in any manner prohibited above.
 ---------------------------------------------------------------
  

 Cite this work as:
 Gaussian 16, Revision A.03,
 M. J. Frisch, G. W. Trucks, H. B. Schlegel, G. E. Scuseria, 
 M. A. Robb, J. R. Cheeseman, G. Scalmani, V. Barone, 
 G. A. Petersson, H. Nakatsuji, X. Li, M. Caricato, A. V. Marenich, 
 J. Bloino, B. G. Janesko, R. Gomperts, B. Mennucci, H. P. Hratchian, 
 J. V. Ortiz, A. F. Izmaylov, J. L. Sonnenberg, D. Williams-Young, 
 F. Ding, F. Lipparini, F. Egidi, J. Goings, B. Peng, A. Petrone, 
 T. Henderson, D. Ranasinghe, V. G. Zakrzewski, J. Gao, N. Rega, 
 G. Zheng, W. Liang, M. Hada, M. Ehara, K. Toyota, R. Fukuda, 
 J. Hasegawa, M. Ishida, T. Nakajima, Y. Honda, O. Kitao, H. Nakai, 
 T. Vreven, K. Throssell, J. A. Montgomery, Jr., J. E. Peralta, 
 F. Ogliaro, M. J. Bearpark, J. J. Heyd, E. N. Brothers, K. N. Kudin, 
 V. N. Staroverov, T. A. Keith, R. Kobayashi, J. Normand, 
 K. Raghavachari, A. P. Rendell, J. C. Burant, S. S. Iyengar, 
 J. Tomasi, M. Cossi, J. M. Millam, M. Klene, C. Adamo, R. Cammi, 
 J. W. Ochterski, R. L. Martin, K. Morokuma, O. Farkas, 
 J. B. Foresman, and D. J. Fox, Gaussian, Inc., Wallingford CT, 2016.
 
 ******************************************
 Gaussian 16:  ES64L-G16RevA.03 25-Dec-2016
                 8-Jun-2025 
 ******************************************
 %chk=ethyl_propiolate_non_planar.chk
 %mem=12GB
 %nprocshared=24
 Will use up to   24 processors via shared memory.
 -----------------------
 # ccsd(t)/6-311++g** sp
 -----------------------
 1/38=1,172=1/1;
 2/12=2,17=6,18=5,40=1/2;
 3/5=4,6=6,7=1111,11=9,25=1,30=1/1,2,3;
 4//1;
 5/5=2,38=5/2;
 8/6=4,9=120000,10=2/1,4;
 9/5=7,14=2/13;
 6/7=2,8=2,9=2,10=2/1;
 99/5=1,9=1/99;
 -------------------
 Title Card Required
 -------------------
 Symbolic Z-matrix:
 Charge =  0 Multiplicity = 2
 C                    -2.86164  -0.37952  -0.30066 
 H                    -3.9179   -0.39309  -0.44932 
 C                    -1.6589   -0.23388  -0.09151 
 C                    -0.26273  -0.62282   0.05479 
 O                     0.14019  -1.49149   0.82036 
 O                     0.53603   0.0805   -0.78951 
 C                     1.98688  -0.15587  -0.69721 
 C                     2.56584   0.59855   0.48597 
 H                     2.363     0.21028  -1.65141 
 H                     2.15317  -1.23239  -0.61577 
 H                     3.65265   0.4751    0.50881 
 H                     2.33875   1.6645    0.4085 
 H                     2.1574    0.21775   1.42492 
 O                    -1.45679   1.63972   0.4757 
 H                    -1.11928   1.98936  -0.38651 
 
                          Input orientation:                          
 ---------------------------------------------------------------------
 Center     Atomic      Atomic             Coordinates (Angstroms)
 Number     Number       Type             X           Y           Z
 ---------------------------------------------------------------------
      1          6           0       -2.861639   -0.379524   -0.300656
      2          1           0       -3.917901   -0.393091   -0.449317
      3          6           0       -1.658896   -0.233884   -0.091510
      4          6           0       -0.262726   -0.622820    0.054793
      5          8           0        0.140193   -1.491494    0.820364
      6          8           0        0.536030    0.080496   -0.789508
      7          6           0        1.986875   -0.155867   -0.697207
      8          6           0        2.565843    0.598548    0.485969
      9          1           0        2.362999    0.210280   -1.651408
     10          1           0        2.153173   -1.232391   -0.615770
     11          1           0        3.652650    0.475098    0.508812
     12          1           0        2.338755    1.664504    0.408499
     13          1           0        2.157402    0.217747    1.424915
     14          8           0       -1.456791    1.639721    0.475699
     15          1           0       -1.119278    1.989358   -0.386513
 ---------------------------------------------------------------------
                    Distance matrix (angstroms):
                    1          2          3          4          5
     1  C    0.000000
     2  H    1.066758   0.000000
     3  C    1.229449   2.292701   0.000000
     4  C    2.634366   3.696919   1.456697   0.000000
     5  O    3.391778   4.391663   2.376935   1.225984   0.000000
     6  O    3.463344   4.491939   2.324594   1.358495   2.284628
     7  C    4.869842   5.914736   3.696566   2.417489   2.738093
     8  C    5.570724   6.625484   4.344519   3.111022   3.219297
     9  H    5.428558   6.423300   4.336612   3.240310   3.734509
    10  H    5.096569   6.131074   3.975391   2.580271   2.486303
    11  H    6.619787   7.680170   5.392176   4.091665   4.037562
    12  H    5.632499   6.641934   4.453661   3.482049   3.868285
    13  H    5.340889   6.387110   4.131301   2.905307   2.712217
    14  O    2.579472   3.323408   1.967986   2.592691   3.531807
    15  H    2.941903   3.675908   2.306733   2.784225   3.893475
                    6          7          8          9         10
     6  O    0.000000
     7  C    1.472867   0.000000
     8  C    2.452623   1.517976   0.000000
     9  H    2.024236   1.089051   2.181806   0.000000
    10  H    2.090217   1.092333   2.176342   1.788260   0.000000
    11  H    3.399215   2.151140   1.094034   2.529798   2.535475
    12  H    2.682186   2.158739   1.092627   2.521621   3.078241
    13  H    2.747973   2.161497   1.092453   3.083195   2.503460
    14  O    2.829005   4.056930   4.155205   4.599857   4.740482
    15  H    2.558555   3.787705   4.034315   4.109906   4.597952
                   11         12         13         14         15
    11  H    0.000000
    12  H    1.775125   0.000000
    13  H    1.772355   1.777385   0.000000
    14  O    5.240594   3.796222   3.998176   0.000000
    15  H    5.085852   3.563084   4.142042   0.989733   0.000000
 Stoichiometry    C5H7O3(2)
 Framework group  C1[X(C5H7O3)]
 Deg. of freedom    39
 Full point group                 C1      NOp   1
 Largest Abelian subgroup         C1      NOp   1
 Largest concise Abelian subgroup C1      NOp   1
                         Standard orientation:                         
 ---------------------------------------------------------------------
 Center     Atomic      Atomic             Coordinates (Angstroms)
 Number     Number       Type             X           Y           Z
 ---------------------------------------------------------------------
      1          6           0        2.861639   -0.379524    0.300656
      2          1           0        3.917901   -0.393091    0.449317
      3          6           0        1.658896   -0.233884    0.091510
      4          6           0        0.262726   -0.622820   -0.054793
      5          8           0       -0.140193   -1.491494   -0.820364
      6          8           0       -0.536030    0.080496    0.789508
      7          6           0       -1.986875   -0.155867    0.697207
      8          6           0       -2.565843    0.598548   -0.485969
      9          1           0       -2.362999    0.210280    1.651408
     10          1           0       -2.153173   -1.232391    0.615770
     11          1           0       -3.652650    0.475098   -0.508812
     12          1           0       -2.338755    1.664504   -0.408499
     13          1           0       -2.157402    0.217747   -1.424915
     14          8           0        1.456791    1.639721   -0.475699
     15          1           0        1.119278    1.989358    0.386513
 ---------------------------------------------------------------------
 Rotational constants (GHZ):           3.6316331           1.3033324           1.1315838
 Standard basis: 6-311++G(d,p) (5D, 7F)
 There are   233 symmetry adapted cartesian basis functions of A   symmetry.
 There are   225 symmetry adapted basis functions of A   symmetry.
   225 basis functions,   351 primitive gaussians,   233 cartesian basis functions
    31 alpha electrons       30 beta electrons
       nuclear repulsion energy       359.4772714973 Hartrees.
 NAtoms=   15 NActive=   15 NUniq=   15 SFac= 1.00D+00 NAtFMM=   60 NAOKFM=F Big=F
 Integral buffers will be    131072 words long.
 Raffenetti 2 integral format.
 Two-electron integral symmetry is turned on.
 One-electron integrals computed using PRISM.
 NBasis=   225 RedAO= T EigKep=  2.34D-06  NBF=   225
 NBsUse=   225 1.00D-06 EigRej= -1.00D+00 NBFU=   225
 ExpMin= 3.60D-02 ExpMax= 8.59D+03 ExpMxC= 1.30D+03 IAcc=3 IRadAn=         5 AccDes= 0.00D+00
 Harris functional with IExCor=  205 and IRadAn=       5 diagonalized for initial guess.
 HarFok:  IExCor=  205 AccDes= 0.00D+00 IRadAn=         5 IDoV= 1 UseB2=F ITyADJ=14
 ICtDFT=  3500011 ScaDFX=  1.000000  1.000000  1.000000  1.000000
 FoFCou: FMM=F IPFlag=           0 FMFlag=      100000 FMFlg1=           0
         NFxFlg=           0 DoJE=T BraDBF=F KetDBF=T FulRan=T
         wScrn=  0.000000 ICntrl=       500 IOpCl=  0 I1Cent=   200000004 NGrid=           0
         NMat0=    1 NMatS0=      1 NMatT0=    0 NMatD0=    1 NMtDS0=    0 NMtDT0=    0
 Petite list used in FoFCou.
 Initial guess <Sx>= 0.0000 <Sy>= 0.0000 <Sz>= 0.5000 <S**2>= 0.7500 S= 0.5000
 Requested convergence on RMS density matrix=1.00D-08 within 128 cycles.
 Requested convergence on MAX density matrix=1.00D-06.
 Requested convergence on             energy=1.00D-06.
 No special actions if energy rises.
 Initial convergence to 1.0D-05 achieved.  Increase integral accuracy.
 SCF Done:  E(UHF) =  -417.970211073     A.U. after   38 cycles
            NFock= 38  Conv=0.30D-08     -V/T= 2.0013
 <Sx>= 0.0000 <Sy>= 0.0000 <Sz>= 0.5000 <S**2>= 1.1095 S= 0.6660
 <L.S>=  0.00000000000    
 Annihilation of the first spin contaminant:
 S**2 before annihilation     1.1095,   after     0.8378
 ExpMin= 3.60D-02 ExpMax= 8.59D+03 ExpMxC= 1.30D+03 IAcc=3 IRadAn=         5 AccDes= 0.00D+00
 HarFok:  IExCor=  205 AccDes= 0.00D+00 IRadAn=         5 IDoV=-2 UseB2=F ITyADJ=14
 ICtDFT= 12500011 ScaDFX=  1.000000  1.000000  1.000000  1.000000
 Range of M.O.s used for correlation:     9   225
 NBasis=   225 NAE=    31 NBE=    30 NFC=     8 NFV=     0
 NROrb=    217 NOA=    23 NOB=    22 NVA=   194 NVB=   195

 **** Warning!!: The largest alpha MO coefficient is  0.19372204D+03


 **** Warning!!: The largest beta MO coefficient is  0.19482555D+03

 Semi-Direct transformation.
 ModeAB=           4 MOrb=            23 LenV=    1609174474
 LASXX=    109339976 LTotXX=   109339976 LenRXX=   221407890
 LTotAB=   112067914 MaxLAS=   129621261 LenRXY=           0
 NonZer=   330747866 LenScr=   498067456 LnRSAI=   129621261
 LnScr1=   195209728 LExtra=           0 Total=   1044306335
 MaxDsk=          -1 SrtSym=           T ITran=            4
 JobTyp=1 Pass  1:  I=   1 to  23.
 (rs|ai) integrals will be sorted in core.
 ModeAB=           4 MOrb=            22 LenV=    1609174474
 LASXX=    104936601 LTotXX=   104936601 LenRXX=   190867446
 LTotAB=    85930845 MaxLAS=   123985554 LenRXY=           0
 NonZer=   295804047 LenScr=   445446144 LnRSAI=   123985554
 LnScr1=   186733568 LExtra=           0 Total=    947032712
 MaxDsk=          -1 SrtSym=           T ITran=            4
 JobTyp=2 Pass  1:  I=   1 to  22.
 (rs|ai) integrals will be sorted in core.
 SymMOI:  orbitals are not symmetric.
 Spin components of T(2) and E(2):
     alpha-alpha T2 =       0.5307384129D-01 E2=     -0.1707411107D+00
     alpha-beta  T2 =       0.2831413214D+00 E2=     -0.9298223318D+00
     beta-beta   T2 =       0.5005339948D-01 E2=     -0.1571940475D+00
 ANorm=    0.1177399067D+01
 E2 =    -0.1257757490D+01 EUMP2 =    -0.41922796856335D+03
 (S**2,0)=  0.11095D+01           (S**2,1)=  0.10172D+01
 E(PUHF)=      -0.41799826298D+03        E(PMP2)=      -0.41925287132D+03
 Keep R2 and R3 ints in memory in canonical form, NReq=652884060.
 CIDS: In Core Option IDoMem=           1.
 Iterations=  50 Convergence= 0.100D-06
 Produce multiple copies of IABC intergrals
 Iteration Nr.   1
 **********************
 DD1Dir will call FoFMem   1 times, MxPair=      1496
 NAB=   506 NAA=   253 NBB=   231.
 E(PMP3)=      -0.41927686257D+03
 MP4(R+Q)=  0.24711058D-01
 E3=       -0.29470462D-01        EUMP3=      -0.41925743903D+03
 E4(DQ)=   -0.65043886D-02        UMP4(DQ)=   -0.41926394341D+03
 E4(SDQ)=  -0.29621981D-01        UMP4(SDQ)=  -0.41928706101D+03
 DE(Corr)=  -1.2622857     E(Corr)=     -419.23249678    
 NORM(A)=   0.11882160D+01
 Iteration Nr.   2
 **********************
 DD1Dir will call FoFMem   1 times, MxPair=      1496
 NAB=   506 NAA=   253 NBB=   231.
 DE(Corr)=  -1.3082256     E(CORR)=     -419.27843664     Delta=-4.59D-02
 NORM(A)=   0.12124848D+01
 Iteration Nr.   3
 **********************
 DD1Dir will call FoFMem   1 times, MxPair=      1496
 NAB=   506 NAA=   253 NBB=   231.
 DE(Corr)=  -1.3121885     E(CORR)=     -419.28239959     Delta=-3.96D-03
 NORM(A)=   0.12293186D+01
 Iteration Nr.   4
 **********************
 DD1Dir will call FoFMem   1 times, MxPair=      1496
 NAB=   506 NAA=   253 NBB=   231.
 DE(Corr)=  -1.3215456     E(CORR)=     -419.29175664     Delta=-9.36D-03
 NORM(A)=   0.12414168D+01
 Iteration Nr.   5
 **********************
 DD1Dir will call FoFMem   1 times, MxPair=      1496
 NAB=   506 NAA=   253 NBB=   231.
 DE(Corr)=  -1.3246524     E(CORR)=     -419.29486345     Delta=-3.11D-03
 NORM(A)=   0.12469221D+01
 Iteration Nr.   6
 **********************
 DD1Dir will call FoFMem   1 times, MxPair=      1496
 NAB=   506 NAA=   253 NBB=   231.
 DE(Corr)=  -1.3255615     E(CORR)=     -419.29577258     Delta=-9.09D-04
 NORM(A)=   0.12477190D+01
 Iteration Nr.   7
 **********************
 DD1Dir will call FoFMem   1 times, MxPair=      1496
 NAB=   506 NAA=   253 NBB=   231.
 DE(Corr)=  -1.3256735     E(CORR)=     -419.29588456     Delta=-1.12D-04
 NORM(A)=   0.12478867D+01
 Iteration Nr.   8
 **********************
 DD1Dir will call FoFMem   1 times, MxPair=      1496
 NAB=   506 NAA=   253 NBB=   231.
 DE(Corr)=  -1.3256460     E(CORR)=     -419.29585703     Delta= 2.75D-05
 NORM(A)=   0.12479173D+01
 Iteration Nr.   9
 **********************
 DD1Dir will call FoFMem   1 times, MxPair=      1496
 NAB=   506 NAA=   253 NBB=   231.
 DE(Corr)=  -1.3256661     E(CORR)=     -419.29587717     Delta=-2.01D-05
 NORM(A)=   0.12478736D+01
 Iteration Nr.  10
 **********************
 DD1Dir will call FoFMem   1 times, MxPair=      1496
 NAB=   506 NAA=   253 NBB=   231.
 DE(Corr)=  -1.3256339     E(CORR)=     -419.29584501     Delta= 3.22D-05
 NORM(A)=   0.12478604D+01
 Iteration Nr.  11
 **********************
 DD1Dir will call FoFMem   1 times, MxPair=      1496
 NAB=   506 NAA=   253 NBB=   231.
 DE(Corr)=  -1.3256606     E(CORR)=     -419.29587170     Delta=-2.67D-05
 NORM(A)=   0.12479385D+01
 Iteration Nr.  12
 **********************
 DD1Dir will call FoFMem   1 times, MxPair=      1496
 NAB=   506 NAA=   253 NBB=   231.
 DE(Corr)=  -1.3256571     E(CORR)=     -419.29586818     Delta= 3.52D-06
 NORM(A)=   0.12480793D+01
 Iteration Nr.  13
 **********************
 DD1Dir will call FoFMem   1 times, MxPair=      1496
 NAB=   506 NAA=   253 NBB=   231.
 DE(Corr)=  -1.3256858     E(CORR)=     -419.29589689     Delta=-2.87D-05
 NORM(A)=   0.12482216D+01
 Iteration Nr.  14
 **********************
 DD1Dir will call FoFMem   1 times, MxPair=      1496
 NAB=   506 NAA=   253 NBB=   231.
 DE(Corr)=  -1.3257104     E(CORR)=     -419.29592145     Delta=-2.46D-05
 NORM(A)=   0.12483255D+01
 Iteration Nr.  15
 **********************
 DD1Dir will call FoFMem   1 times, MxPair=      1496
 NAB=   506 NAA=   253 NBB=   231.
 DE(Corr)=  -1.3257248     E(CORR)=     -419.29593584     Delta=-1.44D-05
 NORM(A)=   0.12483850D+01
 Iteration Nr.  16
 **********************
 DD1Dir will call FoFMem   1 times, MxPair=      1496
 NAB=   506 NAA=   253 NBB=   231.
 DE(Corr)=  -1.3257384     E(CORR)=     -419.29594950     Delta=-1.37D-05
 NORM(A)=   0.12484058D+01
 Iteration Nr.  17
 **********************
 DD1Dir will call FoFMem   1 times, MxPair=      1496
 NAB=   506 NAA=   253 NBB=   231.
 DE(Corr)=  -1.3257394     E(CORR)=     -419.29595052     Delta=-1.01D-06
 NORM(A)=   0.12484083D+01
 Iteration Nr.  18
 **********************
 DD1Dir will call FoFMem   1 times, MxPair=      1496
 NAB=   506 NAA=   253 NBB=   231.
 DE(Corr)=  -1.3257401     E(CORR)=     -419.29595118     Delta=-6.68D-07
 NORM(A)=   0.12484041D+01
 Iteration Nr.  19
 **********************
 DD1Dir will call FoFMem   1 times, MxPair=      1496
 NAB=   506 NAA=   253 NBB=   231.
 DE(Corr)=  -1.3257387     E(CORR)=     -419.29594973     Delta= 1.45D-06
 NORM(A)=   0.12483998D+01
 Iteration Nr.  20
 **********************
 DD1Dir will call FoFMem   1 times, MxPair=      1496
 NAB=   506 NAA=   253 NBB=   231.
 DE(Corr)=  -1.3257373     E(CORR)=     -419.29594836     Delta= 1.37D-06
 NORM(A)=   0.12483953D+01
 Iteration Nr.  21
 **********************
 DD1Dir will call FoFMem   1 times, MxPair=      1496
 NAB=   506 NAA=   253 NBB=   231.
 DE(Corr)=  -1.3257362     E(CORR)=     -419.29594731     Delta= 1.05D-06
 NORM(A)=   0.12483948D+01
 Iteration Nr.  22
 **********************
 DD1Dir will call FoFMem   1 times, MxPair=      1496
 NAB=   506 NAA=   253 NBB=   231.
 DE(Corr)=  -1.3257357     E(CORR)=     -419.29594675     Delta= 5.55D-07
 NORM(A)=   0.12483977D+01
 Iteration Nr.  23
 **********************
 DD1Dir will call FoFMem   1 times, MxPair=      1496
 NAB=   506 NAA=   253 NBB=   231.
 DE(Corr)=  -1.3257361     E(CORR)=     -419.29594713     Delta=-3.72D-07
 NORM(A)=   0.12484031D+01
 Iteration Nr.  24
 **********************
 DD1Dir will call FoFMem   1 times, MxPair=      1496
 NAB=   506 NAA=   253 NBB=   231.
 DE(Corr)=  -1.3257369     E(CORR)=     -419.29594793     Delta=-8.03D-07
 NORM(A)=   0.12484082D+01
 Iteration Nr.  25
 **********************
 DD1Dir will call FoFMem   1 times, MxPair=      1496
 NAB=   506 NAA=   253 NBB=   231.
 DE(Corr)=  -1.3257377     E(CORR)=     -419.29594874     Delta=-8.14D-07
 NORM(A)=   0.12484114D+01
 Iteration Nr.  26
 **********************
 DD1Dir will call FoFMem   1 times, MxPair=      1496
 NAB=   506 NAA=   253 NBB=   231.
 DE(Corr)=  -1.3257382     E(CORR)=     -419.29594928     Delta=-5.36D-07
 NORM(A)=   0.12484131D+01
 Iteration Nr.  27
 **********************
 DD1Dir will call FoFMem   1 times, MxPair=      1496
 NAB=   506 NAA=   253 NBB=   231.
 DE(Corr)=  -1.3257384     E(CORR)=     -419.29594952     Delta=-2.40D-07
 NORM(A)=   0.12484133D+01
 Iteration Nr.  28
 **********************
 DD1Dir will call FoFMem   1 times, MxPair=      1496
 NAB=   506 NAA=   253 NBB=   231.
 DE(Corr)=  -1.3257384     E(CORR)=     -419.29594951     Delta= 5.66D-09
 NORM(A)=   0.12484130D+01
 Wavefunction amplitudes converged. E(Corr)=     -419.29594951    
 Largest amplitude= 5.84D-02
 Time for triples=    35427.89 seconds.
 T4(CCSD)= -0.60564360D-01
 T5(CCSD)=  0.46584959D-02
 CCSD(T)= -0.41935185538D+03

 S**2, projected HF & approx projected MPn energies after annihilation of
 unwanted spin states (see manual for definitions):

 spins       (S**2,0) (S**2,1)    PUHF        PMP2        PMP3        PMP4
 annihilated
 s+1         0.69855  0.72844 -417.998263 -419.252871 -419.276863
 s+1,s+2     0.75131  0.74988 -417.995046 -419.249807 -419.274009
 s+1 to s+3  0.74999  0.75001 -417.995143 -419.249879 -419.274042
 s+1 to s+4  0.75000  0.75000 -417.995142 -419.249878 -419.274041
 s+1 to s+5  0.75000  0.75000 -417.995142
 s+1 to s+6  0.75000  0.75000 -417.995142

 Discarding MO integrals.

 **********************************************************************

            Population analysis using the SCF density.

 **********************************************************************

 Orbital symmetries:
 Alpha Orbitals:
       Occupied  (A) (A) (A) (A) (A) (A) (A) (A) (A) (A) (A) (A)
                 (A) (A) (A) (A) (A) (A) (A) (A) (A) (A) (A) (A)
                 (A) (A) (A) (A) (A) (A) (A)
       Virtual   (A) (A) (A) (A) (A) (A) (A) (A) (A) (A) (A) (A)
                 (A) (A) (A) (A) (A) (A) (A) (A) (A) (A) (A) (A)
                 (A) (A) (A) (A) (A) (A) (A) (A) (A) (A) (A) (A)
                 (A) (A) (A) (A) (A) (A) (A) (A) (A) (A) (A) (A)
                 (A) (A) (A) (A) (A) (A) (A) (A) (A) (A) (A) (A)
                 (A) (A) (A) (A) (A) (A) (A) (A) (A) (A) (A) (A)
                 (A) (A) (A) (A) (A) (A) (A) (A) (A) (A) (A) (A)
                 (A) (A) (A) (A) (A) (A) (A) (A) (A) (A) (A) (A)
                 (A) (A) (A) (A) (A) (A) (A) (A) (A) (A) (A) (A)
                 (A) (A) (A) (A) (A) (A) (A) (A) (A) (A) (A) (A)
                 (A) (A) (A) (A) (A) (A) (A) (A) (A) (A) (A) (A)
                 (A) (A) (A) (A) (A) (A) (A) (A) (A) (A) (A) (A)
                 (A) (A) (A) (A) (A) (A) (A) (A) (A) (A) (A) (A)
                 (A) (A) (A) (A) (A) (A) (A) (A) (A) (A) (A) (A)
                 (A) (A) (A) (A) (A) (A) (A) (A) (A) (A) (A) (A)
                 (A) (A) (A) (A) (A) (A) (A) (A) (A) (A) (A) (A)
                 (A) (A)
 Beta  Orbitals:
       Occupied  (A) (A) (A) (A) (A) (A) (A) (A) (A) (A) (A) (A)
                 (A) (A) (A) (A) (A) (A) (A) (A) (A) (A) (A) (A)
                 (A) (A) (A) (A) (A) (A)
       Virtual   (A) (A) (A) (A) (A) (A) (A) (A) (A) (A) (A) (A)
                 (A) (A) (A) (A) (A) (A) (A) (A) (A) (A) (A) (A)
                 (A) (A) (A) (A) (A) (A) (A) (A) (A) (A) (A) (A)
                 (A) (A) (A) (A) (A) (A) (A) (A) (A) (A) (A) (A)
                 (A) (A) (A) (A) (A) (A) (A) (A) (A) (A) (A) (A)
                 (A) (A) (A) (A) (A) (A) (A) (A) (A) (A) (A) (A)
                 (A) (A) (A) (A) (A) (A) (A) (A) (A) (A) (A) (A)
                 (A) (A) (A) (A) (A) (A) (A) (A) (A) (A) (A) (A)
                 (A) (A) (A) (A) (A) (A) (A) (A) (A) (A) (A) (A)
                 (A) (A) (A) (A) (A) (A) (A) (A) (A) (A) (A) (A)
                 (A) (A) (A) (A) (A) (A) (A) (A) (A) (A) (A) (A)
                 (A) (A) (A) (A) (A) (A) (A) (A) (A) (A) (A) (A)
                 (A) (A) (A) (A) (A) (A) (A) (A) (A) (A) (A) (A)
                 (A) (A) (A) (A) (A) (A) (A) (A) (A) (A) (A) (A)
                 (A) (A) (A) (A) (A) (A) (A) (A) (A) (A) (A) (A)
                 (A) (A) (A) (A) (A) (A) (A) (A) (A) (A) (A) (A)
                 (A) (A) (A)
 The electronic state is 2-A.
 Alpha  occ. eigenvalues --  -20.61835 -20.61220 -20.55976 -11.42073 -11.30323
 Alpha  occ. eigenvalues --  -11.27908 -11.26880 -11.22900  -1.46147  -1.36944
 Alpha  occ. eigenvalues --   -1.35892  -1.08048  -1.04422  -0.92802  -0.84210
 Alpha  occ. eigenvalues --   -0.75987  -0.72939  -0.68602  -0.67666  -0.65767
 Alpha  occ. eigenvalues --   -0.63275  -0.62884  -0.57965  -0.55094  -0.53916
 Alpha  occ. eigenvalues --   -0.53116  -0.50807  -0.47334  -0.45631  -0.43568
 Alpha  occ. eigenvalues --   -0.42270
 Alpha virt. eigenvalues --    0.03786   0.04317   0.05787   0.05970   0.07525
 Alpha virt. eigenvalues --    0.08926   0.09344   0.09745   0.10843   0.11787
 Alpha virt. eigenvalues --    0.13104   0.13611   0.13824   0.16132   0.16323
 Alpha virt. eigenvalues --    0.17275   0.17713   0.18280   0.18447   0.18878
 Alpha virt. eigenvalues --    0.20081   0.20560   0.21307   0.21718   0.23673
 Alpha virt. eigenvalues --    0.24000   0.24962   0.26462   0.28240   0.28584
 Alpha virt. eigenvalues --    0.29851   0.30681   0.32346   0.32604   0.33284
 Alpha virt. eigenvalues --    0.35026   0.35926   0.36524   0.37687   0.39148
 Alpha virt. eigenvalues --    0.39899   0.41252   0.42343   0.43238   0.44953
 Alpha virt. eigenvalues --    0.45171   0.45821   0.46924   0.47885   0.50270
 Alpha virt. eigenvalues --    0.50451   0.53931   0.57413   0.58356   0.60160
 Alpha virt. eigenvalues --    0.61494   0.65411   0.68282   0.69473   0.71568
 Alpha virt. eigenvalues --    0.72587   0.74761   0.78129   0.81092   0.83268
 Alpha virt. eigenvalues --    0.83390   0.85887   0.86727   0.87584   0.88561
 Alpha virt. eigenvalues --    0.89858   0.90807   0.92646   0.94315   0.95950
 Alpha virt. eigenvalues --    0.99901   1.04130   1.07317   1.10552   1.14259
 Alpha virt. eigenvalues --    1.18978   1.20227   1.24790   1.27908   1.28522
 Alpha virt. eigenvalues --    1.34639   1.36470   1.40711   1.42626   1.44063
 Alpha virt. eigenvalues --    1.44343   1.45553   1.49105   1.51440   1.52114
 Alpha virt. eigenvalues --    1.54240   1.56579   1.58368   1.63230   1.66238
 Alpha virt. eigenvalues --    1.67805   1.70692   1.72220   1.75448   1.78146
 Alpha virt. eigenvalues --    1.80221   1.81853   1.83277   1.85352   1.87339
 Alpha virt. eigenvalues --    1.89113   1.90440   1.93172   1.95388   1.97638
 Alpha virt. eigenvalues --    2.00654   2.05799   2.08919   2.11411   2.13052
 Alpha virt. eigenvalues --    2.17387   2.20219   2.23513   2.30715   2.31761
 Alpha virt. eigenvalues --    2.33450   2.36596   2.41869   2.47866   2.59465
 Alpha virt. eigenvalues --    2.62639   2.64667   2.74185   2.81902   2.82320
 Alpha virt. eigenvalues --    2.83973   2.86247   2.89304   2.92318   2.94165
 Alpha virt. eigenvalues --    2.95686   2.96542   3.01810   3.04661   3.05532
 Alpha virt. eigenvalues --    3.10768   3.13527   3.14418   3.18156   3.22469
 Alpha virt. eigenvalues --    3.25006   3.27866   3.30218   3.34348   3.36637
 Alpha virt. eigenvalues --    3.40245   3.43856   3.46785   3.47759   3.52167
 Alpha virt. eigenvalues --    3.58146   3.62716   3.63738   3.69509   3.71131
 Alpha virt. eigenvalues --    3.76630   3.85269   3.96782   4.07597   4.20620
 Alpha virt. eigenvalues --    4.21623   4.22973   4.24941   4.39791   4.51382
 Alpha virt. eigenvalues --    4.55265   4.65284   5.53272   5.57074   5.63039
 Alpha virt. eigenvalues --    5.66955   5.75524   5.88496   5.99663   6.15650
 Alpha virt. eigenvalues --    6.40736  24.67472  24.95511  25.00166  25.13607
 Alpha virt. eigenvalues --   26.06558  51.53371  51.59262  51.69230
  Beta  occ. eigenvalues --  -20.61208 -20.58160 -20.56635 -11.41606 -11.30325
  Beta  occ. eigenvalues --  -11.29072 -11.25364 -11.22901  -1.46398  -1.36974
  Beta  occ. eigenvalues --   -1.24089  -1.07896  -1.03603  -0.91443  -0.83555
  Beta  occ. eigenvalues --   -0.75603  -0.71810  -0.69145  -0.66219  -0.63397
  Beta  occ. eigenvalues --   -0.62823  -0.58385  -0.55577  -0.53989  -0.50975
  Beta  occ. eigenvalues --   -0.50344  -0.48620  -0.47278  -0.44118  -0.42814
  Beta virt. eigenvalues --    0.03803   0.04312   0.04982   0.05973   0.07006
  Beta virt. eigenvalues --    0.07979   0.09136   0.09375   0.10227   0.11951
  Beta virt. eigenvalues --    0.12136   0.13488   0.13911   0.14985   0.16319
  Beta virt. eigenvalues --    0.16538   0.17473   0.18026   0.18468   0.18755
  Beta virt. eigenvalues --    0.19407   0.20460   0.20676   0.21337   0.22480
  Beta virt. eigenvalues --    0.23892   0.23991   0.25503   0.26026   0.28405
  Beta virt. eigenvalues --    0.29433   0.30049   0.30478   0.32220   0.33061
  Beta virt. eigenvalues --    0.34677   0.35227   0.36569   0.37012   0.38188
  Beta virt. eigenvalues --    0.39292   0.39881   0.41371   0.42548   0.43303
  Beta virt. eigenvalues --    0.44681   0.45338   0.46030   0.47445   0.47785
  Beta virt. eigenvalues --    0.50292   0.50873   0.53981   0.57405   0.58437
  Beta virt. eigenvalues --    0.60581   0.61902   0.65644   0.68411   0.70298
  Beta virt. eigenvalues --    0.72107   0.74533   0.77504   0.78550   0.81847
  Beta virt. eigenvalues --    0.82747   0.85302   0.85790   0.86285   0.87780
  Beta virt. eigenvalues --    0.88325   0.89606   0.90753   0.92950   0.93779
  Beta virt. eigenvalues --    0.95638   0.99928   1.03840   1.07193   1.11535
  Beta virt. eigenvalues --    1.14245   1.19210   1.20709   1.24901   1.28691
  Beta virt. eigenvalues --    1.31604   1.34865   1.38398   1.41456   1.43466
  Beta virt. eigenvalues --    1.43974   1.45508   1.46448   1.51271   1.52904
  Beta virt. eigenvalues --    1.53561   1.55042   1.57351   1.58872   1.64539
  Beta virt. eigenvalues --    1.67752   1.68223   1.72286   1.73297   1.76777
  Beta virt. eigenvalues --    1.79122   1.80286   1.81936   1.83280   1.84706
  Beta virt. eigenvalues --    1.87319   1.89023   1.90365   1.93205   1.95258
  Beta virt. eigenvalues --    1.97560   2.00643   2.05831   2.09008   2.11472
  Beta virt. eigenvalues --    2.13229   2.17097   2.21047   2.23559   2.30981
  Beta virt. eigenvalues --    2.32235   2.34558   2.36780   2.41903   2.47920
  Beta virt. eigenvalues --    2.59481   2.62579   2.64504   2.74221   2.81909
  Beta virt. eigenvalues --    2.82397   2.83960   2.86327   2.89588   2.92316
  Beta virt. eigenvalues --    2.94294   2.95702   2.96719   3.02312   3.04889
  Beta virt. eigenvalues --    3.05835   3.11380   3.14789   3.17685   3.22416
  Beta virt. eigenvalues --    3.23186   3.25439   3.27536   3.29951   3.36141
  Beta virt. eigenvalues --    3.39475   3.41746   3.46940   3.49357   3.52279
  Beta virt. eigenvalues --    3.52974   3.58514   3.62521   3.65715   3.69295
  Beta virt. eigenvalues --    3.71475   3.75794   3.86648   3.96530   4.07169
  Beta virt. eigenvalues --    4.20651   4.21630   4.24843   4.25871   4.39791
  Beta virt. eigenvalues --    4.51094   4.55189   4.65284   5.56297   5.61809
  Beta virt. eigenvalues --    5.65017   5.68883   5.75280   5.88601   6.01957
  Beta virt. eigenvalues --    6.15539   6.40576  24.67347  24.95868  25.00170
  Beta virt. eigenvalues --   25.13606  26.06846  51.55390  51.59289  51.68902
          Condensed to atoms (all electrons):
               1          2          3          4          5          6
     1  C   13.951733   0.554724  -3.610182  -4.302936  -0.012443   0.020882
     2  H    0.554724   0.409859  -0.137323  -0.042731  -0.001824  -0.001119
     3  C   -3.610182  -0.137323  10.971993  -2.119508   0.195738  -0.317674
     4  C   -4.302936  -0.042731  -2.119508  12.900068   0.234634   0.196884
     5  O   -0.012443  -0.001824   0.195738   0.234634   8.028692  -0.114245
     6  O    0.020882  -0.001119  -0.317674   0.196884  -0.114245   8.325857
     7  C   -0.099987  -0.000527  -0.309565   0.287185   0.031333   0.192867
     8  C    0.059486  -0.000169   0.092883  -0.209064  -0.057490  -0.082852
     9  H    0.005835   0.000031   0.003172  -0.009207   0.004602  -0.076651
    10  H   -0.016862  -0.000161  -0.045398   0.048015  -0.022435  -0.020641
    11  H    0.000426   0.000014   0.003405  -0.002148  -0.001414   0.015832
    12  H    0.000669   0.000056  -0.009780   0.008001   0.002357  -0.004921
    13  H    0.003275  -0.000252  -0.000176  -0.016946   0.000979  -0.015862
    14  O   -0.081205  -0.007314   0.051771  -0.105683  -0.003082   0.022927
    15  H   -0.030410  -0.001012   0.099105  -0.045316   0.000892  -0.001610
               7          8          9         10         11         12
     1  C   -0.099987   0.059486   0.005835  -0.016862   0.000426   0.000669
     2  H   -0.000527  -0.000169   0.000031  -0.000161   0.000014   0.000056
     3  C   -0.309565   0.092883   0.003172  -0.045398   0.003405  -0.009780
     4  C    0.287185  -0.209064  -0.009207   0.048015  -0.002148   0.008001
     5  O    0.031333  -0.057490   0.004602  -0.022435  -0.001414   0.002357
     6  O    0.192867  -0.082852  -0.076651  -0.020641   0.015832  -0.004921
     7  C    5.370811  -0.070008   0.439176   0.451667  -0.049957  -0.018264
     8  C   -0.070008   5.494643  -0.054205  -0.040029   0.406710   0.401512
     9  H    0.439176  -0.054205   0.556671  -0.035616   0.002101  -0.006929
    10  H    0.451667  -0.040029  -0.035616   0.507325  -0.004702   0.001002
    11  H   -0.049957   0.406710   0.002101  -0.004702   0.559508  -0.035578
    12  H   -0.018264   0.401512  -0.006929   0.001002  -0.035578   0.572321
    13  H   -0.040291   0.410532   0.007763  -0.001284  -0.035323  -0.042499
    14  O   -0.014820   0.021279  -0.000490  -0.000766   0.001280  -0.001153
    15  H    0.000842   0.003149  -0.000400  -0.000465   0.000456  -0.002467
              13         14         15
     1  C    0.003275  -0.081205  -0.030410
     2  H   -0.000252  -0.007314  -0.001012
     3  C   -0.000176   0.051771   0.099105
     4  C   -0.016946  -0.105683  -0.045316
     5  O    0.000979  -0.003082   0.000892
     6  O   -0.015862   0.022927  -0.001610
     7  C   -0.040291  -0.014820   0.000842
     8  C    0.410532   0.021279   0.003149
     9  H    0.007763  -0.000490  -0.000400
    10  H   -0.001284  -0.000766  -0.000465
    11  H   -0.035323   0.001280   0.000456
    12  H   -0.042499  -0.001153  -0.002467
    13  H    0.541710  -0.003799  -0.000114
    14  O   -0.003799   8.035937   0.266449
    15  H   -0.000114   0.266449   0.463651
          Atomic-Atomic Spin Densities.
               1          2          3          4          5          6
     1  C    0.659730  -0.004868   0.375797   0.496395   0.016203  -0.009366
     2  H   -0.004868  -0.078599   0.000900  -0.005623   0.000259  -0.000796
     3  C    0.375797   0.000900  -1.451190  -0.171671   0.002490   0.051963
     4  C    0.496395  -0.005623  -0.171671  -0.132470   0.018417  -0.072705
     5  O    0.016203   0.000259   0.002490   0.018417  -0.175363  -0.002033
     6  O   -0.009366  -0.000796   0.051963  -0.072705  -0.002033   0.027366
     7  C    0.013611  -0.000189  -0.003846  -0.013959   0.002812  -0.003921
     8  C   -0.000754   0.000012  -0.000068  -0.000899  -0.000236   0.003651
     9  H    0.001975  -0.000014  -0.000727  -0.001861   0.000218   0.000142
    10  H   -0.001030  -0.000014   0.003371  -0.001010  -0.000105   0.000349
    11  H   -0.000043  -0.000001  -0.000044   0.000190   0.000093   0.000111
    12  H   -0.001181  -0.000001   0.000064   0.001502  -0.000128  -0.000475
    13  H   -0.000820  -0.000004  -0.003541   0.003292  -0.000037  -0.000344
    14  O   -0.337705  -0.002553   0.119208   0.143397   0.000278   0.007595
    15  H    0.033838   0.000102  -0.011669  -0.019257  -0.000061  -0.001657
               7          8          9         10         11         12
     1  C    0.013611  -0.000754   0.001975  -0.001030  -0.000043  -0.001181
     2  H   -0.000189   0.000012  -0.000014  -0.000014  -0.000001  -0.000001
     3  C   -0.003846  -0.000068  -0.000727   0.003371  -0.000044   0.000064
     4  C   -0.013959  -0.000899  -0.001861  -0.001010   0.000190   0.001502
     5  O    0.002812  -0.000236   0.000218  -0.000105   0.000093  -0.000128
     6  O   -0.003921   0.003651   0.000142   0.000349   0.000111  -0.000475
     7  C    0.011696  -0.007779   0.000148  -0.001892  -0.001383   0.001082
     8  C   -0.007779   0.006291   0.000361   0.000863   0.001612  -0.000822
     9  H    0.000148   0.000361  -0.000316  -0.000396   0.000021   0.000067
    10  H   -0.001892   0.000863  -0.000396   0.000052   0.000082  -0.000061
    11  H   -0.001383   0.001612   0.000021   0.000082  -0.000506   0.000041
    12  H    0.001082  -0.000822   0.000067  -0.000061   0.000041  -0.000119
    13  H    0.002244  -0.001553   0.000053  -0.000282  -0.000341   0.000125
    14  O    0.006051  -0.000568   0.000411  -0.000218   0.000063  -0.000287
    15  H   -0.001668   0.000645  -0.000198   0.000101   0.000014  -0.000068
              13         14         15
     1  C   -0.000820  -0.337705   0.033838
     2  H   -0.000004  -0.002553   0.000102
     3  C   -0.003541   0.119208  -0.011669
     4  C    0.003292   0.143397  -0.019257
     5  O   -0.000037   0.000278  -0.000061
     6  O   -0.000344   0.007595  -0.001657
     7  C    0.002244   0.006051  -0.001668
     8  C   -0.001553  -0.000568   0.000645
     9  H    0.000053   0.000411  -0.000198
    10  H   -0.000282  -0.000218   0.000101
    11  H   -0.000341   0.000063   0.000014
    12  H    0.000125  -0.000287  -0.000068
    13  H    0.000627  -0.000043  -0.000088
    14  O   -0.000043   0.907782   0.015551
    15  H   -0.000088   0.015551  -0.044804
 Mulliken charges and spin densities:
               1          2
     1  C   -0.443006   1.241784
     2  H    0.227748  -0.091388
     3  C    1.131540  -1.088963
     4  C   -0.821248   0.243738
     5  O   -0.286293  -0.137193
     6  O   -0.139674  -0.000119
     7  C   -0.170462   0.003007
     8  C   -0.376377   0.000758
     9  H    0.164147  -0.000115
    10  H    0.180352  -0.000190
    11  H    0.139392  -0.000091
    12  H    0.135673  -0.000260
    13  H    0.192288  -0.000710
    14  O   -0.181329   0.858962
    15  H    0.247251  -0.029219
 Sum of Mulliken charges =  -0.00000   1.00000
 Mulliken charges and spin densities with hydrogens summed into heavy atoms:
               1          2
     1  C   -0.215258   1.150396
     3  C    1.131540  -1.088963
     4  C   -0.821248   0.243738
     5  O   -0.286293  -0.137193
     6  O   -0.139674  -0.000119
     7  C    0.174036   0.002701
     8  C    0.090975  -0.000304
    14  O    0.065921   0.829743
 Electronic spatial extent (au):  <R**2>=           1085.2029
 Charge=             -0.0000 electrons
 Dipole moment (field-independent basis, Debye):
    X=             -0.4839    Y=              1.3956    Z=              2.7680  Tot=              3.1375
 Quadrupole moment (field-independent basis, Debye-Ang):
   XX=            -33.8798   YY=            -50.3727   ZZ=            -50.1787
   XY=             -2.3916   XZ=              1.9518   YZ=             -0.4908
 Traceless Quadrupole moment (field-independent basis, Debye-Ang):
   XX=             10.9306   YY=             -5.5623   ZZ=             -5.3683
   XY=             -2.3916   XZ=              1.9518   YZ=             -0.4908
 Octapole moment (field-independent basis, Debye-Ang**2):
  XXX=             26.2227  YYY=             16.8100  ZZZ=             -0.0901  XYY=             -4.0119
  XXY=             -8.4690  XXZ=             11.7921  XZZ=             -4.8072  YZZ=              3.4675
  YYZ=             10.4765  XYZ=              3.7479
 Hexadecapole moment (field-independent basis, Debye-Ang**3):
 XXXX=           -774.0730 YYYY=           -268.3795 ZZZZ=           -149.2309 XXXY=            -16.5397
 XXXZ=             19.4139 YYYX=             13.9899 YYYZ=              3.6768 ZZZX=             -8.8623
 ZZZY=              2.1991 XXYY=           -226.4590 XXZZ=           -193.6821 YYZZ=            -75.3980
 XXYZ=              3.8794 YYXZ=              4.2301 ZZXY=              3.2597
 N-N= 3.594772714973D+02 E-N=-1.701879640717D+03  KE= 4.174319586195D+02
 1\1\GINC-AJ\SP\UCCSD(T)-FC\6-311++G(d,p)\C5H7O3(2)\AAYUSH\08-Jun-2025\
 0\\# ccsd(t)/6-311++g** sp\\Title Card Required\\0,2\C,0,-2.861639,-0.
 379524,-0.300656\H,0,-3.917901,-0.393091,-0.449317\C,0,-1.658896,-0.23
 3884,-0.09151\C,0,-0.262726,-0.62282,0.054793\O,0,0.140193,-1.491494,0
 .820364\O,0,0.53603,0.080496,-0.789508\C,0,1.986875,-0.155867,-0.69720
 7\C,0,2.565843,0.598548,0.485969\H,0,2.362999,0.21028,-1.651408\H,0,2.
 153173,-1.232391,-0.61577\H,0,3.65265,0.475098,0.508812\H,0,2.338755,1
 .664504,0.408499\H,0,2.157402,0.217747,1.424915\O,0,-1.456791,1.639721
 ,0.475699\H,0,-1.119278,1.989358,-0.386513\\Version=ES64L-G16RevA.03\S
 tate=2-A\HF=-417.9702111\MP2=-419.2279686\MP3=-419.257439\MP4D=-419.28
 86545\MP4DQ=-419.2639434\PUHF=-417.998263\PMP2-0=-419.2528713\PMP3-0=-
 419.2768626\MP4SDQ=-419.287061\CCSD=-419.2959495\CCSD(T)=-419.3518554\
 S2=1.109518\S2-1=1.017246\S2A=0.837758\RMSD=3.025e-09\PG=C01 [X(C5H7O3
 )]\\@


 FROM THE ASHES OF OUR DESPAIR GROW THE FLOWERS OF TOMORROW.
 Job cpu time:       0 days 19 hours 18 minutes  1.0 seconds.
 Elapsed time:       0 days  0 hours 48 minutes 29.1 seconds.
 File lengths (MBytes):  RWF=  44733 Int=      0 D2E=      0 Chk=      5 Scr=      1
 Normal termination of Gaussian 16 at Sun Jun  8 05:46:23 2025.
