 Entering Gaussian System, Link 0=g16
 Initial command:
 /opt/g16/l1.exe "/home/aayush/scratches/g16/Gau-30162.inp" -scrdir="/home/aayush/scratches/g16/"
 Entering Link 1 = /opt/g16/l1.exe PID=     30165.
  
 Copyright (c) 1988,1990,1992,1993,1995,1998,2003,2009,2016,
            Gaussian, Inc.  All Rights Reserved.
  
 This is part of the Gaussian(R) 16 program.  It is based on
 the Gaussian(R) 09 system (copyright 2009, Gaussian, Inc.),
 the Gaussian(R) 03 system (copyright 2003, Gaussian, Inc.),
 the Gaussian(R) 98 system (copyright 1998, Gaussian, Inc.),
 the Gaussian(R) 94 system (copyright 1995, Gaussian, Inc.),
 the Gaussian 92(TM) system (copyright 1992, Gaussian, Inc.),
 the Gaussian 90(TM) system (copyright 1990, Gaussian, Inc.),
 the Gaussian 88(TM) system (copyright 1988, Gaussian, Inc.),
 the Gaussian 86(TM) system (copyright 1986, Carnegie Mellon
 University), and the Gaussian 82(TM) system (copyright 1983,
 Carnegie Mellon University). Gaussian is a federally registered
 trademark of Gaussian, Inc.
  
 This software contains proprietary and confidential information,
 including trade secrets, belonging to Gaussian, Inc.
  
 This software is provided under written license and may be
 used, copied, transmitted, or stored only in accord with that
 written license.
  
 The following legend is applicable only to US Government
 contracts under FAR:
  
                    RESTRICTED RIGHTS LEGEND
  
 Use, reproduction and disclosure by the US Government is
 subject to restrictions as set forth in subparagraphs (a)
 and (c) of the Commercial Computer Software - Restricted
 Rights clause in FAR 52.227-19.
  
 Gaussian, Inc.
 340 Quinnipiac St., Bldg. 40, Wallingford CT 06492
  
  
 ---------------------------------------------------------------
 Warning -- This program may not be used in any manner that
 competes with the business of Gaussian, Inc. or will provide
 assistance to any competitor of Gaussian, Inc.  The licensee
 of this program is prohibited from giving any competitor of
 Gaussian, Inc. access to this program.  By using this program,
 the user acknowledges that Gaussian, Inc. is engaged in the
 business of creating and licensing software in the field of
 computational chemistry and represents and warrants to the
 licensee that it is not a competitor of Gaussian, Inc. and that
 it will not use this program in any manner prohibited above.
 ---------------------------------------------------------------
  

 Cite this work as:
 Gaussian 16, Revision A.03,
 M. J. Frisch, G. W. Trucks, H. B. Schlegel, G. E. Scuseria, 
 M. A. Robb, J. R. Cheeseman, G. Scalmani, V. Barone, 
 G. A. Petersson, H. Nakatsuji, X. Li, M. Caricato, A. V. Marenich, 
 J. Bloino, B. G. Janesko, R. Gomperts, B. Mennucci, H. P. Hratchian, 
 J. V. Ortiz, A. F. Izmaylov, J. L. Sonnenberg, D. Williams-Young, 
 F. Ding, F. Lipparini, F. Egidi, J. Goings, B. Peng, A. Petrone, 
 T. Henderson, D. Ranasinghe, V. G. Zakrzewski, J. Gao, N. Rega, 
 G. Zheng, W. Liang, M. Hada, M. Ehara, K. Toyota, R. Fukuda, 
 J. Hasegawa, M. Ishida, T. Nakajima, Y. Honda, O. Kitao, H. Nakai, 
 T. Vreven, K. Throssell, J. A. Montgomery, Jr., J. E. Peralta, 
 F. Ogliaro, M. J. Bearpark, J. J. Heyd, E. N. Brothers, K. N. Kudin, 
 V. N. Staroverov, T. A. Keith, R. Kobayashi, J. Normand, 
 K. Raghavachari, A. P. Rendell, J. C. Burant, S. S. Iyengar, 
 J. Tomasi, M. Cossi, J. M. Millam, M. Klene, C. Adamo, R. Cammi, 
 J. W. Ochterski, R. L. Martin, K. Morokuma, O. Farkas, 
 J. B. Foresman, and D. J. Fox, Gaussian, Inc., Wallingford CT, 2016.
 
 ******************************************
 Gaussian 16:  ES64L-G16RevA.03 25-Dec-2016
                 7-Jun-2025 
 ******************************************
 %chk=ethyl_propiolate_non_planar.chk
 %mem=12GB
 %nprocshared=24
 Will use up to   24 processors via shared memory.
 --------------------------------------------------
 # opt=(calcfc,tight,noeigentest) freq 6-31+g m062x
 --------------------------------------------------
 1/7=10,10=4,11=1,18=20,19=15,26=3,38=1/1,3;
 2/9=110,12=2,17=6,18=5,40=1/2;
 3/5=1,6=6,7=10,11=2,25=1,30=1,71=2,74=-55,140=1/1,2,3;
 4//1;
 5/5=2,38=5/2;
 8/6=4,10=90,11=11/1;
 11/6=1,8=1,9=11,15=111,16=1/1,2,10;
 10/6=1,13=1/2;
 6/7=2,8=2,9=2,10=2,28=1/1;
 7/10=1,18=20,25=1/1,2,3,16;
 1/7=10,10=4,11=1,18=20,19=15,26=3/3(2);
 2/9=110/2;
 99//99;
 2/9=110/2;
 3/5=1,6=6,7=10,11=2,25=1,30=1,71=1,74=-55/1,2,3;
 4/5=5,16=3,69=1/1;
 5/5=2,38=5/2;
 7//1,2,3,16;
 1/7=10,11=1,18=20,19=15,26=3/3(-5);
 2/9=110/2;
 6/7=2,8=2,9=2,10=2,19=2,28=1/1;
 99/9=1/99;
 -------------------
 Title Card Required
 -------------------
 Symbolic Z-matrix:
 Charge =  0 Multiplicity = 2
 C                     2.98977  -0.46132   0.50581 
 H                     4.03903  -0.73804   0.46058 
 C                     1.89184  -0.12655   0.09201 
 C                     0.52527   0.32266  -0.13834 
 O                     0.19664   1.47647  -0.14984 
 O                    -0.29131  -0.71244  -0.33664 
 C                    -1.67891  -0.39143  -0.56267 
 C                    -2.3907   -0.09963   0.7438 
 H                    -2.07894  -1.27881  -1.04986 
 H                    -1.7346    0.45646  -1.24633 
 H                    -3.45262   0.06611   0.55225 
 H                    -2.29048  -0.94334   1.4282 
 H                    -1.98221   0.79519   1.21363 
 O                     2.58723  -0.28027   2.34575 
 H                     1.65834   0.00418   2.37826 
 
 Add virtual bond connecting atoms O14        and C1         Dist= 3.58D+00.

 GradGradGradGradGradGradGradGradGradGradGradGradGradGradGradGradGradGrad
 Berny optimization.
 Initialization pass.
                           ----------------------------
                           !    Initial Parameters    !
                           ! (Angstroms and Degrees)  !
 --------------------------                            --------------------------
 ! Name  Definition              Value          Derivative Info.                !
 --------------------------------------------------------------------------------
 ! R1    R(1,2)                  1.0861         calculate D2E/DX2 analytically  !
 ! R2    R(1,3)                  1.2201         calculate D2E/DX2 analytically  !
 ! R3    R(1,14)                 1.8921         calculate D2E/DX2 analytically  !
 ! R4    R(3,4)                  1.4568         calculate D2E/DX2 analytically  !
 ! R5    R(4,5)                  1.1998         calculate D2E/DX2 analytically  !
 ! R6    R(4,6)                  1.3332         calculate D2E/DX2 analytically  !
 ! R7    R(6,7)                  1.4421         calculate D2E/DX2 analytically  !
 ! R8    R(7,8)                  1.5161         calculate D2E/DX2 analytically  !
 ! R9    R(7,9)                  1.0885         calculate D2E/DX2 analytically  !
 ! R10   R(7,10)                 1.0906         calculate D2E/DX2 analytically  !
 ! R11   R(8,11)                 1.0917         calculate D2E/DX2 analytically  !
 ! R12   R(8,12)                 1.091          calculate D2E/DX2 analytically  !
 ! R13   R(8,13)                 1.0901         calculate D2E/DX2 analytically  !
 ! R14   R(14,15)                0.972          calculate D2E/DX2 analytically  !
 ! A1    A(2,1,3)              157.6854         calculate D2E/DX2 analytically  !
 ! A2    A(2,1,14)             105.6887         calculate D2E/DX2 analytically  !
 ! A3    A(3,1,14)              96.4361         calculate D2E/DX2 analytically  !
 ! A4    A(3,4,5)              123.7101         calculate D2E/DX2 analytically  !
 ! A5    A(3,4,6)              111.0176         calculate D2E/DX2 analytically  !
 ! A6    A(5,4,6)              125.2717         calculate D2E/DX2 analytically  !
 ! A7    A(4,6,7)              116.0929         calculate D2E/DX2 analytically  !
 ! A8    A(6,7,8)              111.0706         calculate D2E/DX2 analytically  !
 ! A9    A(6,7,9)              104.0231         calculate D2E/DX2 analytically  !
 ! A10   A(6,7,10)             108.6904         calculate D2E/DX2 analytically  !
 ! A11   A(8,7,9)              111.7188         calculate D2E/DX2 analytically  !
 ! A12   A(8,7,10)             111.5044         calculate D2E/DX2 analytically  !
 ! A13   A(9,7,10)             109.54           calculate D2E/DX2 analytically  !
 ! A14   A(7,8,11)             109.5535         calculate D2E/DX2 analytically  !
 ! A15   A(7,8,12)             110.4018         calculate D2E/DX2 analytically  !
 ! A16   A(7,8,13)             110.6987         calculate D2E/DX2 analytically  !
 ! A17   A(11,8,12)            108.4715         calculate D2E/DX2 analytically  !
 ! A18   A(11,8,13)            108.3907         calculate D2E/DX2 analytically  !
 ! A19   A(12,8,13)            109.2695         calculate D2E/DX2 analytically  !
 ! A20   A(1,14,15)            105.2981         calculate D2E/DX2 analytically  !
 ! A21   L(1,3,4,15,-1)        169.2478         calculate D2E/DX2 analytically  !
 ! A22   L(1,3,4,15,-2)        179.0472         calculate D2E/DX2 analytically  !
 ! D1    D(2,1,4,5)            -88.3974         calculate D2E/DX2 analytically  !
 ! D2    D(2,1,4,6)             96.3646         calculate D2E/DX2 analytically  !
 ! D3    D(14,1,4,5)            79.9908         calculate D2E/DX2 analytically  !
 ! D4    D(14,1,4,6)           -95.2472         calculate D2E/DX2 analytically  !
 ! D5    D(2,1,14,15)          177.6487         calculate D2E/DX2 analytically  !
 ! D6    D(3,1,14,15)            0.5812         calculate D2E/DX2 analytically  !
 ! D7    D(3,4,6,7)            179.3849         calculate D2E/DX2 analytically  !
 ! D8    D(5,4,6,7)             -0.8882         calculate D2E/DX2 analytically  !
 ! D9    D(4,6,7,8)            -79.8164         calculate D2E/DX2 analytically  !
 ! D10   D(4,6,7,9)            159.854          calculate D2E/DX2 analytically  !
 ! D11   D(4,6,7,10)            43.2115         calculate D2E/DX2 analytically  !
 ! D12   D(6,7,8,11)          -175.7796         calculate D2E/DX2 analytically  !
 ! D13   D(6,7,8,12)           -56.3848         calculate D2E/DX2 analytically  !
 ! D14   D(6,7,8,13)            64.7415         calculate D2E/DX2 analytically  !
 ! D15   D(9,7,8,11)           -60.1223         calculate D2E/DX2 analytically  !
 ! D16   D(9,7,8,12)            59.2724         calculate D2E/DX2 analytically  !
 ! D17   D(9,7,8,13)          -179.6013         calculate D2E/DX2 analytically  !
 ! D18   D(10,7,8,11)           62.8272         calculate D2E/DX2 analytically  !
 ! D19   D(10,7,8,12)         -177.7781         calculate D2E/DX2 analytically  !
 ! D20   D(10,7,8,13)          -56.6518         calculate D2E/DX2 analytically  !
 --------------------------------------------------------------------------------
 Trust Radius=3.00D-01 FncErr=1.00D-07 GrdErr=1.00D-06 EigMax=2.50D+02 EigMin=1.00D-04
 Number of steps in this run=     66 maximum allowed number of steps=    100.
 GradGradGradGradGradGradGradGradGradGradGradGradGradGradGradGradGradGrad

                          Input orientation:                          
 ---------------------------------------------------------------------
 Center     Atomic      Atomic             Coordinates (Angstroms)
 Number     Number       Type             X           Y           Z
 ---------------------------------------------------------------------
      1          6           0        2.989775   -0.461323    0.505815
      2          1           0        4.039031   -0.738035    0.460584
      3          6           0        1.891843   -0.126548    0.092012
      4          6           0        0.525268    0.322655   -0.138344
      5          8           0        0.196638    1.476469   -0.149836
      6          8           0       -0.291307   -0.712440   -0.336635
      7          6           0       -1.678905   -0.391432   -0.562669
      8          6           0       -2.390695   -0.099634    0.743804
      9          1           0       -2.078941   -1.278809   -1.049863
     10          1           0       -1.734595    0.456458   -1.246325
     11          1           0       -3.452616    0.066113    0.552249
     12          1           0       -2.290475   -0.943337    1.428203
     13          1           0       -1.982209    0.795191    1.213628
     14          8           0        2.587230   -0.280273    2.345745
     15          1           0        1.658339    0.004181    2.378262
 ---------------------------------------------------------------------
                    Distance matrix (angstroms):
                    1          2          3          4          5
     1  C    0.000000
     2  H    1.086073   0.000000
     3  C    1.220148   2.262781   0.000000
     4  C    2.665212   3.718912   1.456837   0.000000
     5  O    3.462156   4.476676   2.345607   1.199757   0.000000
     6  O    3.396804   4.403185   2.300685   1.333243   2.250401
     7  C    4.789897   5.819104   3.639919   2.355494   2.679020
     8  C    5.397862   6.467546   4.331938   3.075606   3.158637
     9  H    5.364727   6.324829   4.289372   3.190213   3.685087
    10  H    5.121717   6.138005   3.909232   2.520418   2.443844
    11  H    6.464112   7.535239   5.367698   4.045528   3.974806
    12  H    5.381837   6.406331   4.465908   3.461967   3.812007
    13  H    5.176915   6.258849   4.137137   2.887656   2.659050
    14  O    1.892132   2.423036   2.363579   3.284191   3.876725
    15  H    2.344242   3.145801   2.301859   2.778234   3.270395
                    6          7          8          9         10
     6  O    0.000000
     7  C    1.442070   0.000000
     8  C    2.439326   1.516134   0.000000
     9  H    2.006266   1.088497   2.169075   0.000000
    10  H    2.068076   1.090598   2.168022   1.779978   0.000000
    11  H    3.374927   2.144397   1.091715   2.502511   2.517704
    12  H    2.676684   2.154574   1.091000   2.509601   3.069451
    13  H    2.745071   2.157614   1.090095   3.071518   2.495480
    14  O    3.958271   5.164411   5.232455   5.856653   5.667796
    15  H    3.418382   4.465735   4.367712   5.231192   4.985398
                   11         12         13         14         15
    11  H    0.000000
    12  H    1.771117   0.000000
    13  H    1.769484   1.778637   0.000000
    14  O    6.310020   5.007349   4.828880   0.000000
    15  H    5.427709   4.170556   3.903289   0.972013   0.000000
 Stoichiometry    C5H7O3(2)
 Framework group  C1[X(C5H7O3)]
 Deg. of freedom    39
 Full point group                 C1      NOp   1
 Largest Abelian subgroup         C1      NOp   1
 Largest concise Abelian subgroup C1      NOp   1
                         Standard orientation:                         
 ---------------------------------------------------------------------
 Center     Atomic      Atomic             Coordinates (Angstroms)
 Number     Number       Type             X           Y           Z
 ---------------------------------------------------------------------
      1          6           0       -2.583684   -0.459240   -0.462274
      2          1           0       -3.592702   -0.712356   -0.774315
      3          6           0       -1.406315   -0.637404   -0.196153
      4          6           0       -0.014091   -0.599339    0.231207
      5          8           0        0.340648   -0.785926    1.362030
      6          8           0        0.794501   -0.338174   -0.796173
      7          6           0        2.202038   -0.261530   -0.491987
      8          6           0        2.557145    1.083930    0.109927
      9          1           0        2.688411   -0.413490   -1.453847
     10          1           0        2.459403   -1.080742    0.180367
     11          1           0        3.636768    1.143262    0.260709
     12          1           0        2.256741    1.891289   -0.559558
     13          1           0        2.067369    1.215699    1.074843
     14          8           0       -2.669350    1.331397    0.143072
     15          1           0       -1.772935    1.539467    0.456053
 ---------------------------------------------------------------------
 Rotational constants (GHZ):           3.9336894           1.0762412           1.0195997
 Standard basis: 6-31+G (6D, 7F)
 There are   118 symmetry adapted cartesian basis functions of A   symmetry.
 There are   118 symmetry adapted basis functions of A   symmetry.
   118 basis functions,   236 primitive gaussians,   118 cartesian basis functions
    31 alpha electrons       30 beta electrons
       nuclear repulsion energy       354.4420751631 Hartrees.
 NAtoms=   15 NActive=   15 NUniq=   15 SFac= 1.00D+00 NAtFMM=   60 NAOKFM=F Big=F
 Integral buffers will be    131072 words long.
 Raffenetti 2 integral format.
 Two-electron integral symmetry is turned on.
 One-electron integrals computed using PRISM.
 NBasis=   118 RedAO= T EigKep=  3.36D-06  NBF=   118
 NBsUse=   118 1.00D-06 EigRej= -1.00D+00 NBFU=   118
 ExpMin= 4.38D-02 ExpMax= 5.48D+03 ExpMxC= 8.25D+02 IAcc=3 IRadAn=         5 AccDes= 0.00D+00
 Harris functional with IExCor= 1009 and IRadAn=       5 diagonalized for initial guess.
 HarFok:  IExCor= 1009 AccDes= 0.00D+00 IRadAn=         5 IDoV= 1 UseB2=F ITyADJ=14
 ICtDFT=  3500011 ScaDFX=  1.000000  1.000000  1.000000  1.000000
 FoFCou: FMM=F IPFlag=           0 FMFlag=      100000 FMFlg1=           0
         NFxFlg=           0 DoJE=T BraDBF=F KetDBF=T FulRan=T
         wScrn=  0.000000 ICntrl=       500 IOpCl=  0 I1Cent=   200000004 NGrid=           0
         NMat0=    1 NMatS0=      1 NMatT0=    0 NMatD0=    1 NMtDS0=    0 NMtDT0=    0
 Petite list used in FoFCou.
 Initial guess <Sx>= 0.0000 <Sy>= 0.0000 <Sz>= 0.5000 <S**2>= 0.7500 S= 0.5000
 Requested convergence on RMS density matrix=1.00D-08 within 128 cycles.
 Requested convergence on MAX density matrix=1.00D-06.
 Requested convergence on             energy=1.00D-06.
 No special actions if energy rises.
 Restarting incremental Fock formation.
 SCF Done:  E(UM062X) =  -419.951663129     A.U. after   22 cycles
            NFock= 22  Conv=0.47D-08     -V/T= 2.0051
 <Sx>= 0.0000 <Sy>= 0.0000 <Sz>= 0.5000 <S**2>= 0.7794 S= 0.5146
 <L.S>=  0.00000000000    
 Annihilation of the first spin contaminant:
 S**2 before annihilation     0.7794,   after     0.7504
 DoSCS=F DFT=T ScalE2(SS,OS)=  1.000000  1.000000
 Range of M.O.s used for correlation:     1   118
 NBasis=   118 NAE=    31 NBE=    30 NFC=     0 NFV=     0
 NROrb=    118 NOA=    31 NOB=    30 NVA=    87 NVB=    88

 **** Warning!!: The largest alpha MO coefficient is  0.14281136D+03


 **** Warning!!: The largest beta MO coefficient is  0.16261826D+03

 Symmetrizing basis deriv contribution to polar:
 IMax=3 JMax=2 DiffMx= 0.00D+00
 G2DrvN: will do    16 centers at a time, making    1 passes.
 Calling FoFCou, ICntrl=  3107 FMM=F I1Cent=   0 AccDes= 0.00D+00.
 End of G2Drv F.D. properties file   721 does not exist.
 End of G2Drv F.D. properties file   722 does not exist.
 End of G2Drv F.D. properties file   788 does not exist.
          IDoAtm=111111111111111
          Differentiating once with respect to nuclear coordinates.
 Keep R1 and R2 ints in memory in canonical form, NReq=71861349.
          There are    48 degrees of freedom in the 1st order CPHF.  IDoFFX=6 NUNeed=     0.
     42 vectors produced by pass  0 Test12= 1.11D-14 2.08D-09 XBig12= 4.27D-01 2.26D-01.
 AX will form    42 AO Fock derivatives at one time.
     42 vectors produced by pass  1 Test12= 1.11D-14 2.08D-09 XBig12= 6.81D-02 5.96D-02.
     42 vectors produced by pass  2 Test12= 1.11D-14 2.08D-09 XBig12= 2.29D-03 7.93D-03.
     42 vectors produced by pass  3 Test12= 1.11D-14 2.08D-09 XBig12= 3.55D-05 1.74D-03.
     42 vectors produced by pass  4 Test12= 1.11D-14 2.08D-09 XBig12= 4.45D-07 1.22D-04.
     42 vectors produced by pass  5 Test12= 1.11D-14 2.08D-09 XBig12= 3.62D-09 6.45D-06.
     32 vectors produced by pass  6 Test12= 1.11D-14 2.08D-09 XBig12= 2.50D-11 6.01D-07.
     11 vectors produced by pass  7 Test12= 1.11D-14 2.08D-09 XBig12= 1.58D-13 3.74D-08.
      1 vectors produced by pass  8 Test12= 1.11D-14 2.08D-09 XBig12= 1.08D-15 2.44D-09.
 InvSVY:  IOpt=1 It=  1 EMax= 1.78D-15
 Solved reduced A of dimension   296 with    42 vectors.
 End of Minotr F.D. properties file   721 does not exist.
 End of Minotr F.D. properties file   722 does not exist.
 End of Minotr F.D. properties file   788 does not exist.

 **********************************************************************

            Population analysis using the SCF density.

 **********************************************************************

 Orbital symmetries:
 Alpha Orbitals:
       Occupied  (A) (A) (A) (A) (A) (A) (A) (A) (A) (A) (A) (A)
                 (A) (A) (A) (A) (A) (A) (A) (A) (A) (A) (A) (A)
                 (A) (A) (A) (A) (A) (A) (A)
       Virtual   (A) (A) (A) (A) (A) (A) (A) (A) (A) (A) (A) (A)
                 (A) (A) (A) (A) (A) (A) (A) (A) (A) (A) (A) (A)
                 (A) (A) (A) (A) (A) (A) (A) (A) (A) (A) (A) (A)
                 (A) (A) (A) (A) (A) (A) (A) (A) (A) (A) (A) (A)
                 (A) (A) (A) (A) (A) (A) (A) (A) (A) (A) (A) (A)
                 (A) (A) (A) (A) (A) (A) (A) (A) (A) (A) (A) (A)
                 (A) (A) (A) (A) (A) (A) (A) (A) (A) (A) (A) (A)
                 (A) (A) (A)
 Beta  Orbitals:
       Occupied  (A) (A) (A) (A) (A) (A) (A) (A) (A) (A) (A) (A)
                 (A) (A) (A) (A) (A) (A) (A) (A) (A) (A) (A) (A)
                 (A) (A) (A) (A) (A) (A)
       Virtual   (A) (A) (A) (A) (A) (A) (A) (A) (A) (A) (A) (A)
                 (A) (A) (A) (A) (A) (A) (A) (A) (A) (A) (A) (A)
                 (A) (A) (A) (A) (A) (A) (A) (A) (A) (A) (A) (A)
                 (A) (A) (A) (A) (A) (A) (A) (A) (A) (A) (A) (A)
                 (A) (A) (A) (A) (A) (A) (A) (A) (A) (A) (A) (A)
                 (A) (A) (A) (A) (A) (A) (A) (A) (A) (A) (A) (A)
                 (A) (A) (A) (A) (A) (A) (A) (A) (A) (A) (A) (A)
                 (A) (A) (A) (A)
 The electronic state is 2-A.
 Alpha  occ. eigenvalues --  -19.71583 -19.67732 -19.67434 -10.74033 -10.63186
 Alpha  occ. eigenvalues --  -10.62379 -10.60851 -10.55402  -1.29154  -1.19820
 Alpha  occ. eigenvalues --   -1.12728  -0.93106  -0.89188  -0.79892  -0.72663
 Alpha  occ. eigenvalues --   -0.65676  -0.62850  -0.59692  -0.58072  -0.55028
 Alpha  occ. eigenvalues --   -0.53875  -0.51134  -0.49040  -0.47635  -0.46277
 Alpha  occ. eigenvalues --   -0.43186  -0.42885  -0.40005  -0.39437  -0.36610
 Alpha  occ. eigenvalues --   -0.32434
 Alpha virt. eigenvalues --   -0.01155   0.01485   0.02579   0.02824   0.03121
 Alpha virt. eigenvalues --    0.03712   0.04660   0.05734   0.07188   0.07937
 Alpha virt. eigenvalues --    0.08125   0.08378   0.08951   0.11063   0.11766
 Alpha virt. eigenvalues --    0.12034   0.13769   0.15192   0.15472   0.16205
 Alpha virt. eigenvalues --    0.16682   0.18332   0.19502   0.20723   0.20809
 Alpha virt. eigenvalues --    0.21803   0.23243   0.24581   0.24931   0.26183
 Alpha virt. eigenvalues --    0.27607   0.28358   0.28846   0.29450   0.30481
 Alpha virt. eigenvalues --    0.32698   0.32896   0.34006   0.34252   0.35731
 Alpha virt. eigenvalues --    0.37025   0.37542   0.38452   0.41327   0.44145
 Alpha virt. eigenvalues --    0.46143   0.56135   0.57373   0.68341   0.69138
 Alpha virt. eigenvalues --    0.70968   0.72621   0.73641   0.74237   0.74699
 Alpha virt. eigenvalues --    0.79423   0.81947   0.84465   0.87303   0.90944
 Alpha virt. eigenvalues --    0.93428   0.96036   0.98982   1.07643   1.08590
 Alpha virt. eigenvalues --    1.10896   1.12532   1.16428   1.17481   1.19287
 Alpha virt. eigenvalues --    1.20571   1.23618   1.23935   1.24752   1.27789
 Alpha virt. eigenvalues --    1.34887   1.37272   1.39037   1.42784   1.44468
 Alpha virt. eigenvalues --    1.47084   1.50373   1.65044   1.70833   1.74787
 Alpha virt. eigenvalues --    1.99063   2.01056
  Beta  occ. eigenvalues --  -19.71549 -19.67260 -19.66506 -10.74088 -10.63314
  Beta  occ. eigenvalues --  -10.62380 -10.60463 -10.55400  -1.28955  -1.19506
  Beta  occ. eigenvalues --   -1.08401  -0.92042  -0.88791  -0.79690  -0.72302
  Beta  occ. eigenvalues --   -0.65578  -0.62604  -0.59232  -0.57583  -0.54861
  Beta  occ. eigenvalues --   -0.51646  -0.50298  -0.47724  -0.46221  -0.42913
  Beta  occ. eigenvalues --   -0.41908  -0.40752  -0.39105  -0.38724  -0.34875
  Beta virt. eigenvalues --   -0.10538   0.00596   0.01568   0.02791   0.02963
  Beta virt. eigenvalues --    0.03562   0.03890   0.04783   0.05921   0.07231
  Beta virt. eigenvalues --    0.07951   0.08177   0.08573   0.09011   0.11245
  Beta virt. eigenvalues --    0.11755   0.12076   0.13829   0.15512   0.15965
  Beta virt. eigenvalues --    0.16353   0.17031   0.18566   0.19342   0.20893
  Beta virt. eigenvalues --    0.21033   0.21959   0.23310   0.24563   0.25065
  Beta virt. eigenvalues --    0.26298   0.27552   0.28351   0.28867   0.29457
  Beta virt. eigenvalues --    0.30448   0.32758   0.32993   0.33986   0.34347
  Beta virt. eigenvalues --    0.35746   0.37117   0.37595   0.38771   0.41341
  Beta virt. eigenvalues --    0.44160   0.46138   0.56278   0.57515   0.68341
  Beta virt. eigenvalues --    0.69162   0.71000   0.72227   0.74114   0.74611
  Beta virt. eigenvalues --    0.75861   0.79610   0.82271   0.84945   0.87010
  Beta virt. eigenvalues --    0.91355   0.93813   0.96237   0.99358   1.08015
  Beta virt. eigenvalues --    1.08674   1.10948   1.12654   1.16602   1.17676
  Beta virt. eigenvalues --    1.20096   1.20687   1.24416   1.25007   1.27514
  Beta virt. eigenvalues --    1.28053   1.35260   1.37518   1.39859   1.43471
  Beta virt. eigenvalues --    1.44786   1.47333   1.50601   1.65159   1.71284
  Beta virt. eigenvalues --    1.76986   1.99076   2.01309
          Condensed to atoms (all electrons):
               1          2          3          4          5          6
     1  C   14.112328   0.626959  -1.285487  -6.863186   0.082064  -0.539782
     2  H    0.626959   0.384690  -0.227348  -0.058750  -0.000028  -0.000022
     3  C   -1.285487  -0.227348  13.375088  -4.075827   0.180814  -1.312122
     4  C   -6.863186  -0.058750  -4.075827  15.590917  -0.123890   1.220471
     5  O    0.082064  -0.000028   0.180814  -0.123890   8.496878  -0.245286
     6  O   -0.539782  -0.000022  -1.312122   1.220471  -0.245286   9.102189
     7  C   -0.014631   0.000348  -0.350126   0.123773  -0.008105   0.030757
     8  C   -0.159138  -0.000146  -0.321219   0.249274  -0.045211   0.053563
     9  H    0.002365   0.000000   0.001164   0.013221  -0.000677  -0.070898
    10  H    0.004882  -0.000000   0.032345  -0.036213   0.001635  -0.031422
    11  H   -0.000186   0.000000   0.001820   0.005533  -0.000204   0.006824
    12  H    0.002534  -0.000000   0.011263  -0.004626  -0.000496  -0.001372
    13  H    0.001918   0.000000  -0.009077   0.006285   0.000956  -0.009195
    14  O    0.075873  -0.013745  -0.184950   0.045495  -0.000320  -0.001816
    15  H    0.200738   0.001005  -0.043300  -0.119850  -0.005060  -0.004696
               7          8          9         10         11         12
     1  C   -0.014631  -0.159138   0.002365   0.004882  -0.000186   0.002534
     2  H    0.000348  -0.000146   0.000000  -0.000000   0.000000  -0.000000
     3  C   -0.350126  -0.321219   0.001164   0.032345   0.001820   0.011263
     4  C    0.123773   0.249274   0.013221  -0.036213   0.005533  -0.004626
     5  O   -0.008105  -0.045211  -0.000677   0.001635  -0.000204  -0.000496
     6  O    0.030757   0.053563  -0.070898  -0.031422   0.006824  -0.001372
     7  C    5.855858  -0.082794   0.425922   0.412897  -0.069080  -0.056487
     8  C   -0.082794   5.808940  -0.058332  -0.073306   0.398188   0.391813
     9  H    0.425922  -0.058332   0.496856  -0.031663  -0.000699  -0.004482
    10  H    0.412897  -0.073306  -0.031663   0.486795  -0.000751   0.003766
    11  H   -0.069080   0.398188  -0.000699  -0.000751   0.494092  -0.024742
    12  H   -0.056487   0.391813  -0.004482   0.003766  -0.024742   0.488947
    13  H   -0.047934   0.403869   0.003581  -0.004655  -0.022489  -0.027726
    14  O    0.003679  -0.004064   0.000007  -0.000007   0.000003  -0.000001
    15  H   -0.001651  -0.001313  -0.000000  -0.000001  -0.000000  -0.000001
              13         14         15
     1  C    0.001918   0.075873   0.200738
     2  H    0.000000  -0.013745   0.001005
     3  C   -0.009077  -0.184950  -0.043300
     4  C    0.006285   0.045495  -0.119850
     5  O    0.000956  -0.000320  -0.005060
     6  O   -0.009195  -0.001816  -0.004696
     7  C   -0.047934   0.003679  -0.001651
     8  C    0.403869  -0.004064  -0.001313
     9  H    0.003581   0.000007  -0.000000
    10  H   -0.004655  -0.000007  -0.000001
    11  H   -0.022489   0.000003  -0.000000
    12  H   -0.027726  -0.000001  -0.000001
    13  H    0.470904  -0.000016  -0.000002
    14  O   -0.000016   8.411740   0.149425
    15  H   -0.000002   0.149425   0.430930
          Atomic-Atomic Spin Densities.
               1          2          3          4          5          6
     1  C    0.159023   0.015473  -0.211507  -0.145930  -0.002791   0.003392
     2  H    0.015473   0.014112  -0.006700  -0.001306  -0.000003   0.000004
     3  C   -0.211507  -0.006700   0.906808   0.000950  -0.031376  -0.016213
     4  C   -0.145930  -0.001306   0.000950   0.083693   0.006742   0.018548
     5  O   -0.002791  -0.000003  -0.031376   0.006742   0.110009   0.001705
     6  O    0.003392   0.000004  -0.016213   0.018548   0.001705   0.002982
     7  C    0.007004  -0.000034  -0.003904  -0.007881  -0.001508   0.000751
     8  C   -0.001866   0.000018   0.004119   0.004782   0.000035  -0.001983
     9  H    0.000114  -0.000000   0.000054  -0.000489  -0.000016  -0.000140
    10  H    0.000298  -0.000000   0.000312  -0.001120  -0.000463   0.000269
    11  H    0.000072  -0.000000   0.000295  -0.000571   0.000001   0.000006
    12  H    0.000137  -0.000000   0.000100  -0.000161  -0.000006   0.000129
    13  H    0.000040  -0.000000  -0.000200   0.000413  -0.000066  -0.000015
    14  O   -0.006771  -0.002592  -0.134353  -0.005231   0.001374   0.000590
    15  H   -0.014905  -0.000108   0.008782   0.008033   0.000017   0.000086
               7          8          9         10         11         12
     1  C    0.007004  -0.001866   0.000114   0.000298   0.000072   0.000137
     2  H   -0.000034   0.000018  -0.000000  -0.000000  -0.000000  -0.000000
     3  C   -0.003904   0.004119   0.000054   0.000312   0.000295   0.000100
     4  C   -0.007881   0.004782  -0.000489  -0.001120  -0.000571  -0.000161
     5  O   -0.001508   0.000035  -0.000016  -0.000463   0.000001  -0.000006
     6  O    0.000751  -0.001983  -0.000140   0.000269   0.000006   0.000129
     7  C    0.011494  -0.012861   0.000791   0.001938   0.001721   0.000431
     8  C   -0.012861   0.013701  -0.000400  -0.001127  -0.002017  -0.000726
     9  H    0.000791  -0.000400   0.000177  -0.000010   0.000020   0.000010
    10  H    0.001938  -0.001127  -0.000010  -0.000005   0.000021   0.000003
    11  H    0.001721  -0.002017   0.000020   0.000021   0.000605   0.000084
    12  H    0.000431  -0.000726   0.000010   0.000003   0.000084  -0.000015
    13  H   -0.000028  -0.000169   0.000002   0.000015   0.000042   0.000013
    14  O    0.002227  -0.001359   0.000001   0.000003   0.000001   0.000003
    15  H   -0.000217   0.000433  -0.000000  -0.000000  -0.000000  -0.000002
              13         14         15
     1  C    0.000040  -0.006771  -0.014905
     2  H   -0.000000  -0.002592  -0.000108
     3  C   -0.000200  -0.134353   0.008782
     4  C    0.000413  -0.005231   0.008033
     5  O   -0.000066   0.001374   0.000017
     6  O   -0.000015   0.000590   0.000086
     7  C   -0.000028   0.002227  -0.000217
     8  C   -0.000169  -0.001359   0.000433
     9  H    0.000002   0.000001  -0.000000
    10  H    0.000015   0.000003  -0.000000
    11  H    0.000042   0.000001  -0.000000
    12  H    0.000013   0.000003  -0.000002
    13  H   -0.000230   0.000001   0.000001
    14  O    0.000001   0.769987   0.006381
    15  H    0.000001   0.006381  -0.031667
 Mulliken charges and spin densities:
               1          2
     1  C   -0.247250  -0.198217
     2  H    0.287037   0.018864
     3  C    0.206963   0.517167
     4  C    0.027372  -0.039527
     5  O   -0.333069   0.083654
     6  O   -0.197191   0.010109
     7  C   -0.222428  -0.000075
     8  C   -0.560125   0.000580
     9  H    0.223637   0.000114
    10  H    0.235698   0.000134
    11  H    0.211691   0.000282
    12  H    0.221612   0.000001
    13  H    0.233581  -0.000181
    14  O   -0.481302   0.630262
    15  H    0.393776  -0.023166
 Sum of Mulliken charges =  -0.00000   1.00000
 Mulliken charges and spin densities with hydrogens summed into heavy atoms:
               1          2
     1  C    0.039787  -0.179354
     3  C    0.206963   0.517167
     4  C    0.027372  -0.039527
     5  O   -0.333069   0.083654
     6  O   -0.197191   0.010109
     7  C    0.236907   0.000173
     8  C    0.106758   0.000682
    14  O   -0.087526   0.607095
 APT charges:
               1
     1  C    0.023312
     2  H    0.984374
     3  C   -0.785579
     4  C    0.118446
     5  O   -0.364995
     6  O    0.129875
     7  C   -0.941088
     8  C   -1.421102
     9  H    0.610840
    10  H    0.457858
    11  H    0.705064
    12  H    0.376867
    13  H    0.266454
    14  O   -0.474389
    15  H    0.314063
 Sum of APT charges =  -0.00000
 APT charges with hydrogens summed into heavy atoms:
               1
     1  C    1.007686
     3  C   -0.785579
     4  C    0.118446
     5  O   -0.364995
     6  O    0.129875
     7  C    0.127610
     8  C   -0.072717
    14  O   -0.160326
 Electronic spatial extent (au):  <R**2>=           1202.9064
 Charge=             -0.0000 electrons
 Dipole moment (field-independent basis, Debye):
    X=              2.2353    Y=             -0.5263    Z=             -1.5240  Tot=              2.7562
 Quadrupole moment (field-independent basis, Debye-Ang):
   XX=            -41.6409   YY=            -48.1335   ZZ=            -53.5546
   XY=              7.0992   XZ=              1.0861   YZ=              3.4148
 Traceless Quadrupole moment (field-independent basis, Debye-Ang):
   XX=              6.1355   YY=             -0.3572   ZZ=             -5.7783
   XY=              7.0992   XZ=              1.0861   YZ=              3.4148
 Octapole moment (field-independent basis, Debye-Ang**2):
  XXX=             13.7224  YYY=              2.2586  ZZZ=             -3.6505  XYY=              6.6069
  XXY=            -26.4474  XXZ=            -15.1176  XZZ=             -0.0957  YZZ=              4.7753
  YYZ=              0.9702  XYZ=             -2.6647
 Hexadecapole moment (field-independent basis, Debye-Ang**3):
 XXXX=          -1050.7294 YYYY=           -246.2836 ZZZZ=           -181.3025 XXXY=             80.7262
 XXXZ=             40.3853 YYYX=             -8.6848 YYYZ=              2.7809 ZZZX=             -6.9397
 ZZZY=              5.1833 XXYY=           -253.2749 XXZZ=           -216.5480 YYZZ=            -72.7945
 XXYZ=             10.5616 YYXZ=             -3.7506 ZZXY=             -1.3530
 N-N= 3.544420751631D+02 E-N=-1.691135014069D+03  KE= 4.178312327038D+02
  Exact polarizability:   0.000   0.000   0.000   0.000   0.000   0.000
 Approx polarizability:  96.600 -12.045  69.242   7.849  -1.261  71.103
                          Isotropic Fermi Contact Couplings
        Atom                 a.u.       MegaHertz       Gauss      10(-4) cm-1
     1  C(13)             -0.01240     -13.94035      -4.97426      -4.65000
     2  H(1)               0.00875      39.10215      13.95262      13.04307
     3  C(13)              0.05904      66.37768      23.68521      22.14121
     4  C(13)             -0.02198     -24.71251      -8.81804      -8.24321
     5  O(17)              0.01605      -9.73144      -3.47242      -3.24606
     6  O(17)              0.00259      -1.56905      -0.55988      -0.52338
     7  C(13)             -0.00024      -0.26706      -0.09529      -0.08908
     8  C(13)              0.00146       1.63698       0.58412       0.54604
     9  H(1)               0.00003       0.13178       0.04702       0.04396
    10  H(1)               0.00035       1.57932       0.56354       0.52681
    11  H(1)               0.00005       0.23345       0.08330       0.07787
    12  H(1)              -0.00002      -0.08451      -0.03016      -0.02819
    13  H(1)              -0.00002      -0.08425      -0.03006      -0.02810
    14  O(17)              0.08888     -53.87586     -19.22424     -17.97105
    15  H(1)              -0.01184     -52.91327     -18.88077     -17.64997
 --------------------------------------------------------
       Center         ----  Spin Dipole Couplings  ----
                      3XX-RR        3YY-RR        3ZZ-RR
 --------------------------------------------------------
     1   Atom        0.103524     -0.074968     -0.028556
     2   Atom       -0.009146      0.008969      0.000176
     3   Atom       -0.290147      0.435486     -0.145339
     4   Atom        0.020100     -0.030540      0.010439
     5   Atom       -0.136840      0.286942     -0.150102
     6   Atom       -0.017652      0.044608     -0.026957
     7   Atom        0.002579     -0.000639     -0.001940
     8   Atom        0.002114      0.000207     -0.002321
     9   Atom        0.002086     -0.001279     -0.000807
    10   Atom        0.003152     -0.001752     -0.001401
    11   Atom        0.001540     -0.000639     -0.000901
    12   Atom        0.001735     -0.000416     -0.001318
    13   Atom        0.002251     -0.000704     -0.001547
    14   Atom       -0.737120      1.765923     -1.028803
    15   Atom        0.089245     -0.026415     -0.062830
 --------------------------------------------------------
                        XY            XZ            YZ
 --------------------------------------------------------
     1   Atom        0.030433      0.049329      0.003898
     2   Atom        0.002175     -0.000201      0.004363
     3   Atom       -0.088571     -0.056375      0.191255
     4   Atom       -0.003907      0.006472     -0.011055
     5   Atom       -0.093689     -0.014636      0.082601
     6   Atom       -0.004515     -0.003639      0.022726
     7   Atom        0.000217     -0.001132     -0.000148
     8   Atom        0.002306      0.000117      0.000113
     9   Atom       -0.000110     -0.001293     -0.000009
    10   Atom       -0.000987     -0.000418     -0.000067
    11   Atom        0.000526      0.000023     -0.000022
    12   Atom        0.001297     -0.000494     -0.000354
    13   Atom        0.001577      0.000728      0.000288
    14   Atom       -1.162889     -0.277508      0.702971
    15   Atom        0.033238      0.059683      0.030416
 --------------------------------------------------------


 ---------------------------------------------------------------------------------
              Anisotropic Spin Dipole Couplings in Principal Axis System
 ---------------------------------------------------------------------------------

       Atom             a.u.   MegaHertz   Gauss  10(-4) cm-1        Axes

              Baa    -0.0805   -10.798    -3.853    -3.602 -0.1902  0.9758  0.1075
     1 C(13)  Bbb    -0.0440    -5.904    -2.107    -1.969 -0.2833 -0.1594  0.9457
              Bcc     0.1245    16.702     5.960     5.571  0.9400  0.1494  0.3068
 
              Baa    -0.0095    -5.048    -1.801    -1.684  0.9873 -0.1360  0.0821
     2 H(1)   Bbb    -0.0015    -0.796    -0.284    -0.266 -0.1264 -0.3593  0.9246
              Bcc     0.0110     5.844     2.085     1.949  0.0962  0.9232  0.3720
 
              Baa    -0.3104   -41.657   -14.864   -13.895  0.9595  0.0426  0.2783
     3 C(13)  Bbb    -0.1952   -26.197    -9.348    -8.738 -0.2518 -0.3130  0.9158
              Bcc     0.5057    67.853    24.212    22.633 -0.1261  0.9488  0.2897
 
              Baa    -0.0334    -4.485    -1.600    -1.496  0.0420  0.9703  0.2383
     4 C(13)  Bbb     0.0087     1.166     0.416     0.389 -0.5314 -0.1803  0.8277
              Bcc     0.0247     3.319     1.184     1.107  0.8461 -0.1614  0.5080
 
              Baa    -0.1658    11.997     4.281     4.002 -0.2423 -0.2224  0.9443
     5 O(17)  Bbb    -0.1558    11.276     4.023     3.761  0.9488  0.1488  0.2785
              Bcc     0.3216   -23.273    -8.304    -7.763 -0.2025  0.9635  0.1750
 
              Baa    -0.0339     2.451     0.875     0.818  0.1392 -0.2680  0.9533
     6 O(17)  Bbb    -0.0178     1.284     0.458     0.428  0.9873  0.1125 -0.1126
              Bcc     0.0516    -3.736    -1.333    -1.246 -0.0771  0.9568  0.2803
 
              Baa    -0.0022    -0.297    -0.106    -0.099  0.2270  0.0602  0.9720
     7 C(13)  Bbb    -0.0007    -0.087    -0.031    -0.029 -0.0818  0.9957 -0.0426
              Bcc     0.0029     0.384     0.137     0.128  0.9705  0.0698 -0.2309
 
              Baa    -0.0023    -0.312    -0.111    -0.104 -0.0061 -0.0388  0.9992
     8 C(13)  Bbb    -0.0013    -0.179    -0.064    -0.060 -0.5564  0.8304  0.0289
              Bcc     0.0037     0.491     0.175     0.164  0.8309  0.5558  0.0267
 
              Baa    -0.0013    -0.715    -0.255    -0.238  0.2907  0.6344  0.7163
     9 H(1)   Bbb    -0.0012    -0.663    -0.237    -0.221 -0.2075  0.7726 -0.6000
              Bcc     0.0026     1.378     0.492     0.460  0.9340 -0.0258 -0.3562
 
              Baa    -0.0020    -1.057    -0.377    -0.353  0.2025  0.9455  0.2551
    10 H(1)   Bbb    -0.0014    -0.745    -0.266    -0.248  0.0307 -0.2666  0.9633
              Bcc     0.0034     1.802     0.643     0.601  0.9788 -0.1873 -0.0831
 
              Baa    -0.0009    -0.483    -0.173    -0.161 -0.0469  0.1748  0.9835
    11 H(1)   Bbb    -0.0008    -0.402    -0.144    -0.134 -0.2182  0.9590 -0.1808
              Bcc     0.0017     0.886     0.316     0.295  0.9748  0.2230  0.0068
 
              Baa    -0.0014    -0.769    -0.275    -0.257  0.0286  0.2936  0.9555
    12 H(1)   Bbb    -0.0010    -0.532    -0.190    -0.178 -0.4518  0.8565 -0.2497
              Bcc     0.0024     1.301     0.464     0.434  0.8917  0.4245 -0.1571
 
              Baa    -0.0017    -0.897    -0.320    -0.299 -0.1867  0.0118  0.9823
    13 H(1)   Bbb    -0.0014    -0.739    -0.264    -0.247 -0.3823  0.9202 -0.0837
              Bcc     0.0031     1.636     0.584     0.546  0.9050  0.3912  0.1673
 
              Baa    -1.1965    86.575    30.892    28.878  0.4787 -0.0204  0.8777
    14 O(17)  Bbb    -1.1934    86.354    30.813    28.805  0.8021  0.4168 -0.4278
              Bcc     2.3899  -172.930   -61.706   -57.683 -0.3571  0.9088  0.2159
 
              Baa    -0.0893   -47.671   -17.010   -15.901 -0.2484 -0.3120  0.9170
    15 H(1)   Bbb    -0.0322   -17.183    -6.131    -5.732 -0.3542  0.9104  0.2138
              Bcc     0.1215    64.853    23.141    21.633  0.9016  0.2717  0.3367
 

 ---------------------------------------------------------------------------------

 Calling FoFJK, ICntrl=    100147 FMM=F ISym2X=0 I1Cent= 0 IOpClX= 1 NMat=1 NMatS=1 NMatT=0.
 ***** Axes restored to original set *****
 -------------------------------------------------------------------
 Center     Atomic                   Forces (Hartrees/Bohr)
 Number     Number              X              Y              Z
 -------------------------------------------------------------------
      1        6           0.031630177   -0.004898813    0.023580878
      2        1          -0.013002504    0.002119796    0.005318350
      3        6          -0.040978730    0.009824024   -0.024831020
      4        6           0.048039264   -0.037494521    0.001676991
      5        8          -0.017234572    0.052039287   -0.000065079
      6        8          -0.002991160   -0.016478928   -0.000897151
      7        6          -0.017662119   -0.002130749   -0.004645326
      8        6          -0.000119820   -0.000078983    0.000150800
      9        1          -0.000269216   -0.000561240   -0.000377782
     10        1          -0.000343427    0.001375477   -0.000919868
     11        1          -0.001308241    0.000431741    0.000381228
     12        1          -0.000024929   -0.001005421    0.000864553
     13        1          -0.000021260    0.001610036    0.001073195
     14        8           0.027970653   -0.009291770   -0.002528674
     15        1          -0.013684117    0.004540063    0.001218904
 -------------------------------------------------------------------
 Cartesian Forces:  Max     0.052039287 RMS     0.016740539
 FormGI is forming the generalized inverse of G from B-inverse, IUseBI=4.

 GradGradGradGradGradGradGradGradGradGradGradGradGradGradGradGradGradGrad
 Berny optimization.
 Internal  Forces:  Max     0.054769397 RMS     0.012078896
 Search for a local minimum.
 Step number   1 out of a maximum of   66
 All quantities printed in internal units (Hartrees-Bohrs-Radians)
 Mixed Optimization -- RFO/linear search
 Second derivative matrix not updated -- analytic derivatives used.
 ITU=  0
     Eigenvalues ---   -0.09853  -0.00533  -0.00028   0.00246   0.00528
     Eigenvalues ---    0.00721   0.02186   0.03073   0.04777   0.04877
     Eigenvalues ---    0.04959   0.06076   0.06377   0.06990   0.09739
     Eigenvalues ---    0.10231   0.10524   0.13078   0.13379   0.14016
     Eigenvalues ---    0.17513   0.19902   0.20525   0.24440   0.25668
     Eigenvalues ---    0.27483   0.33100   0.35371   0.35488   0.35603
     Eigenvalues ---    0.35846   0.36088   0.37381   0.39792   0.40927
     Eigenvalues ---    0.51608   0.57239   0.98089   1.02351
 RFO step:  Lambda=-1.03510732D-01 EMin=-9.85340626D-02
 I=     1 Eig=   -9.85D-02 Dot1= -1.28D-02
 I=     1 Stepn= -6.00D-01 RXN=   6.00D-01 EDone=F
 I=     2 Eig=   -5.33D-03 Dot1= -3.79D-05
 I=     2 Stepn= -3.00D-01 RXN=   6.71D-01 EDone=F
 I=     3 Eig=   -2.79D-04 Dot1= -6.51D-07
 I=     3 Stepn= -1.50D-01 RXN=   6.87D-01 EDone=F
 Mixed    3 eigenvectors in step.  Raw Step.Grad=  1.28D-02.
 RFO eigenvector is Hessian eigenvector with negative curvature.
 Taking step of  6.00D-01 in eigenvector direction(s).  Step.Grad= -6.44D-04.
 Linear search not attempted -- first point.
 Maximum step size (   0.300) exceeded in Quadratic search.
    -- Step size not scaled.
 Iteration  1 RMS(Cart)=  0.08553089 RMS(Int)=  0.03792713
 Iteration  2 RMS(Cart)=  0.03149436 RMS(Int)=  0.01090272
 Iteration  3 RMS(Cart)=  0.01298430 RMS(Int)=  0.00036901
 Iteration  4 RMS(Cart)=  0.00002597 RMS(Int)=  0.00036882
 Iteration  5 RMS(Cart)=  0.00000001 RMS(Int)=  0.00036882
 Variable       Old X    -DE/DX   Delta X   Delta X   Delta X     New X
                                 (Linear)    (Quad)   (Total)
    R1        2.05238  -0.01332   0.00000   0.00680   0.00680   2.05918
    R2        2.30575   0.04101   0.00000   0.05852   0.05854   2.36429
    R3        3.57561  -0.00477   0.00000  -0.46411  -0.46410   3.11151
    R4        2.75302  -0.00781   0.00000  -0.01548  -0.01549   2.73753
    R5        2.26721   0.05477   0.00000   0.00646   0.00646   2.27367
    R6        2.51946   0.02765   0.00000   0.00322   0.00322   2.52269
    R7        2.72512   0.01947   0.00000  -0.00073  -0.00073   2.72439
    R8        2.86508   0.00300   0.00000   0.00000   0.00000   2.86508
    R9        2.05696   0.00072   0.00000   0.00005   0.00005   2.05701
   R10        2.06093   0.00167   0.00000   0.00011   0.00011   2.06104
   R11        2.06304   0.00127   0.00000   0.00008   0.00008   2.06312
   R12        2.06169   0.00132   0.00000  -0.00015  -0.00015   2.06154
   R13        2.05998   0.00177   0.00000  -0.00000  -0.00000   2.05998
   R14        1.83684   0.01444   0.00000  -0.00634  -0.00635   1.83049
    A1        2.75213  -0.01044   0.00000  -0.16693  -0.16703   2.58510
    A2        1.84462  -0.02112   0.00000   0.00774   0.00801   1.85263
    A3        1.68313   0.03157   0.00000   0.15853   0.15876   1.84189
    A4        2.15915   0.00161   0.00000  -0.00441  -0.00443   2.15472
    A5        1.93762   0.00173   0.00000   0.00431   0.00429   1.94191
    A6        2.18640  -0.00333   0.00000   0.00005   0.00001   2.18641
    A7        2.02620   0.01363   0.00000  -0.00040  -0.00040   2.02580
    A8        1.93855   0.00000   0.00000   0.00003   0.00003   1.93858
    A9        1.81555  -0.00006   0.00000  -0.00014  -0.00014   1.81541
   A10        1.89701   0.00026   0.00000   0.00035   0.00035   1.89735
   A11        1.94986   0.00007   0.00000  -0.00015  -0.00015   1.94971
   A12        1.94612  -0.00027   0.00000  -0.00009  -0.00009   1.94603
   A13        1.91183   0.00003   0.00000   0.00000   0.00000   1.91183
   A14        1.91207   0.00070   0.00000   0.00001   0.00001   1.91208
   A15        1.92687  -0.00010   0.00000  -0.00015  -0.00015   1.92672
   A16        1.93206   0.00081   0.00000  -0.00012  -0.00012   1.93194
   A17        1.89318  -0.00036   0.00000   0.00053   0.00053   1.89372
   A18        1.89177  -0.00082   0.00000   0.00016   0.00016   1.89193
   A19        1.90711  -0.00026   0.00000  -0.00042  -0.00042   1.90670
   A20        1.83780   0.00137   0.00000  -0.01423  -0.01421   1.82358
   A21        2.95393   0.00876   0.00000  -0.06057  -0.06038   2.89355
   A22        3.12496  -0.00377   0.00000  -0.00478  -0.00383   3.12113
    D1       -1.54283  -0.00074   0.00000   0.00175   0.00221  -1.54062
    D2        1.68188  -0.00076   0.00000   0.01716   0.01747   1.69935
    D3        1.39610   0.00051   0.00000   0.00569   0.00538   1.40149
    D4       -1.66238   0.00049   0.00000   0.02111   0.02065  -1.64173
    D5        3.10055  -0.00074   0.00000  -0.21149  -0.20972   2.89083
    D6        0.01014  -0.00016   0.00000  -0.19546  -0.19713  -0.18698
    D7        3.13086  -0.00167   0.00000   0.00367   0.00352   3.13438
    D8       -0.01550   0.00142   0.00000  -0.00950  -0.00935  -0.02485
    D9       -1.39306   0.00004   0.00000  -0.00053  -0.00053  -1.39359
   D10        2.78998  -0.00001   0.00000  -0.00029  -0.00029   2.78969
   D11        0.75418  -0.00012   0.00000  -0.00038  -0.00038   0.75380
   D12       -3.06793   0.00009   0.00000   0.00037   0.00037  -3.06756
   D13       -0.98410   0.00002   0.00000   0.00094   0.00094  -0.98316
   D14        1.12995   0.00016   0.00000   0.00024   0.00024   1.13019
   D15       -1.04933   0.00005   0.00000   0.00014   0.00014  -1.04920
   D16        1.03450  -0.00001   0.00000   0.00071   0.00071   1.03520
   D17       -3.13463   0.00012   0.00000   0.00000   0.00000  -3.13463
   D18        1.09654  -0.00005   0.00000  -0.00004  -0.00004   1.09651
   D19       -3.10281  -0.00012   0.00000   0.00054   0.00054  -3.10228
   D20       -0.98876   0.00002   0.00000  -0.00017  -0.00017  -0.98893
         Item               Value     Threshold  Converged?
 Maximum Force            0.054769     0.000015     NO 
 RMS     Force            0.012079     0.000010     NO 
 Maximum Displacement     0.414372     0.000060     NO 
 RMS     Displacement     0.090550     0.000040     NO 
 Predicted change in Energy=-2.489119D-02
 GradGradGradGradGradGradGradGradGradGradGradGradGradGradGradGradGradGrad

                          Input orientation:                          
 ---------------------------------------------------------------------
 Center     Atomic      Atomic             Coordinates (Angstroms)
 Number     Number       Type             X           Y           Z
 ---------------------------------------------------------------------
      1          6           0        2.959109   -0.453134    0.637618
      2          1           0        4.011801   -0.691224    0.487509
      3          6           0        1.857634   -0.142440    0.132108
      4          6           0        0.502888    0.307521   -0.114369
      5          8           0        0.183091    1.467174   -0.138136
      6          8           0       -0.318191   -0.723103   -0.328214
      7          6           0       -1.699250   -0.392034   -0.576256
      8          6           0       -2.430525   -0.098325    0.718980
      9          1           0       -2.097245   -1.275663   -1.071923
     10          1           0       -1.738174    0.457748   -1.258813
     11          1           0       -3.488074    0.074864    0.510354
     12          1           0       -2.346574   -0.943927    1.403101
     13          1           0       -2.023781    0.792707    1.197443
     14          8           0        2.738055   -0.361767    2.266692
     15          1           0        1.877616    0.070841    2.370534
 ---------------------------------------------------------------------
                    Distance matrix (angstroms):
                    1          2          3          4          5
     1  C    0.000000
     2  H    1.089669   0.000000
     3  C    1.251127   2.251201   0.000000
     4  C    2.679012   3.697596   1.448638   0.000000
     5  O    3.463474   4.439497   2.338372   1.203175   0.000000
     6  O    3.427304   4.406274   2.298539   1.334948   2.254934
     7  C    4.814305   5.816976   3.635313   2.356295   2.681755
     8  C    5.401913   6.473691   4.328357   3.076377   3.164874
     9  H    5.400537   6.331970   4.286602   3.191249   3.687146
    10  H    5.146905   6.118169   3.901888   2.520849   2.442564
    11  H    6.470019   7.538935   5.363477   4.046256   3.979513
    12  H    5.383040   6.428927   4.464658   3.462409   3.819428
    13  H    5.166693   6.255742   4.132169   2.887960   2.666264
    14  O    1.646540   2.212795   2.319417   3.333673   3.956774
    15  H    2.108833   2.946400   2.248652   2.849673   3.333854
                    6          7          8          9         10
     6  O    0.000000
     7  C    1.441685   0.000000
     8  C    2.439041   1.516135   0.000000
     9  H    2.005856   1.088525   2.168994   0.000000
    10  H    2.068037   1.090655   2.168002   1.780049   0.000000
    11  H    3.374627   2.144436   1.091755   2.502385   2.517678
    12  H    2.675921   2.154407   1.090922   2.509573   3.069304
    13  H    2.744877   2.157531   1.090094   3.071412   2.495389
    14  O    4.025512   5.270004   5.401762   5.946569   5.756511
    15  H    3.568635   4.657445   4.616960   5.427992   5.137684
                   11         12         13         14         15
    11  H    0.000000
    12  H    1.771427   0.000000
    13  H    1.769617   1.778310   0.000000
    14  O    6.483830   5.190198   5.015096   0.000000
    15  H    5.678988   4.450782   4.137406   0.968653   0.000000
 Stoichiometry    C5H7O3(2)
 Framework group  C1[X(C5H7O3)]
 Deg. of freedom    39
 Full point group                 C1      NOp   1
 Largest Abelian subgroup         C1      NOp   1
 Largest concise Abelian subgroup C1      NOp   1
                         Standard orientation:                         
 ---------------------------------------------------------------------
 Center     Atomic      Atomic             Coordinates (Angstroms)
 Number     Number       Type             X           Y           Z
 ---------------------------------------------------------------------
      1          6           0       -2.583775   -0.318385   -0.438268
      2          1           0       -3.565144   -0.655231   -0.771180
      3          6           0       -1.376328   -0.586205   -0.249425
      4          6           0        0.010208   -0.598302    0.170009
      5          8           0        0.366595   -0.918806    1.273592
      6          8           0        0.820459   -0.232440   -0.825845
      7          6           0        2.228411   -0.199593   -0.517548
      8          6           0        2.594216    1.070199    0.225743
      9          1           0        2.712702   -0.250005   -1.491102
     10          1           0        2.480546   -1.088603    0.061776
     11          1           0        3.674464    1.105030    0.379946
     12          1           0        2.298479    1.947274   -0.351656
     13          1           0        2.106406    1.100259    1.200136
     14          8           0       -2.806239    1.185056    0.195189
     15          1           0       -1.990357    1.364509    0.685519
 ---------------------------------------------------------------------
 Rotational constants (GHZ):           4.2114775           1.0422682           0.9984314
 Standard basis: 6-31+G (6D, 7F)
 There are   118 symmetry adapted cartesian basis functions of A   symmetry.
 There are   118 symmetry adapted basis functions of A   symmetry.
   118 basis functions,   236 primitive gaussians,   118 cartesian basis functions
    31 alpha electrons       30 beta electrons
       nuclear repulsion energy       355.5100645543 Hartrees.
 NAtoms=   15 NActive=   15 NUniq=   15 SFac= 1.00D+00 NAtFMM=   60 NAOKFM=F Big=F
 Integral buffers will be    131072 words long.
 Raffenetti 2 integral format.
 Two-electron integral symmetry is turned on.
 One-electron integrals computed using PRISM.
 NBasis=   118 RedAO= T EigKep=  4.71D-06  NBF=   118
 NBsUse=   118 1.00D-06 EigRej= -1.00D+00 NBFU=   118
 Initial guess from the checkpoint file:  "ethyl_propiolate_non_planar.chk"
 B after Tr=     0.000000    0.000000   -0.000000
         Rot=    0.998715   -0.050251    0.001044   -0.006416 Ang=  -5.81 deg.
 Initial guess <Sx>= 0.0000 <Sy>= 0.0000 <Sz>= 0.5000 <S**2>= 0.7775 S= 0.5137
 ExpMin= 4.38D-02 ExpMax= 5.48D+03 ExpMxC= 8.25D+02 IAcc=2 IRadAn=         4 AccDes= 0.00D+00
 Harris functional with IExCor= 1009 and IRadAn=       4 diagonalized for initial guess.
 HarFok:  IExCor= 1009 AccDes= 0.00D+00 IRadAn=         4 IDoV= 1 UseB2=F ITyADJ=14
 ICtDFT=  3500011 ScaDFX=  1.000000  1.000000  1.000000  1.000000
 FoFCou: FMM=F IPFlag=           0 FMFlag=      100000 FMFlg1=           0
         NFxFlg=           0 DoJE=T BraDBF=F KetDBF=T FulRan=T
         wScrn=  0.000000 ICntrl=       500 IOpCl=  0 I1Cent=   200000004 NGrid=           0
         NMat0=    1 NMatS0=      1 NMatT0=    0 NMatD0=    1 NMtDS0=    0 NMtDT0=    0
 Petite list used in FoFCou.
 Requested convergence on RMS density matrix=1.00D-08 within 128 cycles.
 Requested convergence on MAX density matrix=1.00D-06.
 Requested convergence on             energy=1.00D-06.
 No special actions if energy rises.
 SCF Done:  E(UM062X) =  -419.974421214     A.U. after   19 cycles
            NFock= 19  Conv=0.94D-08     -V/T= 2.0052
 <Sx>= 0.0000 <Sy>= 0.0000 <Sz>= 0.5000 <S**2>= 0.7737 S= 0.5118
 <L.S>=  0.00000000000    
 Annihilation of the first spin contaminant:
 S**2 before annihilation     0.7737,   after     0.7504
 Calling FoFJK, ICntrl=      2127 FMM=F ISym2X=0 I1Cent= 0 IOpClX= 1 NMat=1 NMatS=1 NMatT=0.
 ***** Axes restored to original set *****
 -------------------------------------------------------------------
 Center     Atomic                   Forces (Hartrees/Bohr)
 Number     Number              X              Y              Z
 -------------------------------------------------------------------
      1        6           0.025641691   -0.000249069    0.080189370
      2        1          -0.013137472    0.000294999   -0.004689487
      3        6          -0.040303362    0.009775135   -0.045118801
      4        6           0.049871206   -0.039169523    0.005137962
      5        8          -0.017703683    0.052858170   -0.000639740
      6        8          -0.004383212   -0.016721476   -0.001196115
      7        6          -0.017144936   -0.002034966   -0.004971258
      8        6          -0.000213781   -0.000017978    0.000065858
      9        1          -0.000363396   -0.000539232   -0.000408208
     10        1          -0.000412082    0.001370991   -0.000936713
     11        1          -0.001331291    0.000443102    0.000382745
     12        1          -0.000043344   -0.001029431    0.000876262
     13        1          -0.000032123    0.001596079    0.001083495
     14        8           0.030212057   -0.012133583   -0.035885516
     15        1          -0.010656273    0.005556782    0.006110146
 -------------------------------------------------------------------
 Cartesian Forces:  Max     0.080189370 RMS     0.021785626

 GradGradGradGradGradGradGradGradGradGradGradGradGradGradGradGradGradGrad
 Berny optimization.
 Using GEDIIS/GDIIS optimizer.
 FormGI is forming the generalized inverse of G from B-inverse, IUseBI=4.
 Internal  Forces:  Max     0.055663207 RMS     0.014175162
 Search for a local minimum.
 Step number   2 out of a maximum of   66
 All quantities printed in internal units (Hartrees-Bohrs-Radians)
 Mixed Optimization -- RFO/linear search
 Update second derivatives using D2CorX and points    1    2
 ITU=  0  0
 Use linear search instead of GDIIS.
     Eigenvalues ---   -0.07093  -0.00523  -0.00028   0.00246   0.00524
     Eigenvalues ---    0.00721   0.02185   0.03048   0.04777   0.04877
     Eigenvalues ---    0.04959   0.05996   0.06377   0.06987   0.09705
     Eigenvalues ---    0.10197   0.10331   0.13078   0.13379   0.14016
     Eigenvalues ---    0.17513   0.19898   0.20454   0.24438   0.25667
     Eigenvalues ---    0.27480   0.33100   0.35371   0.35488   0.35603
     Eigenvalues ---    0.35846   0.36088   0.37378   0.39790   0.40924
     Eigenvalues ---    0.51597   0.57239   0.98084   1.02293
 RFO step:  Lambda=-1.04941797D-01 EMin=-7.09252879D-02
 Skip linear search -- no minimum in search direction.
 Maximum step size (   0.300) exceeded in Quadratic search.
    -- Step size scaled by   0.363
 Iteration  1 RMS(Cart)=  0.07236568 RMS(Int)=  0.00752641
 Iteration  2 RMS(Cart)=  0.00864538 RMS(Int)=  0.00021681
 Iteration  3 RMS(Cart)=  0.00004705 RMS(Int)=  0.00021528
 Iteration  4 RMS(Cart)=  0.00000001 RMS(Int)=  0.00021528
 Variable       Old X    -DE/DX   Delta X   Delta X   Delta X     New X
                                 (Linear)    (Quad)   (Total)
    R1        2.05918  -0.01211   0.00000  -0.00468  -0.00468   2.05450
    R2        2.36429   0.04821   0.00000   0.04645   0.04647   2.41075
    R3        3.11151  -0.03248   0.00000  -0.23877  -0.23876   2.87275
    R4        2.73753  -0.00852   0.00000  -0.01881  -0.01882   2.71871
    R5        2.27367   0.05566   0.00000   0.02285   0.02285   2.29652
    R6        2.52269   0.02860   0.00000   0.01630   0.01630   2.53898
    R7        2.72439   0.01934   0.00000   0.01327   0.01327   2.73766
    R8        2.86508   0.00304   0.00000   0.00164   0.00164   2.86672
    R9        2.05701   0.00076   0.00000   0.00046   0.00046   2.05747
   R10        2.06104   0.00167   0.00000   0.00124   0.00124   2.06228
   R11        2.06312   0.00129   0.00000   0.00118   0.00118   2.06430
   R12        2.06154   0.00134   0.00000   0.00096   0.00096   2.06251
   R13        2.05998   0.00177   0.00000   0.00133   0.00133   2.06131
   R14        1.83049   0.01265   0.00000   0.00332   0.00331   1.83380
    A1        2.58510  -0.02729   0.00000  -0.11425  -0.11433   2.47076
    A2        1.85263  -0.01577   0.00000  -0.00510  -0.00498   1.84765
    A3        1.84189   0.04304   0.00000   0.11976   0.11985   1.96174
    A4        2.15472   0.00186   0.00000   0.00072   0.00072   2.15544
    A5        1.94191   0.00258   0.00000   0.00803   0.00802   1.94993
    A6        2.18641  -0.00443   0.00000  -0.00886  -0.00887   2.17754
    A7        2.02580   0.01352   0.00000   0.00635   0.00635   2.03215
    A8        1.93858   0.00012   0.00000  -0.00080  -0.00080   1.93779
    A9        1.81541  -0.00005   0.00000  -0.00154  -0.00154   1.81387
   A10        1.89735   0.00027   0.00000  -0.00022  -0.00022   1.89714
   A11        1.94971   0.00001   0.00000   0.00140   0.00140   1.95112
   A12        1.94603  -0.00035   0.00000   0.00031   0.00031   1.94634
   A13        1.91183   0.00003   0.00000   0.00070   0.00070   1.91253
   A14        1.91208   0.00074   0.00000   0.00075   0.00075   1.91283
   A15        1.92672  -0.00010   0.00000  -0.00004  -0.00004   1.92669
   A16        1.93194   0.00081   0.00000   0.00058   0.00058   1.93252
   A17        1.89372  -0.00038   0.00000  -0.00012  -0.00012   1.89360
   A18        1.89193  -0.00084   0.00000  -0.00085  -0.00085   1.89108
   A19        1.90670  -0.00027   0.00000  -0.00036  -0.00036   1.90634
   A20        1.82358   0.00869   0.00000   0.02133   0.02134   1.84492
   A21        2.89355   0.00332   0.00000  -0.03164  -0.03149   2.86206
   A22        3.12113  -0.00453   0.00000  -0.00519  -0.00466   3.11647
    D1       -1.54062  -0.00255   0.00000  -0.00184  -0.00154  -1.54216
    D2        1.69935  -0.00155   0.00000   0.00697   0.00722   1.70657
    D3        1.40149   0.00107   0.00000   0.00629   0.00604   1.40753
    D4       -1.64173   0.00207   0.00000   0.01510   0.01481  -1.62692
    D5        2.89083  -0.00136   0.00000  -0.13800  -0.13698   2.75385
    D6       -0.18698   0.00042   0.00000  -0.13478  -0.13574  -0.32272
    D7        3.13438  -0.00037   0.00000   0.00240   0.00236   3.13673
    D8       -0.02485   0.00057   0.00000  -0.00443  -0.00439  -0.02924
    D9       -1.39359   0.00008   0.00000  -0.00018  -0.00018  -1.39377
   D10        2.78969   0.00003   0.00000  -0.00053  -0.00053   2.78915
   D11        0.75380  -0.00010   0.00000  -0.00046  -0.00046   0.75334
   D12       -3.06756   0.00008   0.00000   0.00045   0.00045  -3.06711
   D13       -0.98316   0.00002   0.00000   0.00075   0.00075  -0.98241
   D14        1.13019   0.00015   0.00000   0.00066   0.00066   1.13086
   D15       -1.04920   0.00011   0.00000  -0.00109  -0.00109  -1.05029
   D16        1.03520   0.00004   0.00000  -0.00079  -0.00079   1.03442
   D17       -3.13463   0.00017   0.00000  -0.00088  -0.00088  -3.13551
   D18        1.09651  -0.00010   0.00000   0.00107   0.00107   1.09757
   D19       -3.10228  -0.00017   0.00000   0.00137   0.00137  -3.10091
   D20       -0.98893  -0.00004   0.00000   0.00128   0.00128  -0.98765
         Item               Value     Threshold  Converged?
 Maximum Force            0.055663     0.000015     NO 
 RMS     Force            0.014175     0.000010     NO 
 Maximum Displacement     0.354812     0.000060     NO 
 RMS     Displacement     0.071419     0.000040     NO 
 Predicted change in Energy=-2.339613D-02
 GradGradGradGradGradGradGradGradGradGradGradGradGradGradGradGradGradGrad

                          Input orientation:                          
 ---------------------------------------------------------------------
 Center     Atomic      Atomic             Coordinates (Angstroms)
 Number     Number       Type             X           Y           Z
 ---------------------------------------------------------------------
      1          6           0        2.946799   -0.446574    0.713613
      2          1           0        3.988189   -0.654753    0.480893
      3          6           0        1.836887   -0.156402    0.155629
      4          6           0        0.495084    0.294368   -0.101603
      5          8           0        0.176212    1.466570   -0.135345
      6          8           0       -0.340426   -0.733618   -0.326006
      7          6           0       -1.723720   -0.394392   -0.590905
      8          6           0       -2.467302   -0.096095    0.697275
      9          1           0       -2.118990   -1.277279   -1.090589
     10          1           0       -1.750700    0.455696   -1.274701
     11          1           0       -3.522607    0.081951    0.478362
     12          1           0       -2.393902   -0.941786    1.383309
     13          1           0       -2.061724    0.794116    1.179838
     14          8           0        2.859208   -0.410814    2.230858
     15          1           0        2.065374    0.108250    2.436001
 ---------------------------------------------------------------------
                    Distance matrix (angstroms):
                    1          2          3          4          5
     1  C    0.000000
     2  H    1.087194   0.000000
     3  C    1.275716   2.232096   0.000000
     4  C    2.687839   3.666322   1.438679   0.000000
     5  O    3.472320   4.405784   2.340202   1.215268   0.000000
     6  O    3.459632   4.403887   2.303441   1.343573   2.268059
     7  C    4.849560   5.817426   3.645802   2.374215   2.698232
     8  C    5.425458   6.483232   4.338555   3.092960   3.181721
     9  H    5.441271   6.336777   4.296322   3.206486   3.702587
    10  H    5.180153   6.103283   3.910408   2.538845   2.456215
    11  H    6.495221   7.546841   5.374490   4.064889   3.996883
    12  H    5.405258   6.451964   4.474774   3.475526   3.835619
    13  H    5.180925   6.260128   4.141456   2.903293   2.681466
    14  O    1.520192   2.096779   2.327326   3.395105   4.040044
    15  H    2.012800   2.846373   2.307021   2.989964   3.467822
                    6          7          8          9         10
     6  O    0.000000
     7  C    1.448705   0.000000
     8  C    2.444819   1.517004   0.000000
     9  H    2.010832   1.088766   2.170938   0.000000
    10  H    2.074454   1.091309   2.169489   1.781218   0.000000
    11  H    3.382075   2.146213   1.092379   2.505844   2.520431
    12  H    2.679899   2.155529   1.091432   2.511634   3.071105
    13  H    2.750346   2.159243   1.090796   3.073889   2.497204
    14  O    4.108457   5.381993   5.551814   6.046919   5.855856
    15  H    3.758364   4.875658   4.859021   5.644948   5.334084
                   11         12         13         14         15
    11  H    0.000000
    12  H    1.772270   0.000000
    13  H    1.770149   1.779072   0.000000
    14  O    6.636387   5.347470   5.174174   0.000000
    15  H    5.921028   4.700625   4.368214   0.970404   0.000000
 Stoichiometry    C5H7O3(2)
 Framework group  C1[X(C5H7O3)]
 Deg. of freedom    39
 Full point group                 C1      NOp   1
 Largest Abelian subgroup         C1      NOp   1
 Largest concise Abelian subgroup C1      NOp   1
                         Standard orientation:                         
 ---------------------------------------------------------------------
 Center     Atomic      Atomic             Coordinates (Angstroms)
 Number     Number       Type             X           Y           Z
 ---------------------------------------------------------------------
      1          6           0       -2.587482   -0.240521   -0.416391
      2          1           0       -3.531935   -0.639342   -0.778249
      3          6           0       -1.356255   -0.548765   -0.287876
      4          6           0        0.021259   -0.596107    0.124447
      5          8           0        0.383238   -1.011350    1.207693
      6          8           0        0.844888   -0.155979   -0.841529
      7          6           0        2.259951   -0.154111   -0.531143
      8          6           0        2.631308    1.053120    0.309089
      9          1           0        2.742254   -0.131168   -1.506985
     10          1           0        2.507792   -1.087310   -0.022547
     11          1           0        3.712285    1.072258    0.465337
     12          1           0        2.338436    1.974091   -0.198123
     13          1           0        2.144108    1.009483    1.284060
     14          8           0       -2.919689    1.097269    0.224657
     15          1           0       -2.193122    1.280774    0.841189
 ---------------------------------------------------------------------
 Rotational constants (GHZ):           4.3527376           1.0104263           0.9723281
 Standard basis: 6-31+G (6D, 7F)
 There are   118 symmetry adapted cartesian basis functions of A   symmetry.
 There are   118 symmetry adapted basis functions of A   symmetry.
   118 basis functions,   236 primitive gaussians,   118 cartesian basis functions
    31 alpha electrons       30 beta electrons
       nuclear repulsion energy       354.6151559843 Hartrees.
 NAtoms=   15 NActive=   15 NUniq=   15 SFac= 1.00D+00 NAtFMM=   60 NAOKFM=F Big=F
 Integral buffers will be    131072 words long.
 Raffenetti 2 integral format.
 Two-electron integral symmetry is turned on.
 One-electron integrals computed using PRISM.
 NBasis=   118 RedAO= T EigKep=  5.53D-06  NBF=   118
 NBsUse=   118 1.00D-06 EigRej= -1.00D+00 NBFU=   118
 Initial guess from the checkpoint file:  "ethyl_propiolate_non_planar.chk"
 B after Tr=     0.000000    0.000000    0.000000
         Rot=    0.999340   -0.036034    0.001504   -0.004398 Ang=  -4.16 deg.
 Initial guess <Sx>= 0.0000 <Sy>= 0.0000 <Sz>= 0.5000 <S**2>= 0.7729 S= 0.5114
 ExpMin= 4.38D-02 ExpMax= 5.48D+03 ExpMxC= 8.25D+02 IAcc=2 IRadAn=         4 AccDes= 0.00D+00
 Harris functional with IExCor= 1009 and IRadAn=       4 diagonalized for initial guess.
 HarFok:  IExCor= 1009 AccDes= 0.00D+00 IRadAn=         4 IDoV= 1 UseB2=F ITyADJ=14
 ICtDFT=  3500011 ScaDFX=  1.000000  1.000000  1.000000  1.000000
 FoFCou: FMM=F IPFlag=           0 FMFlag=      100000 FMFlg1=           0
         NFxFlg=           0 DoJE=T BraDBF=F KetDBF=T FulRan=T
         wScrn=  0.000000 ICntrl=       500 IOpCl=  0 I1Cent=   200000004 NGrid=           0
         NMat0=    1 NMatS0=      1 NMatT0=    0 NMatD0=    1 NMtDS0=    0 NMtDT0=    0
 Petite list used in FoFCou.
 Requested convergence on RMS density matrix=1.00D-08 within 128 cycles.
 Requested convergence on MAX density matrix=1.00D-06.
 Requested convergence on             energy=1.00D-06.
 No special actions if energy rises.
 SCF Done:  E(UM062X) =  -419.993725992     A.U. after   19 cycles
            NFock= 19  Conv=0.52D-08     -V/T= 2.0053
 <Sx>= 0.0000 <Sy>= 0.0000 <Sz>= 0.5000 <S**2>= 0.7706 S= 0.5102
 <L.S>=  0.00000000000    
 Annihilation of the first spin contaminant:
 S**2 before annihilation     0.7706,   after     0.7503
 Calling FoFJK, ICntrl=      2127 FMM=F ISym2X=0 I1Cent= 0 IOpClX= 1 NMat=1 NMatS=1 NMatT=0.
 ***** Axes restored to original set *****
 -------------------------------------------------------------------
 Center     Atomic                   Forces (Hartrees/Bohr)
 Number     Number              X              Y              Z
 -------------------------------------------------------------------
      1        6           0.015918839    0.001991898    0.068882972
      2        1          -0.010616463   -0.001796548   -0.010122706
      3        6          -0.020836035    0.004891947   -0.036524615
      4        6           0.036475026   -0.027612526    0.004621519
      5        8          -0.013243054    0.036340188   -0.000583800
      6        8          -0.003990014   -0.011456235   -0.000862209
      7        6          -0.012569157   -0.001213406   -0.003970006
      8        6          -0.000007008   -0.000012397    0.000012209
      9        1          -0.000084937   -0.000508298   -0.000245829
     10        1          -0.000135050    0.001054352   -0.000600432
     11        1          -0.000993698    0.000329738    0.000307774
     12        1          -0.000037895   -0.000769582    0.000648116
     13        1           0.000012116    0.001194526    0.000743430
     14        8           0.016391285   -0.004995856   -0.031876672
     15        1          -0.006283956    0.002562199    0.009570247
 -------------------------------------------------------------------
 Cartesian Forces:  Max     0.068882972 RMS     0.016599770

 GradGradGradGradGradGradGradGradGradGradGradGradGradGradGradGradGradGrad
 Berny optimization.
 Using GEDIIS/GDIIS optimizer.
 FormGI is forming the generalized inverse of G from B-inverse, IUseBI=4.
 Internal  Forces:  Max     0.038543406 RMS     0.010397885
 Search for a local minimum.
 Step number   3 out of a maximum of   66
 All quantities printed in internal units (Hartrees-Bohrs-Radians)
 Mixed Optimization -- RFO/linear search
 Update second derivatives using D2CorX and points    2    3
 DE= -1.93D-02 DEPred=-2.34D-02 R= 8.25D-01
 TightC=F SS=  1.41D+00  RLast= 3.57D-01 DXNew= 5.0454D-01 1.0699D+00
 Trust test= 8.25D-01 RLast= 3.57D-01 DXMaxT set to 5.05D-01
 ITU=  1  0  0
 Use linear search instead of GDIIS.
     Eigenvalues ---   -0.00608  -0.00029   0.00246   0.00506   0.00720
     Eigenvalues ---    0.02144   0.02253   0.03563   0.04777   0.04878
     Eigenvalues ---    0.04960   0.06376   0.06972   0.07481   0.09749
     Eigenvalues ---    0.10249   0.13077   0.13369   0.13404   0.14016
     Eigenvalues ---    0.17515   0.19914   0.21756   0.24504   0.25754
     Eigenvalues ---    0.28104   0.33103   0.35384   0.35491   0.35606
     Eigenvalues ---    0.35846   0.36105   0.37836   0.39863   0.41560
     Eigenvalues ---    0.52013   0.58919   1.01016   1.26913
 RFO step:  Lambda=-3.03807584D-02 EMin=-6.07976593D-03
 Quartic linear search produced a step of  0.90376.
 Iteration  1 RMS(Cart)=  0.11826149 RMS(Int)=  0.09093998
 Iteration  2 RMS(Cart)=  0.07932594 RMS(Int)=  0.03874468
 Iteration  3 RMS(Cart)=  0.03895194 RMS(Int)=  0.00596568
 Iteration  4 RMS(Cart)=  0.00356902 RMS(Int)=  0.00482753
 Iteration  5 RMS(Cart)=  0.00003396 RMS(Int)=  0.00482743
 Iteration  6 RMS(Cart)=  0.00000042 RMS(Int)=  0.00482743
 Variable       Old X    -DE/DX   Delta X   Delta X   Delta X     New X
                                 (Linear)    (Quad)   (Total)
    R1        2.05450  -0.00766  -0.00423  -0.00808  -0.01231   2.04219
    R2        2.41075   0.02971   0.04199   0.06010   0.10214   2.51289
    R3        2.87275  -0.02294  -0.21579  -0.23554  -0.45144   2.42131
    R4        2.71871  -0.00577  -0.01701  -0.03008  -0.04709   2.67161
    R5        2.29652   0.03854   0.02065   0.03957   0.06022   2.35675
    R6        2.53898   0.02044   0.01473   0.04289   0.05762   2.59661
    R7        2.73766   0.01378   0.01199   0.02878   0.04077   2.77842
    R8        2.86672   0.00210   0.00148   0.00347   0.00496   2.87168
    R9        2.05747   0.00056   0.00041   0.00112   0.00153   2.05900
   R10        2.06228   0.00120   0.00112   0.00256   0.00368   2.06595
   R11        2.06430   0.00095   0.00107   0.00265   0.00371   2.06801
   R12        2.06251   0.00100   0.00087   0.00288   0.00375   2.06626
   R13        2.06131   0.00131   0.00120   0.00287   0.00407   2.06537
   R14        1.83380   0.00860   0.00299   0.01059   0.01367   1.84747
    A1        2.47076  -0.02853  -0.10333  -0.30857  -0.41233   2.05844
    A2        1.84765  -0.00552  -0.00450   0.13062   0.12598   1.97363
    A3        1.96174   0.03410   0.10832   0.18104   0.28935   2.25109
    A4        2.15544   0.00197   0.00065   0.02085   0.02138   2.17682
    A5        1.94993   0.00279   0.00725   0.00881   0.01594   1.96588
    A6        2.17754  -0.00476  -0.00802  -0.03003  -0.03813   2.13941
    A7        2.03215   0.00927   0.00574   0.00889   0.01463   2.04678
    A8        1.93779  -0.00011  -0.00072  -0.00122  -0.00193   1.93585
    A9        1.81387  -0.00010  -0.00139  -0.00380  -0.00518   1.80869
   A10        1.89714   0.00021  -0.00020  -0.00212  -0.00232   1.89482
   A11        1.95112   0.00018   0.00127   0.00488   0.00614   1.95726
   A12        1.94634  -0.00024   0.00028  -0.00078  -0.00051   1.94584
   A13        1.91253   0.00007   0.00063   0.00273   0.00334   1.91587
   A14        1.91283   0.00062   0.00068   0.00321   0.00389   1.91672
   A15        1.92669  -0.00008  -0.00003   0.00023   0.00019   1.92688
   A16        1.93252   0.00049   0.00053  -0.00024   0.00028   1.93281
   A17        1.89360  -0.00030  -0.00011  -0.00282  -0.00293   1.89067
   A18        1.89108  -0.00061  -0.00077  -0.00176  -0.00253   1.88855
   A19        1.90634  -0.00015  -0.00032   0.00129   0.00096   1.90730
   A20        1.84492   0.01449   0.01929   0.14812   0.16708   2.01201
   A21        2.86206   0.00060  -0.02846  -0.02167  -0.05112   2.81094
   A22        3.11647  -0.00370  -0.00421  -0.02983  -0.02241   3.09405
    D1       -1.54216  -0.00321  -0.00140  -0.16369  -0.15605  -1.69822
    D2        1.70657  -0.00196   0.00652  -0.14998  -0.13415   1.57242
[...]
 ! D14   D(6,7,8,13)            65.1956         -DE/DX =    0.0                 !
 ! D15   D(9,7,8,11)           -60.5828         -DE/DX =    0.0                 !
 ! D16   D(9,7,8,12)            58.9263         -DE/DX =    0.0                 !
 ! D17   D(9,7,8,13)           179.9262         -DE/DX =    0.0                 !
 ! D18   D(10,7,8,11)           64.0098         -DE/DX =    0.0                 !
 ! D19   D(10,7,8,12)         -176.4812         -DE/DX =    0.0                 !
 ! D20   D(10,7,8,13)          -55.4813         -DE/DX =    0.0                 !
 --------------------------------------------------------------------------------
 GradGradGradGradGradGradGradGradGradGradGradGradGradGradGradGradGradGrad


 ----------------------------------------------------------------------

 Electric dipole moment (input orientation):
 (Debye = 10**-18 statcoulomb cm , SI units = C m)
                  (au)            (Debye)         (10**-30 SI)
   Tot        0.817237D+00      0.207721D+01      0.692882D+01
   x         -0.700301D+00     -0.177999D+01     -0.593740D+01
   y         -0.274931D+00     -0.698805D+00     -0.233096D+01
   z         -0.319168D+00     -0.811245D+00     -0.270602D+01

 Dipole polarizability, Alpha (input orientation).
 (esu units = cm**3 , SI units = C**2 m**2 J**-1)
 Alpha(0;0):
               (au)            (10**-24 esu)      (10**-40 SI)
   iso        0.691382D+02      0.102452D+02      0.113994D+02
   aniso      0.449948D+02      0.666753D+01      0.741863D+01
   xx         0.924304D+02      0.136968D+02      0.152397D+02
   yx        -0.696347D+00     -0.103188D+00     -0.114812D+00
   yy         0.595596D+02      0.882583D+01      0.982006D+01
   zx         0.149994D+02      0.222268D+01      0.247306D+01
   zy         0.618113D+01      0.915949D+00      0.101913D+01
   zz         0.554246D+02      0.821308D+01      0.913828D+01

 ----------------------------------------------------------------------

 Dipole orientation:
     6          1.21988286          2.80502124         -4.99338909
     1          2.14706978          4.26169711         -6.08642243
     6          1.42222798          2.60208039         -2.48179062
     6          0.25018664          0.72570214         -0.90273907
     8         -1.13006960         -0.96489044         -1.82368245
     8          0.74421655          0.91197887          1.58645584
     6         -0.43490909         -0.94677622          3.29021174
     6         -3.14927185         -0.20927762          3.85243055
     1          0.75925483         -0.87675034          4.96445160
     1         -0.31184710         -2.80673444          2.40415511
     1         -3.95569018         -1.51249639          5.24013021
     1         -3.23043549          1.70269531          4.62804794
     1         -4.29860641         -0.29486767          2.13974371
     8         -0.16982350          1.21157082         -6.47840540
     1         -1.00679367         -0.11526754         -5.46977221

 Electric dipole moment (dipole orientation):
 (Debye = 10**-18 statcoulomb cm , SI units = C m)
                  (au)            (Debye)         (10**-30 SI)
   Tot        0.817237D+00      0.207721D+01      0.692882D+01
   x          0.000000D+00      0.000000D+00      0.000000D+00
   y          0.000000D+00      0.000000D+00      0.000000D+00
   z          0.817237D+00      0.207721D+01      0.692882D+01

 Dipole polarizability, Alpha (dipole orientation).
 (esu units = cm**3 , SI units = C**2 m**2 J**-1)
 Alpha(0;0):
               (au)            (10**-24 esu)      (10**-40 SI)
   iso        0.691382D+02      0.102452D+02      0.113994D+02
   aniso      0.449948D+02      0.666753D+01      0.741863D+01
   xx         0.540450D+02      0.800865D+01      0.891082D+01
   yx         0.889115D+01      0.131753D+01      0.146595D+01
   yy         0.590415D+02      0.874904D+01      0.973462D+01
   zx        -0.415837D+01     -0.616207D+00     -0.685623D+00
   zy        -0.981619D+01     -0.145461D+01     -0.161847D+01
   zz         0.943281D+02      0.139780D+02      0.155526D+02

 ----------------------------------------------------------------------
 1\1\GINC-AJ\Freq\UM062X\6-31+G\C5H7O3(2)\AAYUSH\07-Jun-2025\0\\#N Geom
 =AllCheck Guess=TCheck SCRF=Check GenChk UM062X/6-31+G Freq\\Title Car
 d Required\\0,2\C,2.8766708538,-0.608431848,0.9781653734\H,3.763674244
 3,-1.2236657283,1.0429414457\C,1.7660343789,-0.9791018291,0.3312154844
 \C,0.5514490519,-0.2195079342,0.2023096591\O,0.438890552,0.9176734559,
 0.7175633276\O,-0.4334845916,-0.8073907301,-0.5029873399\C,-1.70445403
 1,-0.0777866758,-0.6513157722\C,-2.5563662991,-0.2385984889,0.59463460
 08\H,-2.1577432804,-0.5408865469,-1.5263649017\H,-1.4759783183,0.97059
 19822,-0.8551156145\H,-3.5299932027,0.2363322615,0.4415158586\H,-2.718
 5925277,-1.2971976431,0.8115193429\H,-2.0761548599,0.2339936837,1.4545
 304483\O,3.0281930281,0.5829827595,1.6315735601\H,2.2162359418,1.14022
 95115,1.5664448174\\Version=ES64L-G16RevA.03\State=2-A\HF=-420.0260765
 \S2=0.76528\S2-1=0.\S2A=0.750082\RMSD=2.021e-09\RMSF=1.075e-06\ZeroPoi
 nt=0.118658\Thermal=0.1270284\Dipole=-0.7003007,-0.2749309,-0.3191683\
 DipoleDeriv=0.726388,0.0381173,0.2571112,0.720587,0.6801468,0.5481177,
 0.6078427,0.2897234,0.5050058,0.0652297,0.0564671,-0.021921,0.0346546,
 0.0874771,-0.0344372,-0.0335828,-0.0267746,0.1605089,-1.1994643,0.0082
 521,-0.3619874,0.1334705,-0.2334144,0.0501985,-0.3364648,0.0007332,-0.
 3490797,2.3412772,-0.0069441,0.6540814,-0.0594616,1.0767645,0.2214532,
 0.7041771,0.3018521,0.8346832,-0.8300531,0.0954901,-0.08922,0.1872819,
 -0.9736674,-0.1681255,-0.0493604,-0.2276166,-0.5251925,-1.7686145,-0.1
 419162,-0.4623012,-0.2086384,-0.5051246,-0.1480102,-0.6186251,-0.14400
 1,-0.6837119,0.9476882,-0.0505935,0.1050651,-0.2266885,0.2622677,-0.08
 68548,0.0887725,0.0044813,0.3697239,-0.1194006,-0.004512,0.0099587,0.0
 341925,0.0458232,0.0393078,0.043492,-0.0183036,-0.1055981,-0.0170103,-
 0.0024259,-0.0389221,-0.0170064,0.0625127,-0.0819774,-0.0563377,-0.045
 8215,-0.0510393,-0.0258076,-0.0623858,0.0246033,0.035797,-0.0414946,0.
 0754008,0.0254545,0.0144507,0.0580906,-0.1072587,0.0722019,-0.0182328,
 0.0964743,0.0642237,0.0216302,-0.0203911,0.0379654,0.0870204,0.1024645
 ,-0.0005171,0.0250072,-0.0588225,-0.096687,0.0524652,0.0314815,0.01292
 27,0.0564929,0.0852832,-0.0508284,-0.0726373,-0.0430276,0.0599821,-0.0
 556809,-0.0358154,-0.0312489,-0.0283804,-0.4942753,0.0079019,0.0218713
 ,-0.7095631,-0.8803132,-0.4536311,-0.3398907,-0.1756851,-0.7316043,0.2
 935535,0.0416926,-0.0324763,0.0807503,0.3915033,0.0201437,-0.0107524,0
 .0073224,0.4030805\Polar=92.4304381,-0.6963472,59.5596241,14.9993634,6
 .1811335,55.4245813\Quadrupole=3.8510222,-2.4007267,-1.4502955,-3.0960
 674,0.1624692,-1.9961862\PG=C01 [X(C5H7O3)]\NImag=0\\0.78664987,-0.081
 55643,0.51408244,0.22593025,0.14762932,0.31534279,-0.26434352,0.146043
 32,-0.01709718,0.27155307,0.13527390,-0.14113829,0.01107963,-0.1522612
 9,0.15890000,-0.02254580,0.01568897,-0.05138557,0.02722814,0.00274557,
 0.03792211,-0.39306349,-0.07845200,-0.17870256,-0.01494532,-0.00703114
 ,-0.01269135,0.68155046,-0.06799814,-0.11277135,-0.05597766,0.01224536
 ,0.00948025,0.00616418,-0.01755071,0.27977370,-0.17372044,-0.06049403,
 -0.15967234,-0.00322400,-0.00185985,0.00513528,0.24799022,0.09887349,0
 .21815410,-0.04531677,-0.00555897,-0.02175486,-0.00068183,-0.00084113,
 -0.00428537,-0.21024608,0.08149075,-0.01650029,0.62844322,0.00090541,0
 .04245937,0.02130778,0.00046310,0.00049199,-0.00386405,0.08516771,-0.1
 2428354,0.01053010,-0.10038428,0.70107031,-0.01860321,0.01879959,0.001
 54521,-0.00359146,-0.00431563,0.00478277,-0.01441981,0.00886601,-0.075
 29058,0.12812184,0.20337821,0.35683589,0.00243726,-0.00801698,-0.00298
 558,0.00009938,0.00057441,0.00058528,-0.00339618,0.04354688,0.01072287
 ,-0.10915491,0.06667965,0.01774723,0.11299879,-0.01727740,-0.01947297,
 -0.01692507,-0.00008409,0.00021933,0.00032276,0.05055480,-0.04529337,-
 0.01251106,0.04428891,-0.47163765,-0.17795719,-0.06046756,0.56462688,-
 0.00754588,-0.01300198,-0.00936320,0.00024259,0.00064192,-0.00016510,0
 .01394834,-0.01533107,0.02062273,0.00744425,-0.16724153,-0.15392753,0.
 00314264,0.23656100,0.15318930,0.00270183,0.01225426,0.00616005,-0.001
 03341,-0.00070842,-0.00032966,-0.05240845,-0.01268342,-0.03270909,-0.2
 2455444,-0.06005162,-0.09529545,0.00964108,-0.03193968,-0.02426400,0.4
 7539438,0.00572206,-0.00385672,-0.00075867,0.00044133,0.00034509,0.000
 83962,0.00960744,0.01203465,0.00539683,-0.03009382,-0.12824260,-0.0445
 2218,-0.04383705,-0.04331377,-0.05291050,-0.00488284,0.28062371,0.0032
 8048,0.00197267,0.00467835,0.00021605,0.00036912,-0.00067544,-0.021244
 33,-0.00395398,-0.00101603,-0.08237686,-0.05792672,-0.12313500,-0.0288
 7463,-0.04752105,-0.01073880,0.15914606,0.09808588,0.19191454,-0.00158
 449,-0.00256143,-0.00220650,0.00010852,-0.00003804,0.00021039,0.007022
 72,-0.00122028,0.00110554,-0.05328802,0.00281243,-0.02280147,0.0027001
 6,0.01167824,0.00848753,-0.13151281,0.02933928,-0.01908235,0.45293159,
 -0.00011876,0.00194111,0.00055386,-0.00035337,-0.00021747,0.00010836,-
 0.00388953,-0.00071379,-0.00528428,-0.00903266,0.02100237,0.00661791,-
 0.00145387,-0.00799677,-0.00190666,0.05525413,-0.11064719,0.00276998,0
 .09339115,0.59736607,-0.00137269,-0.00058898,-0.00004890,0.00010559,0.
 00019806,-0.00058692,-0.00139933,-0.00398560,0.00317003,-0.02983530,0.
 00900584,-0.01007062,0.00010618,0.00440509,-0.00285563,-0.00500675,-0.
 00680374,-0.06535688,0.04348771,0.02978688,0.58144026,0.00042002,0.000
 91941,0.00037295,-0.00010058,-0.00010200,0.00012829,-0.00090689,0.0003
 1533,-0.00171331,0.00235313,0.00340015,0.00567074,-0.00052059,-0.00228
 573,-0.00025690,-0.03877181,0.00474110,0.02540973,-0.10899677,-0.01371
 726,0.04862880,0.56036224,-0.00020448,-0.00045632,-0.00017158,0.000066
 16,0.00005711,-0.00006404,0.00049749,-0.00024901,0.00111895,-0.0025458
 4,-0.00240393,-0.00254544,0.00064980,0.00198482,-0.00007187,0.02192153
 ,0.00171795,-0.01254266,-0.01856302,-0.08907765,0.01766187,-0.00437643
 ,0.59579911,0.00008683,0.00048920,0.00026025,-0.00002248,-0.00004166,0
 .00003962,-0.00014099,0.00001724,-0.00057999,0.00077604,0.00351169,0.0
 0380168,0.00164929,-0.00103681,-0.00139342,-0.00458326,-0.00282327,0.0
 0594953,0.05885619,0.01424009,-0.18240278,0.04684513,0.00790879,0.5347
 7129,-0.00013778,0.00060997,0.00037005,-0.00005996,-0.00002628,-0.0001
 0737,-0.00129201,-0.00081728,-0.00066098,-0.00183561,0.00574386,-0.000
 28554,0.00051899,-0.00076144,-0.00016514,-0.03001660,-0.00912849,-0.02
 666935,-0.09026271,-0.05049929,-0.08720731,0.01008120,0.00872083,0.018
 59810,0.11484566,0.00020147,-0.00028380,-0.00013334,0.00002531,0.00000
 395,0.00007956,0.00059577,0.00077549,0.00014301,0.00251196,-0.00492991
 ,-0.00044848,-0.00191339,0.00190520,-0.00025748,0.01869079,0.00561900,
 0.01719275,-0.05967609,-0.10964526,-0.10252337,0.00133195,0.00311572,0
 .00596328,0.05107749,0.11222941,0.00003340,0.00009822,0.00007370,-0.00
 000355,-0.00000401,-0.00001270,-0.00040091,0.00005853,-0.00014267,0.00
 175050,0.00146130,0.00119723,0.00027984,-0.00008638,0.00036731,-0.0036
 2915,-0.00200723,-0.00143402,-0.09471374,-0.09642927,-0.23204303,-0.00
 974904,-0.01284876,-0.02217639,0.09959241,0.10527165,0.24897832,0.0001
 3018,0.00048945,0.00037808,0.00003411,0.00003547,-0.00010859,-0.000762
 32,-0.00062468,0.00046029,0.00374803,0.00558282,0.00259879,-0.00065239
 ,-0.00243076,-0.00154125,-0.01028885,0.03857781,-0.00984563,-0.0640723
 6,-0.06752813,0.01091972,-0.00279641,-0.01980392,0.00452084,-0.0008730
 4,-0.01303185,0.00379939,0.07643633,-0.00009889,-0.00021148,-0.0001830
 7,0.00000385,-0.00000436,0.00004065,0.00032132,0.00001571,0.00029194,-
 0.00331859,-0.00289506,-0.00262371,-0.00164865,0.00218327,-0.00039264,
 0.00929029,-0.01776428,0.00378019,-0.05697773,-0.30148138,0.04825722,-
 0.00140757,0.00015338,-0.00108920,-0.00365312,-0.01043210,0.00337029,0
 .05782355,0.32886559,-0.00008327,0.00004346,0.00002680,0.00001660,0.00
 000857,-0.00001941,0.00013424,-0.00048068,0.00004542,-0.00034146,0.003
 25644,0.00192302,0.00090504,-0.00153441,-0.00087065,-0.00155965,0.0045
 5905,-0.00068714,0.00934501,0.04317606,-0.06221143,0.00814261,0.028244
 36,-0.00627927,-0.00534236,-0.02599118,0.00650030,-0.01338707,-0.05141
 852,0.06381602,0.00023471,0.00039439,0.00024836,-0.00001724,-0.0000170
 3,0.00001356,-0.00053252,0.00013966,-0.00045464,0.00213067,0.00087645,
 0.00117853,-0.00040799,-0.00068414,0.00003295,-0.00306455,-0.00121460,
 0.00317855,-0.01615278,0.00920144,-0.00653780,-0.26206178,0.10426595,-
 0.03340467,0.00056709,0.00025765,0.00014728,0.00014656,-0.00067662,-0.
 00010697,0.28682634,-0.00006581,-0.00002209,-0.00003231,-0.00001116,-0
 .00000748,0.00001481,0.00010734,0.00004859,-0.00015675,-0.00038019,-0.
 00028478,-0.00022637,-0.00021854,-0.00005843,0.00031942,-0.00073685,0.
 00124432,0.00059329,-0.00399489,0.00049220,0.00009362,0.10487983,-0.09
 913910,0.01716265,0.00010279,0.00006432,-0.00038508,0.00021008,-0.0001
 4744,-0.00034887,-0.11624133,0.10450737,-0.00000463,-0.00021075,-0.000
 08934,0.00003295,0.00003277,-0.00003084,0.00022027,0.00001041,0.000471
 24,-0.00060213,-0.00201236,-0.00248811,-0.00050581,0.00090854,0.000766
 46,0.00750750,0.00025118,-0.00361905,0.02428730,-0.01298914,0.00543762
 ,-0.03547756,0.01840036,-0.05545879,-0.00109619,-0.00061234,0.00066066
 ,-0.00060851,0.00055089,0.00101287,0.03624552,-0.01943180,0.05755701,-
 0.00011205,-0.00017644,-0.00012589,-0.00000799,-0.00000467,0.00001658,
 0.00016133,0.00005505,0.00007451,-0.00109192,-0.00137029,-0.00073224,-
 0.00031183,0.00074557,0.00039794,0.00272346,0.00012213,-0.00136043,-0.
 00532703,-0.02090477,0.00702608,-0.05462866,-0.03729870,0.00537269,0.0
 0047066,0.00061973,-0.00081302,-0.00152321,0.00004457,0.00333289,0.005
 14985,0.03048576,-0.00618023,0.05649648,0.00004372,0.00008933,0.000080
 96,-0.00001078,-0.00000659,0.00000779,-0.00023176,0.00011391,-0.000129
 15,0.00037956,-0.00043294,0.00021041,-0.00040397,0.00025825,0.00019429
 ,-0.00090068,0.00112237,-0.00087453,0.00144616,-0.00320477,-0.00051457
 ,-0.03921612,-0.30734414,0.05031685,-0.00018841,0.00062594,0.00043989,
 0.00044904,0.00131222,0.00022327,-0.00351773,-0.01321180,0.00196508,0.
 04272659,0.33366045,0.00001238,-0.00001484,-0.00000438,-0.00000207,-0.
 00000050,0.00001076,0.00003455,0.00012523,-0.00007866,0.00014279,-0.00
 012199,0.00019132,-0.00037510,-0.00013074,0.00018867,-0.00267061,-0.00
 093606,0.00169627,0.00644984,0.03248613,-0.00853147,0.00667092,0.04713
 474,-0.05987887,-0.00075293,-0.00003722,0.00092032,0.00337286,-0.00057
 783,-0.00423053,0.00066871,0.00447134,-0.00137544,-0.01071283,-0.05594
 822,0.06501868,-0.00021979,-0.00030981,-0.00020613,0.00000514,0.000005
 57,-0.00000086,0.00049215,-0.00018246,0.00018852,-0.00137336,0.0014642
 4,0.00077192,-0.00008892,-0.00104886,-0.00051957,0.00191310,-0.0002378
 4,-0.00165886,0.00818223,0.00947601,0.02090983,-0.10435298,-0.05335175
 ,-0.09848764,-0.00200284,-0.00066557,0.00372411,0.00055256,0.00027797,
 -0.00108487,-0.01277019,-0.01415213,-0.02382912,-0.00202996,-0.0005666
 1,-0.00284779,0.11165693,0.00005821,0.00008562,0.00003466,0.00000485,0
 .00000324,-0.00001408,-0.00006231,-0.00012362,-0.00002681,0.00067183,0
 .00071325,-0.00036012,-0.00023410,-0.00073060,0.00021460,-0.00004000,-
 0.00067877,-0.00032443,0.00249986,0.00269836,0.00440307,-0.05397748,-0
 .10437529,-0.09431425,-0.00094970,0.00085251,0.00113268,0.00064245,0.0
 0021639,0.00028581,0.00746261,0.00648255,0.01301450,-0.01517397,-0.012
 90932,-0.02644276,0.05911335,0.10778144,0.00013195,0.00010490,0.000081
 58,-0.00000513,-0.00000325,0.00001582,-0.00012783,0.00034569,-0.000161
 11,0.00089438,-0.00233658,-0.00136789,-0.00152726,0.00093234,0.0011538
 7,0.00043756,0.00061578,0.00282167,-0.01437910,-0.01279691,-0.02649270
 ,-0.09435456,-0.09241932,-0.21646100,0.00383053,0.00133543,-0.00283429
 ,-0.00035424,-0.00009446,0.00097615,-0.00106027,-0.00208650,-0.0029228
 2,0.00363358,0.00407325,0.00608701,0.10291054,0.10241034,0.23915052,-0
 .09786863,0.01540326,-0.01442548,0.00753299,0.02759520,0.01424287,-0.0
 0208480,-0.03574523,-0.02756190,0.00208892,0.00968377,0.00599169,-0.01
 257497,-0.00410772,-0.00795886,-0.00213954,-0.00309086,-0.00219887,0.0
 0124227,-0.00033194,0.00040222,-0.00015483,0.00015141,0.00000442,-0.00
 006185,-0.00010636,-0.00004180,0.00000955,0.00005424,0.00014953,-0.000
 11846,0.00002500,0.00000513,0.00004063,-0.00004554,-0.00001394,0.00014
 359,-0.00002964,-0.00009956,0.41314650,-0.00748764,-0.24734549,-0.1033
 3755,-0.00464747,-0.02640102,-0.01811065,-0.04355879,-0.01964823,-0.03
 851488,0.03140468,-0.03084723,-0.00179931,0.00268130,0.02382895,0.0120
 1658,-0.00775409,0.00183411,-0.00203785,0.00237124,-0.00091154,0.00078
 297,-0.00069869,0.00035505,-0.00037609,-0.00032790,0.00008504,-0.00009
 291,-0.00043060,0.00021189,0.00000853,-0.00034987,0.00003047,0.0001223
 8,0.00017845,-0.00006781,0.00000868,0.00028751,-0.00009917,-0.00011688
 ,-0.17125781,0.45824258,-0.02556939,-0.09377364,-0.10247852,-0.0017985
 8,-0.00464796,0.00329291,-0.03165690,-0.03530271,-0.00916624,0.0169043
 5,-0.01067264,0.00096798,-0.00466769,0.00927118,0.00425708,-0.00446586
 ,-0.00010955,-0.00257006,0.00179256,-0.00044394,0.00047713,-0.00041274
 ,0.00018787,-0.00023170,-0.00019548,0.00001535,-0.00005160,-0.00021760
 ,0.00005987,0.00003202,-0.00020006,0.00001755,0.00010659,0.00007247,-0
 .00009029,-0.00000547,0.00014126,-0.00000410,-0.00009156,0.07348472,0.
 13697038,0.13444608,0.01007265,0.00051802,0.00404443,0.00185664,-0.002
 45456,-0.00235609,-0.00958860,-0.00097084,-0.00399731,0.00877896,-0.02
 097339,-0.00635156,-0.00128789,0.01381985,0.00855536,0.00141662,0.0039
 3433,0.00208045,-0.00099052,0.00050685,-0.00022694,0.00007471,-0.00012
 903,-0.00007048,0.00005879,0.00008115,0.00002430,-0.00008872,-0.000034
 63,-0.00012028,0.00007028,-0.00000990,0.00000551,-0.00000978,0.0000365
 3,0.00002323,-0.00010765,0.00001403,0.00006941,-0.30920136,0.19958966,
 -0.02321106,0.29894587,0.03260274,-0.03309935,-0.00316696,-0.00192511,
 -0.00172573,-0.00395945,0.00392438,0.00084062,0.00262250,-0.00859221,0
 .00022034,-0.00307370,0.00406207,-0.00650313,0.00116593,0.00228660,-0.
 00003786,0.00041734,-0.00050689,0.00039573,-0.00017837,0.00019349,-0.0
 0013768,0.00007149,0.00009698,0.00001450,0.00002108,0.00003927,-0.0000
 2234,-0.00003190,0.00010316,0.00000131,0.00000027,-0.00004903,-0.00000
 512,-0.00001596,-0.00010962,0.00008340,0.00003617,0.16180223,-0.159267
 61,-0.00147736,-0.19392808,0.19924291,0.01997003,-0.01674211,0.0010335
 6,-0.00209746,-0.00420279,0.00167669,-0.00154362,0.00057092,-0.0014911
 9,-0.00033787,-0.00827548,-0.00496539,0.00379769,0.00530180,-0.0012310
 9,0.00126230,0.00112286,0.00217206,-0.00083890,0.00011093,0.00007531,0
 .00009495,0.00000674,0.00003984,0.00009155,0.00000239,-0.00000313,0.00
 001294,0.00002838,-0.00003419,0.00005098,-0.00000500,-0.00002807,-0.00
 000211,0.00004498,-0.00000820,-0.00001135,-0.00000912,0.00004473,-0.04
 198015,0.01447659,-0.02898465,0.02153104,0.00756892,0.03170371\\-0.000
 00022,-0.00000191,0.00000161,-0.00000065,-0.00000059,0.00000139,-0.000
 00227,-0.00000173,0.00000022,0.00000087,0.00000132,0.00000189,0.000001
 05,-0.00000118,-0.00000084,-0.00000023,-0.00000095,-0.00000054,0.00000
 046,-0.00000018,-0.00000044,-0.00000018,0.00000124,-0.00000069,0.00000
 035,-0.00000048,-0.00000030,0.00000079,-0.00000037,-0.00000119,0.00000
 013,0.00000149,-0.00000119,-0.00000055,0.00000143,0.00000007,-0.000000
 05,0.00000156,-0.00000076,-0.00000098,0.00000179,0.00000126,0.00000149
 ,-0.00000144,-0.00000048\\\@


 WHEN ALL ELSE FAILS, TRY THE BOSS'S SUGGESTION.
 Job cpu time:       0 days  0 hours 12 minutes 50.8 seconds.
 Elapsed time:       0 days  0 hours  0 minutes 32.2 seconds.
 File lengths (MBytes):  RWF=     60 Int=      0 D2E=      0 Chk=      3 Scr=      1
 Normal termination of Gaussian 16 at Sat Jun  7 12:23:22 2025.
