 Entering Gaussian System, Link 0=g16
 Initial command:
 /opt/g16/l1.exe "/home/loki/Research/Transition_states/Addition/ts4_irc_points/Gau-444087.inp" -scrdir="/home/loki/Research/Transition_states/Addition/ts4_irc_points/"
 Entering Link 1 = /opt/g16/l1.exe PID=    444090.
  
 Copyright (c) 1988,1990,1992,1993,1995,1998,2003,2009,2016,
            Gaussian, Inc.  All Rights Reserved.
  
 This is part of the Gaussian(R) 16 program.  It is based on
 the Gaussian(R) 09 system (copyright 2009, Gaussian, Inc.),
 the Gaussian(R) 03 system (copyright 2003, Gaussian, Inc.),
 the Gaussian(R) 98 system (copyright 1998, Gaussian, Inc.),
 the Gaussian(R) 94 system (copyright 1995, Gaussian, Inc.),
 the Gaussian 92(TM) system (copyright 1992, Gaussian, Inc.),
 the Gaussian 90(TM) system (copyright 1990, Gaussian, Inc.),
 the Gaussian 88(TM) system (copyright 1988, Gaussian, Inc.),
 the Gaussian 86(TM) system (copyright 1986, Carnegie Mellon
 University), and the Gaussian 82(TM) system (copyright 1983,
 Carnegie Mellon University). Gaussian is a federally registered
 trademark of Gaussian, Inc.
  
 This software contains proprietary and confidential information,
 including trade secrets, belonging to Gaussian, Inc.
  
 This software is provided under written license and may be
 used, copied, transmitted, or stored only in accord with that
 written license.
  
 The following legend is applicable only to US Government
 contracts under FAR:
  
                    RESTRICTED RIGHTS LEGEND
  
 Use, reproduction and disclosure by the US Government is
 subject to restrictions as set forth in subparagraphs (a)
 and (c) of the Commercial Computer Software - Restricted
 Rights clause in FAR 52.227-19.
  
 Gaussian, Inc.
 340 Quinnipiac St., Bldg. 40, Wallingford CT 06492
  
  
 ---------------------------------------------------------------
 Warning -- This program may not be used in any manner that
 competes with the business of Gaussian, Inc. or will provide
 assistance to any competitor of Gaussian, Inc.  The licensee
 of this program is prohibited from giving any competitor of
 Gaussian, Inc. access to this program.  By using this program,
 the user acknowledges that Gaussian, Inc. is engaged in the
 business of creating and licensing software in the field of
 computational chemistry and represents and warrants to the
 licensee that it is not a competitor of Gaussian, Inc. and that
 it will not use this program in any manner prohibited above.
 ---------------------------------------------------------------
  

 Cite this work as:
 Gaussian 16, Revision A.03,
 M. J. Frisch, G. W. Trucks, H. B. Schlegel, G. E. Scuseria, 
 M. A. Robb, J. R. Cheeseman, G. Scalmani, V. Barone, 
 G. A. Petersson, H. Nakatsuji, X. Li, M. Caricato, A. V. Marenich, 
 J. Bloino, B. G. Janesko, R. Gomperts, B. Mennucci, H. P. Hratchian, 
 J. V. Ortiz, A. F. Izmaylov, J. L. Sonnenberg, D. Williams-Young, 
 F. Ding, F. Lipparini, F. Egidi, J. Goings, B. Peng, A. Petrone, 
 T. Henderson, D. Ranasinghe, V. G. Zakrzewski, J. Gao, N. Rega, 
 G. Zheng, W. Liang, M. Hada, M. Ehara, K. Toyota, R. Fukuda, 
 J. Hasegawa, M. Ishida, T. Nakajima, Y. Honda, O. Kitao, H. Nakai, 
 T. Vreven, K. Throssell, J. A. Montgomery, Jr., J. E. Peralta, 
 F. Ogliaro, M. J. Bearpark, J. J. Heyd, E. N. Brothers, K. N. Kudin, 
 V. N. Staroverov, T. A. Keith, R. Kobayashi, J. Normand, 
 K. Raghavachari, A. P. Rendell, J. C. Burant, S. S. Iyengar, 
 J. Tomasi, M. Cossi, J. M. Millam, M. Klene, C. Adamo, R. Cammi, 
 J. W. Ochterski, R. L. Martin, K. Morokuma, O. Farkas, 
 J. B. Foresman, and D. J. Fox, Gaussian, Inc., Wallingford CT, 2016.
 
 ******************************************
 Gaussian 16:  ES64L-G16RevA.03 25-Dec-2016
                28-Mar-2025 
 ******************************************
 %chk=ethyl_propiolate.chk
 %nprocshared=6
 Will use up to    6 processors via shared memory.
 %mem=12GB
 --------------------------
 # freq 6-311++g(d,p) m062x
 --------------------------
 1/10=4,30=1,38=1/1,3;
 2/12=2,17=6,18=5,40=1/2;
 3/5=4,6=6,7=1111,11=2,25=1,30=1,71=2,74=-55,140=1/1,2,3;
 4//1;
 5/5=2,38=5,98=1/2;
 8/6=4,10=90,11=11/1;
 11/6=1,8=1,9=11,15=111,16=1/1,2,10;
 10/6=1/2;
 6/7=2,8=2,9=2,10=2,28=1/1;
 7/8=1,10=1,25=1/1,2,3,16;
 1/10=4,30=1/3;
 99//99;
 -------------------
 Title Card Required
 -------------------
 Symbolic Z-matrix:
 Charge =  0 Multiplicity = 2
 C                    -1.74548  -0.11216   1.11233 
 H                    -2.56851  -0.57614   1.60392 
 C                    -0.80174   0.4206    0.59083 
 C                     0.33388   1.12731  -0.0112 
 O                     0.40508   2.32017   0.01763 
 O                     1.2698    0.37857  -0.59377 
 C                     1.18798  -1.06202  -0.581 
 C                     1.75877  -1.62533   0.70496 
 H                     0.15461  -1.37499  -0.74439 
 H                     1.78314  -1.3625   -1.44186 
 H                     2.78267  -1.27809   0.84983 
 H                     1.15963  -1.32536   1.56642 
 H                     1.76366  -2.71606   0.65729 
 O                    -2.38301  -1.19324  -0.86003 
 H                    -2.56933  -0.35715  -1.31914 
 

 GradGradGradGradGradGradGradGradGradGradGradGradGradGradGradGradGradGrad
 Berny optimization.
 Initialization pass.
 Trust Radius=3.00D-01 FncErr=1.00D-07 GrdErr=1.00D-07 EigMax=2.50D+02 EigMin=1.00D-04
 Number of steps in this run=      2 maximum allowed number of steps=      2.
 GradGradGradGradGradGradGradGradGradGradGradGradGradGradGradGradGradGrad

                          Input orientation:                          
 ---------------------------------------------------------------------
 Center     Atomic      Atomic             Coordinates (Angstroms)
 Number     Number       Type             X           Y           Z
 ---------------------------------------------------------------------
      1          6           0       -1.745480   -0.112164    1.112325
      2          1           0       -2.568508   -0.576139    1.603919
      3          6           0       -0.801742    0.420601    0.590833
      4          6           0        0.333878    1.127309   -0.011203
      5          8           0        0.405080    2.320172    0.017629
      6          8           0        1.269804    0.378568   -0.593773
      7          6           0        1.187975   -1.062018   -0.580997
      8          6           0        1.758774   -1.625334    0.704963
      9          1           0        0.154607   -1.374985   -0.744393
     10          1           0        1.783143   -1.362501   -1.441856
     11          1           0        2.782671   -1.278090    0.849827
     12          1           0        1.159632   -1.325361    1.566422
     13          1           0        1.763659   -2.716061    0.657293
     14          8           0       -2.383010   -1.193236   -0.860029
     15          1           0       -2.569326   -0.357145   -1.319143
 ---------------------------------------------------------------------
                    Distance matrix (angstroms):
                    1          2          3          4          5
     1  C    0.000000
     2  H    1.065041   0.000000
     3  C    1.202678   2.267443   0.000000
     4  C    2.668771   3.732854   1.466805   0.000000
     5  O    3.426299   4.443778   2.322359   1.195334   0.000000
     6  O    3.499075   4.524815   2.386705   1.332651   2.211648
     7  C    3.517772   4.372768   2.744143   2.418119   3.522852
     8  C    3.838675   4.542499   3.279500   3.181237   4.227521
     9  H    2.941505   3.683487   2.433426   2.613653   3.781217
    10  H    4.531927   5.369542   3.740710   3.216565   4.194191
    11  H    4.683208   5.449450   3.975003   3.538913   4.392378
    12  H    3.180837   3.802863   2.801276   3.030901   4.032123
    13  H    4.393335   4.923722   4.052696   4.154835   5.255335
    14  O    2.337807   2.546813   2.685122   3.672454   4.570313
    15  H    2.578910   2.931254   2.716109   3.513247   4.219251
                    6          7          8          9         10
     6  O    0.000000
     7  C    1.442965   0.000000
     8  C    2.437505   1.515529   0.000000
     9  H    2.083578   1.092015   2.176387   0.000000
    10  H    2.003518   1.088849   2.162986   1.771649   0.000000
    11  H    2.667820   2.153369   1.090839   3.075329   2.501598
    12  H    2.753535   2.163692   1.091360   2.520398   3.072439
    13  H    3.374283   2.144908   1.091779   2.520368   2.497785
    14  O    3.985538   3.584273   4.448627   2.546744   4.209989
    15  H    3.975721   3.893458   4.943456   2.964144   4.468757
                   11         12         13         14         15
    11  H    0.000000
    12  H    1.774824   0.000000
    13  H    1.772912   1.767883   0.000000
    14  O    5.441973   4.295979   4.670774   0.000000
    15  H    5.847772   4.813424   5.314654   0.971878   0.000000
 Stoichiometry    C5H7O3(2)
 Framework group  C1[X(C5H7O3)]
 Deg. of freedom    39
 Full point group                 C1      NOp   1
 Largest Abelian subgroup         C1      NOp   1
 Largest concise Abelian subgroup C1      NOp   1
                         Standard orientation:                         
 ---------------------------------------------------------------------
 Center     Atomic      Atomic             Coordinates (Angstroms)
 Number     Number       Type             X           Y           Z
 ---------------------------------------------------------------------
      1          6           0       -1.753915    0.029244    1.121998
      2          1           0       -2.581220   -0.403208    1.634702
      3          6           0       -0.804788    0.527004    0.576262
      4          6           0        0.339009    1.192240   -0.056750
      5          8           0        0.436151    2.383611   -0.061256
      6          8           0        1.252102    0.407784   -0.628457
      7          6           0        1.139474   -1.029803   -0.575484
      8          6           0        1.712268   -1.570396    0.719312
      9          1           0        0.097868   -1.324489   -0.719403
     10          1           0        1.718456   -1.366381   -1.434022
     11          1           0        2.744937   -1.241749    0.843871
     12          1           0        1.129309   -1.234224    1.578506
     13          1           0        1.693177   -2.661861    0.701399
     14          8           0       -2.436383   -1.090689   -0.813287
     15          1           0       -2.609768   -0.263475   -1.293081
 ---------------------------------------------------------------------
 Rotational constants (GHZ):           2.0708331           1.6474686           1.1563906
 Standard basis: 6-311++G(d,p) (5D, 7F)
 There are   233 symmetry adapted cartesian basis functions of A   symmetry.
 There are   225 symmetry adapted basis functions of A   symmetry.
   225 basis functions,   351 primitive gaussians,   233 cartesian basis functions
    31 alpha electrons       30 beta electrons
       nuclear repulsion energy       354.4031661023 Hartrees.
 NAtoms=   15 NActive=   15 NUniq=   15 SFac= 1.00D+00 NAtFMM=   60 NAOKFM=F Big=F
 Integral buffers will be    131072 words long.
 Raffenetti 2 integral format.
 Two-electron integral symmetry is turned on.
 One-electron integrals computed using PRISM.
 NBasis=   225 RedAO= T EigKep=  1.34D-06  NBF=   225
 NBsUse=   225 1.00D-06 EigRej= -1.00D+00 NBFU=   225
 ExpMin= 3.60D-02 ExpMax= 8.59D+03 ExpMxC= 1.30D+03 IAcc=3 IRadAn=         5 AccDes= 0.00D+00
 Harris functional with IExCor= 1009 and IRadAn=       5 diagonalized for initial guess.
 HarFok:  IExCor= 1009 AccDes= 0.00D+00 IRadAn=         5 IDoV= 1 UseB2=F ITyADJ=14
 ICtDFT=  3500011 ScaDFX=  1.000000  1.000000  1.000000  1.000000
 FoFCou: FMM=F IPFlag=           0 FMFlag=      100000 FMFlg1=           0
         NFxFlg=           0 DoJE=T BraDBF=F KetDBF=T FulRan=T
         wScrn=  0.000000 ICntrl=       500 IOpCl=  0 I1Cent=   200000004 NGrid=           0
         NMat0=    1 NMatS0=      1 NMatT0=    0 NMatD0=    1 NMtDS0=    0 NMtDT0=    0
 Petite list used in FoFCou.
 Initial guess <Sx>= 0.0000 <Sy>= 0.0000 <Sz>= 0.5000 <S**2>= 0.7500 S= 0.5000
 Keep R1 and R2 ints in memory in canonical form, NReq=652863693.
 Requested convergence on RMS density matrix=1.00D-08 within 128 cycles.
 Requested convergence on MAX density matrix=1.00D-06.
 Requested convergence on             energy=1.00D-06.
 No special actions if energy rises.
 SCF Done:  E(UM062X) =  -420.202027925     A.U. after   24 cycles
            NFock= 24  Conv=0.53D-08     -V/T= 2.0032
 <Sx>= 0.0000 <Sy>= 0.0000 <Sz>= 0.5000 <S**2>= 0.7567 S= 0.5033
 <L.S>=  0.00000000000    
 Annihilation of the first spin contaminant:
 S**2 before annihilation     0.7567,   after     0.7500
 DoSCS=F DFT=T ScalE2(SS,OS)=  1.000000  1.000000
 Range of M.O.s used for correlation:     1   225
 NBasis=   225 NAE=    31 NBE=    30 NFC=     0 NFV=     0
 NROrb=    225 NOA=    31 NOB=    30 NVA=   194 NVB=   195

 **** Warning!!: The largest alpha MO coefficient is  0.28647040D+03


 **** Warning!!: The largest beta MO coefficient is  0.28694113D+03

 Symmetrizing basis deriv contribution to polar:
 IMax=3 JMax=2 DiffMx= 0.00D+00
 G2DrvN: will do    16 centers at a time, making    1 passes.
 Calling FoFCou, ICntrl=  3107 FMM=F I1Cent=   0 AccDes= 0.00D+00.
 End of G2Drv F.D. properties file   721 does not exist.
 End of G2Drv F.D. properties file   722 does not exist.
 End of G2Drv F.D. properties file   788 does not exist.
          IDoAtm=111111111111111
          Differentiating once with respect to electric field.
                with respect to dipole field.
          Differentiating once with respect to nuclear coordinates.
 Keep R1 and R2 ints in memory in canonical form, NReq=652870569.
          There are    48 degrees of freedom in the 1st order CPHF.  IDoFFX=6 NUNeed=     3.
     45 vectors produced by pass  0 Test12= 2.47D-14 2.08D-09 XBig12= 8.04D+01 2.48D+00.
 AX will form    45 AO Fock derivatives at one time.
     45 vectors produced by pass  1 Test12= 2.47D-14 2.08D-09 XBig12= 1.52D+01 4.50D-01.
     45 vectors produced by pass  2 Test12= 2.47D-14 2.08D-09 XBig12= 6.03D-01 1.09D-01.
     45 vectors produced by pass  3 Test12= 2.47D-14 2.08D-09 XBig12= 8.00D-03 1.43D-02.
     45 vectors produced by pass  4 Test12= 2.47D-14 2.08D-09 XBig12= 7.86D-05 1.53D-03.
     45 vectors produced by pass  5 Test12= 2.47D-14 2.08D-09 XBig12= 7.37D-07 1.17D-04.
     40 vectors produced by pass  6 Test12= 2.47D-14 2.08D-09 XBig12= 4.99D-09 7.29D-06.
     19 vectors produced by pass  7 Test12= 2.47D-14 2.08D-09 XBig12= 3.21D-11 6.09D-07.
      4 vectors produced by pass  8 Test12= 2.47D-14 2.08D-09 XBig12= 3.01D-13 4.60D-08.
      3 vectors produced by pass  9 Test12= 2.47D-14 2.08D-09 XBig12= 3.82D-15 6.07D-09.
      2 vectors produced by pass 10 Test12= 2.47D-14 2.08D-09 XBig12= 1.95D-15 7.73D-09.
 InvSVY:  IOpt=1 It=  1 EMax= 8.88D-15
 Solved reduced A of dimension   338 with    48 vectors.
 Isotropic polarizability for W=    0.000000       71.35 Bohr**3.
 End of Minotr F.D. properties file   721 does not exist.
 End of Minotr F.D. properties file   722 does not exist.
 End of Minotr F.D. properties file   788 does not exist.

 **********************************************************************

            Population analysis using the SCF density.

 **********************************************************************

 Orbital symmetries:
 Alpha Orbitals:
       Occupied  (A) (A) (A) (A) (A) (A) (A) (A) (A) (A) (A) (A)
                 (A) (A) (A) (A) (A) (A) (A) (A) (A) (A) (A) (A)
                 (A) (A) (A) (A) (A) (A) (A)
       Virtual   (A) (A) (A) (A) (A) (A) (A) (A) (A) (A) (A) (A)
                 (A) (A) (A) (A) (A) (A) (A) (A) (A) (A) (A) (A)
                 (A) (A) (A) (A) (A) (A) (A) (A) (A) (A) (A) (A)
                 (A) (A) (A) (A) (A) (A) (A) (A) (A) (A) (A) (A)
                 (A) (A) (A) (A) (A) (A) (A) (A) (A) (A) (A) (A)
                 (A) (A) (A) (A) (A) (A) (A) (A) (A) (A) (A) (A)
                 (A) (A) (A) (A) (A) (A) (A) (A) (A) (A) (A) (A)
                 (A) (A) (A) (A) (A) (A) (A) (A) (A) (A) (A) (A)
                 (A) (A) (A) (A) (A) (A) (A) (A) (A) (A) (A) (A)
                 (A) (A) (A) (A) (A) (A) (A) (A) (A) (A) (A) (A)
                 (A) (A) (A) (A) (A) (A) (A) (A) (A) (A) (A) (A)
                 (A) (A) (A) (A) (A) (A) (A) (A) (A) (A) (A) (A)
                 (A) (A) (A) (A) (A) (A) (A) (A) (A) (A) (A) (A)
                 (A) (A) (A) (A) (A) (A) (A) (A) (A) (A) (A) (A)
                 (A) (A) (A) (A) (A) (A) (A) (A) (A) (A) (A) (A)
                 (A) (A) (A) (A) (A) (A) (A) (A) (A) (A) (A) (A)
                 (A) (A)
 Beta  Orbitals:
       Occupied  (A) (A) (A) (A) (A) (A) (A) (A) (A) (A) (A) (A)
                 (A) (A) (A) (A) (A) (A) (A) (A) (A) (A) (A) (A)
                 (A) (A) (A) (A) (A) (A)
       Virtual   (A) (A) (A) (A) (A) (A) (A) (A) (A) (A) (A) (A)
                 (A) (A) (A) (A) (A) (A) (A) (A) (A) (A) (A) (A)
                 (A) (A) (A) (A) (A) (A) (A) (A) (A) (A) (A) (A)
                 (A) (A) (A) (A) (A) (A) (A) (A) (A) (A) (A) (A)
                 (A) (A) (A) (A) (A) (A) (A) (A) (A) (A) (A) (A)
                 (A) (A) (A) (A) (A) (A) (A) (A) (A) (A) (A) (A)
                 (A) (A) (A) (A) (A) (A) (A) (A) (A) (A) (A) (A)
                 (A) (A) (A) (A) (A) (A) (A) (A) (A) (A) (A) (A)
                 (A) (A) (A) (A) (A) (A) (A) (A) (A) (A) (A) (A)
                 (A) (A) (A) (A) (A) (A) (A) (A) (A) (A) (A) (A)
                 (A) (A) (A) (A) (A) (A) (A) (A) (A) (A) (A) (A)
                 (A) (A) (A) (A) (A) (A) (A) (A) (A) (A) (A) (A)
                 (A) (A) (A) (A) (A) (A) (A) (A) (A) (A) (A) (A)
                 (A) (A) (A) (A) (A) (A) (A) (A) (A) (A) (A) (A)
                 (A) (A) (A) (A) (A) (A) (A) (A) (A) (A) (A) (A)
                 (A) (A) (A) (A) (A) (A) (A) (A) (A) (A) (A) (A)
                 (A) (A) (A)
 The electronic state is 2-A.
 Alpha  occ. eigenvalues --  -19.68963 -19.68305 -19.63046 -10.71036 -10.61036
 Alpha  occ. eigenvalues --  -10.58873 -10.58366 -10.54405  -1.25373  -1.16828
 Alpha  occ. eigenvalues --   -1.14608  -0.90375  -0.88473  -0.77573  -0.73990
 Alpha  occ. eigenvalues --   -0.64342  -0.62243  -0.58420  -0.57004  -0.56663
 Alpha  occ. eigenvalues --   -0.53177  -0.51369  -0.49578  -0.47320  -0.46021
 Alpha  occ. eigenvalues --   -0.44310  -0.42150  -0.39814  -0.38652  -0.37469
 Alpha  occ. eigenvalues --   -0.36142
 Alpha virt. eigenvalues --   -0.02330  -0.00907   0.00457   0.00808   0.02206
 Alpha virt. eigenvalues --    0.02334   0.03775   0.04375   0.05656   0.05986
 Alpha virt. eigenvalues --    0.06686   0.07828   0.08577   0.08983   0.09571
 Alpha virt. eigenvalues --    0.10711   0.11118   0.11767   0.12280   0.13371
 Alpha virt. eigenvalues --    0.13580   0.14038   0.14256   0.15204   0.15980
 Alpha virt. eigenvalues --    0.16815   0.17340   0.18104   0.19154   0.19417
 Alpha virt. eigenvalues --    0.20084   0.21095   0.22451   0.23706   0.23862
 Alpha virt. eigenvalues --    0.24934   0.26287   0.27274   0.27616   0.29348
 Alpha virt. eigenvalues --    0.30065   0.30801   0.31688   0.32408   0.33406
 Alpha virt. eigenvalues --    0.34315   0.35146   0.35875   0.36792   0.38967
 Alpha virt. eigenvalues --    0.39986   0.42092   0.45200   0.46269   0.50253
 Alpha virt. eigenvalues --    0.51354   0.52017   0.54557   0.56928   0.57879
 Alpha virt. eigenvalues --    0.61030   0.61377   0.62620   0.64328   0.67209
 Alpha virt. eigenvalues --    0.67736   0.69102   0.70971   0.71854   0.72446
 Alpha virt. eigenvalues --    0.73467   0.75877   0.76920   0.78754   0.81888
 Alpha virt. eigenvalues --    0.85707   0.86162   0.91056   0.96834   1.01220
 Alpha virt. eigenvalues --    1.02196   1.04339   1.06203   1.07470   1.10352
 Alpha virt. eigenvalues --    1.11438   1.15757   1.18113   1.20367   1.22155
 Alpha virt. eigenvalues --    1.24207   1.24679   1.27781   1.29642   1.32568
 Alpha virt. eigenvalues --    1.33045   1.33793   1.35951   1.41610   1.42837
 Alpha virt. eigenvalues --    1.44962   1.45772   1.48107   1.50329   1.53535
 Alpha virt. eigenvalues --    1.58463   1.59982   1.61669   1.62054   1.64326
 Alpha virt. eigenvalues --    1.65455   1.69321   1.70488   1.71579   1.75159
 Alpha virt. eigenvalues --    1.77926   1.79402   1.81673   1.83550   1.86434
 Alpha virt. eigenvalues --    1.91149   1.94161   1.99503   2.00882   2.04520
 Alpha virt. eigenvalues --    2.07320   2.09468   2.13730   2.20240   2.30626
 Alpha virt. eigenvalues --    2.34682   2.41310   2.47952   2.50691   2.50974
 Alpha virt. eigenvalues --    2.54545   2.55380   2.57637   2.62293   2.63513
 Alpha virt. eigenvalues --    2.65240   2.68186   2.70388   2.74017   2.74421
 Alpha virt. eigenvalues --    2.80101   2.81572   2.83846   2.88468   2.90622
 Alpha virt. eigenvalues --    2.92386   2.94287   2.98383   3.01396   3.04225
 Alpha virt. eigenvalues --    3.07392   3.10209   3.13588   3.14789   3.15622
 Alpha virt. eigenvalues --    3.24168   3.26330   3.32379   3.35840   3.40474
 Alpha virt. eigenvalues --    3.43272   3.53459   3.63985   3.76083   3.84309
 Alpha virt. eigenvalues --    3.84696   3.85713   3.87846   4.03731   4.13770
 Alpha virt. eigenvalues --    4.15768   4.30579   5.08520   5.10331   5.15215
 Alpha virt. eigenvalues --    5.16803   5.27672   5.43029   5.52472   5.68936
 Alpha virt. eigenvalues --    5.98277  23.62281  23.92120  23.94477  24.04673
 Alpha virt. eigenvalues --   25.13775  49.92434  49.99327  50.12778
  Beta  occ. eigenvalues --  -19.68304 -19.67389 -19.63013 -10.71047 -10.61037
  Beta  occ. eigenvalues --  -10.58867 -10.58272 -10.54404  -1.25345  -1.16761
  Beta  occ. eigenvalues --   -1.07025  -0.89928  -0.88467  -0.77516  -0.73914
  Beta  occ. eigenvalues --   -0.64254  -0.62113  -0.58344  -0.56868  -0.53634
  Beta  occ. eigenvalues --   -0.53086  -0.49650  -0.47261  -0.46002  -0.42585
  Beta  occ. eigenvalues --   -0.40624  -0.40128  -0.39069  -0.37641  -0.36696
  Beta virt. eigenvalues --   -0.10220  -0.01895  -0.00637   0.00624   0.01067
  Beta virt. eigenvalues --    0.02337   0.02433   0.03960   0.04503   0.05844
  Beta virt. eigenvalues --    0.06089   0.06751   0.07926   0.08884   0.09077
  Beta virt. eigenvalues --    0.09946   0.10705   0.11302   0.11792   0.12366
  Beta virt. eigenvalues --    0.13549   0.13694   0.14143   0.14337   0.15291
  Beta virt. eigenvalues --    0.16222   0.16831   0.17455   0.18227   0.19308
  Beta virt. eigenvalues --    0.19580   0.20230   0.21165   0.22356   0.23311
  Beta virt. eigenvalues --    0.23939   0.24643   0.26451   0.27421   0.27686
  Beta virt. eigenvalues --    0.29455   0.30216   0.30914   0.31802   0.32458
  Beta virt. eigenvalues --    0.33455   0.34332   0.35103   0.35907   0.36802
  Beta virt. eigenvalues --    0.39131   0.40132   0.42260   0.45230   0.46276
  Beta virt. eigenvalues --    0.50299   0.51383   0.52106   0.54656   0.57551
  Beta virt. eigenvalues --    0.58219   0.61053   0.61717   0.62622   0.64479
  Beta virt. eigenvalues --    0.67473   0.67797   0.69126   0.71020   0.71865
  Beta virt. eigenvalues --    0.72601   0.73571   0.75978   0.77004   0.78855
  Beta virt. eigenvalues --    0.82017   0.85992   0.86183   0.91091   0.97081
  Beta virt. eigenvalues --    1.02001   1.02937   1.04558   1.06342   1.08971
  Beta virt. eigenvalues --    1.10896   1.12164   1.16122   1.18398   1.20689
  Beta virt. eigenvalues --    1.22210   1.24449   1.25365   1.27935   1.29812
  Beta virt. eigenvalues --    1.32586   1.33580   1.34376   1.36133   1.41841
  Beta virt. eigenvalues --    1.43170   1.45368   1.46217   1.49375   1.50347
  Beta virt. eigenvalues --    1.54090   1.58477   1.60225   1.61690   1.62128
  Beta virt. eigenvalues --    1.64552   1.65743   1.69844   1.70543   1.71617
  Beta virt. eigenvalues --    1.75452   1.78024   1.79444   1.81735   1.83715
  Beta virt. eigenvalues --    1.86500   1.91233   1.94207   1.99499   2.01093
  Beta virt. eigenvalues --    2.04593   2.08785   2.09519   2.13743   2.20225
  Beta virt. eigenvalues --    2.30626   2.34686   2.41500   2.48060   2.50782
  Beta virt. eigenvalues --    2.50995   2.54592   2.55462   2.57794   2.62405
  Beta virt. eigenvalues --    2.63687   2.65257   2.68236   2.70556   2.74069
  Beta virt. eigenvalues --    2.74468   2.80453   2.82749   2.85294   2.89559
  Beta virt. eigenvalues --    2.91965   2.94606   2.98180   2.98743   3.01723
  Beta virt. eigenvalues --    3.04699   3.08247   3.10661   3.14402   3.17372
  Beta virt. eigenvalues --    3.18084   3.24325   3.26434   3.32409   3.35917
  Beta virt. eigenvalues --    3.40520   3.43349   3.53572   3.64035   3.76144
  Beta virt. eigenvalues --    3.84650   3.85323   3.87515   3.88777   4.03749
  Beta virt. eigenvalues --    4.13769   4.15958   4.30582   5.11626   5.14649
  Beta virt. eigenvalues --    5.16854   5.18569   5.27742   5.43056   5.54763
  Beta virt. eigenvalues --    5.68973   5.98292  23.62310  23.92120  23.94477
  Beta virt. eigenvalues --   24.04673  25.13869  49.91969  49.99319  50.12740
          Condensed to atoms (all electrons):
               1          2          3          4          5          6
     1  C   28.346917   0.775324 -12.466725  -8.795575  -0.138150   0.092419
     2  H    0.775324   0.431754  -0.358095  -0.052973  -0.005057  -0.003836
     3  C  -12.466725  -0.358095  15.806714   1.465674  -0.007188  -0.246193
     4  C   -8.795575  -0.052973   1.465674  12.983117   0.474264   0.077515
     5  O   -0.138150  -0.005057  -0.007188   0.474264   8.003523  -0.083181
     6  O    0.092419  -0.003836  -0.246193   0.077515  -0.083181   8.172760
     7  C   -0.493103  -0.014454   0.265505   0.121546  -0.007529   0.243092
     8  C    0.503829   0.008741  -0.222220  -0.274123   0.012340  -0.122982
     9  H   -0.066725  -0.000450   0.026012   0.022818  -0.000671  -0.015645
    10  H   -0.090801  -0.002294   0.021714   0.056017  -0.000149  -0.073999
    11  H    0.016522   0.000555  -0.004772  -0.014894   0.000391  -0.007094
    12  H   -0.153739  -0.005288   0.111720   0.054786  -0.000358  -0.011324
    13  H    0.011304   0.000696  -0.014469  -0.001247   0.000523   0.015812
    14  O    0.235346   0.005721  -0.122066  -0.147633  -0.001876   0.002149
    15  H    0.023209   0.001260   0.000501  -0.010018   0.000134   0.000180
               7          8          9         10         11         12
     1  C   -0.493103   0.503829  -0.066725  -0.090801   0.016522  -0.153739
     2  H   -0.014454   0.008741  -0.000450  -0.002294   0.000555  -0.005288
     3  C    0.265505  -0.222220   0.026012   0.021714  -0.004772   0.111720
     4  C    0.121546  -0.274123   0.022818   0.056017  -0.014894   0.054786
     5  O   -0.007529   0.012340  -0.000671  -0.000149   0.000391  -0.000358
     6  O    0.243092  -0.122982  -0.015645  -0.073999  -0.007094  -0.011324
     7  C    5.516953  -0.054304   0.408248   0.458166  -0.052621   0.029193
     8  C   -0.054304   5.514204  -0.050988  -0.072032   0.443330   0.325308
     9  H    0.408248  -0.050988   0.521553  -0.034845   0.006332  -0.012771
    10  H    0.458166  -0.072032  -0.034845   0.528437  -0.012947   0.017301
    11  H   -0.052621   0.443330   0.006332  -0.012947   0.522498  -0.053147
    12  H    0.029193   0.325308  -0.012771   0.017301  -0.053147   0.596008
    13  H   -0.057569   0.421021  -0.010504   0.000914  -0.032371  -0.033033
    14  O   -0.004697   0.001741   0.009519   0.001493   0.000082  -0.000454
    15  H    0.003340  -0.001177  -0.005594  -0.000321   0.000050  -0.000011
              13         14         15
     1  C    0.011304   0.235346   0.023209
     2  H    0.000696   0.005721   0.001260
     3  C   -0.014469  -0.122066   0.000501
     4  C   -0.001247  -0.147633  -0.010018
     5  O    0.000523  -0.001876   0.000134
     6  O    0.015812   0.002149   0.000180
     7  C   -0.057569  -0.004697   0.003340
     8  C    0.421021   0.001741  -0.001177
     9  H   -0.010504   0.009519  -0.005594
    10  H    0.000914   0.001493  -0.000321
    11  H   -0.032371   0.000082   0.000050
    12  H   -0.033033  -0.000454  -0.000011
    13  H    0.536474  -0.001188   0.000127
    14  O   -0.001188   8.012657   0.268323
    15  H    0.000127   0.268323   0.477154
          Atomic-Atomic Spin Densities.
               1          2          3          4          5          6
     1  C   -0.205322   0.036837  -0.027585   0.171329  -0.016786  -0.000904
     2  H    0.036837   0.003337  -0.025201  -0.010038  -0.000344  -0.000024
     3  C   -0.027585  -0.025201   0.139250   0.092630  -0.000573  -0.006851
     4  C    0.171329  -0.010038   0.092630  -0.270381   0.010159   0.007430
     5  O   -0.016786  -0.000344  -0.000573   0.010159   0.022391   0.000070
     6  O   -0.000904  -0.000024  -0.006851   0.007430   0.000070  -0.002466
     7  C   -0.018377  -0.000391   0.036694  -0.009401   0.000944   0.004102
     8  C    0.008177   0.000156  -0.013617   0.002130  -0.000352  -0.002152
     9  H   -0.006719  -0.000421   0.002122   0.003978   0.000266  -0.000448
    10  H   -0.007399  -0.000073   0.003885   0.004930   0.000068   0.001189
    11  H    0.002536   0.000064  -0.002924   0.000091  -0.000113  -0.000655
    12  H   -0.007501   0.000108   0.005877   0.001780   0.000156   0.000942
    13  H    0.001339  -0.000063   0.001076  -0.001906   0.000003   0.000119
    14  O    0.077756   0.004134  -0.130576  -0.016733  -0.000443  -0.000579
    15  H   -0.009871  -0.000845   0.009409   0.003598   0.000091  -0.000024
               7          8          9         10         11         12
     1  C   -0.018377   0.008177  -0.006719  -0.007399   0.002536  -0.007501
     2  H   -0.000391   0.000156  -0.000421  -0.000073   0.000064   0.000108
     3  C    0.036694  -0.013617   0.002122   0.003885  -0.002924   0.005877
     4  C   -0.009401   0.002130   0.003978   0.004930   0.000091   0.001780
     5  O    0.000944  -0.000352   0.000266   0.000068  -0.000113   0.000156
     6  O    0.004102  -0.002152  -0.000448   0.001189  -0.000655   0.000942
     7  C   -0.015316   0.010722   0.000209  -0.002917   0.001701  -0.003569
     8  C    0.010722  -0.009056  -0.001453   0.001696  -0.001671   0.003538
     9  H    0.000209  -0.001453   0.004881   0.001462  -0.000459   0.000443
    10  H   -0.002917   0.001696   0.001462  -0.001010   0.000453  -0.000996
    11  H    0.001701  -0.001671  -0.000459   0.000453  -0.000678   0.001081
    12  H   -0.003569   0.003538   0.000443  -0.000996   0.001081  -0.001977
    13  H   -0.001140   0.001215  -0.000060  -0.000223   0.000343  -0.000524
    14  O    0.002874   0.000264  -0.006956  -0.000713   0.000067  -0.000019
    15  H   -0.000612   0.000053   0.001174   0.000152  -0.000037   0.000053
              13         14         15
     1  C    0.001339   0.077756  -0.009871
     2  H   -0.000063   0.004134  -0.000845
     3  C    0.001076  -0.130576   0.009409
     4  C   -0.001906  -0.016733   0.003598
     5  O    0.000003  -0.000443   0.000091
     6  O    0.000119  -0.000579  -0.000024
     7  C   -0.001140   0.002874  -0.000612
     8  C    0.001215   0.000264   0.000053
     9  H   -0.000060  -0.006956   0.001174
    10  H   -0.000223  -0.000713   0.000152
    11  H    0.000343   0.000067  -0.000037
    12  H   -0.000524  -0.000019   0.000053
    13  H   -0.000251   0.000162   0.000006
    14  O    0.000162   0.978709   0.012493
    15  H    0.000006   0.012493  -0.032302
 Mulliken charges and spin densities:
               1          2
     1  C   -1.800053  -0.002491
     2  H    0.218396   0.007237
     3  C    1.743889   0.083616
     4  C    0.040726  -0.010404
     5  O   -0.247016   0.015538
     6  O   -0.039674  -0.000252
     7  C   -0.361767   0.005520
     8  C   -0.432687  -0.000350
     9  H    0.203710  -0.001980
    10  H    0.203344   0.000503
    11  H    0.188087  -0.000202
    12  H    0.135809  -0.000608
    13  H    0.163511   0.000096
    14  O   -0.259117   0.920439
    15  H    0.242843  -0.016663
 Sum of Mulliken charges =  -0.00000   1.00000
 Mulliken charges and spin densities with hydrogens summed into heavy atoms:
               1          2
     1  C   -1.581657   0.004746
     3  C    1.743889   0.083616
     4  C    0.040726  -0.010404
     5  O   -0.247016   0.015538
     6  O   -0.039674  -0.000252
     7  C    0.045287   0.004043
     8  C    0.054720  -0.001064
    14  O   -0.016274   0.903776
 APT charges:
               1
     1  C   -0.240778
     2  H    0.237256
     3  C   -0.263818
     4  C    1.508950
     5  O   -0.847397
     6  O   -0.919117
     7  C    0.487225
     8  C   -0.026228
     9  H    0.002500
    10  H   -0.010150
    11  H    0.012791
    12  H    0.009944
    13  H    0.011721
    14  O   -0.239011
    15  H    0.276113
 Sum of APT charges =   0.00000
 APT charges with hydrogens summed into heavy atoms:
               1
     1  C   -0.003522
     3  C   -0.263818
     4  C    1.508950
     5  O   -0.847397
     6  O   -0.919117
     7  C    0.479574
     8  C    0.008228
    14  O    0.037102
 Electronic spatial extent (au):  <R**2>=           1083.6288
 Charge=             -0.0000 electrons
 Dipole moment (field-independent basis, Debye):
    X=             -1.3444    Y=             -3.2379    Z=              0.3996  Tot=              3.5286
 Quadrupole moment (field-independent basis, Debye-Ang):
   XX=            -43.0378   YY=            -56.9630   ZZ=            -43.8646
   XY=             -6.4244   XZ=              0.0398   YZ=             -0.8815
 Traceless Quadrupole moment (field-independent basis, Debye-Ang):
   XX=              4.9173   YY=             -9.0078   ZZ=              4.0905
   XY=             -6.4244   XZ=              0.0398   YZ=             -0.8815
 Octapole moment (field-independent basis, Debye-Ang**2):
  XXX=            -14.1955  YYY=            -22.8082  ZZZ=             -8.8130  XYY=              3.9282
  XXY=              0.9713  XXZ=              1.0018  XZZ=            -11.4902  YZZ=             -1.2152
  YYZ=             -1.4356  XYZ=              7.4591
 Hexadecapole moment (field-independent basis, Debye-Ang**3):
 XXXX=           -624.5350 YYYY=           -563.5298 ZZZZ=           -193.9032 XXXY=             -7.7852
 XXXZ=              1.6585 YYYX=             -7.4146 YYYZ=             -0.1142 ZZZX=              3.1570
 ZZZY=              0.1941 XXYY=           -210.3681 XXZZ=           -109.7682 YYZZ=           -119.2737
 XXYZ=             -6.9138 YYXZ=             -0.0594 ZZXY=              6.6017
 N-N= 3.544031661023D+02 E-N=-1.693232910542D+03  KE= 4.188526924601D+02
  Exact polarizability:  77.181   5.778  76.421  -4.213   0.918  60.446
 Approx polarizability:  86.296  12.346  91.019 -10.308  -2.011  70.575
                          Isotropic Fermi Contact Couplings
        Atom                 a.u.       MegaHertz       Gauss      10(-4) cm-1
     1  C(13)              0.01271      14.29336       5.10023       4.76775
     2  H(1)               0.00254      11.36908       4.05677       3.79232
     3  C(13)              0.02577      28.97575      10.33927       9.66527
     4  C(13)             -0.00597      -6.71322      -2.39544      -2.23929
     5  O(17)              0.00430      -2.60374      -0.92908      -0.86851
     6  O(17)             -0.00053       0.32366       0.11549       0.10796
     7  C(13)             -0.00043      -0.47805      -0.17058      -0.15946
     8  C(13)             -0.00003      -0.02820      -0.01006      -0.00941
     9  H(1)               0.00012       0.53904       0.19234       0.17980
    10  H(1)               0.00004       0.17628       0.06290       0.05880
    11  H(1)              -0.00001      -0.05284      -0.01885      -0.01762
    12  H(1)               0.00001       0.06560       0.02341       0.02188
    13  H(1)              -0.00001      -0.02720      -0.00971      -0.00907
    14  O(17)              0.12898     -78.18607     -27.89873     -26.08006
    15  H(1)              -0.01513     -67.63058     -24.13227     -22.55913
 --------------------------------------------------------
       Center         ----  Spin Dipole Couplings  ----
                      3XX-RR        3YY-RR        3ZZ-RR
 --------------------------------------------------------
     1   Atom       -0.006140     -0.011306      0.017445
     2   Atom       -0.007358     -0.007372      0.014730
     3   Atom       -0.048515     -0.008269      0.056784
     4   Atom        0.003642      0.004415     -0.008057
     5   Atom       -0.031674     -0.032012      0.063686
     6   Atom        0.011110     -0.003186     -0.007923
     7   Atom        0.005275     -0.002534     -0.002742
     8   Atom        0.002560     -0.001378     -0.001181
     9   Atom        0.014190     -0.006326     -0.007864
    10   Atom        0.003369     -0.001706     -0.001663
    11   Atom        0.001717     -0.000874     -0.000843
    12   Atom        0.001914     -0.001334     -0.000580
    13   Atom        0.001677     -0.000573     -0.001104
    14   Atom       -0.426130     -0.378827      0.804957
    15   Atom       -0.093587      0.103625     -0.010038
 --------------------------------------------------------
                        XY            XZ            YZ
 --------------------------------------------------------
     1   Atom        0.017906     -0.009577      0.016366
     2   Atom       -0.000766     -0.004104      0.004896
     3   Atom        0.036516      0.069556      0.091657
     4   Atom        0.005029     -0.004149     -0.000107
     5   Atom        0.000478      0.017982     -0.012680
     6   Atom        0.005358      0.002185      0.002290
     7   Atom       -0.001210     -0.000286      0.000542
     8   Atom       -0.001145      0.001262     -0.000081
     9   Atom       -0.003732     -0.000373      0.001526
    10   Atom       -0.000644     -0.001027      0.000319
    11   Atom       -0.000389      0.000736     -0.000035
    12   Atom       -0.001174      0.002735     -0.000522
    13   Atom       -0.001462      0.001099     -0.000420
    14   Atom        1.404143      1.889871      1.933018
    15   Atom       -0.025754      0.057689     -0.096588
 --------------------------------------------------------


 ---------------------------------------------------------------------------------
              Anisotropic Spin Dipole Couplings in Principal Axis System
 ---------------------------------------------------------------------------------

       Atom             a.u.   MegaHertz   Gauss  10(-4) cm-1        Axes

              Baa    -0.0337    -4.516    -1.611    -1.506 -0.5934  0.7276 -0.3443
     1 C(13)  Bbb     0.0087     1.170     0.417     0.390  0.8026  0.5676 -0.1837
              Bcc     0.0249     3.346     1.194     1.116 -0.0617  0.3853  0.9207
 
              Baa    -0.0084    -4.501    -1.606    -1.501 -0.2689  0.9316 -0.2445
     2 H(1)   Bbb    -0.0081    -4.301    -1.535    -1.435  0.9476  0.3014  0.1059
              Bcc     0.0165     8.802     3.141     2.936 -0.1724  0.2032  0.9638
 
              Baa    -0.0859   -11.533    -4.115    -3.847  0.7508  0.3253 -0.5748
     3 C(13)  Bbb    -0.0659    -8.845    -3.156    -2.950 -0.5518  0.7872 -0.2753
              Bcc     0.1519    20.378     7.271     6.797  0.3630  0.5239  0.7706
 
              Baa    -0.0095    -1.281    -0.457    -0.427  0.3377 -0.1145  0.9343
     4 C(13)  Bbb    -0.0000    -0.004    -0.001    -0.001 -0.6251  0.7149  0.3135
              Bcc     0.0096     1.284     0.458     0.428  0.7038  0.6898 -0.1698
 
              Baa    -0.0371     2.682     0.957     0.894  0.7652 -0.6076 -0.2130
     5 O(17)  Bbb    -0.0314     2.274     0.812     0.759  0.6196  0.7848 -0.0125
              Bcc     0.0685    -4.956    -1.768    -1.653  0.1748 -0.1224  0.9770
 
              Baa    -0.0088     0.640     0.228     0.214 -0.0012 -0.3740  0.9274
     6 O(17)  Bbb    -0.0044     0.320     0.114     0.107 -0.3492  0.8692  0.3500
              Bcc     0.0133    -0.960    -0.343    -0.320  0.9370  0.3235  0.1316
 
              Baa    -0.0032    -0.433    -0.155    -0.145 -0.0737 -0.6889  0.7211
     7 C(13)  Bbb    -0.0022    -0.301    -0.107    -0.100  0.1403  0.7087  0.6914
              Bcc     0.0055     0.735     0.262     0.245  0.9874 -0.1521 -0.0444
 
              Baa    -0.0019    -0.250    -0.089    -0.083  0.3544  0.7428 -0.5680
     8 C(13)  Bbb    -0.0014    -0.182    -0.065    -0.061 -0.0672  0.6261  0.7768
              Bcc     0.0032     0.432     0.154     0.144  0.9327 -0.2371  0.2718
 
              Baa    -0.0089    -4.769    -1.702    -1.591 -0.0817 -0.5872  0.8053
     9 H(1)   Bbb    -0.0059    -3.162    -1.128    -1.055  0.1576  0.7902  0.5922
              Bcc     0.0149     7.932     2.830     2.646  0.9841 -0.1753 -0.0279
 
              Baa    -0.0020    -1.078    -0.385    -0.360  0.0709 -0.6341  0.7700
    10 H(1)   Bbb    -0.0016    -0.875    -0.312    -0.292  0.2226  0.7625  0.6074
              Bcc     0.0037     1.953     0.697     0.651  0.9723 -0.1283 -0.1953
 
              Baa    -0.0011    -0.571    -0.204    -0.190 -0.2861 -0.4146  0.8639
    11 H(1)   Bbb    -0.0009    -0.478    -0.171    -0.159  0.0113  0.9000  0.4357
              Bcc     0.0020     1.049     0.374     0.350  0.9581 -0.1344  0.2528
 
              Baa    -0.0024    -1.274    -0.455    -0.425 -0.5667 -0.2414  0.7877
    12 H(1)   Bbb    -0.0016    -0.848    -0.303    -0.283  0.0579  0.9421  0.3304
              Bcc     0.0040     2.122     0.757     0.708  0.8219 -0.2328  0.5200
 
              Baa    -0.0015    -0.806    -0.287    -0.269 -0.4237 -0.2744  0.8632
    13 H(1)   Bbb    -0.0012    -0.663    -0.237    -0.221  0.2789  0.8672  0.4126
              Bcc     0.0028     1.469     0.524     0.490  0.8618 -0.4156  0.2909
 
              Baa    -1.8104   131.000    46.744    43.697 -0.3372  0.8570 -0.3898
    14 O(17)  Bbb    -1.7982   130.113    46.428    43.401  0.7952  0.0376 -0.6052
              Bcc     3.6086  -261.113   -93.172   -87.098  0.5040  0.5140  0.6941
 
              Baa    -0.1257   -67.083   -23.937   -22.377  0.8414 -0.1268 -0.5254
    15 H(1)   Bbb    -0.0433   -23.083    -8.237    -7.700  0.5041  0.5345  0.6784
              Bcc     0.1690    90.167    32.174    30.076 -0.1948  0.8356 -0.5136
 

 ---------------------------------------------------------------------------------

 Calling FoFJK, ICntrl=    100127 FMM=F ISym2X=0 I1Cent= 0 IOpClX= 1 NMat=1 NMatS=1 NMatT=0.
 Full mass-weighted force constant matrix:
 Low frequencies ---  -51.6653  -33.9798   -7.5375    0.0007    0.0009    0.0012
 Low frequencies ---   25.4894   60.9131   77.0205
 ******    1 imaginary frequencies (negative Signs) ****** 
 Diagonal vibrational polarizability:
      137.2859934      16.4562903     138.9496928
 Harmonic frequencies (cm**-1), IR intensities (KM/Mole), Raman scattering
 activities (A**4/AMU), depolarization ratios for plane and unpolarized
 incident light, reduced masses (AMU), force constants (mDyne/A),
 and normal coordinates:
                      1                      2                      3
                      A                      A                      A
 Frequencies --    -33.4572                58.0028                76.9692
 Red. masses --      6.2396                10.2324                 3.9298
 Frc consts  --      0.0041                 0.0203                 0.0137
 IR Inten    --      5.9694                 6.8430                 0.6109
  Atom  AN      X      Y      Z        X      Y      Z        X      Y      Z
     1   6     0.11  -0.21   0.12    -0.04   0.08   0.21    -0.10   0.05  -0.05
     2   1     0.17  -0.30   0.15    -0.04   0.09   0.21    -0.15   0.10  -0.10
     3   6     0.05  -0.12   0.09    -0.04   0.05   0.18    -0.04  -0.00  -0.00
     4   6    -0.05  -0.07  -0.04    -0.09  -0.02   0.01     0.00  -0.05   0.03
     5   8    -0.17  -0.06  -0.17    -0.06  -0.02  -0.07     0.13  -0.06   0.18
     6   8    -0.01  -0.04  -0.00    -0.19  -0.07  -0.08    -0.14  -0.07  -0.17
     7   6     0.08  -0.05   0.08    -0.22  -0.07  -0.01    -0.05  -0.07   0.05
     8   6     0.13   0.07   0.11    -0.09  -0.04  -0.05     0.22   0.18   0.04
     9   1     0.10  -0.11   0.11    -0.24  -0.05   0.10    -0.05  -0.16   0.27
    10   1     0.09  -0.06   0.10    -0.31  -0.11  -0.05    -0.17  -0.16   0.00
    11   1     0.11   0.13   0.07    -0.07  -0.06  -0.17     0.21   0.28  -0.19
    12   1     0.13   0.08   0.10     0.00   0.00   0.00     0.34   0.29   0.08
    13   1     0.20   0.06   0.17    -0.12  -0.04  -0.01     0.29   0.18   0.23
    14   8    -0.10   0.37  -0.15     0.65   0.10  -0.12    -0.05   0.01  -0.06
    15   1    -0.08   0.51   0.08     0.14   0.14   0.14     0.12  -0.00  -0.15
                      4                      5                      6
                      A                      A                      A
 Frequencies --    108.5673               172.0328               218.4026
 Red. masses --      3.4598                 2.9756                 1.7193
 Frc consts  --      0.0240                 0.0519                 0.0483
 IR Inten    --      0.3780                 3.9544                44.2193
  Atom  AN      X      Y      Z        X      Y      Z        X      Y      Z
     1   6    -0.14   0.15  -0.02    -0.14   0.16   0.00     0.01   0.05   0.06
     2   1    -0.21   0.24  -0.05    -0.23   0.37   0.04    -0.07   0.07  -0.05
     3   6    -0.07   0.04   0.00    -0.01  -0.12  -0.04     0.08   0.01   0.16
     4   6    -0.04  -0.00   0.02    -0.01  -0.10  -0.01     0.02   0.01   0.04
     5   8    -0.08   0.00  -0.09    -0.09  -0.09   0.06    -0.01   0.01  -0.05
     6   8     0.04  -0.02   0.17     0.04   0.00  -0.06    -0.02   0.00  -0.02
     7   6     0.00  -0.02   0.05     0.17  -0.01  -0.09    -0.00  -0.00  -0.01
     8   6     0.26  -0.15  -0.12    -0.02   0.02   0.00    -0.02  -0.01  -0.01
     9   1    -0.04   0.03   0.24     0.21  -0.09  -0.28     0.01  -0.02  -0.03
    10   1    -0.19   0.04  -0.11     0.35   0.06   0.01     0.02   0.02  -0.00
    11   1     0.30  -0.20  -0.31    -0.13   0.26   0.28    -0.09   0.17   0.10
    12   1     0.45  -0.20   0.03    -0.31  -0.19  -0.11    -0.15  -0.19  -0.03
    13   1     0.22  -0.15  -0.21     0.24   0.02  -0.09     0.18  -0.01  -0.11
    14   8    -0.01   0.02  -0.00     0.05   0.10   0.11    -0.07  -0.06  -0.07
    15   1     0.03  -0.01  -0.07     0.09   0.06   0.05     0.76  -0.09  -0.43
                      7                      8                      9
                      A                      A                      A
 Frequencies --    222.3754               230.3320               301.7815
 Red. masses --      1.7830                 1.5637                 3.1683
 Frc consts  --      0.0519                 0.0489                 0.1700
 IR Inten    --     36.8878                 0.7168                14.6266
  Atom  AN      X      Y      Z        X      Y      Z        X      Y      Z
     1   6    -0.02  -0.10  -0.13     0.01  -0.09  -0.08    -0.11  -0.04  -0.23
     2   1    -0.03  -0.11  -0.15     0.07  -0.19  -0.06    -0.28  -0.01  -0.49
     3   6    -0.00  -0.02  -0.02    -0.05   0.07  -0.04     0.17  -0.02   0.27
     4   6    -0.01   0.00  -0.00    -0.02   0.04  -0.01     0.07  -0.00   0.09
     5   8    -0.03   0.00   0.00     0.06   0.03  -0.02    -0.02   0.00  -0.08
     6   8     0.00   0.01  -0.00    -0.05  -0.02   0.03    -0.00   0.00  -0.03
     7   6    -0.02   0.01   0.00    -0.03  -0.02   0.02    -0.02   0.01  -0.01
     8   6    -0.02  -0.00  -0.00     0.02  -0.03  -0.00    -0.01   0.03  -0.01
     9   1    -0.03   0.02   0.03    -0.03  -0.05   0.04    -0.03   0.03  -0.01
    10   1    -0.05  -0.01  -0.01    -0.04   0.01   0.01    -0.04  -0.01  -0.01
    11   1     0.08  -0.25  -0.14    -0.15   0.44   0.20    -0.02   0.06  -0.02
    12   1     0.15   0.24   0.02    -0.24  -0.48  -0.01    -0.01   0.03  -0.01
    13   1    -0.30   0.00   0.11     0.55  -0.03  -0.24     0.01   0.03   0.01
    14   8     0.04   0.08   0.14     0.03   0.04   0.07     0.01   0.00   0.04
    15   1     0.73  -0.03  -0.31     0.04   0.00   0.00    -0.63   0.01   0.28
                     10                     11                     12
                      A                      A                      A
 Frequencies --    360.2068               408.3675               512.9065
 Red. masses --      2.8284                 3.7036                 1.0523
 Frc consts  --      0.2162                 0.3639                 0.1631
 IR Inten    --      2.6284                 3.5174               127.8126
  Atom  AN      X      Y      Z        X      Y      Z        X      Y      Z
     1   6    -0.06  -0.04   0.02    -0.07  -0.05   0.06    -0.01  -0.00  -0.02
     2   1    -0.02  -0.18  -0.03    -0.04  -0.11   0.06    -0.04   0.03  -0.04
     3   6    -0.11   0.15   0.09    -0.11   0.03   0.04    -0.00   0.00  -0.01
     4   6    -0.07   0.04   0.03    -0.01  -0.07   0.06     0.01   0.01  -0.01
     5   8     0.09   0.03  -0.04     0.12  -0.08  -0.10     0.00   0.01  -0.00
     6   8    -0.14  -0.01  -0.03     0.07  -0.07   0.22    -0.00   0.00   0.00
     7   6     0.22  -0.04  -0.06    -0.03  -0.02  -0.17    -0.01  -0.00   0.00
     8   6     0.04  -0.08   0.02    -0.04   0.22  -0.11     0.00   0.00  -0.00
     9   1     0.32  -0.28  -0.30    -0.03   0.01  -0.24    -0.00  -0.00  -0.00
    10   1     0.50   0.16   0.05     0.04   0.08  -0.17    -0.01  -0.00  -0.00
    11   1     0.12  -0.37   0.10    -0.09   0.42  -0.21    -0.00   0.00  -0.01
    12   1     0.05   0.09  -0.04    -0.08   0.49  -0.24     0.01  -0.00   0.00
    13   1    -0.27  -0.08   0.05     0.08   0.21   0.30     0.00   0.00   0.00
    14   8    -0.01  -0.00   0.00    -0.00   0.00   0.00    -0.01  -0.04  -0.02
    15   1    -0.04   0.02   0.05     0.08   0.00  -0.03     0.43   0.49   0.75
                     13                     14                     15
                      A                      A                      A
 Frequencies --    556.3552               631.9991               740.8256
 Red. masses --      5.1454                 6.0139                 1.2747
 Frc consts  --      0.9384                 1.4153                 0.4122
 IR Inten    --     14.6332                 1.4028                38.5870
  Atom  AN      X      Y      Z        X      Y      Z        X      Y      Z
     1   6    -0.19  -0.10   0.11    -0.04  -0.05   0.02     0.04  -0.13  -0.04
     2   1    -0.24   0.00   0.13     0.11  -0.44  -0.05    -0.26   0.89   0.34
     3   6    -0.12  -0.22   0.05    -0.20   0.40   0.14    -0.01   0.06   0.03
     4   6    -0.03  -0.04  -0.01     0.06  -0.16  -0.06    -0.01  -0.01  -0.02
     5   8     0.25  -0.09  -0.14    -0.12  -0.16   0.07     0.00  -0.00   0.01
     6   8     0.04   0.14  -0.09     0.26   0.02  -0.16     0.00   0.00   0.01
     7   6    -0.00   0.28   0.12     0.03   0.05   0.01     0.00   0.00   0.00
     8   6    -0.01   0.00   0.01    -0.00  -0.00   0.01     0.00   0.00  -0.00
     9   1    -0.04   0.34   0.24    -0.08   0.32   0.28     0.00   0.01   0.01
    10   1    -0.17   0.09   0.08    -0.27  -0.27  -0.06    -0.00   0.00  -0.00
    11   1     0.04  -0.21   0.12    -0.01  -0.03   0.13     0.00  -0.01   0.01
    12   1     0.04  -0.29   0.16    -0.08  -0.08  -0.01    -0.01  -0.00  -0.00
    13   1    -0.15   0.01  -0.43    -0.02  -0.00  -0.09    -0.01   0.00  -0.01
    14   8     0.00   0.00   0.00    -0.01  -0.01  -0.00    -0.00  -0.00  -0.01
    15   1     0.03   0.01   0.01     0.04   0.02   0.02    -0.02  -0.01  -0.02
                     16                     17                     18
                      A                      A                      A
 Frequencies --    755.9437               767.9037               786.1563
 Red. masses --      5.2679                 9.2298                 1.2354
 Frc consts  --      1.7737                 3.2067                 0.4499
 IR Inten    --      1.7587                16.5410                55.6795
  Atom  AN      X      Y      Z        X      Y      Z        X      Y      Z
     1   6    -0.19  -0.09   0.10    -0.03  -0.09   0.12    -0.08   0.02  -0.10
     2   1    -0.24  -0.06   0.08    -0.30   0.21  -0.04     0.55  -0.10   0.82
     3   6    -0.07  -0.14   0.13    -0.23  -0.03  -0.23     0.02  -0.01   0.03
     4   6    -0.02   0.20  -0.21     0.39   0.06   0.58     0.03   0.00   0.04
     5   8     0.04   0.24   0.05    -0.10   0.12  -0.16    -0.00   0.01  -0.01
     6   8     0.19   0.04  -0.06     0.02   0.01  -0.18     0.00   0.00  -0.01
     7   6     0.01  -0.23  -0.09     0.01  -0.10  -0.04    -0.00  -0.01  -0.00
     8   6     0.03  -0.09   0.05     0.01  -0.04   0.01     0.00  -0.00   0.00
     9   1    -0.08   0.00   0.12    -0.04  -0.02   0.11    -0.00  -0.00  -0.00
    10   1    -0.21  -0.29  -0.21    -0.14  -0.14  -0.12    -0.00  -0.01  -0.00
    11   1    -0.05   0.13   0.09    -0.02   0.03   0.09    -0.00   0.00   0.00
    12   1    -0.13   0.19  -0.17    -0.10   0.07  -0.10    -0.00   0.00  -0.00
    13   1     0.16  -0.10   0.49     0.04  -0.04   0.20     0.00  -0.00   0.01
    14   8    -0.00   0.00   0.00     0.00   0.01   0.00    -0.00  -0.01  -0.01
    15   1    -0.01  -0.02  -0.04    -0.04  -0.01  -0.01     0.03   0.01   0.00
                     19                     20                     21
                      A                      A                      A
 Frequencies --    816.7007               951.2570              1104.6074
 Red. masses --      1.1498                 2.2688                 3.6805
 Frc consts  --      0.4518                 1.2096                 2.6459
 IR Inten    --      4.6661                11.0605                53.8370
  Atom  AN      X      Y      Z        X      Y      Z        X      Y      Z
     1   6     0.02   0.01  -0.02     0.04   0.02  -0.03     0.04   0.02  -0.03
     2   1     0.03   0.01  -0.01     0.04   0.03  -0.03     0.05   0.04  -0.03
     3   6     0.02  -0.01  -0.01     0.02   0.02  -0.01     0.02   0.00  -0.01
     4   6    -0.02  -0.01   0.01    -0.08  -0.05   0.05    -0.15  -0.02   0.09
     5   8     0.01  -0.01  -0.00     0.03  -0.08  -0.02     0.04  -0.06  -0.02
     6   8    -0.04  -0.01   0.03    -0.02   0.14  -0.01     0.02   0.20  -0.03
     7   6     0.07   0.01  -0.02    -0.06   0.04  -0.11     0.12  -0.20   0.21
     8   6     0.04   0.01  -0.02     0.04  -0.17   0.12    -0.12  -0.02  -0.18
     9   1    -0.01   0.02   0.49    -0.09   0.21  -0.18     0.09  -0.12   0.35
    10   1    -0.38  -0.00  -0.31    -0.13   0.19  -0.22     0.06  -0.31   0.23
    11   1     0.01  -0.11   0.47    -0.05   0.18   0.02    -0.19   0.29  -0.46
    12   1    -0.35   0.10  -0.32     0.08   0.18   0.02    -0.07   0.25  -0.26
    13   1    -0.19   0.01   0.06     0.32  -0.18   0.70     0.09  -0.02   0.07
    14   8     0.00  -0.00  -0.00     0.00  -0.00   0.00     0.00  -0.00  -0.00
    15   1    -0.00   0.01   0.01     0.01   0.01   0.01    -0.01   0.01   0.02
                     22                     23                     24
                      A                      A                      A
 Frequencies --   1129.2629              1180.4417              1264.3634
 Red. masses --      2.5014                 1.8871                 2.8865
 Frc consts  --      1.8794                 1.5493                 2.7187
 IR Inten    --     47.4785                57.6435               356.5602
  Atom  AN      X      Y      Z        X      Y      Z        X      Y      Z
     1   6    -0.03  -0.02   0.02     0.02   0.01  -0.01    -0.04  -0.02   0.02
     2   1    -0.03  -0.02   0.02     0.02   0.03  -0.01    -0.04  -0.05   0.02
     3   6    -0.01  -0.00   0.01     0.01  -0.01  -0.01    -0.01   0.01   0.01
     4   6     0.09   0.01  -0.06    -0.10   0.03   0.06     0.25  -0.05  -0.14
     5   8    -0.03   0.03   0.02     0.01   0.03  -0.00    -0.02  -0.03   0.01
     6   8    -0.04  -0.14  -0.03    -0.00  -0.09  -0.00    -0.13   0.12   0.07
     7   6     0.07   0.18   0.15     0.16   0.06  -0.09     0.10  -0.09  -0.02
     8   6    -0.04  -0.12  -0.11    -0.11  -0.00   0.06    -0.10   0.01   0.06
     9   1     0.08   0.20   0.03     0.02   0.36   0.26     0.03   0.00   0.35
    10   1     0.05   0.27   0.11    -0.27  -0.47  -0.18    -0.18   0.46  -0.41
    11   1    -0.18   0.37  -0.19    -0.06   0.04  -0.35    -0.04   0.00  -0.40
    12   1    -0.06   0.39  -0.32     0.29  -0.06   0.34     0.15  -0.04   0.24
    13   1     0.19  -0.11   0.47     0.24  -0.00  -0.10     0.17   0.01  -0.16
    14   8     0.00   0.00  -0.00     0.00  -0.00  -0.00    -0.00   0.00  -0.00
    15   1    -0.00  -0.00  -0.00     0.00   0.01   0.01    -0.00  -0.01  -0.02
                     25                     26                     27
                      A                      A                      A
 Frequencies --   1357.8889              1407.0468              1436.5876
 Red. masses --      1.2707                 1.2621                 1.3559
 Frc consts  --      1.3804                 1.4722                 1.6487
 IR Inten    --    115.9995                22.0546                17.0554
  Atom  AN      X      Y      Z        X      Y      Z        X      Y      Z
     1   6    -0.01  -0.00   0.00    -0.01  -0.00   0.00     0.01   0.00  -0.00
     2   1    -0.01  -0.01   0.00    -0.01  -0.01   0.00     0.01   0.01  -0.00
     3   6    -0.00  -0.00  -0.00    -0.00   0.00   0.00     0.00  -0.00  -0.00
     4   6     0.07  -0.02  -0.04     0.04  -0.00  -0.02    -0.04   0.00   0.02
     5   8    -0.00  -0.01   0.00    -0.00  -0.01   0.00     0.00   0.01  -0.00
     6   8    -0.08   0.04   0.04    -0.02   0.03   0.02     0.01  -0.03  -0.03
     7   6     0.02  -0.03   0.00    -0.01   0.03  -0.03     0.04  -0.08   0.09
     8   6     0.05  -0.00  -0.01    -0.05   0.03  -0.11    -0.03   0.07  -0.06
     9   1    -0.13   0.68  -0.28     0.02  -0.20   0.23    -0.05   0.45  -0.38
    10   1     0.06  -0.55   0.23     0.15  -0.29   0.21    -0.21   0.43  -0.28
    11   1     0.04  -0.01   0.08    -0.01  -0.26   0.41     0.07  -0.30   0.14
    12   1    -0.13   0.03  -0.15     0.31  -0.21   0.24     0.05  -0.28   0.13
    13   1    -0.07   0.00  -0.03     0.27   0.00   0.48     0.13   0.06   0.26
    14   8    -0.00  -0.00   0.00    -0.00   0.00  -0.00    -0.00  -0.00   0.00
    15   1     0.01  -0.00  -0.01    -0.00  -0.00  -0.00     0.01   0.00  -0.00
                     28                     29                     30
                      A                      A                      A
 Frequencies --   1492.5719              1503.1509              1534.1736
 Red. masses --      1.0408                 1.0473                 1.0970
 Frc consts  --      1.3661                 1.3942                 1.5213
 IR Inten    --      3.8080                 2.1095                12.2039
  Atom  AN      X      Y      Z        X      Y      Z        X      Y      Z
     1   6     0.00   0.00  -0.00    -0.00  -0.00   0.00     0.01   0.00  -0.00
     2   1     0.00   0.00  -0.00    -0.00   0.00  -0.00     0.01   0.00  -0.00
     3   6     0.00  -0.00   0.00    -0.00   0.00   0.00     0.00  -0.00  -0.00
     4   6    -0.01   0.00   0.00     0.00  -0.00  -0.00    -0.03  -0.00   0.02
     5   8     0.00  -0.00  -0.00    -0.00   0.00  -0.00     0.00   0.01  -0.00
     6   8     0.01  -0.00  -0.00    -0.00   0.01   0.00     0.01  -0.02  -0.01
     7   6    -0.02   0.01   0.01     0.00  -0.02   0.02    -0.02  -0.05  -0.05
     8   6    -0.03   0.01   0.03    -0.02  -0.04  -0.02    -0.00  -0.01  -0.00
     9   1    -0.02  -0.02  -0.01     0.02  -0.01  -0.22    -0.22   0.44   0.50
    10   1     0.04  -0.00   0.06    -0.16  -0.00  -0.10     0.53   0.37   0.17
    11   1     0.15  -0.52  -0.01    -0.16   0.22   0.52    -0.04   0.06   0.13
    12   1    -0.16   0.40  -0.23     0.48   0.44   0.14     0.11   0.09   0.04
    13   1     0.64  -0.00  -0.23     0.02  -0.02  -0.36    -0.02  -0.00  -0.10
    14   8     0.00  -0.00   0.00    -0.00   0.00   0.00    -0.00  -0.00  -0.00
    15   1     0.00   0.00   0.00     0.00  -0.00  -0.00     0.00   0.00   0.01
                     31                     32                     33
                      A                      A                      A
 Frequencies --   1858.6646              2225.5688              3072.7025
 Red. masses --     12.9566                 5.8344                 1.0354
 Frc consts  --     26.3721                17.0266                 5.7597
 IR Inten    --    502.4200                50.0917                 7.7898
  Atom  AN      X      Y      Z        X      Y      Z        X      Y      Z
     1   6    -0.03  -0.02   0.02    -0.30  -0.16   0.18    -0.00   0.00  -0.00
     2   1    -0.06   0.00   0.04    -0.59  -0.31   0.35     0.00   0.00  -0.00
     3   6     0.03  -0.00  -0.01     0.42   0.22  -0.24    -0.00   0.00  -0.00
     4   6     0.06   0.82  -0.00    -0.06  -0.04   0.04    -0.00   0.00   0.00
     5   8    -0.06  -0.54   0.01    -0.00  -0.00   0.00     0.00  -0.00  -0.00
     6   8     0.00  -0.05  -0.01    -0.00   0.00   0.00     0.00  -0.00  -0.00
     7   6     0.02  -0.03  -0.01    -0.00  -0.00   0.00    -0.00  -0.00  -0.00
     8   6    -0.00   0.01   0.00    -0.00   0.00  -0.00     0.02  -0.02   0.04
     9   1    -0.03   0.11   0.00    -0.01   0.01   0.00     0.04   0.01   0.01
    10   1     0.04   0.02  -0.03     0.00   0.00  -0.00    -0.01   0.01   0.02
    11   1     0.00   0.00   0.01    -0.00  -0.00   0.00    -0.53  -0.17  -0.05
    12   1     0.02  -0.01   0.02    -0.00   0.00  -0.00     0.32  -0.18  -0.45
    13   1    -0.02   0.00  -0.03    -0.00   0.00  -0.00     0.01   0.59   0.02
    14   8     0.00   0.00  -0.00    -0.00  -0.00  -0.00     0.00   0.00  -0.00
    15   1    -0.01  -0.01  -0.00    -0.00  -0.00   0.00    -0.00  -0.00   0.00
                     34                     35                     36
                      A                      A                      A
 Frequencies --   3100.3889              3144.5491              3151.9024
 Red. masses --      1.0626                 1.1042                 1.1014
 Frc consts  --      6.0182                 6.4329                 6.4465
 IR Inten    --      9.0903                 1.8179                13.0307
  Atom  AN      X      Y      Z        X      Y      Z        X      Y      Z
     1   6    -0.00   0.00   0.00     0.00  -0.00   0.00     0.00  -0.00   0.00
     2   1    -0.00   0.00   0.00    -0.00  -0.00   0.00     0.00   0.00  -0.00
     3   6     0.00   0.00  -0.00     0.00  -0.00   0.00     0.00   0.00  -0.00
     4   6    -0.00   0.00   0.00     0.00  -0.00  -0.00    -0.00   0.00   0.00
     5   8     0.00  -0.00  -0.00     0.00   0.00   0.00     0.00  -0.00  -0.00
     6   8     0.00  -0.00   0.00    -0.00   0.00  -0.00     0.00   0.00  -0.00
     7   6    -0.04  -0.03  -0.04    -0.05   0.00   0.03     0.01  -0.01  -0.02
     8   6     0.00   0.01   0.00     0.05  -0.03  -0.04    -0.04  -0.08  -0.02
     9   1     0.81   0.22   0.10     0.30   0.08   0.04    -0.02  -0.01  -0.00
    10   1    -0.28   0.15   0.39     0.26  -0.15  -0.38    -0.15   0.09   0.22
    11   1    -0.04  -0.01  -0.00    -0.31  -0.11  -0.04     0.57   0.17   0.06
    12   1     0.00   0.00  -0.00    -0.36   0.20   0.52    -0.10   0.04   0.13
    13   1    -0.00  -0.12  -0.01     0.02   0.33  -0.00     0.01   0.72   0.01
    14   8    -0.00   0.00   0.00    -0.00   0.00   0.00     0.00   0.00  -0.00
    15   1    -0.00  -0.00   0.00     0.00  -0.00   0.00    -0.00  -0.00  -0.00
                     37                     38                     39
                      A                      A                      A
 Frequencies --   3167.0394              3487.3474              3794.4800
 Red. masses --      1.1064                 1.1657                 1.0673
 Frc consts  --      6.5386                 8.3529                 9.0537
 IR Inten    --     18.0719                71.6465                35.3404
  Atom  AN      X      Y      Z        X      Y      Z        X      Y      Z
     1   6     0.00  -0.00   0.00    -0.09  -0.05   0.05    -0.00  -0.00  -0.00
     2   1     0.00   0.00  -0.00     0.77   0.40  -0.48     0.00   0.00   0.00
     3   6     0.00  -0.00   0.00     0.03   0.01  -0.02     0.00   0.00  -0.00
     4   6    -0.00   0.00  -0.00    -0.00  -0.00   0.00     0.00   0.00  -0.00
     5   8    -0.00  -0.00   0.00     0.00  -0.00  -0.00    -0.00  -0.00   0.00
     6   8    -0.00  -0.00   0.00     0.00  -0.00  -0.00    -0.00   0.00   0.00
     7   6     0.06  -0.01  -0.04    -0.00   0.00   0.00    -0.00  -0.00  -0.00
     8   6     0.05  -0.00  -0.02    -0.00   0.00   0.00    -0.00  -0.00  -0.00
     9   1    -0.38  -0.10  -0.06     0.00   0.00   0.00     0.00  -0.00   0.00
    10   1    -0.35   0.20   0.52     0.00  -0.00  -0.00    -0.00   0.00   0.00
    11   1    -0.43  -0.14  -0.06     0.00   0.00   0.00    -0.00   0.00  -0.00
    12   1    -0.23   0.14   0.35    -0.00   0.00  -0.00     0.00  -0.00   0.00
    13   1     0.01   0.00  -0.01     0.00  -0.00  -0.00    -0.00   0.00   0.00
    14   8     0.00  -0.00  -0.00    -0.00  -0.00  -0.00     0.01  -0.05   0.03
    15   1     0.00   0.00  -0.00     0.00  -0.00   0.00    -0.18   0.85  -0.49

 -------------------
 - Thermochemistry -
 -------------------
 Temperature   298.150 Kelvin.  Pressure   1.00000 Atm.
 Atom     1 has atomic number  6 and mass  12.00000
 Atom     2 has atomic number  1 and mass   1.00783
 Atom     3 has atomic number  6 and mass  12.00000
 Atom     4 has atomic number  6 and mass  12.00000
 Atom     5 has atomic number  8 and mass  15.99491
 Atom     6 has atomic number  8 and mass  15.99491
 Atom     7 has atomic number  6 and mass  12.00000
 Atom     8 has atomic number  6 and mass  12.00000
 Atom     9 has atomic number  1 and mass   1.00783
 Atom    10 has atomic number  1 and mass   1.00783
 Atom    11 has atomic number  1 and mass   1.00783
 Atom    12 has atomic number  1 and mass   1.00783
 Atom    13 has atomic number  1 and mass   1.00783
 Atom    14 has atomic number  8 and mass  15.99491
 Atom    15 has atomic number  1 and mass   1.00783
 Molecular mass:   115.03952 amu.
 Principal axes and moments of inertia in atomic units:
                           1         2         3
     Eigenvalues --   871.504921095.463161560.66752
           X            0.98658  -0.16290   0.01103
           Y            0.16309   0.98644  -0.01861
           Z           -0.00785   0.02016   0.99977
 This molecule is an asymmetric top.
 Rotational symmetry number  1.
 Warning -- assumption of classical behavior for rotation
           may cause significant error
 Rotational temperatures (Kelvin)      0.09938     0.07907     0.05550
 Rotational constants (GHZ):           2.07083     1.64747     1.15639
    1 imaginary frequencies ignored.
 Zero-point vibrational energy     293622.4 (Joules/Mol)
                                   70.17743 (Kcal/Mol)
 Warning -- explicit consideration of  12 degrees of freedom as
           vibrations may cause significant error
 Vibrational temperatures:     83.45   110.74   156.20   247.52   314.23
          (Kelvin)            319.95   331.40   434.20   518.26   587.55
                              737.96   800.47   909.31  1065.88  1087.63
                             1104.84  1131.10  1175.05  1368.65  1589.28
                             1624.76  1698.39  1819.14  1953.70  2024.43
                             2066.93  2147.48  2162.70  2207.33  2674.20
                             3202.10  4420.93  4460.77  4524.30  4534.88
                             4556.66  5017.52  5459.41
 
 Zero-point correction=                           0.111835 (Hartree/Particle)
 Thermal correction to Energy=                    0.121370
 Thermal correction to Enthalpy=                  0.122314
 Thermal correction to Gibbs Free Energy=         0.076293
 Sum of electronic and zero-point Energies=           -420.090193
 Sum of electronic and thermal Energies=              -420.080658
 Sum of electronic and thermal Enthalpies=            -420.079714
 Sum of electronic and thermal Free Energies=         -420.125735
 
                     E (Thermal)             CV                S
                      KCal/Mol        Cal/Mol-Kelvin    Cal/Mol-Kelvin
 Total                   76.161             32.517             96.859
 Electronic               0.000              0.000              1.377
 Translational            0.889              2.981             40.136
 Rotational               0.889              2.981             28.790
 Vibrational             74.383             26.555             26.556
 Vibration     1          0.596              1.974              4.524
 Vibration     2          0.599              1.965              3.967
 Vibration     3          0.606              1.942              3.294
 Vibration     4          0.626              1.877              2.413
 Vibration     5          0.646              1.813              1.972
 Vibration     6          0.648              1.807              1.940
 Vibration     7          0.652              1.795              1.876
 Vibration     8          0.694              1.670              1.407
 Vibration     9          0.735              1.554              1.121
 Vibration    10          0.773              1.452              0.932
 Vibration    11          0.868              1.221              0.627
 Vibration    12          0.912              1.126              0.531
                       Q            Log10(Q)             Ln(Q)
 Total Bot       0.808304D-35        -35.092425        -80.803296
 Total V=0       0.222837D+17         16.347988         37.642634
 Vib (Bot)       0.190715D-48        -48.719615       -112.181058
 Vib (Bot)    1  0.356103D+01          0.551575          1.270049
 Vib (Bot)    2  0.267689D+01          0.427631          0.984657
 Vib (Bot)    3  0.188706D+01          0.275787          0.635022
 Vib (Bot)    4  0.117066D+01          0.068430          0.157565
 Vib (Bot)    5  0.906287D+00         -0.042734         -0.098399
 Vib (Bot)    6  0.888613D+00         -0.051287         -0.118094
 Vib (Bot)    7  0.854981D+00         -0.068043         -0.156676
 Vib (Bot)    8  0.629546D+00         -0.200972         -0.462756
 Vib (Bot)    9  0.508778D+00         -0.293472         -0.675744
 Vib (Bot)   10  0.433771D+00         -0.362740         -0.835240
 Vib (Bot)   11  0.316746D+00         -0.499289         -1.149656
 Vib (Bot)   12  0.280349D+00         -0.552302         -1.271721
 Vib (V=0)       0.525774D+03          2.720799          6.264871
 Vib (V=0)    1  0.409596D+01          0.612356          1.410001
 Vib (V=0)    2  0.322319D+01          0.508286          1.170371
 Vib (V=0)    3  0.245218D+01          0.389553          0.896978
 Vib (V=0)    4  0.177296D+01          0.248700          0.572653
 Vib (V=0)    5  0.153506D+01          0.186126          0.428572
 Vib (V=0)    6  0.151962D+01          0.181736          0.418463
 Vib (V=0)    7  0.149045D+01          0.173318          0.399079
 Vib (V=0)    8  0.130395D+01          0.115259          0.265395
 Vib (V=0)    9  0.121334D+01          0.083983          0.193377
 Vib (V=0)   10  0.116193D+01          0.065182          0.150086
 Vib (V=0)   11  0.109188D+01          0.038177          0.087906
 Vib (V=0)   12  0.107323D+01          0.030694          0.070675
 Electronic      0.200000D+01          0.301030          0.693147
 Translational   0.484981D+08          7.685724         17.697035
 Rotational      0.436953D+06          5.640435         12.987581
 ***** Axes restored to original set *****
 -------------------------------------------------------------------
 Center     Atomic                   Forces (Hartrees/Bohr)
 Number     Number              X              Y              Z
 -------------------------------------------------------------------
      1        6           0.001312494    0.002325303    0.004417339
      2        1           0.000018131    0.000192484    0.000491339
      3        6           0.000690763    0.000503094    0.001360417
      4        6          -0.000052121   -0.000067578    0.000247738
      5        8           0.000279205    0.000224768   -0.000309403
      6        8          -0.000221669   -0.000084127   -0.000291201
      7        6          -0.000222791   -0.000030475   -0.000078795
      8        6           0.000031681    0.000102837    0.000084894
      9        1           0.000090705    0.000054330    0.000075043
     10        1          -0.000060513   -0.000021164    0.000096869
     11        1           0.000005736   -0.000031690   -0.000012124
     12        1           0.000008228    0.000046218   -0.000099754
     13        1           0.000018842    0.000024626    0.000013735
     14        8          -0.001746850   -0.003166139   -0.005969084
     15        1          -0.000151842   -0.000072486   -0.000027013
 -------------------------------------------------------------------
 Cartesian Forces:  Max     0.005969084 RMS     0.001323224

 GradGradGradGradGradGradGradGradGradGradGradGradGradGradGradGradGradGrad
 Berny optimization.
 Search for a local minimum.
 Step number   1 out of a maximum of    2
 All quantities printed in internal units (Hartrees-Bohrs-Radians)
 Second derivative matrix not updated -- analytic derivatives used.
 ITU=  0
     Eigenvalues ---   -0.00032   0.00079   0.00138   0.00201   0.00223
     Eigenvalues ---    0.00268   0.00504   0.01073   0.01816   0.02088
     Eigenvalues ---    0.02678   0.02842   0.03330   0.05993   0.06266
     Eigenvalues ---    0.07735   0.08116   0.08775   0.08989   0.10025
     Eigenvalues ---    0.11513   0.13963   0.16876   0.17316   0.23166
     Eigenvalues ---    0.24777   0.27742   0.35118   0.51781   0.62774
     Eigenvalues ---    0.71489   0.77789   0.78158   0.86274   0.86861
     Eigenvalues ---    0.94113   0.95344   1.76514   2.64867
 Eigenvalue     1 is  -3.16D-04 should be greater than     0.000000 Eigenvector:
                          Y15       Y14       Y2        Y1        Z14
   1                    0.54397   0.41015  -0.28843  -0.21378  -0.18960
                          Z5        X5        Z13       X14       X13
   1                   -0.18753  -0.17212   0.16654  -0.15885   0.15642
 Quadratic step=8.374D-01 exceeds max=3.000D-01 adjusted using Lamda=-6.593D-03.
 Angle between NR and scaled steps=  45.71 degrees.
 Angle between quadratic step and forces=  24.97 degrees.
 Linear search not attempted -- first point.
 B after Tr=     0.001938   -0.002499   -0.004318
         Rot=    0.999999   -0.000931    0.001361   -0.000420 Ang=  -0.20 deg.
 Variable       Old X    -DE/DX   Delta X   Delta X   Delta X     New X
                                 (Linear)    (Quad)   (Total)
    X1       -3.29848   0.00131   0.00000   0.04056   0.03656  -3.26192
    Y1       -0.21196   0.00233   0.00000   0.05530   0.04591  -0.16604
    Z1        2.10199   0.00442   0.00000   0.13164   0.11815   2.22014
    X2       -4.85378   0.00002   0.00000   0.02303   0.01739  -4.83639
    Y2       -1.08874   0.00019   0.00000   0.03694   0.02459  -1.06415
    Z2        3.03097   0.00049   0.00000   0.08677   0.06733   3.09829
    X3       -1.51507   0.00069   0.00000   0.02667   0.02468  -1.49039
    Y3        0.79482   0.00050   0.00000   0.01790   0.01193   0.80675
    Z3        1.11651   0.00136   0.00000   0.07690   0.07003   1.18654
    X4        0.63094  -0.00005   0.00000   0.00471   0.00486   0.63580
    Y4        2.13031  -0.00007   0.00000   0.00462   0.00266   2.13296
    Z4       -0.02117   0.00025   0.00000   0.01464   0.01603  -0.00514
    X5        0.76549   0.00028   0.00000   0.01044   0.00863   0.77412
    Y5        4.38449   0.00022   0.00000   0.00495   0.00305   4.38754
    Z5        0.03331  -0.00031   0.00000  -0.01399  -0.00803   0.02529
    X6        2.39958  -0.00022   0.00000  -0.02416  -0.01973   2.37985
    Y6        0.71539  -0.00008   0.00000  -0.00617  -0.00456   0.71083
    Z6       -1.12207  -0.00029   0.00000  -0.01841  -0.01493  -1.13700
    X7        2.24495  -0.00022   0.00000  -0.02057  -0.01397   2.23098
    Y7       -2.00692  -0.00003   0.00000  -0.00534  -0.00393  -2.01086
    Z7       -1.09793  -0.00008   0.00000   0.00366   0.00166  -1.09626
    X8        3.32360   0.00003   0.00000  -0.00310  -0.00223   3.32137
    Y8       -3.07144   0.00010   0.00000   0.00757   0.00538  -3.06606
    Z8        1.33219   0.00008   0.00000   0.00189   0.00091   1.33310
    X9        0.29216   0.00009   0.00000  -0.02119  -0.01328   0.27889
    Y9       -2.59835   0.00005   0.00000  -0.00832  -0.00800  -2.60634
    Z9       -1.40670   0.00008   0.00000   0.01793   0.00951  -1.39719
   X10        3.36965  -0.00006   0.00000  -0.02950  -0.01798   3.35168
   Y10       -2.57475  -0.00002   0.00000  -0.01381  -0.00843  -2.58318
   Z10       -2.72471   0.00010   0.00000   0.00061   0.00058  -2.72413
   X11        5.25849   0.00001   0.00000  -0.00139  -0.00178   5.25671
   Y11       -2.41524  -0.00003   0.00000   0.00874   0.00768  -2.40756
   Z11        1.60594  -0.00001   0.00000  -0.01309  -0.00757   1.59837
   X12        2.19139   0.00001   0.00000   0.00653   0.00248   2.19387
   Y12       -2.50457   0.00005   0.00000   0.01242   0.00624  -2.49833
   Z12        2.96011  -0.00010   0.00000   0.00630   0.00332   2.96343
   X13        3.33283   0.00002   0.00000  -0.00186   0.00097   3.33380
   Y13       -5.13261   0.00002   0.00000   0.00712   0.00509  -5.12752
   Z13        1.24210   0.00001   0.00000   0.00942   0.00463   1.24673
   X14       -4.50324  -0.00175   0.00000  -0.00555   0.00333  -4.49991
   Y14       -2.25489  -0.00317   0.00000  -0.08362  -0.08650  -2.34139
   Z14       -1.62522  -0.00597   0.00000  -0.19405  -0.21499  -1.84021
   X15       -4.85532  -0.00015   0.00000  -0.03933  -0.02995  -4.88527
   Y15       -0.67491  -0.00007   0.00000   0.00078  -0.00112  -0.67602
   Z15       -2.49282  -0.00003   0.00000  -0.02773  -0.04662  -2.53944
         Item               Value     Threshold  Converged?
 Maximum Force            0.005969     0.000450     NO 
 RMS     Force            0.001323     0.000300     NO 
 Maximum Displacement     0.214986     0.001800     NO 
 RMS     Displacement     0.044108     0.001200     NO 
 Predicted change in Energy=-1.505185D-03
 GradGradGradGradGradGradGradGradGradGradGradGradGradGradGradGradGradGrad


 ----------------------------------------------------------------------

 Electric dipole moment (input orientation):
 (Debye = 10**-18 statcoulomb cm , SI units = C m)
                  (au)            (Debye)         (10**-30 SI)
   Tot        0.138826D+01      0.352860D+01      0.117701D+02
   x         -0.502683D+00     -0.127769D+01     -0.426192D+01
   y         -0.128877D+01     -0.327572D+01     -0.109266D+02
   z          0.116800D+00      0.296875D+00      0.990268D+00

 Dipole polarizability, Alpha (input orientation).
 (esu units = cm**3 , SI units = C**2 m**2 J**-1)
 Alpha(0;0):
               (au)            (10**-24 esu)      (10**-40 SI)
   iso        0.713495D+02      0.105729D+02      0.117639D+02
   aniso      0.205871D+02      0.305069D+01      0.339435D+01
   xx         0.770161D+02      0.114126D+02      0.126982D+02
   yx         0.588843D+01      0.872576D+00      0.970871D+00
   yy         0.766127D+02      0.113528D+02      0.126317D+02
   zx        -0.389807D+01     -0.577634D+00     -0.642705D+00
   zy         0.133065D+01      0.197182D+00      0.219394D+00
   zz         0.604197D+02      0.895327D+01      0.996185D+01

 ----------------------------------------------------------------------

 Dipole orientation:
     6         -2.07272108          2.93061394          1.56798630
     1         -2.83168602          4.09544921          3.02326451
     6         -1.17399874          1.66925931         -0.09532117
     6         -0.11355666          0.22158533         -2.20788050
     8         -0.67448222          0.69271800         -4.34465765
     8          1.48126755         -1.63896520         -1.62740661
     6          2.19815882         -2.12687875          0.95783806
     6          4.35636046         -0.42366924          1.75994168
     1          0.55311446         -1.92932797          2.18799388
     1          2.77385035         -4.10225745          0.94085574
     1          5.95290705         -0.63489796          0.47318795
     1          3.77477677          1.55489289          1.78063336
     1          4.97094591         -0.93285015          3.66248298
     8         -3.84795374         -0.57488949          3.58716518
     1         -4.96150457         -0.94713371          2.17490491

 Electric dipole moment (dipole orientation):
 (Debye = 10**-18 statcoulomb cm , SI units = C m)
                  (au)            (Debye)         (10**-30 SI)
   Tot        0.138826D+01      0.352860D+01      0.117701D+02
   x          0.000000D+00      0.000000D+00      0.000000D+00
   y          0.000000D+00      0.000000D+00      0.000000D+00
   z          0.138826D+01      0.352860D+01      0.117701D+02

 Dipole polarizability, Alpha (dipole orientation).
 (esu units = cm**3 , SI units = C**2 m**2 J**-1)
 Alpha(0;0):
               (au)            (10**-24 esu)      (10**-40 SI)
   iso        0.713495D+02      0.105729D+02      0.117639D+02
   aniso      0.205871D+02      0.305069D+01      0.339435D+01
   xx         0.688110D+02      0.101967D+02      0.113454D+02
   yx        -0.695322D+01     -0.103036D+01     -0.114643D+01
   yy         0.646981D+02      0.958726D+01      0.106673D+02
   zx        -0.502516D+01     -0.744651D+00     -0.828536D+00
   zy         0.326418D+00      0.483702D-01      0.538191D-01
   zz         0.805394D+02      0.119347D+02      0.132792D+02

 ----------------------------------------------------------------------
 1\1\GINC-BOSON\Freq\UM062X\6-311++G(d,p)\C5H7O3(2)\LOKI\28-Mar-2025\0\
 \# freq 6-311++g(d,p) m062x\\Title Card Required\\0,2\C,-1.74548,-0.11
 2164,1.112325\H,-2.568508,-0.576139,1.603919\C,-0.801742,0.420601,0.59
 0833\C,0.333878,1.127309,-0.011203\O,0.40508,2.320172,0.017629\O,1.269
 804,0.378568,-0.593773\C,1.187975,-1.062018,-0.580997\C,1.758774,-1.62
 5334,0.704963\H,0.154607,-1.374985,-0.744393\H,1.783143,-1.362501,-1.4
 41856\H,2.782671,-1.27809,0.849827\H,1.159632,-1.325361,1.566422\H,1.7
 63659,-2.716061,0.657293\O,-2.38301,-1.193236,-0.860029\H,-2.569326,-0
 .357145,-1.319143\\Version=ES64L-G16RevA.03\State=2-A\HF=-420.2020279\
 S2=0.756656\S2-1=0.\S2A=0.750031\RMSD=5.301e-09\RMSF=1.323e-03\ZeroPoi
 nt=0.1118348\Thermal=0.12137\Dipole=-0.5026831,-1.2887685,0.1167995\Di
 poleDeriv=-0.3314432,-0.1427096,-0.1372253,-0.1212203,-0.2283374,-0.14
 58847,-0.0107166,-0.014733,-0.1625525,0.2546698,0.0151798,-0.0398682,0
 .0309088,0.2302842,-0.003518,-0.0194801,-0.0021401,0.2268143,-0.360997
 7,-0.0470275,0.237909,-0.0885104,-0.1390678,0.1006016,0.1335512,0.0111
 213,-0.2913895,1.7487651,-0.3345425,-0.4986588,-0.1389031,2.1101654,0.
 1140481,-0.7628688,0.2644754,0.6679182,-0.6578703,-0.1150116,0.0871323
 ,-0.0320511,-1.4823913,-0.0201152,0.1728711,0.0182897,-0.4019291,-0.94
 82154,0.6329309,0.2132638,0.4851762,-1.312275,-0.1006187,0.3552615,-0.
 3592051,-0.4968593,0.2656341,-0.0876221,0.0289804,-0.3010894,0.8552298
 ,-0.0312511,0.028922,-0.0552831,0.34081,0.0360919,0.0348225,-0.0448211
 ,0.0677719,-0.0309767,0.0075564,-0.0484461,0.0690025,-0.0837994,-0.012
 0673,-0.0354236,-0.0395295,0.0392849,-0.024561,0.0198052,-0.0357998,0.
 0274039,0.0441276,0.0135383,0.0515173,0.0798913,0.0349132,0.0079718,0.
 0019091,0.054453,-0.0327292,-0.0519609,-0.0749276,-0.0276462,-0.042021
 5,-0.0707838,0.0629601,-0.0028291,-0.0072665,0.0192625,0.0503405,0.014
 1641,0.0297198,0.0774214,0.0234366,0.053888,-0.0474518,0.0544929,-0.01
 76727,-0.0382207,0.074064,-0.0037679,-0.0112131,0.0269211,-0.1085768,0
 .0003074,-0.0194535,-0.0084377,0.0696771,-0.3769707,-0.0039409,0.06074
 84,0.054798,-0.1519792,0.0790083,0.0478628,-0.0221743,-0.1880833,0.355
 5649,0.0335216,0.0279911,-0.0106526,0.157666,0.0284324,0.0566169,0.102
 8198,0.3151068\Polar=77.0161076,5.8884331,76.6127352,-3.8980678,1.3306
 485,60.4196519\Quadrupole=3.8581044,-6.8545331,2.9964287,-4.5388953,-0
 .0715285,-0.9727375\PG=C01 [X(C5H7O3)]\NImag=1\\0.95438030,0.50190225,
 0.33727289,-0.51567273,-0.29330162,0.35796800,-0.26444808,-0.13268601,
 0.14117452,0.25480909,-0.13258392,-0.10139218,0.08173843,0.13399726,0.
 09250612,0.14223571,0.08256411,-0.11097452,-0.14061003,-0.07969003,0.1
 0356051,-0.69401482,-0.36840742,0.37725509,0.00790839,0.00136211,-0.00
 252285,0.91175156,-0.37234552,-0.23786529,0.21580984,0.00143011,0.0049
 4767,-0.00259443,0.45740701,0.37272601,0.36610815,0.20739252,-0.240403
 89,0.00023915,-0.00104504,0.00868927,-0.46549558,-0.24801361,0.3198733
 3,0.00991366,0.00106186,-0.00323568,0.00178021,-0.00356385,0.00202589,
 -0.18053057,-0.05867787,0.05680766,0.47229931,-0.00035519,0.00149042,-
 0.00154312,-0.00191692,0.00435231,0.00095343,-0.04377164,-0.08551631,0
 .02724037,0.03645763,1.03543210,-0.00374386,-0.00117017,0.00489334,0.0
 0211277,0.00193367,0.00429441,0.05731238,0.03373907,-0.10484168,-0.149
 42552,0.02655779,0.28796052,-0.00383997,-0.00175470,0.00152914,-0.0003
 5989,0.00155046,-0.00029319,0.00230609,-0.04030779,0.00957327,-0.09604
 159,-0.06879006,0.00642254,0.08799285,-0.00045094,0.00149797,0.0008120
 8,-0.00019319,0.00100105,0.00013398,-0.03802517,-0.05768432,0.01578060
 ,-0.05741015,-0.77792778,-0.00791552,0.04986229,0.91568331,0.00215422,
 0.00119768,-0.00085726,-0.00040464,-0.00074404,-0.00085545,0.01003395,
 0.01771723,0.01887634,0.00669728,-0.00173843,-0.08036979,-0.02897946,0
 .02378633,0.04928085,-0.00357249,-0.00308775,0.00178188,0.00039583,-0.
 00052707,-0.00074873,-0.03659997,0.01073187,0.03141856,-0.20931951,0.0
 5042230,0.09228120,0.01086264,0.04313804,0.00626007,0.30987201,0.00110
 884,0.00025619,-0.00025231,0.00015488,-0.00092052,0.00006190,-0.002919
 28,0.00875150,-0.00110803,0.07545310,-0.14821837,-0.04561325,0.0588496
 5,-0.08681397,-0.04033117,-0.09810879,0.51629273,0.00233762,0.00195964
 ,-0.00065974,-0.00066730,0.00022805,-0.00042523,0.03041736,-0.00665556
 ,0.00010680,0.09543146,-0.03349925,-0.10471935,0.00634839,-0.03094431,
 0.01072594,-0.14445448,0.07177366,0.15043868,0.00007434,0.00042296,-0.
 00043613,-0.00005411,-0.00005046,0.00016606,-0.00308673,0.00334034,0.0
 0304197,0.00324110,0.02650889,-0.00529367,-0.00153962,0.00363494,0.004
 08383,-0.08482326,-0.03255974,0.01199705,0.63437270,-0.00236368,-0.003
 18812,0.00065669,0.00015693,0.00009734,-0.00015907,-0.00244688,0.00117
 635,0.00268397,0.02657759,-0.03668581,-0.01944882,-0.00397857,0.013361
 93,0.00351962,-0.01717675,-0.19307370,0.00072111,0.00762000,0.43592877
 ,0.00021766,-0.00101224,-0.00068182,0.00004382,-0.00008156,0.00000388,
 0.00282106,-0.00118074,-0.00108742,-0.00582312,-0.01973289,-0.00936402
 ,0.00510355,-0.00170060,0.00375448,0.01164333,0.00924264,-0.06347678,-
 0.04266942,0.03859777,0.56576577,0.00036686,0.00030639,-0.00010876,-0.
 00000181,-0.00004594,-0.00006277,-0.00053280,0.00051566,0.00011574,-0.
 00120387,0.00056605,-0.00042902,0.00017055,-0.00045585,-0.00008856,0.0
 0447884,0.00122522,0.00096014,-0.10698073,0.01695386,-0.04564284,0.572
 14590,0.00037390,0.00041495,0.00001506,0.00004383,-0.00007100,0.000017
 62,0.00089217,-0.00034628,-0.00061055,-0.00545912,0.00333650,0.0079595
 3,0.00077344,-0.00309915,-0.00252597,0.01933305,-0.03858949,0.03212243
 ,0.01245700,-0.08231258,0.02671152,0.01676910,0.57192873,-0.00011182,0
 .00028283,-0.00045780,0.00012444,-0.00001246,0.00005888,-0.00079657,0.
 00020636,-0.00040623,-0.00176472,0.00044527,0.00306033,0.00022426,-0.0
 0126851,-0.00075422,0.00340081,0.00278966,0.00403622,-0.04541342,0.037
 89054,-0.18835489,-0.02922582,0.03266829,0.52282451,-0.00096351,0.0008
 5730,0.00062775,-0.00003049,0.00006488,0.00010927,-0.00111615,0.001305
 63,0.00081290,0.00144946,0.00094600,0.00000074,-0.00026779,0.00020410,
 0.00022093,0.00414941,-0.00182395,0.00155559,-0.29718634,-0.07148058,-
 0.03722850,-0.00830887,-0.00139987,-0.00135116,0.31636227,0.00032839,0
 .00011801,-0.00019146,0.00003916,0.00006520,-0.00002724,0.00184855,-0.
 00109135,-0.00137482,-0.00855158,0.00406340,0.00344441,0.00183182,-0.0
 0184080,-0.00049369,-0.03127764,-0.03040454,-0.00641276,-0.05886899,-0
 .06889765,-0.01173068,0.01340090,0.00630953,0.00154232,0.07311524,0.08
 803634,-0.00001934,-0.00032424,-0.00030984,0.00012139,-0.00001231,-0.0
 0004247,0.00101176,-0.00145091,-0.00106397,-0.00160239,-0.00078910,0.0
 0115730,0.00039509,0.00007677,-0.00030927,0.00155053,0.00022656,0.0004
 0679,-0.03503371,-0.01007121,-0.05885792,-0.02855889,-0.00731931,-0.00
 333457,0.03907514,0.01023648,0.05983493,-0.00006093,0.00033865,0.00005
 939,0.00004001,0.00006767,-0.00002884,-0.00015365,-0.00018302,0.000138
 04,-0.00019411,-0.00016531,-0.00001722,0.00029600,-0.00035890,0.000048
 82,0.00286058,-0.00156826,-0.00314523,-0.14032817,0.04207365,0.1229018
 2,0.00879405,-0.00422476,-0.01299949,-0.01413509,0.00841842,0.02411671
 ,0.14248580,0.00031761,0.00035216,-0.00012484,0.00000613,-0.00001898,-
 0.00000832,0.00030242,0.00015818,0.00004217,-0.00613664,-0.00234576,0.
 00006755,0.00193844,-0.00309177,-0.00036224,0.02591967,-0.03042027,-0.
 02939540,0.03222742,-0.06001635,-0.05020576,-0.00782358,0.00512762,0.0
 1042757,-0.00354775,0.00462527,0.00746514,-0.04485513,0.08538175,-0.00
 005647,0.00008807,0.00014509,-0.00002523,0.00000407,-0.00000419,-0.000
 24620,-0.00011068,-0.00002113,-0.00133655,0.00160329,0.00087640,-0.000
 02039,-0.00013859,-0.00007167,-0.00013413,-0.00132376,0.00322472,0.121
 31997,-0.05973549,-0.22269855,0.01550869,-0.00583418,-0.02272329,-0.00
 274035,0.00245741,0.00549034,-0.12933617,0.06075377,0.23752655,0.00006
 115,0.00017890,-0.00010684,0.00004751,-0.00001617,-0.00001591,-0.00005
 331,-0.00000455,-0.00016538,-0.00083638,-0.00020377,0.00024975,0.00021
 079,0.00023077,-0.00002510,0.00138289,0.00020779,0.00115204,-0.0121011
 7,-0.00426193,-0.00222863,-0.28899478,-0.08239091,-0.03107260,0.000888
 47,0.00082974,-0.00205889,0.00078409,0.00028855,-0.00010090,0.31139942
 ,-0.00005288,-0.00014760,0.00008102,0.00000069,-0.00001485,-0.00000471
 ,-0.00001738,0.00003409,0.00004828,0.00107333,-0.00045855,-0.00059231,
 -0.00021007,0.00023870,0.00012497,-0.00067877,0.00217768,-0.00088823,0
 .01398229,0.00266616,0.00283462,-0.08389831,-0.07543226,-0.01219479,0.
 00106209,-0.00061460,0.00255014,-0.00055910,0.00015234,-0.00070736,0.0
 9012586,0.07714214,0.00009013,-0.00008054,0.00019640,-0.00004778,0.000
 03428,-0.00002925,0.00030229,-0.00009411,-0.00001936,0.00005494,0.0003
 3970,0.00011482,-0.00012749,-0.00006678,-0.00005451,0.00205342,-0.0013
 3170,0.00184379,-0.03123164,-0.01101361,-0.00535755,-0.02920842,-0.010
 28144,-0.05200550,-0.00117269,0.00321431,-0.00473301,0.00040645,-0.000
 63962,0.00110431,0.03650336,0.01065837,0.05621924,-0.00044985,0.000308
 26,-0.00014069,-0.00004506,-0.00000494,0.00005040,-0.00115159,0.000541
 08,-0.00034609,0.00099479,0.00025713,0.00016781,-0.00035942,-0.0002311
 7,-0.00000727,-0.00000459,-0.00090684,0.00124137,0.00873733,-0.0052431
 2,-0.01231166,-0.13302251,0.04248846,0.11977274,0.00069712,-0.00067851
 ,0.00057372,-0.00045347,0.00167616,-0.00292582,-0.01493555,0.00979899,
 0.02339276,0.14048271,0.00001570,-0.00030728,0.00006123,-0.00004988,0.
 00012028,-0.00003698,0.00093160,-0.00038332,0.00038420,0.00047754,-0.0
 0028226,0.00010420,-0.00007374,0.00005807,-0.00002529,-0.00122641,0.00
 202991,-0.00099571,-0.00771734,0.00199130,0.01189309,0.04138801,-0.068
 65271,-0.06067893,-0.00007067,0.00002333,-0.00103265,0.00120477,-0.000
 20734,0.00264353,-0.00576479,0.00254653,0.00976995,-0.04753511,0.07043
 870,0.00023942,-0.00028599,0.00039764,-0.00009207,-0.00000710,0.000012
 82,0.00006994,-0.00006147,0.00010245,0.00126828,0.00072501,-0.00118385
 ,-0.00044325,0.00020448,0.00024187,-0.00095337,-0.00014297,0.00311281,
 0.01690627,-0.00995316,-0.02491381,0.11762820,-0.05872038,-0.21334276,
 0.00017888,-0.00009497,0.00112310,-0.00316487,0.00266013,-0.00345302,-
 0.00294267,0.00211792,0.00426548,-0.12799016,0.06362773,0.23384385,-0.
 00014514,-0.00005803,-0.00000458,-0.00001282,0.00006861,-0.00000218,-0
 .00012482,0.00004121,-0.00005984,0.00086979,-0.00073195,-0.00058849,-0
 .00014819,0.00044376,0.00028113,-0.00062933,0.00261872,-0.00254542,-0.
 00112347,0.01163841,0.00328496,-0.04631463,0.00074282,-0.00091642,-0.0
 0013118,-0.00045319,0.00045798,0.00039139,-0.00020244,0.00016185,0.002
 26631,-0.03072760,-0.00076479,-0.00049281,0.01836039,-0.00060771,0.045
 53063,0.00017219,0.00005818,0.00001284,-0.00001611,-0.00005243,0.00000
 676,0.00012380,-0.00002257,-0.00007854,-0.00159554,0.00142680,0.001105
 43,0.00017798,-0.00065142,-0.00027004,0.00243919,-0.00106508,0.0021658
 9,-0.00130300,-0.01127939,-0.00356790,0.00129975,-0.31847907,-0.012112
 60,0.00032007,0.00023994,0.00019296,-0.00020916,0.00032050,0.00031529,
 0.00078464,-0.00833168,-0.00043669,-0.00044117,-0.00735589,-0.00001994
 ,-0.00171317,0.34516404,-0.00005808,-0.00012783,0.00012351,-0.00000421
 ,-0.00001925,0.00001007,-0.00007140,-0.00008020,0.00016812,0.00207970,
 -0.00099832,-0.00280222,-0.00036876,0.00122321,0.00080223,-0.00456870,
 0.00658491,-0.00409589,0.00253320,0.02602327,0.00519546,-0.00089138,-0
 .01421236,-0.04865050,-0.00032864,-0.00071616,0.00090207,0.00104527,-0
 .00062979,0.00063869,0.00080357,-0.00401443,-0.00154533,-0.00146297,-0
 .02577722,-0.00014534,0.00125652,0.01274303,0.04941006,0.00299242,0.00
 006704,-0.00256023,-0.00064281,-0.00019830,-0.00054332,-0.00359157,-0.
 00380704,-0.00170212,-0.00164627,0.00181940,0.00171985,0.00052275,-0.0
 0089166,-0.00030589,0.00077818,-0.00172501,-0.00103087,0.00141773,0.00
 195118,-0.00000983,-0.00081927,-0.00052463,0.00016301,-0.00109906,-0.0
 0059637,0.00027289,-0.00032446,-0.00011699,-0.00006558,-0.00016613,0.0
 0013246,-0.00034397,0.00002299,0.00004461,-0.00012414,0.00005773,0.000
 00593,0.00003437,0.02274869,0.00628000,0.00175695,-0.00142453,-0.00115
 117,-0.00066949,-0.00122907,-0.00705598,-0.00527433,0.00057646,0.00029
 434,0.00040960,0.00008908,0.00005191,-0.00007801,-0.00006650,-0.000135
 39,0.00021054,-0.00010735,0.00039260,0.00001114,-0.00000837,-0.0001642
 3,-0.00008175,0.00004692,0.00033654,-0.00054204,-0.00004119,-0.0000195
 8,-0.00001210,-0.00001558,0.00000840,0.00002522,-0.00004655,-0.0000350
 4,-0.00000357,-0.00004198,-0.00002671,0.00002911,-0.00002268,-0.081179
 60,0.39097818,0.00664596,0.00175221,-0.00712147,-0.00199502,-0.0023727
 7,-0.00355245,-0.01080078,-0.00773306,0.00058638,0.00168819,0.00125478
 ,-0.00109405,-0.00021669,-0.00083247,0.00024810,-0.00068573,-0.0000353
 4,0.00036130,0.00008196,-0.00024687,0.00005076,0.00007912,0.00010126,0
 .00002894,0.00051896,0.00011077,-0.00068605,-0.00023150,-0.00001299,-0
 .00002418,-0.00001120,-0.00002605,0.00003533,0.00000953,0.00003487,0.0
 0005140,0.00001613,-0.00000926,-0.00003053,0.05219282,-0.20140100,0.12
 803068,-0.00029393,0.00055031,-0.00016212,0.00061404,-0.00012035,0.000
 24049,-0.00101005,0.00001289,-0.00048642,-0.00077601,-0.00104257,-0.00
 076927,0.00019479,0.00050313,0.00003069,0.00016877,-0.00000634,0.00040
 228,-0.00061959,-0.00002010,-0.00010220,0.00022306,0.00012551,-0.00003
 324,-0.00030824,0.00061405,-0.00030198,-0.00000204,0.00000614,-0.00000
 272,0.00004671,-0.00003161,0.00009343,-0.00002010,0.00001532,0.0000272
 3,0.00000652,-0.00004540,0.00000152,-0.02025092,0.08240392,-0.04729176
 ,0.02202698,-0.00234675,-0.00031724,-0.00234930,0.00018429,0.00004947,
 0.00001205,-0.00022390,0.00038997,-0.00191798,-0.00000066,0.00092368,-
 0.00026065,0.00007893,-0.00065381,0.00021155,0.00023444,-0.00021260,-0
 .00007220,-0.00008690,0.00022061,-0.00005890,-0.00003703,-0.00005304,-
 0.00003245,0.00011095,-0.00009004,0.00029286,0.00004005,-0.00000526,0.
 00000021,-0.00001251,0.00001667,-0.00002558,0.00000580,-0.00001575,-0.
 00000732,-0.00000081,-0.00000105,0.00002381,0.08501898,-0.38675945,0.2
 0941594,-0.08296489,0.38650783,-0.00036658,0.00106554,-0.00225763,0.00
 003020,0.00004606,-0.00074629,0.00070957,0.00050227,-0.00055901,-0.002
 86540,-0.00081852,0.00201785,0.00085299,0.00084933,-0.00065763,0.00115
 533,-0.00054081,-0.00088005,-0.00005233,0.00053528,0.00002240,-0.00007
 542,-0.00009151,0.00002088,-0.00027880,0.00003609,0.00042255,0.0002068
 3,-0.00003736,-0.00001007,0.00001939,0.00001256,-0.00003488,-0.0000236
 7,0.00002799,-0.00011263,0.00003085,-0.00004723,0.00001961,-0.04769699
 ,0.20369234,-0.11688415,0.04835406,-0.20523202,0.11963904\\-0.00131249
 ,-0.00232530,-0.00441734,-0.00001813,-0.00019248,-0.00049134,-0.000690
 76,-0.00050309,-0.00136042,0.00005212,0.00006758,-0.00024774,-0.000279
 20,-0.00022477,0.00030940,0.00022167,0.00008413,0.00029120,0.00022279,
 0.00003047,0.00007880,-0.00003168,-0.00010284,-0.00008489,-0.00009071,
 -0.00005433,-0.00007504,0.00006051,0.00002116,-0.00009687,-0.00000574,
 0.00003169,0.00001212,-0.00000823,-0.00004622,0.00009975,-0.00001884,-
 0.00002463,-0.00001373,0.00174685,0.00316614,0.00596908,0.00015184,0.0
 0007249,0.00002701\\\@


 IT WAS A GAME, A VERY INTERESTING GAME ONE COULD
 PLAY.  WHENEVER ONE SOLVED ONE OF THE LITTLE PROBLEMS,
 ONE COULD WRITE A PAPER ABOUT IT.  IT WAS VERY EASY IN
 THOSE DAYS FOR ANY SECOND-RATE PHYSICIST TO DO
 FIRST-RATE WORK.  THERE HAS NOT BEEN SUCH A GLORIOUS
 TIME SINCE.  IT IS VERY DIFFICULT NOW FOR A FIRST-RATE
 PHYSICIST TO DO SECOND-RATE WORK.
     P.A.M. DIRAC, ON THE EARLY DAYS OF QUANTUM MECHANICS
                   DIRECTIONS IN PHYSICS, 1978, P. 7
 Job cpu time:       0 days  1 hours 16 minutes  1.8 seconds.
 Elapsed time:       0 days  0 hours 12 minutes 53.1 seconds.
 File lengths (MBytes):  RWF=    146 Int=      0 D2E=      0 Chk=      5 Scr=      1
 Normal termination of Gaussian 16 at Fri Mar 28 18:36:14 2025.
