 Entering Gaussian System, Link 0=g16
 Initial command:
 /opt/g16/l1.exe "/home/loki/Research/Transition_states/Addition/ts4_irc_points/Gau-452016.inp" -scrdir="/home/loki/Research/Transition_states/Addition/ts4_irc_points/"
 Entering Link 1 = /opt/g16/l1.exe PID=    452019.
  
 Copyright (c) 1988,1990,1992,1993,1995,1998,2003,2009,2016,
            Gaussian, Inc.  All Rights Reserved.
  
 This is part of the Gaussian(R) 16 program.  It is based on
 the Gaussian(R) 09 system (copyright 2009, Gaussian, Inc.),
 the Gaussian(R) 03 system (copyright 2003, Gaussian, Inc.),
 the Gaussian(R) 98 system (copyright 1998, Gaussian, Inc.),
 the Gaussian(R) 94 system (copyright 1995, Gaussian, Inc.),
 the Gaussian 92(TM) system (copyright 1992, Gaussian, Inc.),
 the Gaussian 90(TM) system (copyright 1990, Gaussian, Inc.),
 the Gaussian 88(TM) system (copyright 1988, Gaussian, Inc.),
 the Gaussian 86(TM) system (copyright 1986, Carnegie Mellon
 University), and the Gaussian 82(TM) system (copyright 1983,
 Carnegie Mellon University). Gaussian is a federally registered
 trademark of Gaussian, Inc.
  
 This software contains proprietary and confidential information,
 including trade secrets, belonging to Gaussian, Inc.
  
 This software is provided under written license and may be
 used, copied, transmitted, or stored only in accord with that
 written license.
  
 The following legend is applicable only to US Government
 contracts under FAR:
  
                    RESTRICTED RIGHTS LEGEND
  
 Use, reproduction and disclosure by the US Government is
 subject to restrictions as set forth in subparagraphs (a)
 and (c) of the Commercial Computer Software - Restricted
 Rights clause in FAR 52.227-19.
  
 Gaussian, Inc.
 340 Quinnipiac St., Bldg. 40, Wallingford CT 06492
  
  
 ---------------------------------------------------------------
 Warning -- This program may not be used in any manner that
 competes with the business of Gaussian, Inc. or will provide
 assistance to any competitor of Gaussian, Inc.  The licensee
 of this program is prohibited from giving any competitor of
 Gaussian, Inc. access to this program.  By using this program,
 the user acknowledges that Gaussian, Inc. is engaged in the
 business of creating and licensing software in the field of
 computational chemistry and represents and warrants to the
 licensee that it is not a competitor of Gaussian, Inc. and that
 it will not use this program in any manner prohibited above.
 ---------------------------------------------------------------
  

 Cite this work as:
 Gaussian 16, Revision A.03,
 M. J. Frisch, G. W. Trucks, H. B. Schlegel, G. E. Scuseria, 
 M. A. Robb, J. R. Cheeseman, G. Scalmani, V. Barone, 
 G. A. Petersson, H. Nakatsuji, X. Li, M. Caricato, A. V. Marenich, 
 J. Bloino, B. G. Janesko, R. Gomperts, B. Mennucci, H. P. Hratchian, 
 J. V. Ortiz, A. F. Izmaylov, J. L. Sonnenberg, D. Williams-Young, 
 F. Ding, F. Lipparini, F. Egidi, J. Goings, B. Peng, A. Petrone, 
 T. Henderson, D. Ranasinghe, V. G. Zakrzewski, J. Gao, N. Rega, 
 G. Zheng, W. Liang, M. Hada, M. Ehara, K. Toyota, R. Fukuda, 
 J. Hasegawa, M. Ishida, T. Nakajima, Y. Honda, O. Kitao, H. Nakai, 
 T. Vreven, K. Throssell, J. A. Montgomery, Jr., J. E. Peralta, 
 F. Ogliaro, M. J. Bearpark, J. J. Heyd, E. N. Brothers, K. N. Kudin, 
 V. N. Staroverov, T. A. Keith, R. Kobayashi, J. Normand, 
 K. Raghavachari, A. P. Rendell, J. C. Burant, S. S. Iyengar, 
 J. Tomasi, M. Cossi, J. M. Millam, M. Klene, C. Adamo, R. Cammi, 
 J. W. Ochterski, R. L. Martin, K. Morokuma, O. Farkas, 
 J. B. Foresman, and D. J. Fox, Gaussian, Inc., Wallingford CT, 2016.
 
 ******************************************
 Gaussian 16:  ES64L-G16RevA.03 25-Dec-2016
                28-Mar-2025 
 ******************************************
 %chk=ethyl_propiolate.chk
 %nprocshared=6
 Will use up to    6 processors via shared memory.
 %mem=12GB
 --------------------------
 # freq 6-311++g(d,p) m062x
 --------------------------
 1/10=4,30=1,38=1/1,3;
 2/12=2,17=6,18=5,40=1/2;
 3/5=4,6=6,7=1111,11=2,25=1,30=1,71=2,74=-55,140=1/1,2,3;
 4//1;
 5/5=2,38=5,98=1/2;
 8/6=4,10=90,11=11/1;
 11/6=1,8=1,9=11,15=111,16=1/1,2,10;
 10/6=1/2;
 6/7=2,8=2,9=2,10=2,28=1/1;
 7/8=1,10=1,25=1/1,2,3,16;
 1/10=4,30=1/3;
 99//99;
 -------------------
 Title Card Required
 -------------------
 Symbolic Z-matrix:
 Charge =  0 Multiplicity = 2
 C                    -1.78756  -0.18761   0.96433 
 H                    -2.57336  -0.59827   1.55703 
 C                    -0.80605   0.41639   0.57596 
 C                     0.33275   1.12575  -0.01256 
 O                     0.40142   2.31952   0.02109 
 O                     1.27131   0.37871  -0.59082 
 C                     1.18831  -1.06303  -0.58174 
 C                     1.75793  -1.62633   0.70468 
 H                     0.15503  -1.37477  -0.74827 
 H                     1.78568  -1.36129  -1.44172 
 H                     2.78173  -1.27934   0.85076 
 H                     1.15848  -1.32665   1.56628 
 H                     1.76233  -2.71702   0.65744 
 O                    -2.34654  -1.12937  -0.7416 
 H                    -2.53689  -0.34776  -1.28401 
 

 GradGradGradGradGradGradGradGradGradGradGradGradGradGradGradGradGradGrad
 Berny optimization.
 Initialization pass.
 Trust Radius=3.00D-01 FncErr=1.00D-07 GrdErr=1.00D-07 EigMax=2.50D+02 EigMin=1.00D-04
 Number of steps in this run=      2 maximum allowed number of steps=      2.
 GradGradGradGradGradGradGradGradGradGradGradGradGradGradGradGradGradGrad

                          Input orientation:                          
 ---------------------------------------------------------------------
 Center     Atomic      Atomic             Coordinates (Angstroms)
 Number     Number       Type             X           Y           Z
 ---------------------------------------------------------------------
      1          6           0       -1.787555   -0.187612    0.964329
      2          1           0       -2.573363   -0.598267    1.557034
      3          6           0       -0.806052    0.416389    0.575959
      4          6           0        0.332748    1.125755   -0.012563
      5          8           0        0.401425    2.319516    0.021093
      6          8           0        1.271313    0.378706   -0.590821
      7          6           0        1.188314   -1.063034   -0.581742
      8          6           0        1.757933   -1.626329    0.704683
      9          1           0        0.155027   -1.374770   -0.748272
     10          1           0        1.785685   -1.361293   -1.441721
     11          1           0        2.781732   -1.279343    0.850759
     12          1           0        1.158476   -1.326646    1.566277
     13          1           0        1.762331   -2.717017    0.657444
     14          8           0       -2.346542   -1.129374   -0.741598
     15          1           0       -2.536888   -0.347761   -1.284005
 ---------------------------------------------------------------------
                    Distance matrix (angstroms):
                    1          2          3          4          5
     1  C    0.000000
     2  H    1.066504   0.000000
     3  C    1.216140   2.261730   0.000000
     4  C    2.678607   3.725771   1.465068   0.000000
     5  O    3.459338   4.440939   2.321157   1.196208   0.000000
     6  O    3.477913   4.511019   2.382906   1.331679   2.213117
     7  C    3.465905   4.352078   2.739792   2.418006   3.524805
     8  C    3.835076   4.532498   3.280745   3.181126   4.228132
     9  H    2.848854   3.655339   2.426007   2.612562   3.781585
    10  H    4.464823   5.345656   3.734740   3.215420   4.195754
    11  H    4.699272   5.444238   3.977841   3.539399   4.393859
    12  H    3.215406   3.802268   2.806826   3.031309   4.031776
    13  H    4.369641   4.908829   4.052341   4.154457   5.255823
    14  O    2.027207   2.370070   2.549206   3.577107   4.475250
    15  H    2.375322   2.852295   2.653146   3.467366   4.177479
                    6          7          8          9         10
     6  O    0.000000
     7  C    1.444156   0.000000
     8  C    2.436246   1.515472   0.000000
     9  H    2.084601   1.092059   2.177996   0.000000
    10  H    2.004047   1.088749   2.162883   1.772032   0.000000
    11  H    2.666204   2.153562   1.090826   3.076619   2.500858
    12  H    2.752095   2.164340   1.091560   2.523165   3.072888
    13  H    3.373835   2.144933   1.091719   2.522120   2.499005
    14  O    3.922488   3.539091   4.380115   2.513585   4.197530
    15  H    3.938357   3.857709   4.902561   2.930557   4.442607
                   11         12         13         14         15
    11  H    0.000000
    12  H    1.774588   0.000000
    13  H    1.772979   1.767413   0.000000
    14  O    5.371898   4.201232   4.621771   0.000000
    15  H    5.806271   4.768442   5.278814   0.970235   0.000000
 Stoichiometry    C5H7O3(2)
 Framework group  C1[X(C5H7O3)]
 Deg. of freedom    39
 Full point group                 C1      NOp   1
 Largest Abelian subgroup         C1      NOp   1
 Largest concise Abelian subgroup C1      NOp   1
                         Standard orientation:                         
 ---------------------------------------------------------------------
 Center     Atomic      Atomic             Coordinates (Angstroms)
 Number     Number       Type             X           Y           Z
 ---------------------------------------------------------------------
      1          6           0       -1.808127   -0.114444    0.954970
      2          1           0       -2.593935   -0.525099    1.547675
      3          6           0       -0.826624    0.489558    0.566600
      4          6           0        0.312176    1.198924   -0.021922
      5          8           0        0.380852    2.392685    0.011734
      6          8           0        1.250741    0.451875   -0.600180
      7          6           0        1.167742   -0.989865   -0.591101
      8          6           0        1.737361   -1.553160    0.695324
      9          1           0        0.134455   -1.301601   -0.757631
     10          1           0        1.765113   -1.288124   -1.451080
     11          1           0        2.761160   -1.206173    0.841400
     12          1           0        1.137904   -1.253477    1.556918
     13          1           0        1.741760   -2.643848    0.648085
     14          8           0       -2.367114   -1.056206   -0.750957
     15          1           0       -2.557460   -0.274593   -1.293364
 ---------------------------------------------------------------------
 Rotational constants (GHZ):           2.1482943           1.6950410           1.1654899
 Standard basis: 6-311++G(d,p) (5D, 7F)
 There are   233 symmetry adapted cartesian basis functions of A   symmetry.
 There are   225 symmetry adapted basis functions of A   symmetry.
   225 basis functions,   351 primitive gaussians,   233 cartesian basis functions
    31 alpha electrons       30 beta electrons
       nuclear repulsion energy       357.5452123370 Hartrees.
 NAtoms=   15 NActive=   15 NUniq=   15 SFac= 1.00D+00 NAtFMM=   60 NAOKFM=F Big=F
 Integral buffers will be    131072 words long.
 Raffenetti 2 integral format.
 Two-electron integral symmetry is turned on.
 One-electron integrals computed using PRISM.
 NBasis=   225 RedAO= T EigKep=  2.58D-06  NBF=   225
 NBsUse=   225 1.00D-06 EigRej= -1.00D+00 NBFU=   225
 ExpMin= 3.60D-02 ExpMax= 8.59D+03 ExpMxC= 1.30D+03 IAcc=3 IRadAn=         5 AccDes= 0.00D+00
 Harris functional with IExCor= 1009 and IRadAn=       5 diagonalized for initial guess.
 HarFok:  IExCor= 1009 AccDes= 0.00D+00 IRadAn=         5 IDoV= 1 UseB2=F ITyADJ=14
 ICtDFT=  3500011 ScaDFX=  1.000000  1.000000  1.000000  1.000000
 FoFCou: FMM=F IPFlag=           0 FMFlag=      100000 FMFlg1=           0
         NFxFlg=           0 DoJE=T BraDBF=F KetDBF=T FulRan=T
         wScrn=  0.000000 ICntrl=       500 IOpCl=  0 I1Cent=   200000004 NGrid=           0
         NMat0=    1 NMatS0=      1 NMatT0=    0 NMatD0=    1 NMtDS0=    0 NMtDT0=    0
 Petite list used in FoFCou.
 Initial guess <Sx>= 0.0000 <Sy>= 0.0000 <Sz>= 0.5000 <S**2>= 0.7500 S= 0.5000
 Keep R1 and R2 ints in memory in canonical form, NReq=652863693.
 Requested convergence on RMS density matrix=1.00D-08 within 128 cycles.
 Requested convergence on MAX density matrix=1.00D-06.
 Requested convergence on             energy=1.00D-06.
 No special actions if energy rises.
 SCF Done:  E(UM062X) =  -420.197655225     A.U. after   23 cycles
            NFock= 23  Conv=0.49D-08     -V/T= 2.0033
 <Sx>= 0.0000 <Sy>= 0.0000 <Sz>= 0.5000 <S**2>= 0.7733 S= 0.5116
 <L.S>=  0.00000000000    
 Annihilation of the first spin contaminant:
 S**2 before annihilation     0.7733,   after     0.7502
 DoSCS=F DFT=T ScalE2(SS,OS)=  1.000000  1.000000
 Range of M.O.s used for correlation:     1   225
 NBasis=   225 NAE=    31 NBE=    30 NFC=     0 NFV=     0
 NROrb=    225 NOA=    31 NOB=    30 NVA=   194 NVB=   195

 **** Warning!!: The largest alpha MO coefficient is  0.22748828D+03


 **** Warning!!: The largest beta MO coefficient is  0.24759936D+03

 Symmetrizing basis deriv contribution to polar:
 IMax=3 JMax=2 DiffMx= 0.00D+00
 G2DrvN: will do    16 centers at a time, making    1 passes.
 Calling FoFCou, ICntrl=  3107 FMM=F I1Cent=   0 AccDes= 0.00D+00.
 End of G2Drv F.D. properties file   721 does not exist.
 End of G2Drv F.D. properties file   722 does not exist.
 End of G2Drv F.D. properties file   788 does not exist.
          IDoAtm=111111111111111
          Differentiating once with respect to electric field.
                with respect to dipole field.
          Differentiating once with respect to nuclear coordinates.
 Keep R1 and R2 ints in memory in canonical form, NReq=652870569.
          There are    48 degrees of freedom in the 1st order CPHF.  IDoFFX=6 NUNeed=     3.
     45 vectors produced by pass  0 Test12= 2.47D-14 2.08D-09 XBig12= 8.87D+01 3.10D+00.
 AX will form    45 AO Fock derivatives at one time.
     45 vectors produced by pass  1 Test12= 2.47D-14 2.08D-09 XBig12= 1.77D+01 6.66D-01.
     45 vectors produced by pass  2 Test12= 2.47D-14 2.08D-09 XBig12= 1.10D+00 2.00D-01.
     45 vectors produced by pass  3 Test12= 2.47D-14 2.08D-09 XBig12= 1.90D-02 2.93D-02.
     45 vectors produced by pass  4 Test12= 2.47D-14 2.08D-09 XBig12= 2.05D-04 1.89D-03.
     45 vectors produced by pass  5 Test12= 2.47D-14 2.08D-09 XBig12= 1.83D-06 1.95D-04.
     39 vectors produced by pass  6 Test12= 2.47D-14 2.08D-09 XBig12= 1.43D-08 9.14D-06.
     21 vectors produced by pass  7 Test12= 2.47D-14 2.08D-09 XBig12= 1.01D-10 8.11D-07.
      4 vectors produced by pass  8 Test12= 2.47D-14 2.08D-09 XBig12= 8.39D-13 7.50D-08.
      3 vectors produced by pass  9 Test12= 2.47D-14 2.08D-09 XBig12= 8.17D-15 9.47D-09.
      2 vectors produced by pass 10 Test12= 2.47D-14 2.08D-09 XBig12= 4.82D-16 3.03D-09.
 InvSVY:  IOpt=1 It=  1 EMax= 8.88D-15
 Solved reduced A of dimension   339 with    48 vectors.
 Isotropic polarizability for W=    0.000000       76.48 Bohr**3.
 End of Minotr F.D. properties file   721 does not exist.
 End of Minotr F.D. properties file   722 does not exist.
 End of Minotr F.D. properties file   788 does not exist.

 **********************************************************************

            Population analysis using the SCF density.

 **********************************************************************

 Orbital symmetries:
 Alpha Orbitals:
       Occupied  (A) (A) (A) (A) (A) (A) (A) (A) (A) (A) (A) (A)
                 (A) (A) (A) (A) (A) (A) (A) (A) (A) (A) (A) (A)
                 (A) (A) (A) (A) (A) (A) (A)
       Virtual   (A) (A) (A) (A) (A) (A) (A) (A) (A) (A) (A) (A)
                 (A) (A) (A) (A) (A) (A) (A) (A) (A) (A) (A) (A)
                 (A) (A) (A) (A) (A) (A) (A) (A) (A) (A) (A) (A)
                 (A) (A) (A) (A) (A) (A) (A) (A) (A) (A) (A) (A)
                 (A) (A) (A) (A) (A) (A) (A) (A) (A) (A) (A) (A)
                 (A) (A) (A) (A) (A) (A) (A) (A) (A) (A) (A) (A)
                 (A) (A) (A) (A) (A) (A) (A) (A) (A) (A) (A) (A)
                 (A) (A) (A) (A) (A) (A) (A) (A) (A) (A) (A) (A)
                 (A) (A) (A) (A) (A) (A) (A) (A) (A) (A) (A) (A)
                 (A) (A) (A) (A) (A) (A) (A) (A) (A) (A) (A) (A)
                 (A) (A) (A) (A) (A) (A) (A) (A) (A) (A) (A) (A)
                 (A) (A) (A) (A) (A) (A) (A) (A) (A) (A) (A) (A)
                 (A) (A) (A) (A) (A) (A) (A) (A) (A) (A) (A) (A)
                 (A) (A) (A) (A) (A) (A) (A) (A) (A) (A) (A) (A)
                 (A) (A) (A) (A) (A) (A) (A) (A) (A) (A) (A) (A)
                 (A) (A) (A) (A) (A) (A) (A) (A) (A) (A) (A) (A)
                 (A) (A)
 Beta  Orbitals:
       Occupied  (A) (A) (A) (A) (A) (A) (A) (A) (A) (A) (A) (A)
                 (A) (A) (A) (A) (A) (A) (A) (A) (A) (A) (A) (A)
                 (A) (A) (A) (A) (A) (A)
       Virtual   (A) (A) (A) (A) (A) (A) (A) (A) (A) (A) (A) (A)
                 (A) (A) (A) (A) (A) (A) (A) (A) (A) (A) (A) (A)
                 (A) (A) (A) (A) (A) (A) (A) (A) (A) (A) (A) (A)
                 (A) (A) (A) (A) (A) (A) (A) (A) (A) (A) (A) (A)
                 (A) (A) (A) (A) (A) (A) (A) (A) (A) (A) (A) (A)
                 (A) (A) (A) (A) (A) (A) (A) (A) (A) (A) (A) (A)
                 (A) (A) (A) (A) (A) (A) (A) (A) (A) (A) (A) (A)
                 (A) (A) (A) (A) (A) (A) (A) (A) (A) (A) (A) (A)
                 (A) (A) (A) (A) (A) (A) (A) (A) (A) (A) (A) (A)
                 (A) (A) (A) (A) (A) (A) (A) (A) (A) (A) (A) (A)
                 (A) (A) (A) (A) (A) (A) (A) (A) (A) (A) (A) (A)
                 (A) (A) (A) (A) (A) (A) (A) (A) (A) (A) (A) (A)
                 (A) (A) (A) (A) (A) (A) (A) (A) (A) (A) (A) (A)
                 (A) (A) (A) (A) (A) (A) (A) (A) (A) (A) (A) (A)
                 (A) (A) (A) (A) (A) (A) (A) (A) (A) (A) (A) (A)
                 (A) (A) (A) (A) (A) (A) (A) (A) (A) (A) (A) (A)
                 (A) (A) (A)
 The electronic state is 2-A.
 Alpha  occ. eigenvalues --  -19.68548 -19.67045 -19.63437 -10.71370 -10.61135
 Alpha  occ. eigenvalues --  -10.60768 -10.59673 -10.54563  -1.25679  -1.17181
 Alpha  occ. eigenvalues --   -1.13039  -0.91422  -0.88644  -0.78019  -0.74506
 Alpha  occ. eigenvalues --   -0.64663  -0.62877  -0.58724  -0.57348  -0.55371
 Alpha  occ. eigenvalues --   -0.53444  -0.51032  -0.49372  -0.47553  -0.46197
 Alpha  occ. eigenvalues --   -0.43191  -0.42078  -0.40010  -0.38752  -0.37624
 Alpha  occ. eigenvalues --   -0.34755
 Alpha virt. eigenvalues --   -0.02295  -0.00787   0.00535   0.00770   0.01959
 Alpha virt. eigenvalues --    0.02350   0.03721   0.04343   0.05587   0.05998
 Alpha virt. eigenvalues --    0.06593   0.07869   0.08445   0.08993   0.09271
 Alpha virt. eigenvalues --    0.10357   0.10878   0.11614   0.12099   0.13445
 Alpha virt. eigenvalues --    0.13639   0.14055   0.14289   0.14909   0.15920
 Alpha virt. eigenvalues --    0.16685   0.17078   0.18025   0.19067   0.19407
 Alpha virt. eigenvalues --    0.19928   0.21394   0.21850   0.24029   0.24181
 Alpha virt. eigenvalues --    0.25157   0.26542   0.27111   0.28024   0.29379
 Alpha virt. eigenvalues --    0.30315   0.31271   0.31766   0.32122   0.33340
 Alpha virt. eigenvalues --    0.34193   0.35068   0.35614   0.36898   0.38619
 Alpha virt. eigenvalues --    0.40254   0.42125   0.44544   0.45988   0.49180
 Alpha virt. eigenvalues --    0.50283   0.51821   0.53425   0.57559   0.57836
 Alpha virt. eigenvalues --    0.60523   0.60823   0.62363   0.62752   0.66954
 Alpha virt. eigenvalues --    0.67569   0.68844   0.69985   0.70999   0.71888
 Alpha virt. eigenvalues --    0.72104   0.74113   0.77399   0.78775   0.82080
 Alpha virt. eigenvalues --    0.85304   0.85737   0.90753   0.93914   0.97644
 Alpha virt. eigenvalues --    1.01109   1.02551   1.04601   1.06132   1.07902
 Alpha virt. eigenvalues --    1.13785   1.16243   1.18310   1.21235   1.22188
 Alpha virt. eigenvalues --    1.23854   1.26597   1.28878   1.30762   1.31863
 Alpha virt. eigenvalues --    1.32652   1.33563   1.37847   1.41580   1.44316
 Alpha virt. eigenvalues --    1.47059   1.49670   1.50353   1.51670   1.55103
 Alpha virt. eigenvalues --    1.58547   1.59221   1.61343   1.61766   1.63794
 Alpha virt. eigenvalues --    1.66845   1.69062   1.71292   1.71802   1.77065
 Alpha virt. eigenvalues --    1.78793   1.80743   1.81137   1.83317   1.86194
 Alpha virt. eigenvalues --    1.90660   1.92734   1.99263   2.03117   2.04164
 Alpha virt. eigenvalues --    2.08863   2.09370   2.13651   2.19936   2.30862
 Alpha virt. eigenvalues --    2.34505   2.35655   2.44736   2.50832   2.53118
 Alpha virt. eigenvalues --    2.54404   2.55404   2.58090   2.62235   2.62839
 Alpha virt. eigenvalues --    2.65033   2.67615   2.69767   2.73858   2.74872
 Alpha virt. eigenvalues --    2.79896   2.81293   2.83073   2.87781   2.89339
 Alpha virt. eigenvalues --    2.94097   2.95575   2.98358   3.00763   3.04693
 Alpha virt. eigenvalues --    3.09382   3.12703   3.13965   3.17105   3.17797
 Alpha virt. eigenvalues --    3.24625   3.26853   3.31830   3.34824   3.41885
 Alpha virt. eigenvalues --    3.43158   3.49912   3.62170   3.75308   3.84441
 Alpha virt. eigenvalues --    3.85091   3.86983   3.88195   4.03204   4.11657
 Alpha virt. eigenvalues --    4.13625   4.30184   5.11675   5.13540   5.15395
 Alpha virt. eigenvalues --    5.16846   5.27202   5.42658   5.56332   5.68540
 Alpha virt. eigenvalues --    5.97918  23.60584  23.91281  23.93878  24.04514
 Alpha virt. eigenvalues --   25.00378  49.95840  49.99139  50.11858
  Beta  occ. eigenvalues --  -19.68547 -19.65666 -19.63330 -10.71405 -10.61135
  Beta  occ. eigenvalues --  -10.60834 -10.59411 -10.54562  -1.25590  -1.16970
  Beta  occ. eigenvalues --   -1.07430  -0.90288  -0.88632  -0.77860  -0.74322
  Beta  occ. eigenvalues --   -0.64478  -0.62625  -0.58549  -0.57001  -0.53367
  Beta  occ. eigenvalues --   -0.52718  -0.49797  -0.47410  -0.46171  -0.42615
  Beta  occ. eigenvalues --   -0.41225  -0.40279  -0.38720  -0.37482  -0.37044
  Beta virt. eigenvalues --   -0.11462  -0.01200  -0.00599   0.00660   0.01121
  Beta virt. eigenvalues --    0.02321   0.02451   0.04167   0.04514   0.05839
  Beta virt. eigenvalues --    0.06162   0.06605   0.07989   0.08653   0.09126
  Beta virt. eigenvalues --    0.09601   0.10246   0.11128   0.11707   0.12224
  Beta virt. eigenvalues --    0.13444   0.13832   0.14187   0.14399   0.14942
  Beta virt. eigenvalues --    0.16557   0.16867   0.17029   0.18188   0.19268
  Beta virt. eigenvalues --    0.19546   0.20113   0.21439   0.21889   0.23988
  Beta virt. eigenvalues --    0.24151   0.24816   0.26606   0.27227   0.28129
  Beta virt. eigenvalues --    0.29419   0.30485   0.31335   0.31952   0.32143
  Beta virt. eigenvalues --    0.33400   0.34212   0.35051   0.35639   0.36869
  Beta virt. eigenvalues --    0.38688   0.40378   0.42260   0.44622   0.45984
  Beta virt. eigenvalues --    0.49356   0.50359   0.52040   0.53538   0.57853
  Beta virt. eigenvalues --    0.58252   0.60438   0.61562   0.62478   0.62736
  Beta virt. eigenvalues --    0.67053   0.67690   0.68915   0.70034   0.71086
  Beta virt. eigenvalues --    0.71949   0.72474   0.74258   0.77469   0.78823
  Beta virt. eigenvalues --    0.82101   0.85481   0.85921   0.90835   0.93949
  Beta virt. eigenvalues --    0.97616   1.01962   1.02919   1.04732   1.06535
  Beta virt. eigenvalues --    1.09161   1.15012   1.16968   1.18948   1.21746
  Beta virt. eigenvalues --    1.22549   1.24282   1.26850   1.29400   1.30916
  Beta virt. eigenvalues --    1.32031   1.33394   1.33870   1.37987   1.41675
  Beta virt. eigenvalues --    1.44868   1.47461   1.49911   1.50621   1.52305
  Beta virt. eigenvalues --    1.55732   1.58563   1.59563   1.61367   1.61817
  Beta virt. eigenvalues --    1.64085   1.67342   1.69140   1.71352   1.71952
  Beta virt. eigenvalues --    1.77094   1.78906   1.81047   1.81758   1.83577
  Beta virt. eigenvalues --    1.86287   1.90763   1.92890   1.99291   2.03153
  Beta virt. eigenvalues --    2.04600   2.09099   2.10307   2.13694   2.19939
  Beta virt. eigenvalues --    2.30848   2.34533   2.36027   2.44938   2.50835
  Beta virt. eigenvalues --    2.53162   2.54449   2.55454   2.58380   2.62366
  Beta virt. eigenvalues --    2.62889   2.65052   2.67716   2.70044   2.73885
  Beta virt. eigenvalues --    2.74818   2.80042   2.81785   2.84158   2.89394
  Beta virt. eigenvalues --    2.90606   2.95201   2.96745   2.99283   3.01689
  Beta virt. eigenvalues --    3.05799   3.09882   3.13735   3.16049   3.19109
  Beta virt. eigenvalues --    3.19810   3.25004   3.27546   3.31840   3.35060
  Beta virt. eigenvalues --    3.42039   3.43372   3.50059   3.62338   3.75460
  Beta virt. eigenvalues --    3.84460   3.85191   3.87317   3.90814   4.03273
  Beta virt. eigenvalues --    4.12091   4.13645   4.30196   5.14352   5.15333
  Beta virt. eigenvalues --    5.17322   5.20687   5.27416   5.42722   5.58860
  Beta virt. eigenvalues --    5.68646   5.97966  23.60658  23.91278  23.93875
  Beta virt. eigenvalues --   24.04513  25.00613  49.95272  49.99116  50.11740
          Condensed to atoms (all electrons):
               1          2          3          4          5          6
     1  C   15.067994   0.520678  -4.937412  -4.003682  -0.007304   0.294432
     2  H    0.520678   0.410020  -0.166310   0.000223  -0.002043  -0.000963
     3  C   -4.937412  -0.166310  10.372985  -0.015458  -0.118284  -0.198449
     4  C   -4.003682   0.000223  -0.015458  10.032972   0.453839  -0.163968
     5  O   -0.007304  -0.002043  -0.118284   0.453839   8.002337  -0.087924
     6  O    0.294432  -0.000963  -0.198449  -0.163968  -0.087924   8.179687
     7  C   -0.245194  -0.001301   0.060448   0.072056  -0.007169   0.226477
     8  C    0.251053   0.001269  -0.103182  -0.129107   0.011771  -0.119759
     9  H   -0.104951  -0.005563   0.090252  -0.006834   0.000532  -0.018285
    10  H   -0.056514  -0.001164   0.011330   0.035046   0.000199  -0.074998
    11  H    0.006847   0.000131   0.001160  -0.012157   0.000300  -0.007422
    12  H   -0.048009  -0.001906   0.051149   0.012475  -0.000309  -0.012254
    13  H    0.015404   0.001083  -0.018786  -0.001260   0.000500   0.015859
    14  O    0.020080  -0.014485  -0.022419  -0.071400  -0.002991   0.003819
    15  H    0.125029   0.007848  -0.063675  -0.040541  -0.000135  -0.000185
               7          8          9         10         11         12
     1  C   -0.245194   0.251053  -0.104951  -0.056514   0.006847  -0.048009
     2  H   -0.001301   0.001269  -0.005563  -0.001164   0.000131  -0.001906
     3  C    0.060448  -0.103182   0.090252   0.011330   0.001160   0.051149
     4  C    0.072056  -0.129107  -0.006834   0.035046  -0.012157   0.012475
     5  O   -0.007169   0.011771   0.000532   0.000199   0.000300  -0.000309
     6  O    0.226477  -0.119759  -0.018285  -0.074998  -0.007422  -0.012254
     7  C    5.550860  -0.056535   0.410664   0.448764  -0.050491   0.027011
     8  C   -0.056535   5.507383  -0.048585  -0.072691   0.445180   0.326739
     9  H    0.410664  -0.048585   0.508329  -0.026737   0.004946  -0.011218
    10  H    0.448764  -0.072691  -0.026737   0.528746  -0.012727   0.016675
    11  H   -0.050491   0.445180   0.004946  -0.012727   0.520416  -0.055116
    12  H    0.027011   0.326739  -0.011218   0.016675  -0.055116   0.593737
    13  H   -0.059718   0.422311  -0.010539   0.000345  -0.032013  -0.031475
    14  O   -0.000569  -0.001942   0.012605   0.001491   0.000122   0.000985
    15  H    0.001460  -0.001310  -0.004278  -0.000871   0.000092  -0.000322
              13         14         15
     1  C    0.015404   0.020080   0.125029
     2  H    0.001083  -0.014485   0.007848
     3  C   -0.018786  -0.022419  -0.063675
     4  C   -0.001260  -0.071400  -0.040541
     5  O    0.000500  -0.002991  -0.000135
     6  O    0.015859   0.003819  -0.000185
     7  C   -0.059718  -0.000569   0.001460
     8  C    0.422311  -0.001942  -0.001310
     9  H   -0.010539   0.012605  -0.004278
    10  H    0.000345   0.001491  -0.000871
    11  H   -0.032013   0.000122   0.000092
    12  H   -0.031475   0.000985  -0.000322
    13  H    0.534743  -0.001680   0.000091
    14  O   -0.001680   8.099225   0.271504
    15  H    0.000091   0.271504   0.471175
          Atomic-Atomic Spin Densities.
               1          2          3          4          5          6
     1  C    0.141828   0.043049  -0.297912   0.015201  -0.025018  -0.004769
     2  H    0.043049   0.008386  -0.032785  -0.008182  -0.000622   0.000003
     3  C   -0.297912  -0.032785   0.722997   0.094725  -0.000707  -0.015706
     4  C    0.015201  -0.008182   0.094725  -0.163720   0.009071   0.027467
     5  O   -0.025018  -0.000622  -0.000707   0.009071   0.068559   0.000154
     6  O   -0.004769   0.000003  -0.015706   0.027467   0.000154  -0.009065
     7  C   -0.014001   0.000063   0.018213  -0.005272   0.000128   0.007014
     8  C    0.007890  -0.000194  -0.005005  -0.002222   0.000330  -0.002896
     9  H   -0.022230  -0.000871   0.018544   0.010333   0.000284  -0.000119
    10  H   -0.010046  -0.000192   0.007680   0.003978  -0.000006   0.001411
    11  H    0.004490   0.000099  -0.003379  -0.001469  -0.000094  -0.000583
    12  H   -0.010471   0.000248   0.002834   0.006209   0.000085   0.000973
    13  H    0.001003  -0.000053   0.001506  -0.001782  -0.000011   0.000122
    14  O    0.074902   0.007961  -0.206066  -0.004029  -0.000714  -0.001021
    15  H   -0.020265  -0.001748   0.024495   0.002971   0.000131  -0.000025
               7          8          9         10         11         12
     1  C   -0.014001   0.007890  -0.022230  -0.010046   0.004490  -0.010471
     2  H    0.000063  -0.000194  -0.000871  -0.000192   0.000099   0.000248
     3  C    0.018213  -0.005005   0.018544   0.007680  -0.003379   0.002834
     4  C   -0.005272  -0.002222   0.010333   0.003978  -0.001469   0.006209
     5  O    0.000128   0.000330   0.000284  -0.000006  -0.000094   0.000085
     6  O    0.007014  -0.002896  -0.000119   0.001411  -0.000583   0.000973
     7  C   -0.011841   0.006003  -0.006498  -0.002887   0.001143  -0.001271
     8  C    0.006003  -0.002679   0.000243   0.001392  -0.001161   0.002064
     9  H   -0.006498   0.000243   0.010872   0.001128  -0.000341  -0.000290
    10  H   -0.002887   0.001392   0.001128  -0.000304   0.000414  -0.000818
    11  H    0.001143  -0.001161  -0.000341   0.000414  -0.000518   0.000772
    12  H   -0.001271   0.002064  -0.000290  -0.000818   0.000772  -0.001116
    13  H   -0.000931   0.000957  -0.000096  -0.000468   0.000465  -0.000782
    14  O    0.006683  -0.001799  -0.009389  -0.000957   0.000076   0.000289
    15  H   -0.001073   0.000403   0.001643   0.000237  -0.000026  -0.000002
              13         14         15
     1  C    0.001003   0.074902  -0.020265
     2  H   -0.000053   0.007961  -0.001748
     3  C    0.001506  -0.206066   0.024495
     4  C   -0.001782  -0.004029   0.002971
     5  O   -0.000011  -0.000714   0.000131
     6  O    0.000122  -0.001021  -0.000025
     7  C   -0.000931   0.006683  -0.001073
     8  C    0.000957  -0.001799   0.000403
     9  H   -0.000096  -0.009389   0.001643
    10  H   -0.000468  -0.000957   0.000237
    11  H    0.000465   0.000076  -0.000026
    12  H   -0.000782   0.000289  -0.000002
    13  H   -0.000217   0.000234  -0.000016
    14  O    0.000234   0.875221   0.006179
    15  H   -0.000016   0.006179  -0.027654
 Mulliken charges and spin densities:
               1          2
     1  C   -0.898450  -0.116349
     2  H    0.252484   0.015164
     3  C    1.056653   0.329434
     4  C   -0.162203  -0.016721
     5  O   -0.243316   0.051570
     6  O   -0.036066   0.002960
     7  C   -0.376762  -0.004525
     8  C   -0.432594   0.003326
     9  H    0.209665   0.003212
    10  H    0.203106   0.000562
    11  H    0.190733  -0.000110
    12  H    0.131839  -0.001275
    13  H    0.165137  -0.000071
    14  O   -0.294345   0.747572
    15  H    0.234119  -0.014748
 Sum of Mulliken charges =  -0.00000   1.00000
 Mulliken charges and spin densities with hydrogens summed into heavy atoms:
               1          2
     1  C   -0.645966  -0.101186
     3  C    1.056653   0.329434
     4  C   -0.162203  -0.016721
     5  O   -0.243316   0.051570
     6  O   -0.036066   0.002960
     7  C    0.036009  -0.000751
     8  C    0.055115   0.001869
    14  O   -0.060225   0.732824
 APT charges:
               1
     1  C   -0.429241
     2  H    0.241952
     3  C   -0.145789
     4  C    1.491141
     5  O   -0.839057
     6  O   -0.905469
     7  C    0.471835
     8  C   -0.022483
     9  H    0.001897
    10  H   -0.009159
    11  H    0.013958
    12  H    0.008203
    13  H    0.012721
    14  O   -0.145169
    15  H    0.254659
 Sum of APT charges =   0.00000
 APT charges with hydrogens summed into heavy atoms:
               1
     1  C   -0.187289
     3  C   -0.145789
     4  C    1.491141
     5  O   -0.839057
     6  O   -0.905469
     7  C    0.464574
     8  C    0.012400
    14  O    0.109490
 Electronic spatial extent (au):  <R**2>=           1065.2582
 Charge=              0.0000 electrons
 Dipole moment (field-independent basis, Debye):
    X=             -0.9063    Y=             -3.0329    Z=              0.6504  Tot=              3.2316
 Quadrupole moment (field-independent basis, Debye-Ang):
   XX=            -44.0231   YY=            -57.1196   ZZ=            -43.8624
   XY=             -6.6496   XZ=             -0.9391   YZ=             -1.3609
 Traceless Quadrupole moment (field-independent basis, Debye-Ang):
   XX=              4.3119   YY=             -8.7846   ZZ=              4.4726
   XY=             -6.6496   XZ=             -0.9391   YZ=             -1.3609
 Octapole moment (field-independent basis, Debye-Ang**2):
  XXX=             -9.6489  YYY=            -21.6195  ZZZ=             -7.7922  XYY=              4.6527
  XXY=              1.6986  XXZ=              3.0485  XZZ=            -10.0272  YZZ=             -0.6351
  YYZ=             -1.0503  XYZ=              8.2226
 Hexadecapole moment (field-independent basis, Debye-Ang**3):
 XXXX=           -636.0913 YYYY=           -559.1103 ZZZZ=           -176.1652 XXXY=            -10.2575
 XXXZ=             -6.2116 YYYX=             -8.9691 YYYZ=             -2.3688 ZZZX=              1.5916
 ZZZY=              0.3086 XXYY=           -209.9281 XXZZ=           -110.5496 YYZZ=           -115.1812
 XXYZ=             -9.7732 YYXZ=             -2.6508 ZZXY=              5.8010
 N-N= 3.575452123370D+02 E-N=-1.699384671380D+03  KE= 4.188103876261D+02
  Exact polarizability:  83.394  11.619  81.399   3.063   6.539  64.636
 Approx polarizability:  90.538  17.925  97.720  -2.705   4.345  72.844
                          Isotropic Fermi Contact Couplings
        Atom                 a.u.       MegaHertz       Gauss      10(-4) cm-1
     1  C(13)              0.00673       7.57100       2.70152       2.52541
     2  H(1)               0.00636      28.41059      10.13760       9.47675
     3  C(13)              0.05296      59.53771      21.24454      19.85964
     4  C(13)             -0.01746     -19.62951      -7.00430      -6.54770
     5  O(17)              0.01355      -8.21655      -2.93187      -2.74075
     6  O(17)             -0.00170       1.03204       0.36826       0.34425
     7  C(13)              0.00071       0.80264       0.28640       0.26773
     8  C(13)             -0.00010      -0.11531      -0.04115      -0.03846
     9  H(1)               0.00013       0.56326       0.20098       0.18788
    10  H(1)               0.00017       0.74128       0.26451       0.24727
    11  H(1)               0.00001       0.03627       0.01294       0.01210
    12  H(1)               0.00008       0.37304       0.13311       0.12443
    13  H(1)              -0.00001      -0.06322      -0.02256      -0.02109
    14  O(17)              0.13327     -80.78769     -28.82706     -26.94787
    15  H(1)              -0.01302     -58.18596     -20.76220     -19.40875
 --------------------------------------------------------
       Center         ----  Spin Dipole Couplings  ----
                      3XX-RR        3YY-RR        3ZZ-RR
 --------------------------------------------------------
     1   Atom        0.027439     -0.014470     -0.012969
     2   Atom       -0.007354     -0.005727      0.013081
     3   Atom       -0.174766     -0.056415      0.231182
     4   Atom        0.006844      0.013610     -0.020454
     5   Atom       -0.099456     -0.103994      0.203450
     6   Atom        0.022745     -0.004627     -0.018118
     7   Atom        0.005659     -0.002541     -0.003118
     8   Atom        0.002633     -0.001098     -0.001535
     9   Atom        0.010249     -0.003175     -0.007073
    10   Atom        0.002856     -0.001479     -0.001377
    11   Atom        0.002036     -0.000855     -0.001181
    12   Atom        0.001735     -0.000428     -0.001307
    13   Atom        0.001312      0.000039     -0.001351
    14   Atom       -0.417946     -0.050223      0.468169
    15   Atom       -0.076793      0.071299      0.005494
 --------------------------------------------------------
                        XY            XZ            YZ
 --------------------------------------------------------
     1   Atom        0.038441     -0.060691     -0.018322
     2   Atom       -0.002813     -0.001813      0.005116
     3   Atom        0.037633      0.149784      0.234929
     4   Atom        0.006987     -0.013914     -0.000497
     5   Atom       -0.004150      0.057344     -0.046617
     6   Atom        0.009419      0.004525      0.005971
     7   Atom       -0.003088     -0.001797      0.001356
     8   Atom       -0.002279      0.000405      0.000189
     9   Atom       -0.005174     -0.001866      0.003957
    10   Atom       -0.001073     -0.001473      0.000789
    11   Atom       -0.000923      0.000690     -0.000043
    12   Atom       -0.003017      0.003013     -0.001209
    13   Atom       -0.001808      0.000870     -0.000341
    14   Atom        1.264996      1.459241      1.707170
    15   Atom       -0.022686      0.053666     -0.087984
 --------------------------------------------------------


 ---------------------------------------------------------------------------------
              Anisotropic Spin Dipole Couplings in Principal Axis System
 ---------------------------------------------------------------------------------

       Atom             a.u.   MegaHertz   Gauss  10(-4) cm-1        Axes

              Baa    -0.0586    -7.867    -2.807    -2.624  0.6289 -0.2407  0.7393
     1 C(13)  Bbb    -0.0297    -3.987    -1.423    -1.330 -0.1535  0.8937  0.4215
              Bcc     0.0883    11.854     4.230     3.954  0.7622  0.3786 -0.5251
 
              Baa    -0.0096    -5.129    -1.830    -1.711  0.7479  0.6579 -0.0886
     2 H(1)   Bbb    -0.0050    -2.692    -0.961    -0.898 -0.6543  0.7082 -0.2653
              Bcc     0.0147     7.821     2.791     2.609 -0.1118  0.2564  0.9601
 
              Baa    -0.2418   -32.454   -11.580   -10.825  0.7845  0.4194 -0.4567
     3 C(13)  Bbb    -0.1597   -21.433    -7.648    -7.149 -0.5668  0.7838 -0.2539
              Bcc     0.4016    53.887    19.228    17.975  0.2515  0.4580  0.8526
 
              Baa    -0.0264    -3.546    -1.265    -1.183  0.3955 -0.0576  0.9167
     4 C(13)  Bbb     0.0066     0.881     0.314     0.294 -0.6592  0.6772  0.3270
              Bcc     0.0199     2.665     0.951     0.889  0.6396  0.7336 -0.2298
 
              Baa    -0.1146     8.292     2.959     2.766 -0.6464  0.7295  0.2235
     5 O(17)  Bbb    -0.1060     7.673     2.738     2.559  0.7423  0.6690 -0.0368
              Bcc     0.2206   -15.965    -5.697    -5.325  0.1763 -0.1421  0.9740
 
              Baa    -0.0204     1.476     0.527     0.492 -0.0241 -0.3413  0.9397
     6 O(17)  Bbb    -0.0061     0.442     0.158     0.148 -0.3387  0.8871  0.3135
              Bcc     0.0265    -1.919    -0.685    -0.640  0.9406  0.3107  0.1369
 
              Baa    -0.0043    -0.573    -0.204    -0.191  0.0978  0.7165 -0.6907
     7 C(13)  Bbb    -0.0029    -0.385    -0.137    -0.128  0.3700  0.6181  0.6936
              Bcc     0.0071     0.958     0.342     0.320  0.9239 -0.3234 -0.2046
 
              Baa    -0.0023    -0.313    -0.112    -0.104  0.4089  0.8186 -0.4033
     8 C(13)  Bbb    -0.0014    -0.188    -0.067    -0.063  0.1268  0.3867  0.9135
              Bcc     0.0037     0.500     0.179     0.167  0.9037 -0.4247  0.0543
 
              Baa    -0.0096    -5.130    -1.831    -1.711 -0.0689 -0.5619  0.8243
     9 H(1)   Bbb    -0.0029    -1.539    -0.549    -0.513  0.3734  0.7517  0.5436
              Bcc     0.0125     6.669     2.380     2.224  0.9251 -0.3453 -0.1580
 
              Baa    -0.0022    -1.193    -0.426    -0.398  0.0736 -0.6679  0.7406
    10 H(1)   Bbb    -0.0014    -0.745    -0.266    -0.248  0.3845  0.7042  0.5969
              Bcc     0.0036     1.937     0.691     0.646  0.9202 -0.2408 -0.3087
 
              Baa    -0.0014    -0.742    -0.265    -0.248 -0.2874 -0.4254  0.8582
    11 H(1)   Bbb    -0.0010    -0.555    -0.198    -0.185  0.1516  0.8645  0.4793
              Bcc     0.0024     1.297     0.463     0.433  0.9457 -0.2679  0.1839
 
              Baa    -0.0034    -1.798    -0.641    -0.600 -0.6205 -0.3477  0.7029
    12 H(1)   Bbb    -0.0020    -1.067    -0.381    -0.356  0.1915  0.8020  0.5658
              Bcc     0.0054     2.865     1.022     0.956  0.7605 -0.4857  0.4311
 
              Baa    -0.0017    -0.888    -0.317    -0.296 -0.4178 -0.2700  0.8675
    13 H(1)   Bbb    -0.0011    -0.602    -0.215    -0.201  0.4232  0.7870  0.4488
              Bcc     0.0028     1.489     0.531     0.497  0.8039 -0.5547  0.2145
 
              Baa    -1.5205   110.023    39.259    36.700 -0.3183  0.8221 -0.4721
    14 O(17)  Bbb    -1.4999   108.531    38.727    36.202  0.8117 -0.0209 -0.5837
              Bcc     3.0204  -218.554   -77.986   -72.902  0.4897  0.5690  0.6606
 
              Baa    -0.1061   -56.635   -20.209   -18.891  0.8386 -0.1521 -0.5230
    15 H(1)   Bbb    -0.0374   -19.971    -7.126    -6.662  0.4971  0.6061  0.6209
              Bcc     0.1436    76.606    27.335    25.553 -0.2226  0.7807 -0.5839
 

 ---------------------------------------------------------------------------------

 Calling FoFJK, ICntrl=    100127 FMM=F ISym2X=0 I1Cent= 0 IOpClX= 1 NMat=1 NMatS=1 NMatT=0.
 Full mass-weighted force constant matrix:
 Low frequencies --- -550.8420   -4.9255   -0.0010   -0.0007   -0.0007    3.4736
 Low frequencies ---    8.4201   52.9748   78.9697
 ******    1 imaginary frequencies (negative Signs) ****** 
 Diagonal vibrational polarizability:
       80.5494266      19.0907879      59.4242792
 Harmonic frequencies (cm**-1), IR intensities (KM/Mole), Raman scattering
 activities (A**4/AMU), depolarization ratios for plane and unpolarized
 incident light, reduced masses (AMU), force constants (mDyne/A),
 and normal coordinates:
                      1                      2                      3
                      A                      A                      A
 Frequencies --   -550.8419                52.9735                78.9671
 Red. masses --     12.0519                 5.8004                 4.1504
 Frc consts  --      2.1546                 0.0096                 0.0152
 IR Inten    --     85.1119                 5.8393                 0.6410
  Atom  AN      X      Y      Z        X      Y      Z        X      Y      Z
     1   6     0.20   0.34   0.67     0.07  -0.17   0.08    -0.10   0.06  -0.07
     2   1    -0.13  -0.10  -0.12     0.12  -0.28   0.07    -0.16   0.13  -0.10
     3   6    -0.02  -0.02  -0.02     0.05  -0.13   0.10    -0.05   0.01  -0.02
     4   6    -0.00   0.01   0.00    -0.05  -0.08  -0.02     0.01  -0.05   0.02
     5   8     0.01  -0.00  -0.00    -0.15  -0.07  -0.14     0.15  -0.06   0.20
     6   8    -0.00  -0.00  -0.01    -0.01  -0.05  -0.01    -0.14  -0.07  -0.18
     7   6     0.01   0.00   0.00     0.09  -0.05   0.08    -0.05  -0.07   0.04
     8   6     0.00   0.00   0.00     0.18   0.06   0.09     0.20   0.19   0.05
     9   1     0.01  -0.00   0.01     0.10  -0.12   0.13    -0.06  -0.16   0.25
    10   1     0.00  -0.00   0.00     0.07  -0.06   0.07    -0.17  -0.16  -0.01
    11   1     0.00   0.00   0.00     0.17   0.14   0.02     0.20   0.29  -0.18
    12   1    -0.00   0.00  -0.01     0.20   0.08   0.10     0.31   0.31   0.09
    13   1     0.00   0.00  -0.00     0.26   0.06   0.15     0.26   0.19   0.25
    14   8    -0.14  -0.24  -0.46    -0.14   0.36  -0.14    -0.05  -0.02  -0.04
    15   1    -0.06  -0.05  -0.23    -0.11   0.52   0.09     0.11  -0.05  -0.14
                      4                      5                      6
                      A                      A                      A
 Frequencies --     94.2059               109.2704               187.6896
 Red. masses --      9.3896                 3.2450                 2.5192
 Frc consts  --      0.0491                 0.0228                 0.0523
 IR Inten    --      7.4426                 1.0499                 2.2017
  Atom  AN      X      Y      Z        X      Y      Z        X      Y      Z
     1   6     0.05  -0.07   0.14    -0.14   0.14  -0.01    -0.14   0.18   0.04
     2   1     0.05  -0.20   0.04    -0.22   0.21  -0.06    -0.28   0.39   0.01
     3   6     0.03   0.05   0.24    -0.07   0.06   0.03     0.02  -0.09   0.03
     4   6    -0.06  -0.00   0.02    -0.04   0.01   0.03    -0.00  -0.09   0.00
     5   8    -0.02  -0.00  -0.06    -0.06   0.01  -0.09    -0.09  -0.08   0.03
     6   8    -0.22  -0.07  -0.15    -0.00  -0.03   0.15     0.02  -0.00  -0.06
     7   6    -0.23  -0.07  -0.01    -0.05  -0.03   0.05     0.13  -0.01  -0.08
     8   6    -0.18   0.04   0.02     0.23  -0.14  -0.12    -0.02   0.01  -0.01
     9   1    -0.23  -0.07   0.05    -0.10   0.01   0.27     0.17  -0.07  -0.23
    10   1    -0.25  -0.15   0.00    -0.26   0.01  -0.11     0.29   0.06   0.00
    11   1    -0.16   0.03  -0.06     0.28  -0.19  -0.34    -0.15   0.28   0.27
    12   1    -0.13   0.12   0.03     0.44  -0.16   0.03    -0.31  -0.25  -0.11
    13   1    -0.20   0.03   0.12     0.18  -0.14  -0.20     0.30   0.02  -0.12
    14   8     0.56   0.12  -0.12     0.09   0.01  -0.02     0.07   0.05   0.05
    15   1     0.20   0.19   0.11     0.07  -0.03  -0.07     0.12   0.02  -0.01
                      7                      8                      9
                      A                      A                      A
 Frequencies --    227.6144               246.2068               316.9824
 Red. masses --      1.2615                 1.3933                 2.7109
 Frc consts  --      0.0385                 0.0498                 0.1605
 IR Inten    --      0.7862                69.8745                19.2256
  Atom  AN      X      Y      Z        X      Y      Z        X      Y      Z
     1   6     0.03  -0.04  -0.01     0.01  -0.01  -0.03    -0.04   0.03  -0.12
     2   1     0.08  -0.12   0.01    -0.06  -0.00  -0.12    -0.18   0.14  -0.24
     3   6    -0.03   0.07   0.00     0.07   0.00   0.13     0.16  -0.02   0.26
     4   6    -0.01   0.03   0.00     0.02   0.01   0.04     0.08  -0.00   0.08
     5   8     0.06   0.03  -0.02    -0.01   0.02  -0.04    -0.00   0.01  -0.07
     6   8    -0.05  -0.02   0.02    -0.02   0.01  -0.01     0.02   0.01  -0.01
     7   6    -0.02  -0.02   0.02    -0.02   0.01  -0.00    -0.04   0.02  -0.01
     8   6     0.02  -0.02  -0.00    -0.02  -0.00  -0.01    -0.02   0.04  -0.01
     9   1    -0.02  -0.05   0.02    -0.01  -0.00   0.01    -0.05   0.06   0.02
    10   1    -0.02   0.01   0.01    -0.02   0.01  -0.00    -0.07  -0.01  -0.02
    11   1    -0.16   0.44   0.22    -0.02   0.00   0.00    -0.03   0.10  -0.02
    12   1    -0.25  -0.49  -0.03    -0.02  -0.03  -0.00    -0.02   0.01  -0.01
    13   1     0.57  -0.01  -0.24    -0.00  -0.00  -0.03     0.05   0.04   0.00
    14   8    -0.01  -0.01  -0.01    -0.07  -0.02  -0.00    -0.05  -0.09  -0.07
    15   1    -0.05  -0.00   0.01     0.88  -0.07  -0.41    -0.82  -0.08   0.21
                     10                     11                     12
                      A                      A                      A
 Frequencies --    362.1188               409.0773               553.9329
 Red. masses --      2.8419                 3.6705                 5.2250
 Frc consts  --      0.2196                 0.3619                 0.9446
 IR Inten    --      2.5488                 3.5744                15.9349
  Atom  AN      X      Y      Z        X      Y      Z        X      Y      Z
     1   6    -0.05  -0.03   0.01    -0.07  -0.06   0.05    -0.20  -0.11   0.10
     2   1    -0.02  -0.15  -0.03    -0.04  -0.13   0.04    -0.27  -0.06   0.06
     3   6    -0.10   0.15   0.12    -0.11   0.02   0.04    -0.11  -0.23   0.03
     4   6    -0.07   0.04   0.04    -0.01  -0.07   0.06    -0.03  -0.04  -0.01
     5   8     0.09   0.03  -0.04     0.12  -0.08  -0.10     0.26  -0.07  -0.14
     6   8    -0.14  -0.01  -0.03     0.07  -0.07   0.22     0.03   0.15  -0.08
     7   6     0.22  -0.03  -0.06    -0.02  -0.02  -0.17    -0.01   0.27   0.13
     8   6     0.04  -0.08   0.02    -0.05   0.21  -0.10    -0.01   0.00   0.01
     9   1     0.33  -0.26  -0.30    -0.02   0.01  -0.24    -0.04   0.32   0.23
    10   1     0.50   0.18   0.06     0.04   0.09  -0.17    -0.16   0.09   0.08
    11   1     0.12  -0.37   0.10    -0.10   0.41  -0.19     0.05  -0.21   0.11
    12   1     0.05   0.09  -0.04    -0.09   0.49  -0.23     0.05  -0.29   0.15
    13   1    -0.27  -0.09   0.04     0.08   0.20   0.30    -0.14   0.02  -0.43
    14   8    -0.02  -0.01  -0.01     0.00   0.00   0.00     0.01   0.00   0.00
    15   1    -0.13  -0.00   0.04     0.12   0.01  -0.02     0.06   0.05   0.05
                     13                     14                     15
                      A                      A                      A
 Frequencies --    628.4266               717.3440               751.9219
 Red. masses --      6.1898                 1.1666                 6.1075
 Frc consts  --      1.4403                 0.3537                 2.0345
 IR Inten    --      0.8791                85.3955                 2.8237
  Atom  AN      X      Y      Z        X      Y      Z        X      Y      Z
     1   6    -0.03  -0.05   0.02     0.03  -0.08   0.01     0.20   0.02  -0.05
     2   1     0.16  -0.38   0.04    -0.34   0.56  -0.03    -0.04   0.40  -0.13
     3   6    -0.21   0.40   0.17    -0.03   0.04   0.00    -0.01   0.14  -0.20
     4   6     0.05  -0.17  -0.09     0.01   0.01  -0.02     0.13  -0.18   0.38
     5   8    -0.10  -0.18   0.06    -0.00   0.01   0.01    -0.06  -0.19  -0.11
     6   8     0.26   0.04  -0.15     0.01   0.00  -0.00    -0.17  -0.03  -0.00
     7   6     0.03   0.07   0.02    -0.00  -0.01  -0.00    -0.01   0.19   0.08
     8   6    -0.00   0.00   0.01     0.00  -0.00   0.00    -0.02   0.08  -0.04
     9   1    -0.09   0.33   0.30    -0.00   0.00   0.00     0.07  -0.00  -0.08
    10   1    -0.27  -0.26  -0.07    -0.01  -0.02  -0.01     0.15   0.23   0.17
    11   1    -0.01  -0.05   0.13    -0.00   0.01  -0.00     0.05  -0.12  -0.06
    12   1    -0.07  -0.10  -0.00    -0.00   0.01  -0.01     0.09  -0.16   0.12
    13   1    -0.03   0.01  -0.13     0.01  -0.00   0.02    -0.15   0.09  -0.41
    14   8    -0.01  -0.01  -0.02    -0.01  -0.04  -0.03     0.01   0.02   0.02
    15   1     0.00  -0.05  -0.07     0.25   0.42   0.56    -0.06  -0.05  -0.05
                     16                     17                     18
                      A                      A                      A
 Frequencies --    754.1614               777.7723               817.7580
 Red. masses --      4.5352                 1.3349                 1.1342
 Frc consts  --      1.5198                 0.4758                 0.4469
 IR Inten    --     23.9638                46.1099                 5.0506
  Atom  AN      X      Y      Z        X      Y      Z        X      Y      Z
     1   6    -0.14  -0.01   0.06    -0.04   0.11  -0.06     0.01   0.01  -0.02
     2   1    -0.01  -0.57  -0.14     0.41  -0.47   0.13     0.14   0.09   0.20
     3   6    -0.14  -0.06  -0.10     0.05  -0.01   0.01     0.02  -0.01  -0.01
     4   6     0.24   0.09   0.31    -0.02  -0.03  -0.02    -0.02  -0.01   0.02
     5   8    -0.06   0.14  -0.08     0.00  -0.04   0.00     0.00  -0.01  -0.01
     6   8     0.08   0.02  -0.14    -0.03  -0.01   0.02    -0.04  -0.01   0.02
     7   6     0.01  -0.13  -0.05    -0.01   0.04   0.02     0.06   0.01  -0.02
     8   6     0.02  -0.05   0.02    -0.01   0.02  -0.01     0.04   0.01  -0.02
     9   1    -0.05  -0.01   0.09     0.02  -0.01  -0.07    -0.02   0.00   0.47
    10   1    -0.13  -0.19  -0.13     0.07   0.05   0.07    -0.36  -0.01  -0.31
    11   1    -0.03   0.06   0.07     0.01  -0.01  -0.06     0.01  -0.11   0.45
    12   1    -0.09   0.09  -0.10     0.05  -0.04   0.06    -0.34   0.10  -0.31
    13   1     0.08  -0.06   0.26    -0.01   0.02  -0.09    -0.18   0.00   0.06
    14   8     0.00  -0.01   0.02    -0.01  -0.05  -0.02    -0.00  -0.01  -0.01
    15   1     0.12   0.22   0.31     0.26   0.41   0.55     0.01   0.02   0.03
                     19                     20                     21
                      A                      A                      A
 Frequencies --    824.0351               950.5920              1102.2232
 Red. masses --      1.1278                 2.2705                 3.8780
 Frc consts  --      0.4512                 1.2088                 2.7758
 IR Inten    --     56.2223                11.9008                60.1616
  Atom  AN      X      Y      Z        X      Y      Z        X      Y      Z
     1   6    -0.04  -0.02  -0.01     0.04   0.03  -0.02     0.05   0.03  -0.03
     2   1     0.36   0.36   0.81     0.04   0.03  -0.03     0.05   0.04  -0.03
     3   6    -0.01  -0.00   0.02     0.02   0.02  -0.02     0.02   0.00  -0.01
     4   6     0.03   0.01   0.04    -0.08  -0.05   0.04    -0.16  -0.03   0.09
     5   8    -0.00   0.01  -0.01     0.03  -0.08  -0.02     0.05  -0.05  -0.03
     6   8     0.01   0.01  -0.02    -0.02   0.14  -0.01     0.02   0.22  -0.02
     7   6    -0.01  -0.01  -0.00    -0.06   0.04  -0.11     0.12  -0.22   0.20
     8   6    -0.01  -0.01   0.01     0.05  -0.17   0.12    -0.11  -0.01  -0.18
     9   1     0.00  -0.00  -0.11    -0.10   0.22  -0.17     0.09  -0.15   0.35
    10   1     0.08  -0.01   0.07    -0.13   0.20  -0.21     0.06  -0.34   0.22
    11   1    -0.00   0.03  -0.10    -0.05   0.18   0.02    -0.18   0.28  -0.45
    12   1     0.08  -0.02   0.07     0.07   0.18   0.03    -0.07   0.23  -0.24
    13   1     0.05  -0.01   0.01     0.32  -0.19   0.70     0.07  -0.01   0.04
    14   8    -0.01  -0.01  -0.05     0.00  -0.00   0.00     0.00   0.00   0.00
    15   1     0.00  -0.06  -0.12     0.01   0.02   0.02    -0.01   0.01   0.02
                     22                     23                     24
                      A                      A                      A
 Frequencies --   1127.3752              1179.3382              1261.5262
 Red. masses --      2.4205                 1.9110                 2.8965
 Frc consts  --      1.8125                 1.5660                 2.7159
 IR Inten    --     42.4571                66.2814               349.3942
  Atom  AN      X      Y      Z        X      Y      Z        X      Y      Z
     1   6    -0.03  -0.02   0.01     0.02   0.01  -0.01    -0.04  -0.02   0.02
     2   1    -0.03  -0.02   0.02     0.02   0.03  -0.01    -0.04  -0.06   0.02
     3   6    -0.01  -0.00   0.01     0.01  -0.01  -0.01    -0.01   0.01   0.01
     4   6     0.09   0.02  -0.05    -0.11   0.02   0.06     0.25  -0.04  -0.14
     5   8    -0.02   0.03   0.02     0.00   0.04  -0.00    -0.02  -0.04   0.01
     6   8    -0.03  -0.13  -0.03     0.00  -0.10  -0.01    -0.13   0.11   0.07
     7   6     0.06   0.17   0.16     0.15   0.07  -0.09     0.11  -0.09  -0.02
     8   6    -0.04  -0.12  -0.12    -0.11  -0.01   0.06    -0.11   0.01   0.06
     9   1     0.08   0.19   0.05     0.02   0.35   0.26     0.02   0.01   0.36
    10   1     0.04   0.25   0.12    -0.26  -0.48  -0.20    -0.20   0.44  -0.40
    11   1    -0.19   0.38  -0.20    -0.06   0.05  -0.35    -0.04   0.01  -0.41
    12   1    -0.07   0.40  -0.31     0.28  -0.06   0.34     0.16  -0.04   0.25
    13   1     0.19  -0.12   0.47     0.23   0.00  -0.09     0.18   0.02  -0.15
    14   8     0.00  -0.00  -0.00     0.00  -0.00   0.00    -0.00   0.00  -0.00
    15   1    -0.00  -0.00  -0.00    -0.00   0.01   0.02    -0.00  -0.02  -0.02
                     25                     26                     27
                      A                      A                      A
 Frequencies --   1358.0058              1407.0791              1437.2555
 Red. masses --      1.2634                 1.2575                 1.3505
 Frc consts  --      1.3728                 1.4669                 1.6437
 IR Inten    --    109.1826                21.3963                16.4567
  Atom  AN      X      Y      Z        X      Y      Z        X      Y      Z
     1   6    -0.01  -0.00   0.00    -0.01  -0.00   0.00     0.01   0.00  -0.00
     2   1    -0.01  -0.01   0.00    -0.01  -0.01   0.00     0.01   0.01  -0.00
     3   6     0.00   0.00  -0.00    -0.00   0.00   0.00     0.00  -0.00  -0.00
     4   6     0.07  -0.01  -0.04     0.04  -0.00  -0.02    -0.04  -0.00   0.02
     5   8    -0.00  -0.01   0.00    -0.00  -0.01   0.00     0.00   0.01  -0.00
     6   8    -0.08   0.04   0.04    -0.02   0.02   0.02     0.01  -0.03  -0.03
     7   6     0.02  -0.03  -0.00    -0.01   0.04  -0.03     0.04  -0.08   0.09
     8   6     0.05  -0.00  -0.01    -0.05   0.03  -0.11    -0.02   0.07  -0.06
     9   1    -0.14   0.67  -0.26     0.03  -0.22   0.22    -0.06   0.48  -0.37
    10   1     0.07  -0.58   0.23     0.15  -0.28   0.19    -0.21   0.43  -0.26
    11   1     0.04  -0.01   0.08    -0.01  -0.28   0.40     0.08  -0.30   0.13
    12   1    -0.12   0.04  -0.15     0.31  -0.22   0.24     0.04  -0.29   0.11
    13   1    -0.07   0.00  -0.02     0.26  -0.00   0.49     0.12   0.06   0.27
    14   8    -0.00  -0.00  -0.00    -0.00   0.00  -0.00    -0.00  -0.00   0.00
    15   1     0.01  -0.00  -0.01    -0.00  -0.00  -0.00     0.01   0.00  -0.00
                     28                     29                     30
                      A                      A                      A
 Frequencies --   1492.4759              1502.6941              1536.1480
 Red. masses --      1.0404                 1.0482                 1.0952
 Frc consts  --      1.3654                 1.3946                 1.5227
 IR Inten    --      4.1082                 2.4960                10.3930
  Atom  AN      X      Y      Z        X      Y      Z        X      Y      Z
     1   6     0.00   0.00  -0.00     0.00   0.00   0.00     0.01   0.00  -0.00
     2   1     0.00   0.00   0.00    -0.00   0.00  -0.00     0.01   0.01  -0.00
     3   6     0.00  -0.00   0.00    -0.00   0.00   0.00     0.00  -0.00  -0.00
     4   6    -0.00   0.00   0.00     0.00  -0.00  -0.00    -0.03  -0.00   0.01
     5   8     0.00  -0.00  -0.00     0.00   0.00  -0.00     0.00   0.01  -0.00
     6   8     0.01  -0.00  -0.00    -0.00   0.01   0.00     0.01  -0.02  -0.01
     7   6    -0.02   0.01   0.01     0.00  -0.03   0.02    -0.02  -0.05  -0.05
     8   6    -0.04   0.00   0.03    -0.02  -0.03  -0.03    -0.00  -0.01  -0.00
     9   1    -0.02  -0.02  -0.02     0.02   0.01  -0.21    -0.24   0.43   0.52
    10   1     0.04   0.00   0.06    -0.15   0.01  -0.10     0.52   0.37   0.19
    11   1     0.16  -0.51  -0.01    -0.17   0.22   0.53    -0.04   0.05   0.11
    12   1    -0.16   0.41  -0.22     0.47   0.44   0.16     0.10   0.08   0.04
    13   1     0.64   0.02  -0.23     0.01  -0.01  -0.35    -0.03  -0.00  -0.09
    14   8     0.00  -0.00   0.00    -0.00  -0.00   0.00    -0.00  -0.00  -0.00
    15   1     0.00   0.00   0.00     0.00  -0.00  -0.00     0.00   0.00   0.01
                     31                     32                     33
                      A                      A                      A
 Frequencies --   1847.7512              2114.7402              3072.3778
 Red. masses --     12.9527                 6.2783                 1.0355
 Frc consts  --     26.0554                16.5428                 5.7589
 IR Inten    --    495.0279                67.9360                 7.3179
  Atom  AN      X      Y      Z        X      Y      Z        X      Y      Z
     1   6    -0.03  -0.02   0.01    -0.31  -0.18   0.16    -0.00   0.00  -0.00
     2   1    -0.04   0.01   0.03    -0.57  -0.33   0.30     0.00  -0.00  -0.00
     3   6     0.02  -0.00  -0.01     0.45   0.27  -0.20    -0.00   0.00  -0.00
     4   6     0.04   0.82   0.03    -0.07  -0.03   0.04    -0.00   0.00   0.00
     5   8    -0.04  -0.54  -0.01     0.00  -0.01  -0.00     0.00  -0.00  -0.00
     6   8     0.01  -0.05  -0.01    -0.00  -0.00  -0.00     0.00  -0.00  -0.00
     7   6     0.02  -0.03  -0.01     0.00  -0.00   0.00    -0.00  -0.00  -0.00
     8   6    -0.00   0.01   0.00    -0.00   0.00   0.00     0.02  -0.02   0.04
     9   1    -0.03   0.11   0.01    -0.01   0.01   0.00     0.04   0.01   0.01
    10   1     0.05   0.03  -0.03     0.00   0.01   0.00    -0.02   0.01   0.02
    11   1     0.00   0.00   0.01     0.00  -0.00   0.00    -0.52  -0.18  -0.06
    12   1     0.02  -0.01   0.02    -0.00   0.00  -0.00     0.33  -0.17  -0.46
    13   1    -0.02   0.00  -0.03     0.00   0.00  -0.00    -0.00   0.58   0.03
    14   8     0.00   0.00   0.00    -0.01  -0.01  -0.02     0.00   0.00  -0.00
    15   1    -0.01  -0.01   0.00    -0.00  -0.01  -0.01    -0.00  -0.00   0.00
                     34                     35                     36
                      A                      A                      A
 Frequencies --   3100.4760              3143.7088              3152.5263
 Red. masses --      1.0629                 1.1040                 1.1015
 Frc consts  --      6.0199                 6.4282                 6.4496
 IR Inten    --     11.3631                 3.5946                11.3721
  Atom  AN      X      Y      Z        X      Y      Z        X      Y      Z
     1   6    -0.00   0.00   0.00    -0.00  -0.00   0.00     0.00   0.00   0.00
     2   1    -0.00  -0.00   0.00    -0.00  -0.00   0.00     0.00   0.00  -0.00
     3   6     0.00   0.00  -0.00     0.00  -0.00   0.00     0.00  -0.00  -0.00
     4   6    -0.00   0.00   0.00     0.00  -0.00  -0.00    -0.00   0.00   0.00
     5   8     0.00  -0.00  -0.00    -0.00   0.00   0.00     0.00  -0.00  -0.00
     6   8     0.00  -0.00   0.00    -0.00   0.00  -0.00     0.00   0.00  -0.00
     7   6    -0.04  -0.03  -0.04    -0.04   0.00   0.02     0.02  -0.01  -0.02
     8   6     0.00   0.01   0.00     0.06  -0.04  -0.04    -0.04  -0.08  -0.02
     9   1     0.81   0.23   0.11     0.28   0.08   0.05    -0.05  -0.02  -0.01
    10   1    -0.29   0.14   0.39     0.24  -0.12  -0.34    -0.18   0.09   0.25
    11   1    -0.04  -0.01  -0.00    -0.31  -0.12  -0.05     0.58   0.19   0.08
    12   1     0.00   0.00   0.00    -0.38   0.19   0.53    -0.08   0.02   0.10
    13   1    -0.00  -0.13  -0.01     0.01   0.38   0.01    -0.01   0.70   0.03
    14   8    -0.00   0.00   0.00    -0.00   0.00   0.00     0.00   0.00  -0.00
    15   1    -0.00  -0.00   0.00     0.00  -0.00   0.00     0.00  -0.00   0.00
                     37                     38                     39
                      A                      A                      A
 Frequencies --   3167.2599              3456.3664              3809.7700
 Red. masses --      1.1066                 1.1490                 1.0676
 Frc consts  --      6.5402                 8.0872                 9.1297
 IR Inten    --     16.6248                70.2118                55.9240
  Atom  AN      X      Y      Z        X      Y      Z        X      Y      Z
     1   6     0.00  -0.00   0.00    -0.08  -0.04   0.06    -0.00  -0.00  -0.00
     2   1     0.00   0.00  -0.00     0.73   0.38  -0.55     0.00   0.00  -0.00
     3   6    -0.00  -0.00   0.00     0.02   0.01  -0.01     0.00   0.00  -0.00
     4   6    -0.00   0.00  -0.00    -0.00  -0.00   0.00     0.00   0.00  -0.00
     5   8    -0.00  -0.00  -0.00     0.00  -0.00  -0.00    -0.00  -0.00   0.00
     6   8    -0.00  -0.00   0.00    -0.00  -0.00  -0.00    -0.00   0.00   0.00
     7   6     0.06  -0.01  -0.04    -0.00   0.00   0.00    -0.00  -0.00  -0.00
     8   6     0.05   0.00  -0.02    -0.00   0.00   0.00     0.00  -0.00  -0.00
     9   1    -0.39  -0.11  -0.07     0.00   0.00   0.00     0.00  -0.00   0.00
    10   1    -0.37   0.18   0.53     0.00  -0.00  -0.00    -0.00   0.00   0.00
    11   1    -0.42  -0.15  -0.07     0.00   0.00   0.00    -0.00  -0.00  -0.00
    12   1    -0.22   0.11   0.32     0.00   0.00  -0.00    -0.00  -0.00   0.00
    13   1     0.01  -0.02  -0.01     0.00  -0.00  -0.00    -0.00   0.00   0.00
    14   8     0.00  -0.00  -0.00    -0.00  -0.00  -0.00     0.01  -0.05   0.04
    15   1     0.00  -0.00  -0.00     0.00  -0.00   0.00    -0.19   0.81  -0.55

 -------------------
 - Thermochemistry -
 -------------------
 Temperature   298.150 Kelvin.  Pressure   1.00000 Atm.
 Atom     1 has atomic number  6 and mass  12.00000
 Atom     2 has atomic number  1 and mass   1.00783
 Atom     3 has atomic number  6 and mass  12.00000
 Atom     4 has atomic number  6 and mass  12.00000
 Atom     5 has atomic number  8 and mass  15.99491
 Atom     6 has atomic number  8 and mass  15.99491
 Atom     7 has atomic number  6 and mass  12.00000
 Atom     8 has atomic number  6 and mass  12.00000
 Atom     9 has atomic number  1 and mass   1.00783
 Atom    10 has atomic number  1 and mass   1.00783
 Atom    11 has atomic number  1 and mass   1.00783
 Atom    12 has atomic number  1 and mass   1.00783
 Atom    13 has atomic number  1 and mass   1.00783
 Atom    14 has atomic number  8 and mass  15.99491
 Atom    15 has atomic number  1 and mass   1.00783
 Molecular mass:   115.03952 amu.
 Principal axes and moments of inertia in atomic units:
                           1         2         3
     Eigenvalues --   840.080991064.718321548.48288
           X            0.98745  -0.15757   0.01037
           Y            0.15773   0.98732  -0.01782
           Z           -0.00743   0.01924   0.99979
 This molecule is an asymmetric top.
 Rotational symmetry number  1.
 Warning -- assumption of classical behavior for rotation
           may cause significant error
 Rotational temperatures (Kelvin)      0.10310     0.08135     0.05593
 Rotational constants (GHZ):           2.14829     1.69504     1.16549
    1 imaginary frequencies ignored.
 Zero-point vibrational energy     293863.5 (Joules/Mol)
                                   70.23507 (Kcal/Mol)
 Warning -- explicit consideration of  11 degrees of freedom as
           vibrations may cause significant error
 Vibrational temperatures:     76.22   113.62   135.54   157.22   270.04
          (Kelvin)            327.49   354.24   456.07   521.01   588.57
                              796.99   904.17  1032.10  1081.85  1085.07
                             1119.04  1176.57  1185.60  1367.69  1585.85
                             1622.04  1696.80  1815.05  1953.87  2024.47
                             2067.89  2147.34  2162.04  2210.17  2658.50
                             3042.64  4420.47  4460.89  4523.10  4535.78
                             4556.98  4972.94  5481.41
 
 Zero-point correction=                           0.111927 (Hartree/Particle)
 Thermal correction to Energy=                    0.121481
 Thermal correction to Enthalpy=                  0.122425
 Thermal correction to Gibbs Free Energy=         0.076000
 Sum of electronic and zero-point Energies=           -420.085729
 Sum of electronic and thermal Energies=              -420.076175
 Sum of electronic and thermal Enthalpies=            -420.075230
 Sum of electronic and thermal Free Energies=         -420.121655
 
                     E (Thermal)             CV                S
                      KCal/Mol        Cal/Mol-Kelvin    Cal/Mol-Kelvin
 Total                   76.230             32.069             97.709
 Electronic               0.000              0.000              1.377
 Translational            0.889              2.981             40.136
 Rotational               0.889              2.981             28.717
 Vibrational             74.453             26.107             27.479
 Vibration     1          0.596              1.976              4.703
 Vibration     2          0.600              1.963              3.916
 Vibration     3          0.603              1.953              3.571
 Vibration     4          0.606              1.942              3.282
 Vibration     5          0.632              1.857              2.251
 Vibration     6          0.651              1.799              1.898
 Vibration     7          0.661              1.769              1.758
 Vibration     8          0.704              1.641              1.326
 Vibration     9          0.736              1.550              1.113
 Vibration    10          0.773              1.451              0.930
 Vibration    11          0.909              1.131              0.536
                       Q            Log10(Q)             Ln(Q)
 Total Bot       0.110242D-34        -34.957654        -80.492972
 Total V=0       0.334977D+17         16.525015         38.050253
 Vib (Bot)       0.269783D-48        -48.568985       -111.834220
 Vib (Bot)    1  0.390122D+01          0.591201          1.361290
 Vib (Bot)    2  0.260838D+01          0.416371          0.958729
 Vib (Bot)    3  0.218087D+01          0.338630          0.779724
 Vib (Bot)    4  0.187464D+01          0.272919          0.628419
 Vib (Bot)    5  0.106723D+01          0.028257          0.065063
 Vib (Bot)    6  0.866214D+00         -0.062375         -0.143623
 Vib (Bot)    7  0.794129D+00         -0.100109         -0.230509
 Vib (Bot)    8  0.594103D+00         -0.226139         -0.520703
 Vib (Bot)    9  0.505445D+00         -0.296326         -0.682315
 Vib (Bot)   10  0.432789D+00         -0.363724         -0.837506
 Vib (Bot)   11  0.282235D+00         -0.549389         -1.265016
 Vib (V=0)       0.819754D+03          2.913684          6.709005
 Vib (V=0)    1  0.443313D+01          0.646711          1.489106
 Vib (V=0)    2  0.315587D+01          0.499119          1.149264
 Vib (V=0)    3  0.273745D+01          0.437347          1.007028
 Vib (V=0)    4  0.244018D+01          0.387422          0.892071
 Vib (V=0)    5  0.167855D+01          0.224933          0.517928
 Vib (V=0)    6  0.150016D+01          0.176139          0.405574
 Vib (V=0)    7  0.143842D+01          0.157887          0.363549
 Vib (V=0)    8  0.127650D+01          0.106022          0.244125
 Vib (V=0)    9  0.121097D+01          0.083133          0.191420
 Vib (V=0)   10  0.116129D+01          0.064941          0.149532
 Vib (V=0)   11  0.107416D+01          0.031068          0.071536
 Electronic      0.200000D+01          0.301030          0.693147
 Translational   0.484981D+08          7.685724         17.697035
 Rotational      0.421286D+06          5.624577         12.951067
 ***** Axes restored to original set *****
 -------------------------------------------------------------------
 Center     Atomic                   Forces (Hartrees/Bohr)
 Number     Number              X              Y              Z
 -------------------------------------------------------------------
      1        6           0.000051812   -0.000015187   -0.000031151
      2        1          -0.000087539   -0.000003684    0.000037026
      3        6           0.000170849    0.000085537   -0.000092624
      4        6          -0.000206061   -0.000164688    0.000112805
      5        8           0.000039400    0.000101773    0.000051290
      6        8          -0.000006470   -0.000046091   -0.000057368
      7        6          -0.000057154   -0.000030777   -0.000153961
      8        6          -0.000021587    0.000021609    0.000062910
      9        1           0.000124918    0.000036024    0.000035399
     10        1          -0.000029886   -0.000001242    0.000096713
     11        1          -0.000003616   -0.000034334    0.000003463
     12        1           0.000001899    0.000030582   -0.000098318
     13        1           0.000009614    0.000022332    0.000009981
     14        8           0.000031821    0.000062756    0.000040710
     15        1          -0.000018000   -0.000064608   -0.000016874
 -------------------------------------------------------------------
 Cartesian Forces:  Max     0.000206061 RMS     0.000073851

 GradGradGradGradGradGradGradGradGradGradGradGradGradGradGradGradGradGrad
 Berny optimization.
 Search for a local minimum.
 Step number   1 out of a maximum of    2
 All quantities printed in internal units (Hartrees-Bohrs-Radians)
 Second derivative matrix not updated -- analytic derivatives used.
 ITU=  0
     Eigenvalues ---   -0.14971   0.00063   0.00092   0.00196   0.00222
     Eigenvalues ---    0.00291   0.00428   0.00668   0.02112   0.02377
     Eigenvalues ---    0.02761   0.02877   0.03289   0.05583   0.06153
     Eigenvalues ---    0.07605   0.07953   0.08905   0.09204   0.10123
     Eigenvalues ---    0.11492   0.13989   0.16757   0.16971   0.22948
     Eigenvalues ---    0.24793   0.26957   0.34977   0.51588   0.62528
     Eigenvalues ---    0.71099   0.77764   0.78147   0.86141   0.86694
     Eigenvalues ---    0.94413   0.96370   1.74450   2.39171
 Eigenvalue     1 is  -1.50D-01 should be greater than     0.000000 Eigenvector:
                          Z1        Z14       Y1        Y14       X1
   1                    0.66473  -0.51359   0.34155  -0.30259   0.21911
                          X14       Z15       X2        Z3        Y2
   1                   -0.15935  -0.07219  -0.04972  -0.03300  -0.03133
 Angle between quadratic step and forces=  80.10 degrees.
 Linear search not attempted -- first point.
 B after Tr=     0.001481   -0.000217    0.002166
         Rot=    1.000000   -0.000377   -0.000099    0.000020 Ang=  -0.04 deg.
 Variable       Old X    -DE/DX   Delta X   Delta X   Delta X     New X
                                 (Linear)    (Quad)   (Total)
    X1       -3.37799   0.00005   0.00000  -0.00286  -0.00103  -3.37902
    Y1       -0.35454  -0.00002   0.00000   0.00765   0.00620  -0.34834
    Z1        1.82232  -0.00003   0.00000  -0.00349  -0.00092   1.82140
    X2       -4.86295  -0.00009   0.00000  -0.00793  -0.00591  -4.86886
    Y2       -1.13056  -0.00000   0.00000   0.01658   0.01434  -1.11622
    Z2        2.94237   0.00004   0.00000  -0.00360  -0.00131   2.94106
    X3       -1.52322   0.00017   0.00000  -0.00055   0.00118  -1.52204
    Y3        0.78686   0.00009   0.00000   0.00404   0.00306   0.78992
    Z3        1.08840  -0.00009   0.00000  -0.00359  -0.00052   1.08788
    X4        0.62880  -0.00021   0.00000   0.00453   0.00609   0.63489
    Y4        2.12737  -0.00016   0.00000   0.00127   0.00105   2.12841
    Z4       -0.02374   0.00011   0.00000   0.00418   0.00782  -0.01592
    X5        0.75858   0.00004   0.00000   0.01508   0.01675   0.77533
    Y5        4.38325   0.00010   0.00000   0.00033   0.00003   4.38328
    Z5        0.03986   0.00005   0.00000   0.02084   0.02616   0.06602
    X6        2.40243  -0.00001   0.00000  -0.00358  -0.00230   2.40014
    Y6        0.71565  -0.00005   0.00000   0.00134   0.00187   0.71752
    Z6       -1.11649  -0.00006   0.00000  -0.00936  -0.00712  -1.12361
    X7        2.24559  -0.00006   0.00000  -0.00371  -0.00253   2.24306
    Y7       -2.00884  -0.00003   0.00000   0.00139   0.00192  -2.00692
    Z7       -1.09933  -0.00015   0.00000  -0.00652  -0.00632  -1.10565
    X8        3.32201  -0.00002   0.00000  -0.00756  -0.00593   3.31608
    Y8       -3.07332   0.00002   0.00000   0.00510   0.00375  -3.06956
    Z8        1.33166   0.00006   0.00000  -0.00310  -0.00391   1.32775
    X9        0.29296   0.00012   0.00000  -0.00308  -0.00198   0.29098
    Y9       -2.59794   0.00004   0.00000   0.00110   0.00194  -2.59600
    Z9       -1.41403   0.00004   0.00000  -0.00741  -0.00726  -1.42129
   X10        3.37445  -0.00003   0.00000  -0.00145  -0.00061   3.37385
   Y10       -2.57247  -0.00000   0.00000  -0.00090   0.00081  -2.57166
   Z10       -2.72446   0.00010   0.00000  -0.00375  -0.00420  -2.72866
   X11        5.25671  -0.00000   0.00000  -0.00598  -0.00427   5.25244
   Y11       -2.41761  -0.00003   0.00000   0.00033  -0.00131  -2.41892
   Z11        1.60770   0.00000   0.00000  -0.00319  -0.00389   1.60381
   X12        2.18920   0.00000   0.00000  -0.00774  -0.00577   2.18343
   Y12       -2.50700   0.00003   0.00000   0.01324   0.01071  -2.49629
   Z12        2.95983  -0.00010   0.00000  -0.00633  -0.00648   2.95336
   X13        3.33032   0.00001   0.00000  -0.01328  -0.01175   3.31857
   Y13       -5.13442   0.00002   0.00000   0.00488   0.00360  -5.13082
   Z13        1.24239   0.00001   0.00000   0.00318   0.00082   1.24321
   X14       -4.43432   0.00003   0.00000   0.00864   0.00976  -4.42456
   Y14       -2.13421   0.00006   0.00000  -0.02013  -0.01912  -2.15333
   Z14       -1.40142   0.00004   0.00000   0.00886   0.01028  -1.39113
   X15       -4.79402  -0.00002   0.00000   0.00735   0.00832  -4.78571
   Y15       -0.65717  -0.00006   0.00000  -0.03066  -0.02886  -0.68603
   Z15       -2.42642  -0.00002   0.00000  -0.00575  -0.00316  -2.42957
         Item               Value     Threshold  Converged?
 Maximum Force            0.000206     0.000450     YES
 RMS     Force            0.000074     0.000300     YES
 Maximum Displacement     0.028858     0.001800     NO 
 RMS     Displacement     0.008776     0.001200     NO 
 Predicted change in Energy=-2.539909D-06
 GradGradGradGradGradGradGradGradGradGradGradGradGradGradGradGradGradGrad


 ----------------------------------------------------------------------

 Electric dipole moment (input orientation):
 (Debye = 10**-18 statcoulomb cm , SI units = C m)
                  (au)            (Debye)         (10**-30 SI)
   Tot        0.127140D+01      0.323157D+01      0.107794D+02
   x         -0.356585D+00     -0.906348D+00     -0.302325D+01
   y         -0.119324D+01     -0.303290D+01     -0.101167D+02
   z          0.255902D+00      0.650437D+00      0.216962D+01

 Dipole polarizability, Alpha (input orientation).
 (esu units = cm**3 , SI units = C**2 m**2 J**-1)
 Alpha(0;0):
               (au)            (10**-24 esu)      (10**-40 SI)
   iso        0.764764D+02      0.113326D+02      0.126092D+02
   aniso      0.296623D+02      0.439549D+01      0.489065D+01
   xx         0.833940D+02      0.123577D+02      0.137498D+02
   yx         0.116187D+02      0.172171D+01      0.191566D+01
   yy         0.813995D+02      0.120622D+02      0.134210D+02
   zx         0.306252D+01      0.453819D+00      0.504942D+00
   zy         0.653933D+01      0.969029D+00      0.107819D+01
   zz         0.646356D+02      0.957800D+01      0.106570D+02

 ----------------------------------------------------------------------

 Dipole orientation:
     6         -2.56800707          2.35590096          1.64694372
     1         -3.47155049          3.52546984          3.01718370
     6         -1.29063126          1.56516330         -0.09220485
     6          0.11481735          0.40742666         -2.17772116
     8         -0.24037334          1.04045345         -4.31851666
     8          1.77516467         -1.38337063         -1.57017962
     6          2.23039556         -2.05968021          1.03426489
     6          4.15139434         -0.29796176          2.22069671
     1          0.44644919         -2.08431357          2.07145223
     1          2.95305180         -3.98260865          0.91953427
     1          5.89314805         -0.28790638          1.11824053
     1          3.42532057          1.62941256          2.33462166
     1          4.58575487         -0.93337852          4.13479031
     8         -4.06935631         -0.91292654          2.96461391
     1         -5.01663230         -1.40208512          1.47295886

 Electric dipole moment (dipole orientation):
 (Debye = 10**-18 statcoulomb cm , SI units = C m)
                  (au)            (Debye)         (10**-30 SI)
   Tot        0.127140D+01      0.323157D+01      0.107794D+02
   x          0.000000D+00      0.000000D+00      0.000000D+00
   y          0.000000D+00      0.000000D+00      0.000000D+00
   z          0.127140D+01      0.323157D+01      0.107794D+02

 Dipole polarizability, Alpha (dipole orientation).
 (esu units = cm**3 , SI units = C**2 m**2 J**-1)
 Alpha(0;0):
               (au)            (10**-24 esu)      (10**-40 SI)
   iso        0.764764D+02      0.113326D+02      0.126092D+02
   aniso      0.296623D+02      0.439549D+01      0.489065D+01
   xx         0.778659D+02      0.115385D+02      0.128384D+02
   yx         0.275441D+00      0.408162D-01      0.454141D-01
   yy         0.673856D+02      0.998552D+01      0.111104D+02
   zx        -0.126200D+02     -0.187009D+01     -0.208076D+01
   zy        -0.787416D+01     -0.116683D+01     -0.129827D+01
   zz         0.841775D+02      0.124738D+02      0.138790D+02

 ----------------------------------------------------------------------
 1\1\GINC-BOSON\Freq\UM062X\6-311++G(d,p)\C5H7O3(2)\LOKI\28-Mar-2025\0\
 \# freq 6-311++g(d,p) m062x\\Title Card Required\\0,2\C,-1.78755534,-0
 .18761248,0.96432884\H,-2.57336334,-0.59826748,1.55703384\C,-0.8060523
 4,0.41638852,0.57595884\C,0.33274766,1.12575452,-0.01256316\O,0.401424
 66,2.31951552,0.02109284\O,1.27131266,0.37870552,-0.59082116\C,1.18831
 366,-1.06303448,-0.58174216\C,1.75793266,-1.62632948,0.70468284\H,0.15
 502666,-1.37477048,-0.74827216\H,1.78568466,-1.36129348,-1.44172116\H,
 2.78173166,-1.27934348,0.85075884\H,1.15847566,-1.32664648,1.56627684\
 H,1.76233066,-2.71701748,0.65744384\O,-2.34654234,-1.12937448,-0.74159
 816\H,-2.53688834,-0.34776148,-1.28400516\\Version=ES64L-G16RevA.03\St
 ate=2-A\HF=-420.1976552\S2=0.773311\S2-1=0.\S2A=0.750233\RMSD=4.949e-0
 9\RMSF=7.385e-05\ZeroPoint=0.1119267\Thermal=0.1214807\Dipole=-0.35658
 47,-1.1932356,0.2559016\DipoleDeriv=-0.5094972,-0.3818219,-0.4503971,-
 0.3479654,-0.4288341,-0.4355064,-0.28123,-0.2465631,-0.3493925,0.25631
 96,0.0188654,-0.0357871,0.0486162,0.2415409,0.0029493,0.0119345,0.0182
 411,0.2279954,-0.1721332,0.1367781,0.4294066,0.0355915,0.0202862,0.244
 3323,0.1589808,0.0096732,-0.2855208,1.8521182,-0.2579967,-0.3709448,-0
 .1475709,2.0585308,0.1226465,-0.796441,0.2152506,0.5627745,-0.6860344,
 -0.1434087,0.0441833,-0.0404881,-1.4688247,-0.0500452,0.1940027,0.0393
 152,-0.3623114,-0.9976179,0.5935201,0.165441,0.5349064,-1.2639057,-0.0
 545493,0.3830381,-0.324912,-0.4548842,0.2482564,-0.0946988,0.022279,-0
 .3401132,0.8251571,-0.0688801,0.027665,-0.0547081,0.3420919,0.0442449,
 0.0382663,-0.0393342,0.0735441,-0.0262382,0.0144267,-0.0561601,0.06605
 01,-0.0854549,-0.0097473,-0.0497993,-0.0530313,0.0403742,-0.0223895,0.
 0203528,-0.0411064,0.0230195,0.0378292,0.0110919,0.0478827,0.0747491,0
 .0367813,0.0109068,0.0054115,0.0550348,-0.0311086,-0.0494749,-0.073697
 8,-0.0273423,-0.0418434,-0.0709407,0.0627937,-0.0038753,-0.0041737,0.0
 214698,0.0527792,0.0108053,0.0334301,0.0801746,0.0238365,0.0496069,-0.
 0512486,0.0611182,-0.0153843,-0.0358029,0.0721075,-0.0059255,-0.013261
 2,0.0293782,-0.1033445,0.0033878,-0.0199355,-0.0085332,0.0693995,-0.38
 09215,0.0727235,0.1668482,0.1765554,-0.0719039,0.2541164,0.227365,0.16
 57708,0.0173194,0.3347057,0.0195272,0.0215172,-0.0525056,0.1166183,-0.
 0035185,0.0799076,0.1224191,0.3126528\Polar=83.3940177,11.6186813,81.3
 994853,3.0625244,6.5393316,64.6355683\Quadrupole=3.2058085,-6.5311014,
 3.3252929,-4.9438301,-0.6981906,-1.0118175\PG=C01 [X(C5H7O3)]\NImag=1\
 \0.85060112,0.42940496,0.28935675,-0.50441923,-0.32000225,0.24932479,-
 0.23700900,-0.10860763,0.15775083,0.23251544,-0.10426891,-0.08067595,0
 .08633997,0.11425961,0.07721653,0.17422117,0.09870325,-0.13377421,-0.1
 5714527,-0.08125072,0.13999670,-0.62707770,-0.33516166,0.33305304,0.00
 203733,-0.00656797,-0.01648179,0.86544444,-0.35652551,-0.23040893,0.20
 729792,-0.00083112,0.00004958,-0.01135622,0.45559694,0.38339428,0.2640
 0641,0.15803655,-0.15772304,0.00490217,0.00335649,0.01044049,-0.361982
 17,-0.20053670,0.22312997,0.00655477,-0.00129568,-0.00210668,0.0023187
 1,-0.00354834,0.00218071,-0.17763360,-0.05788038,0.05114181,0.47025690
 ,-0.00886172,-0.00538679,-0.00414219,-0.00139126,0.00462813,0.00153025
 ,-0.03437882,-0.07713864,0.02178619,0.02853969,1.02101391,-0.01140697,
 -0.00617556,0.00464531,0.00192154,0.00187293,0.00335498,0.06370196,0.0
 3953054,-0.09798260,-0.14654570,0.03107565,0.27991878,-0.00515957,-0.0
 0303645,0.00041090,-0.00048976,0.00171980,-0.00031882,0.00330698,-0.03
 935746,0.00923562,-0.09496726,-0.06775301,0.00572027,0.08757029,0.0020
 5834,0.00378091,0.00354063,-0.00066896,0.00087812,-0.00069622,-0.04231
 455,-0.06133214,0.01775394,-0.05116329,-0.76854126,-0.01258686,0.04829
 567,0.90869499,0.00405356,0.00297679,-0.00005245,-0.00035377,-0.000885
 68,-0.00083322,0.00726883,0.01487605,0.01832070,0.00626228,-0.00340774
 ,-0.07883268,-0.02809804,0.02675639,0.04837685,-0.00181265,-0.00205772
 ,0.00091562,0.00021439,-0.00048452,-0.00075004,-0.03989596,0.00918394,
 0.03269665,-0.20940405,0.05422856,0.09195550,0.01044175,0.04162594,0.0
 0652532,0.31206745,0.00184205,0.00064912,0.00051324,0.00026104,-0.0010
 2980,0.00003152,-0.00353605,0.00787292,-0.00142605,0.07546449,-0.14871
 902,-0.04512334,0.05942423,-0.08568860,-0.04054044,-0.09889500,0.51409
 490,0.00359854,0.00290263,0.00045894,-0.00059809,0.00016638,-0.0003613
 9,0.02933965,-0.00723715,-0.00022666,0.09481698,-0.03419403,-0.1034806
 2,0.00672613,-0.03056529,0.01027934,-0.14399018,0.07217673,0.14930763,
 -0.00028804,0.00038069,-0.00038465,-0.00004181,-0.00007614,0.00014612,
 -0.00290461,0.00348982,0.00285043,0.00316183,0.02669408,-0.00501884,-0
 .00163010,0.00357440,0.00405628,-0.08474834,-0.03295233,0.01173738,0.6
 3570811,-0.00207422,-0.00318640,-0.00028403,0.00014138,0.00018786,-0.0
 0010022,-0.00275162,0.00130699,0.00332946,0.02769276,-0.03580155,-0.01
 943834,-0.00422989,0.01294589,0.00367665,-0.01788336,-0.19114872,0.000
 47325,0.00749667,0.43335255,0.00060872,-0.00064525,-0.00049313,0.00009
 751,-0.00014043,-0.00000925,0.00262610,-0.00132378,-0.00084173,-0.0055
 2567,-0.01962975,-0.00955991,0.00504964,-0.00162923,0.00379096,0.01118
 412,0.00866071,-0.06315754,-0.04244096,0.03861894,0.56569985,0.0006657
 5,0.00049475,0.00012370,-0.00001809,-0.00004989,-0.00007310,-0.0007778
 1,0.00036013,-0.00005329,-0.00124624,0.00052601,-0.00032520,0.00019065
 ,-0.00040889,-0.00010836,0.00445353,0.00120766,0.00091855,-0.10699137,
 0.01693553,-0.04569367,0.57208610,0.00040626,0.00042327,0.00011522,0.0
 0004310,-0.00006377,0.00001328,0.00083799,-0.00038953,-0.00065880,-0.0
 0568156,0.00329128,0.00803779,0.00082802,-0.00305310,-0.00257540,0.019
 42192,-0.03896521,0.03211928,0.01240759,-0.08210576,0.02667963,0.01693
 542,0.57208484,-0.00035901,0.00007221,-0.00065716,0.00016410,-0.000040
 70,0.00008578,-0.00049601,0.00024734,-0.00043326,-0.00177689,0.0004366
 0,0.00302567,0.00021370,-0.00131394,-0.00075089,0.00348387,0.00272848,
 0.00401285,-0.04538080,0.03808120,-0.18839842,-0.02884081,0.03237893,0
 .52244475,-0.00227886,0.00002443,0.00008186,-0.00004688,0.00010782,0.0
 0014524,-0.00041486,0.00176362,0.00067277,0.00210173,0.00067120,-0.000
 44318,-0.00045637,0.00029153,0.00035396,0.00406243,-0.00112436,0.00177
 937,-0.29762540,-0.07175502,-0.03794419,-0.00797900,-0.00126442,-0.001
 37017,0.31632895,0.00036545,0.00004638,-0.00027981,0.00002483,0.000092
 87,-0.00000247,0.00193293,-0.00119786,-0.00150264,-0.00855644,0.004150
 55,0.00341923,0.00183112,-0.00183913,-0.00049234,-0.03124010,-0.030366
 93,-0.00653928,-0.05855110,-0.06901625,-0.01180017,0.01348170,0.006341
 77,0.00153539,0.07266876,0.08824023,-0.00017537,-0.00087868,-0.0007261
 1,0.00010110,0.00000407,-0.00002274,0.00129268,-0.00131894,-0.00110989
 ,-0.00151321,-0.00073079,0.00108129,0.00037278,0.00005705,-0.00026446,
 0.00144712,0.00019465,0.00039349,-0.03564575,-0.01020111,-0.05931721,-
 0.02849338,-0.00730545,-0.00333384,0.03950901,0.01053127,0.06051250,-0
 .00026646,0.00003586,-0.00015853,0.00001723,0.00009943,-0.00001266,0.0
 0001512,-0.00007883,0.00010055,-0.00014382,-0.00015194,-0.00009198,0.0
 0028808,-0.00039195,0.00007035,0.00285223,-0.00152555,-0.00317304,-0.1
 4109964,0.04207596,0.12340581,0.00879682,-0.00419576,-0.01295322,-0.01
 403617,0.00838301,0.02413145,0.14320557,0.00028648,0.00029628,-0.00008
 382,0.00000619,-0.00001290,-0.00000068,0.00030495,0.00012344,-0.000002
 66,-0.00611463,-0.00240898,-0.00004081,0.00194916,-0.00306550,-0.00036
 656,0.02596961,-0.03027276,-0.02933949,0.03217165,-0.05970460,-0.04976
 171,-0.00787304,0.00512749,0.01043688,-0.00350813,0.00462405,0.0074534
 3,-0.04481685,0.08498228,-0.00005055,0.00005047,0.00012782,-0.00003666
 ,0.00001613,-0.00000483,-0.00025386,-0.00008065,-0.00001714,-0.0013415
 0,0.00157071,0.00086589,-0.00002017,-0.00013061,-0.00007738,-0.0000770
 5,-0.00131128,0.00316311,0.12171359,-0.05935847,-0.22241041,0.01554608
 ,-0.00578304,-0.02271830,-0.00274894,0.00247642,0.00557733,-0.12978496
 ,0.06032981,0.23723009,0.00004713,0.00013017,-0.00011100,0.00004782,-0
 .00001625,-0.00001469,-0.00002681,-0.00000503,-0.00019958,-0.00085362,
 -0.00021257,0.00025268,0.00021559,0.00023079,-0.00002557,0.00139003,0.
 00019619,0.00114092,-0.01205258,-0.00422960,-0.00226474,-0.28915390,-0
 .08237719,-0.03134405,0.00092452,0.00083143,-0.00204128,0.00079125,0.0
 0029124,-0.00009355,0.31152738,-0.00004284,-0.00013241,0.00007532,-0.0
 0000580,-0.00001002,-0.00000621,-0.00002536,0.00004317,0.00008996,0.00
 108580,-0.00045230,-0.00060529,-0.00021571,0.00023938,0.00012967,-0.00
 068936,0.00219118,-0.00087729,0.01400606,0.00264539,0.00287179,-0.0838
 8303,-0.07543393,-0.01224404,0.00101929,-0.00062742,0.00254794,-0.0005
 6356,0.00015561,-0.00071129,0.09009895,0.07713349,0.00019602,0.0000229
 8,0.00027533,-0.00005806,0.00003613,-0.00003598,0.00021945,-0.00013450
 ,-0.00003241,0.00002272,0.00033534,0.00015190,-0.00011345,-0.00004815,
 -0.00006866,0.00204014,-0.00135539,0.00183116,-0.03127569,-0.01098200,
 -0.00542699,-0.02949818,-0.01036530,-0.05207388,-0.00107890,0.00324022
 ,-0.00472780,0.00040768,-0.00064502,0.00111385,0.03678377,0.01072285,0
 .05635151,-0.00033520,0.00037904,-0.00009965,-0.00003023,-0.00002069,0
 .00004439,-0.00108421,0.00047349,-0.00031659,0.00090164,0.00025934,0.0
 0019645,-0.00033203,-0.00023972,-0.00002108,0.00005068,-0.00096943,0.0
 0120319,0.00870138,-0.00516440,-0.01223747,-0.13292807,0.04244704,0.11
 945347,0.00070042,-0.00068405,0.00058867,-0.00043055,0.00166320,-0.002
 90951,-0.01497258,0.00982350,0.02343343,0.14032642,-0.00004466,-0.0003
 2578,0.00000895,-0.00005119,0.00012620,-0.00002849,0.00088284,-0.00027
 597,0.00037826,0.00056914,-0.00030146,0.00005723,-0.00009920,0.0000619
 1,-0.00000315,-0.00127183,0.00209614,-0.00093850,-0.00768407,0.0019126
 9,0.01184940,0.04131031,-0.06849175,-0.06045425,-0.00008351,0.00002924
 ,-0.00104448,0.00118991,-0.00020345,0.00263756,-0.00574468,0.00252551,
 0.00971593,-0.04746010,0.07021473,0.00042951,-0.00004855,0.00056532,-0
 .00011231,-0.00000068,-0.00000407,-0.00015647,-0.00011092,0.00017966,0
 .00125359,0.00073741,-0.00115262,-0.00043185,0.00021791,0.00022628,-0.
 00098757,-0.00013750,0.00309870,0.01694500,-0.00999368,-0.02486617,0.1
 1748802,-0.05860692,-0.21291925,0.00020928,-0.00009486,0.00113009,-0.0
 0316822,0.00267864,-0.00345173,-0.00291889,0.00208821,0.00422987,-0.12
 782291,0.06347555,0.23340271,-0.00024329,-0.00011996,-0.00010959,-0.00
 000487,0.00006937,0.00001043,-0.00002264,0.00007731,-0.00001982,0.0009
 0595,-0.00074322,-0.00063511,-0.00016035,0.00043905,0.00029462,-0.0006
 4584,0.00267343,-0.00252896,-0.00112975,0.01157302,0.00328428,-0.04632
 625,0.00065036,-0.00096357,-0.00013617,-0.00045048,0.00045089,0.000389
 00,-0.00019912,0.00016286,0.00225580,-0.03072774,-0.00075351,-0.000530
 27,0.01839481,-0.00055992,0.04555550,0.00023009,0.00012953,0.00011212,
 -0.00001522,-0.00005883,-0.00000261,0.00006501,-0.00006920,-0.00009452
 ,-0.00164349,0.00140428,0.00111841,0.00019157,-0.00063045,-0.00028219,
 0.00245089,-0.00108046,0.00214578,-0.00127780,-0.01125636,-0.00352085,
 0.00121577,-0.31866001,-0.01199478,0.00031469,0.00023832,0.00019181,-0
 .00020569,0.00031774,0.00031080,0.00077734,-0.00830530,-0.00043028,-0.
 00042476,-0.00734414,-0.00003330,-0.00162401,0.34529426,-0.00001004,-0
 .00009137,0.00012625,-0.00001150,-0.00001733,0.00000184,-0.00013837,-0
 .00008740,0.00018217,0.00211730,-0.00096338,-0.00279040,-0.00037616,0.
 00121248,0.00080647,-0.00458954,0.00665157,-0.00407544,0.00253374,0.02
 594216,0.00522259,-0.00090378,-0.01404865,-0.04850705,-0.00033128,-0.0
 0071534,0.00090475,0.00104116,-0.00063376,0.00063157,0.00079675,-0.004
 04286,-0.00153073,-0.00140874,-0.02578315,-0.00019349,0.00125111,0.012
 60635,0.04926567,0.01714280,0.01733930,0.01502604,-0.00028005,-0.00108
 040,-0.00232562,-0.01945609,-0.01590761,-0.00228311,-0.00140511,0.0035
 1285,0.00157494,0.00103743,-0.00175277,-0.00024580,0.00083189,-0.00206
 902,-0.00144566,0.00155007,0.00224701,-0.00001771,-0.00101224,-0.00060
 483,0.00024191,-0.00080713,-0.00067248,0.00035302,-0.00036695,-0.00013
 271,-0.00010271,-0.00017883,0.00014521,-0.00043292,-0.00001258,0.00007
 014,-0.00022413,0.00009007,-0.00001472,0.00002688,0.02506597,0.0418289
 4,0.02441964,0.03315306,-0.00331785,-0.00096381,-0.00636520,-0.0355277
 9,-0.02329620,0.00155401,0.00186744,0.00339812,-0.00054335,0.00057633,
 -0.00167910,-0.00015825,-0.00040625,0.00036481,-0.00039866,0.00044062,
 -0.00020530,-0.00016428,-0.00024037,-0.00007935,0.00021447,0.00087875,
 -0.00062182,0.00023730,0.00013241,0.00004085,-0.00002022,0.00004320,0.
 00000729,-0.00010248,-0.00009073,0.00000188,-0.00020352,0.00000795,0.0
 0000199,-0.00005599,-0.08265617,0.34758943,0.06689922,0.05737424,0.040
 10222,-0.00640938,-0.00867503,-0.01722981,-0.05657001,-0.03863299,0.00
 601585,0.00416587,0.00609113,-0.00147362,0.00062184,-0.00335514,-0.000
 15495,-0.00111860,-0.00024409,-0.00023068,0.00008742,-0.00049836,-0.00
 025177,0.00003142,0.00013540,0.00018930,0.00134738,0.00020346,-0.00049
 967,-0.00001351,0.00002924,-0.00001579,0.00002759,-0.00005544,-0.00001
 047,-0.00007916,0.00008149,-0.00012491,0.00007749,-0.00006815,-0.00006
 621,0.05018049,-0.24640799,0.14251306,-0.00054081,0.00208989,0.0000273
 5,0.00076977,-0.00014292,0.00037394,-0.00150957,-0.00035932,-0.0007518
 4,-0.00054782,-0.00093919,-0.00085636,0.00014466,0.00042441,-0.0000325
 8,0.00014245,0.00000264,0.00047521,-0.00060975,-0.00007423,-0.00013177
 ,0.00024009,0.00014604,-0.00007251,-0.00033721,0.00063541,-0.00037773,
 -0.00001171,0.00000199,-0.00000308,0.00003880,-0.00002541,0.00010751,-
 0.00002482,0.00002210,0.00005687,0.00000311,-0.00003969,0.00000246,-0.
 02219925,0.07646350,-0.05924808,0.02444206,-0.00460473,0.00101439,-0.0
 0636436,0.00015289,-0.00036423,-0.00046926,0.00064315,0.00131809,-0.00
 206348,0.00066449,0.00086372,-0.00059821,-0.00012416,-0.00077193,0.000
 29621,0.00004726,0.00000243,0.00010562,-0.00012015,0.00007356,-0.00006
 503,-0.00001207,-0.00002624,-0.00008381,-0.00000464,-0.00009400,0.0002
 6193,0.00001354,0.00000045,0.00000368,-0.00001399,0.00002037,-0.000010
 30,0.00000825,-0.00002574,0.00003220,-0.00002078,0.00001863,0.00002667
 ,0.08157620,-0.34897846,0.23402224,-0.07820523,0.34694895,0.00240802,0
 .00770254,-0.00219986,-0.00021220,-0.00078153,-0.00160429,-0.00142302,
 -0.00113261,0.00009786,-0.00315163,-0.00049540,0.00222861,0.00100762,0
 .00078704,-0.00076591,0.00126463,-0.00081882,-0.00101289,0.00007672,0.
 00073456,0.00001912,-0.00011800,-0.00013597,0.00003368,-0.00018221,0.0
 0002094,0.00040225,0.00019914,-0.00005348,-0.00001406,0.00001164,0.000
 01668,-0.00004670,-0.00002450,0.00004765,-0.00012040,0.00003879,-0.000
 05860,0.00002201,-0.06032563,0.21926111,-0.16876255,0.06043061,-0.2250
 9412,0.17172312\\-0.00005181,0.00001519,0.00003115,0.00008754,0.000003
 68,-0.00003703,-0.00017085,-0.00008554,0.00009262,0.00020606,0.0001646
 9,-0.00011280,-0.00003940,-0.00010177,-0.00005129,0.00000647,0.0000460
 9,0.00005737,0.00005715,0.00003078,0.00015396,0.00002159,-0.00002161,-
 0.00006291,-0.00012492,-0.00003602,-0.00003540,0.00002989,0.00000124,-
 0.00009671,0.00000362,0.00003433,-0.00000346,-0.00000190,-0.00003058,0
 .00009832,-0.00000961,-0.00002233,-0.00000998,-0.00003182,-0.00006276,
 -0.00004071,0.00001800,0.00006461,0.00001687\\\@


 IBM COMPATIBILITY IS LIKE PREGNANCY. YOU ARE OR
 OR YOU ARE NOT. -- ADAM OSBORNE
 Job cpu time:       0 days  1 hours 14 minutes  3.4 seconds.
 Elapsed time:       0 days  0 hours 12 minutes 30.6 seconds.
 File lengths (MBytes):  RWF=    146 Int=      0 D2E=      0 Chk=      5 Scr=      1
 Normal termination of Gaussian 16 at Fri Mar 28 20:29:39 2025.
