 Entering Gaussian System, Link 0=g16
 Initial command:
 /opt/g16/l1.exe "/home/aayush/scratches/g16/Gau-9317.inp" -scrdir="/home/aayush/scratches/g16/"
 Entering Link 1 = /opt/g16/l1.exe PID=      9320.
  
 Copyright (c) 1988,1990,1992,1993,1995,1998,2003,2009,2016,
            Gaussian, Inc.  All Rights Reserved.
  
 This is part of the Gaussian(R) 16 program.  It is based on
 the Gaussian(R) 09 system (copyright 2009, Gaussian, Inc.),
 the Gaussian(R) 03 system (copyright 2003, Gaussian, Inc.),
 the Gaussian(R) 98 system (copyright 1998, Gaussian, Inc.),
 the Gaussian(R) 94 system (copyright 1995, Gaussian, Inc.),
 the Gaussian 92(TM) system (copyright 1992, Gaussian, Inc.),
 the Gaussian 90(TM) system (copyright 1990, Gaussian, Inc.),
 the Gaussian 88(TM) system (copyright 1988, Gaussian, Inc.),
 the Gaussian 86(TM) system (copyright 1986, Carnegie Mellon
 University), and the Gaussian 82(TM) system (copyright 1983,
 Carnegie Mellon University). Gaussian is a federally registered
 trademark of Gaussian, Inc.
  
 This software contains proprietary and confidential information,
 including trade secrets, belonging to Gaussian, Inc.
  
 This software is provided under written license and may be
 used, copied, transmitted, or stored only in accord with that
 written license.
  
 The following legend is applicable only to US Government
 contracts under FAR:
  
                    RESTRICTED RIGHTS LEGEND
  
 Use, reproduction and disclosure by the US Government is
 subject to restrictions as set forth in subparagraphs (a)
 and (c) of the Commercial Computer Software - Restricted
 Rights clause in FAR 52.227-19.
  
 Gaussian, Inc.
 340 Quinnipiac St., Bldg. 40, Wallingford CT 06492
  
  
 ---------------------------------------------------------------
 Warning -- This program may not be used in any manner that
 competes with the business of Gaussian, Inc. or will provide
 assistance to any competitor of Gaussian, Inc.  The licensee
 of this program is prohibited from giving any competitor of
 Gaussian, Inc. access to this program.  By using this program,
 the user acknowledges that Gaussian, Inc. is engaged in the
 business of creating and licensing software in the field of
 computational chemistry and represents and warrants to the
 licensee that it is not a competitor of Gaussian, Inc. and that
 it will not use this program in any manner prohibited above.
 ---------------------------------------------------------------
  

 Cite this work as:
 Gaussian 16, Revision A.03,
 M. J. Frisch, G. W. Trucks, H. B. Schlegel, G. E. Scuseria, 
 M. A. Robb, J. R. Cheeseman, G. Scalmani, V. Barone, 
 G. A. Petersson, H. Nakatsuji, X. Li, M. Caricato, A. V. Marenich, 
 J. Bloino, B. G. Janesko, R. Gomperts, B. Mennucci, H. P. Hratchian, 
 J. V. Ortiz, A. F. Izmaylov, J. L. Sonnenberg, D. Williams-Young, 
 F. Ding, F. Lipparini, F. Egidi, J. Goings, B. Peng, A. Petrone, 
 T. Henderson, D. Ranasinghe, V. G. Zakrzewski, J. Gao, N. Rega, 
 G. Zheng, W. Liang, M. Hada, M. Ehara, K. Toyota, R. Fukuda, 
 J. Hasegawa, M. Ishida, T. Nakajima, Y. Honda, O. Kitao, H. Nakai, 
 T. Vreven, K. Throssell, J. A. Montgomery, Jr., J. E. Peralta, 
 F. Ogliaro, M. J. Bearpark, J. J. Heyd, E. N. Brothers, K. N. Kudin, 
 V. N. Staroverov, T. A. Keith, R. Kobayashi, J. Normand, 
 K. Raghavachari, A. P. Rendell, J. C. Burant, S. S. Iyengar, 
 J. Tomasi, M. Cossi, J. M. Millam, M. Klene, C. Adamo, R. Cammi, 
 J. W. Ochterski, R. L. Martin, K. Morokuma, O. Farkas, 
 J. B. Foresman, and D. J. Fox, Gaussian, Inc., Wallingford CT, 2016.
 
 ******************************************
 Gaussian 16:  ES64L-G16RevA.03 25-Dec-2016
                11-May-2025 
 ******************************************
 %chk=ethyl_propiolate.chk
 %nprocshared=24
 Will use up to   24 processors via shared memory.
 %mem=12GB
 --------------------------
 # ccsd(t)/6-311++g(d,p) sp
 --------------------------
 1/38=1,172=1/1;
 2/12=2,17=6,18=5,40=1/2;
 3/5=4,6=6,7=1111,11=9,25=1,30=1/1,2,3;
 4//1;
 5/5=2,38=5/2;
 8/6=4,9=120000,10=2/1,4;
 9/5=7,14=2/13;
 6/7=2,8=2,9=2,10=2/1;
 99/5=1,9=1/99;
 -------------------
 Title Card Required
 -------------------
 Symbolic Z-matrix:
 Charge =  0 Multiplicity = 2
 C                    -1.82162  -0.24306   0.85597 
 H                    -2.53788  -0.57412   1.58456 
 C                    -0.79942   0.42238   0.58494 
 C                     0.33165   1.12425  -0.01272 
 O                     0.40032   2.32036   0.02122 
 O                     1.27218   0.37859  -0.59008 
 C                     1.18771  -1.0631   -0.58177 
 C                     1.7578   -1.62643   0.70454 
 H                     0.15379  -1.37413  -0.74934 
 H                     1.78469  -1.36178  -1.44183 
 H                     2.7815   -1.27912   0.85046 
 H                     1.15917  -1.32705   1.56704 
 H                     1.76218  -2.71708   0.65773 
 O                    -2.32697  -1.09371  -0.67185 
 H                    -2.52882  -0.34056  -1.24459 
 
                          Input orientation:                          
 ---------------------------------------------------------------------
 Center     Atomic      Atomic             Coordinates (Angstroms)
 Number     Number       Type             X           Y           Z
 ---------------------------------------------------------------------
      1          6           0       -1.821621   -0.243058    0.855969
      2          1           0       -2.537878   -0.574124    1.584556
      3          6           0       -0.799418    0.422378    0.584942
      4          6           0        0.331650    1.124251   -0.012720
      5          8           0        0.400317    2.320357    0.021221
      6          8           0        1.272183    0.378589   -0.590077
      7          6           0        1.187714   -1.063103   -0.581765
      8          6           0        1.757803   -1.626431    0.704537
      9          1           0        0.153793   -1.374129   -0.749338
     10          1           0        1.784686   -1.361783   -1.441827
     11          1           0        2.781502   -1.279117    0.850456
     12          1           0        1.159166   -1.327048    1.567039
     13          1           0        1.762184   -2.717084    0.657725
     14          8           0       -2.326973   -1.093706   -0.671853
     15          1           0       -2.528816   -0.340559   -1.244586
 ---------------------------------------------------------------------
                    Distance matrix (angstroms):
                    1          2          3          4          5
     1  C    0.000000
     2  H    1.073996   0.000000
     3  C    1.249464   2.239305   0.000000
     4  C    2.694574   3.697291   1.459157   0.000000
     5  O    3.493553   4.410785   2.315053   1.198556   0.000000
     6  O    3.471184   4.489238   2.382041   1.331899   2.214565
     7  C    3.434480   4.337290   2.741633   2.416852   3.525817
     8  C    3.840433   4.509397   3.278918   3.180349   4.229282
     9  H    2.785425   3.651323   2.432355   2.610774   3.782031
    10  H    4.420052   5.335163   3.737461   3.214658   4.197040
    11  H    4.718283   5.415877   3.973483   3.538789   4.394757
    12  H    3.250499   3.772974   2.803758   3.031384   4.033481
    13  H    4.359331   4.893039   4.052570   4.153526   5.256960
    14  O    1.820226   2.325044   2.492282   3.524495   4.424284
    15  H    2.218550   2.838781   2.630601   3.441719   4.154824
                    6          7          8          9         10
     6  O    0.000000
     7  C    1.444188   0.000000
     8  C    2.435561   1.515557   0.000000
     9  H    2.085229   1.092616   2.179508   0.000000
    10  H    2.004253   1.088711   2.162785   1.771865   0.000000
    11  H    2.664802   2.153620   1.090816   3.077860   2.501007
    12  H    2.752294   2.165142   1.091745   2.525588   3.073395
    13  H    3.373470   2.145228   1.091666   2.523941   2.499093
    14  O    3.889507   3.515975   4.343229   2.497767   4.191714
    15  H    3.923410   3.843696   4.881357   2.917178   4.437128
                   11         12         13         14         15
    11  H    0.000000
    12  H    1.774194   0.000000
    13  H    1.773106   1.767111   0.000000
    14  O    5.333697   4.149729   4.596122   0.000000
    15  H    5.785289   4.741266   5.261116   0.967468   0.000000
 Stoichiometry    C5H7O3(2)
 Framework group  C1[X(C5H7O3)]
 Deg. of freedom    39
 Full point group                 C1      NOp   1
 Largest Abelian subgroup         C1      NOp   1
 Largest concise Abelian subgroup C1      NOp   1
                         Standard orientation:                         
 ---------------------------------------------------------------------
 Center     Atomic      Atomic             Coordinates (Angstroms)
 Number     Number       Type             X           Y           Z
 ---------------------------------------------------------------------
      1          6           0       -1.845266   -0.197311    0.834125
      2          1           0       -2.562292   -0.544122    1.554586
      3          6           0       -0.827604    0.480537    0.577130
      4          6           0        0.300267    1.200034   -0.005425
      5          8           0        0.358195    2.396151    0.044429
      6          8           0        1.250291    0.470241   -0.587501
      7          6           0        1.178514   -0.972121   -0.598382
      8          6           0        1.746962   -1.547173    0.683451
      9          1           0        0.148251   -1.289981   -0.775395
     10          1           0        1.782495   -1.254309   -1.459120
     11          1           0        2.766794   -1.192836    0.839230
     12          1           0        1.141297   -1.264329    1.546628
     13          1           0        1.761213   -2.637042    0.622481
     14          8           0       -2.335259   -1.032342   -0.707255
     15          1           0       -2.540810   -0.273581   -1.271193
 ---------------------------------------------------------------------
 Rotational constants (GHZ):           2.1912810           1.7200651           1.1689924
 Standard basis: 6-311++G(d,p) (5D, 7F)
 There are   233 symmetry adapted cartesian basis functions of A   symmetry.
 There are   225 symmetry adapted basis functions of A   symmetry.
   225 basis functions,   351 primitive gaussians,   233 cartesian basis functions
    31 alpha electrons       30 beta electrons
       nuclear repulsion energy       359.3657898981 Hartrees.
 NAtoms=   15 NActive=   15 NUniq=   15 SFac= 1.00D+00 NAtFMM=   60 NAOKFM=F Big=F
 Integral buffers will be    131072 words long.
 Raffenetti 2 integral format.
 Two-electron integral symmetry is turned on.
 One-electron integrals computed using PRISM.
 NBasis=   225 RedAO= T EigKep=  5.81D-06  NBF=   225
 NBsUse=   225 1.00D-06 EigRej= -1.00D+00 NBFU=   225
 ExpMin= 3.60D-02 ExpMax= 8.59D+03 ExpMxC= 1.30D+03 IAcc=3 IRadAn=         5 AccDes= 0.00D+00
 Harris functional with IExCor=  205 and IRadAn=       5 diagonalized for initial guess.
 HarFok:  IExCor=  205 AccDes= 0.00D+00 IRadAn=         5 IDoV= 1 UseB2=F ITyADJ=14
 ICtDFT=  3500011 ScaDFX=  1.000000  1.000000  1.000000  1.000000
 FoFCou: FMM=F IPFlag=           0 FMFlag=      100000 FMFlg1=           0
         NFxFlg=           0 DoJE=T BraDBF=F KetDBF=T FulRan=T
         wScrn=  0.000000 ICntrl=       500 IOpCl=  0 I1Cent=   200000004 NGrid=           0
         NMat0=    1 NMatS0=      1 NMatT0=    0 NMatD0=    1 NMtDS0=    0 NMtDT0=    0
 Petite list used in FoFCou.
 Initial guess <Sx>= 0.0000 <Sy>= 0.0000 <Sz>= 0.5000 <S**2>= 0.7500 S= 0.5000
 Requested convergence on RMS density matrix=1.00D-08 within 128 cycles.
 Requested convergence on MAX density matrix=1.00D-06.
 Requested convergence on             energy=1.00D-06.
 No special actions if energy rises.
 Initial convergence to 1.0D-05 achieved.  Increase integral accuracy.
 SCF Done:  E(UHF) =  -417.970899238     A.U. after   30 cycles
            NFock= 30  Conv=0.82D-08     -V/T= 2.0008
 <Sx>= 0.0000 <Sy>= 0.0000 <Sz>= 0.5000 <S**2>= 1.1410 S= 0.6794
 <L.S>=  0.00000000000    
 Annihilation of the first spin contaminant:
 S**2 before annihilation     1.1410,   after     0.8732
 ExpMin= 3.60D-02 ExpMax= 8.59D+03 ExpMxC= 1.30D+03 IAcc=3 IRadAn=         5 AccDes= 0.00D+00
 HarFok:  IExCor=  205 AccDes= 0.00D+00 IRadAn=         5 IDoV=-2 UseB2=F ITyADJ=14
 ICtDFT= 12500011 ScaDFX=  1.000000  1.000000  1.000000  1.000000
 Range of M.O.s used for correlation:     9   225
 NBasis=   225 NAE=    31 NBE=    30 NFC=     8 NFV=     0
 NROrb=    217 NOA=    23 NOB=    22 NVA=   194 NVB=   195

 **** Warning!!: The largest alpha MO coefficient is  0.16238362D+03


 **** Warning!!: The largest beta MO coefficient is  0.15166529D+03

 Semi-Direct transformation.
 ModeAB=           4 MOrb=            23 LenV=    1609170721
 LASXX=    109339976 LTotXX=   109339976 LenRXX=   221407890
 LTotAB=   112067914 MaxLAS=   130699317 LenRXY=           0
 NonZer=   330747866 LenScr=   498067456 LnRSAI=   130699317
 LnScr1=   196817920 LExtra=           0 Total=   1046992583
 MaxDsk=          -1 SrtSym=           T ITran=            4
 JobTyp=1 Pass  1:  I=   1 to  23.
 (rs|ai) integrals will be sorted in core.
 ModeAB=           4 MOrb=            22 LenV=    1609170721
 LASXX=    104936601 LTotXX=   104936601 LenRXX=   190867446
 LTotAB=    85930845 MaxLAS=   125016738 LenRXY=           0
 NonZer=   295804047 LenScr=   445446144 LnRSAI=   125016738
 LnScr1=   188296192 LExtra=           0 Total=    949626520
 MaxDsk=          -1 SrtSym=           T ITran=            4
 JobTyp=2 Pass  1:  I=   1 to  22.
 (rs|ai) integrals will be sorted in core.
 SymMOI:  orbitals are not symmetric.
 Spin components of T(2) and E(2):
     alpha-alpha T2 =       0.5072455128D-01 E2=     -0.1683334082D+00
     alpha-beta  T2 =       0.2797309856D+00 E2=     -0.9284148884D+00
     beta-beta   T2 =       0.5199550915D-01 E2=     -0.1616108850D+00
 ANorm=    0.1175776784D+01
 E2 =    -0.1258359182D+01 EUMP2 =    -0.41922925841926D+03
 (S**2,0)=  0.11410D+01           (S**2,1)=  0.10333D+01
 E(PUHF)=      -0.41800432133D+03        E(PMP2)=      -0.41925878614D+03
 Keep R2 and R3 ints in memory in canonical form, NReq=652884060.
 CIDS: In Core Option IDoMem=           1.
 Iterations=  50 Convergence= 0.100D-06
 Produce multiple copies of IABC intergrals
 Iteration Nr.   1
 **********************
 DD1Dir will call FoFMem   1 times, MxPair=      1496
 NAB=   506 NAA=   253 NBB=   231.
 E(PMP3)=      -0.41928309233D+03
 MP4(R+Q)=  0.24558131D-01
 E3=       -0.30779188D-01        EUMP3=      -0.41926003761D+03
 E4(DQ)=   -0.59485854D-02        UMP4(DQ)=   -0.41926598619D+03
 E4(SDQ)=  -0.29187888D-01        UMP4(SDQ)=  -0.41928922549D+03
 DE(Corr)=  -1.2645269     E(Corr)=     -419.23542613    
 NORM(A)=   0.11874560D+01
 Iteration Nr.   2
 **********************
 DD1Dir will call FoFMem   1 times, MxPair=      1496
 NAB=   506 NAA=   253 NBB=   231.
 DE(Corr)=  -1.3097389     E(CORR)=     -419.28063810     Delta=-4.52D-02
 NORM(A)=   0.12120722D+01
 Iteration Nr.   3
 **********************
 DD1Dir will call FoFMem   1 times, MxPair=      1496
 NAB=   506 NAA=   253 NBB=   231.
 DE(Corr)=  -1.3144688     E(CORR)=     -419.28536805     Delta=-4.73D-03
 NORM(A)=   0.12294558D+01
 Iteration Nr.   4
 **********************
 DD1Dir will call FoFMem   1 times, MxPair=      1496
 NAB=   506 NAA=   253 NBB=   231.
 DE(Corr)=  -1.3240970     E(CORR)=     -419.29499626     Delta=-9.63D-03
 NORM(A)=   0.12412605D+01
 Iteration Nr.   5
 **********************
 DD1Dir will call FoFMem   1 times, MxPair=      1496
 NAB=   506 NAA=   253 NBB=   231.
 DE(Corr)=  -1.3272558     E(CORR)=     -419.29815506     Delta=-3.16D-03
 NORM(A)=   0.12465530D+01
 Iteration Nr.   6
 **********************
 DD1Dir will call FoFMem   1 times, MxPair=      1496
 NAB=   506 NAA=   253 NBB=   231.
 DE(Corr)=  -1.3281618     E(CORR)=     -419.29906106     Delta=-9.06D-04
 NORM(A)=   0.12473760D+01
 Iteration Nr.   7
 **********************
 DD1Dir will call FoFMem   1 times, MxPair=      1496
 NAB=   506 NAA=   253 NBB=   231.
 DE(Corr)=  -1.3282877     E(CORR)=     -419.29918698     Delta=-1.26D-04
 NORM(A)=   0.12476008D+01
 Iteration Nr.   8
 **********************
 DD1Dir will call FoFMem   1 times, MxPair=      1496
 NAB=   506 NAA=   253 NBB=   231.
 DE(Corr)=  -1.3282612     E(CORR)=     -419.29916048     Delta= 2.65D-05
 NORM(A)=   0.12476726D+01
 Iteration Nr.   9
 **********************
 DD1Dir will call FoFMem   1 times, MxPair=      1496
 NAB=   506 NAA=   253 NBB=   231.
 DE(Corr)=  -1.3282845     E(CORR)=     -419.29918375     Delta=-2.33D-05
 NORM(A)=   0.12476813D+01
 Iteration Nr.  10
 **********************
 DD1Dir will call FoFMem   1 times, MxPair=      1496
 NAB=   506 NAA=   253 NBB=   231.
 DE(Corr)=  -1.3282674     E(CORR)=     -419.29916660     Delta= 1.72D-05
 NORM(A)=   0.12477153D+01
 Iteration Nr.  11
 **********************
 DD1Dir will call FoFMem   1 times, MxPair=      1496
 NAB=   506 NAA=   253 NBB=   231.
 DE(Corr)=  -1.3282905     E(CORR)=     -419.29918976     Delta=-2.32D-05
 NORM(A)=   0.12477872D+01
 Iteration Nr.  12
 **********************
 DD1Dir will call FoFMem   1 times, MxPair=      1496
 NAB=   506 NAA=   253 NBB=   231.
 DE(Corr)=  -1.3282995     E(CORR)=     -419.29919877     Delta=-9.01D-06
 NORM(A)=   0.12478809D+01
 Iteration Nr.  13
 **********************
 DD1Dir will call FoFMem   1 times, MxPair=      1496
 NAB=   506 NAA=   253 NBB=   231.
 DE(Corr)=  -1.3283187     E(CORR)=     -419.29921793     Delta=-1.92D-05
 NORM(A)=   0.12479538D+01
 Iteration Nr.  14
 **********************
 DD1Dir will call FoFMem   1 times, MxPair=      1496
 NAB=   506 NAA=   253 NBB=   231.
 DE(Corr)=  -1.3283332     E(CORR)=     -419.29923248     Delta=-1.45D-05
 NORM(A)=   0.12480013D+01
 Iteration Nr.  15
 **********************
 DD1Dir will call FoFMem   1 times, MxPair=      1496
 NAB=   506 NAA=   253 NBB=   231.
 DE(Corr)=  -1.3283408     E(CORR)=     -419.29924002     Delta=-7.54D-06
 NORM(A)=   0.12480257D+01
 Iteration Nr.  16
 **********************
 DD1Dir will call FoFMem   1 times, MxPair=      1496
 NAB=   506 NAA=   253 NBB=   231.
 DE(Corr)=  -1.3283460     E(CORR)=     -419.29924525     Delta=-5.24D-06
 NORM(A)=   0.12480373D+01
 Iteration Nr.  17
 **********************
 DD1Dir will call FoFMem   1 times, MxPair=      1496
 NAB=   506 NAA=   253 NBB=   231.
 DE(Corr)=  -1.3283476     E(CORR)=     -419.29924680     Delta=-1.55D-06
 NORM(A)=   0.12480406D+01
 Iteration Nr.  18
 **********************
 DD1Dir will call FoFMem   1 times, MxPair=      1496
 NAB=   506 NAA=   253 NBB=   231.
 DE(Corr)=  -1.3283481     E(CORR)=     -419.29924732     Delta=-5.17D-07
 NORM(A)=   0.12480409D+01
 Iteration Nr.  19
 **********************
 DD1Dir will call FoFMem   1 times, MxPair=      1496
 NAB=   506 NAA=   253 NBB=   231.
 DE(Corr)=  -1.3283479     E(CORR)=     -419.29924716     Delta= 1.63D-07
 NORM(A)=   0.12480407D+01
 Iteration Nr.  20
 **********************
 DD1Dir will call FoFMem   1 times, MxPair=      1496
 NAB=   506 NAA=   253 NBB=   231.
 DE(Corr)=  -1.3283477     E(CORR)=     -419.29924689     Delta= 2.62D-07
 NORM(A)=   0.12480405D+01
 Iteration Nr.  21
 **********************
 DD1Dir will call FoFMem   1 times, MxPair=      1496
 NAB=   506 NAA=   253 NBB=   231.
 DE(Corr)=  -1.3283474     E(CORR)=     -419.29924668     Delta= 2.16D-07
 NORM(A)=   0.12480410D+01
 Iteration Nr.  22
 **********************
 DD1Dir will call FoFMem   1 times, MxPair=      1496
 NAB=   506 NAA=   253 NBB=   231.
 DE(Corr)=  -1.3283474     E(CORR)=     -419.29924664     Delta= 3.36D-08
 NORM(A)=   0.12480421D+01
 Wavefunction amplitudes converged. E(Corr)=     -419.29924664    
 Largest amplitude= 5.01D-02
 Time for triples=    38291.50 seconds.
 T4(CCSD)= -0.60222084D-01
 T5(CCSD)=  0.45137757D-02
 CCSD(T)= -0.41935495495D+03

 S**2, projected HF & approx projected MPn energies after annihilation of
 unwanted spin states (see manual for definitions):

 spins       (S**2,0) (S**2,1)    PUHF        PMP2        PMP3        PMP4
 annihilated
 s+1         0.67900  0.72249 -418.004321 -419.258786 -419.283092
 s+1,s+2     0.75288  0.74988 -417.999716 -419.254403 -419.279031
 s+1 to s+3  0.74996  0.75002 -417.999902 -419.254535 -419.279078
 s+1 to s+4  0.75000  0.75000 -417.999899 -419.254532 -419.279075
 s+1 to s+5  0.75000  0.75000 -417.999899
 s+1 to s+6  0.75000  0.75000 -417.999899

 Discarding MO integrals.

 **********************************************************************

            Population analysis using the SCF density.

 **********************************************************************

 Orbital symmetries:
 Alpha Orbitals:
       Occupied  (A) (A) (A) (A) (A) (A) (A) (A) (A) (A) (A) (A)
                 (A) (A) (A) (A) (A) (A) (A) (A) (A) (A) (A) (A)
                 (A) (A) (A) (A) (A) (A) (A)
       Virtual   (A) (A) (A) (A) (A) (A) (A) (A) (A) (A) (A) (A)
                 (A) (A) (A) (A) (A) (A) (A) (A) (A) (A) (A) (A)
                 (A) (A) (A) (A) (A) (A) (A) (A) (A) (A) (A) (A)
                 (A) (A) (A) (A) (A) (A) (A) (A) (A) (A) (A) (A)
                 (A) (A) (A) (A) (A) (A) (A) (A) (A) (A) (A) (A)
                 (A) (A) (A) (A) (A) (A) (A) (A) (A) (A) (A) (A)
                 (A) (A) (A) (A) (A) (A) (A) (A) (A) (A) (A) (A)
                 (A) (A) (A) (A) (A) (A) (A) (A) (A) (A) (A) (A)
                 (A) (A) (A) (A) (A) (A) (A) (A) (A) (A) (A) (A)
                 (A) (A) (A) (A) (A) (A) (A) (A) (A) (A) (A) (A)
                 (A) (A) (A) (A) (A) (A) (A) (A) (A) (A) (A) (A)
                 (A) (A) (A) (A) (A) (A) (A) (A) (A) (A) (A) (A)
                 (A) (A) (A) (A) (A) (A) (A) (A) (A) (A) (A) (A)
                 (A) (A) (A) (A) (A) (A) (A) (A) (A) (A) (A) (A)
                 (A) (A) (A) (A) (A) (A) (A) (A) (A) (A) (A) (A)
                 (A) (A) (A) (A) (A) (A) (A) (A) (A) (A) (A) (A)
                 (A) (A)
 Beta  Orbitals:
       Occupied  (A) (A) (A) (A) (A) (A) (A) (A) (A) (A) (A) (A)
                 (A) (A) (A) (A) (A) (A) (A) (A) (A) (A) (A) (A)
                 (A) (A) (A) (A) (A) (A)
       Virtual   (A) (A) (A) (A) (A) (A) (A) (A) (A) (A) (A) (A)
                 (A) (A) (A) (A) (A) (A) (A) (A) (A) (A) (A) (A)
                 (A) (A) (A) (A) (A) (A) (A) (A) (A) (A) (A) (A)
                 (A) (A) (A) (A) (A) (A) (A) (A) (A) (A) (A) (A)
                 (A) (A) (A) (A) (A) (A) (A) (A) (A) (A) (A) (A)
                 (A) (A) (A) (A) (A) (A) (A) (A) (A) (A) (A) (A)
                 (A) (A) (A) (A) (A) (A) (A) (A) (A) (A) (A) (A)
                 (A) (A) (A) (A) (A) (A) (A) (A) (A) (A) (A) (A)
                 (A) (A) (A) (A) (A) (A) (A) (A) (A) (A) (A) (A)
                 (A) (A) (A) (A) (A) (A) (A) (A) (A) (A) (A) (A)
                 (A) (A) (A) (A) (A) (A) (A) (A) (A) (A) (A) (A)
                 (A) (A) (A) (A) (A) (A) (A) (A) (A) (A) (A) (A)
                 (A) (A) (A) (A) (A) (A) (A) (A) (A) (A) (A) (A)
                 (A) (A) (A) (A) (A) (A) (A) (A) (A) (A) (A) (A)
                 (A) (A) (A) (A) (A) (A) (A) (A) (A) (A) (A) (A)
                 (A) (A) (A) (A) (A) (A) (A) (A) (A) (A) (A) (A)
                 (A) (A) (A)
 The electronic state is 2-A.
 Alpha  occ. eigenvalues --  -20.61883 -20.61078 -20.57182 -11.41202 -11.30383
 Alpha  occ. eigenvalues --  -11.29927 -11.29431 -11.23528  -1.48202  -1.39456
 Alpha  occ. eigenvalues --   -1.37391  -1.10328  -1.05160  -0.91830  -0.87928
 Alpha  occ. eigenvalues --   -0.76166  -0.73735  -0.70585  -0.67622  -0.66822
 Alpha  occ. eigenvalues --   -0.64089  -0.63090  -0.59334  -0.56792  -0.55117
 Alpha  occ. eigenvalues --   -0.54376  -0.51308  -0.49339  -0.47668  -0.44736
 Alpha  occ. eigenvalues --   -0.43336
 Alpha virt. eigenvalues --    0.03588   0.04586   0.05067   0.06661   0.06914
 Alpha virt. eigenvalues --    0.08219   0.09516   0.10691   0.10958   0.12117
 Alpha virt. eigenvalues --    0.13067   0.14097   0.14515   0.15113   0.15789
 Alpha virt. eigenvalues --    0.16264   0.17287   0.17798   0.18624   0.19007
 Alpha virt. eigenvalues --    0.19666   0.20048   0.20500   0.22089   0.22861
 Alpha virt. eigenvalues --    0.23627   0.25534   0.26778   0.26943   0.29163
 Alpha virt. eigenvalues --    0.29973   0.30125   0.30786   0.33013   0.33303
 Alpha virt. eigenvalues --    0.34742   0.35508   0.36681   0.37367   0.38839
 Alpha virt. eigenvalues --    0.39953   0.40194   0.40680   0.41039   0.42480
 Alpha virt. eigenvalues --    0.43578   0.45333   0.45578   0.47156   0.48459
 Alpha virt. eigenvalues --    0.50978   0.52559   0.57114   0.58270   0.61688
 Alpha virt. eigenvalues --    0.63288   0.65005   0.65909   0.70911   0.71329
 Alpha virt. eigenvalues --    0.72706   0.75307   0.77125   0.79543   0.83024
 Alpha virt. eigenvalues --    0.83614   0.84564   0.86333   0.86525   0.87900
 Alpha virt. eigenvalues --    0.88683   0.90001   0.94119   0.94175   0.98045
 Alpha virt. eigenvalues --    1.01201   1.02553   1.07370   1.07773   1.14464
 Alpha virt. eigenvalues --    1.19788   1.20521   1.22328   1.24279   1.25769
 Alpha virt. eigenvalues --    1.33719   1.36192   1.38208   1.39292   1.40799
 Alpha virt. eigenvalues --    1.43082   1.45567   1.49218   1.51167   1.51785
 Alpha virt. eigenvalues --    1.52709   1.57251   1.61435   1.62416   1.66309
 Alpha virt. eigenvalues --    1.67770   1.70824   1.72430   1.75782   1.76873
 Alpha virt. eigenvalues --    1.80618   1.81507   1.84003   1.84954   1.86925
 Alpha virt. eigenvalues --    1.91649   1.93475   1.94761   1.95375   2.00326
 Alpha virt. eigenvalues --    2.02703   2.04299   2.07272   2.10095   2.11249
 Alpha virt. eigenvalues --    2.16041   2.18018   2.25285   2.28893   2.33496
 Alpha virt. eigenvalues --    2.35646   2.41409   2.41690   2.47546   2.51696
 Alpha virt. eigenvalues --    2.59591   2.62900   2.68653   2.81913   2.83116
 Alpha virt. eigenvalues --    2.83937   2.85525   2.88365   2.91775   2.93533
 Alpha virt. eigenvalues --    2.95237   2.97293   3.02319   3.03711   3.04406
 Alpha virt. eigenvalues --    3.07520   3.10887   3.11386   3.16866   3.19896
 Alpha virt. eigenvalues --    3.22315   3.25125   3.28816   3.33022   3.34994
 Alpha virt. eigenvalues --    3.42121   3.45651   3.46871   3.49475   3.50456
 Alpha virt. eigenvalues --    3.59286   3.66148   3.69819   3.73953   3.76830
 Alpha virt. eigenvalues --    3.84438   3.91880   3.96676   4.11475   4.20706
 Alpha virt. eigenvalues --    4.21472   4.23225   4.24984   4.40482   4.46580
 Alpha virt. eigenvalues --    4.51631   4.69148   5.55355   5.57907   5.60376
 Alpha virt. eigenvalues --    5.61285   5.71256   5.88502   6.02880   6.16381
 Alpha virt. eigenvalues --    6.46324  24.68027  24.98786  25.01604  25.13094
 Alpha virt. eigenvalues --   25.87523  51.54765  51.59334  51.71368
  Beta  occ. eigenvalues --  -20.61188 -20.58937 -20.55990 -11.41924 -11.32175
  Beta  occ. eigenvalues --  -11.30366 -11.26562 -11.23527  -1.47717  -1.37685
  Beta  occ. eigenvalues --   -1.27830  -1.06645  -1.05136  -0.92274  -0.87933
  Beta  occ. eigenvalues --   -0.75649  -0.73462  -0.69454  -0.66775  -0.64754
  Beta  occ. eigenvalues --   -0.63286  -0.58416  -0.55151  -0.54876  -0.51952
  Beta  occ. eigenvalues --   -0.50514  -0.48414  -0.47339  -0.44661  -0.43652
  Beta virt. eigenvalues --    0.02971   0.03753   0.04585   0.05691   0.06688
  Beta virt. eigenvalues --    0.07073   0.08522   0.10084   0.10608   0.12108
  Beta virt. eigenvalues --    0.12451   0.13227   0.14246   0.14459   0.15295
  Beta virt. eigenvalues --    0.15852   0.16297   0.17130   0.17922   0.18850
  Beta virt. eigenvalues --    0.19082   0.19681   0.20404   0.20506   0.22107
  Beta virt. eigenvalues --    0.23380   0.23472   0.25748   0.26806   0.26906
  Beta virt. eigenvalues --    0.29407   0.30585   0.30926   0.31676   0.33181
  Beta virt. eigenvalues --    0.34502   0.35331   0.36194   0.36982   0.37889
  Beta virt. eigenvalues --    0.39123   0.40136   0.40297   0.41175   0.41866
  Beta virt. eigenvalues --    0.43202   0.43593   0.45562   0.45886   0.47434
  Beta virt. eigenvalues --    0.48895   0.51224   0.52812   0.57096   0.58151
  Beta virt. eigenvalues --    0.61905   0.63365   0.65040   0.66629   0.70976
  Beta virt. eigenvalues --    0.71334   0.73172   0.75595   0.77665   0.78751
  Beta virt. eigenvalues --    0.82624   0.83936   0.85754   0.86476   0.87080
  Beta virt. eigenvalues --    0.88343   0.90259   0.90455   0.94247   0.94824
  Beta virt. eigenvalues --    0.98311   1.01559   1.02414   1.07013   1.07701
  Beta virt. eigenvalues --    1.14405   1.19796   1.21086   1.22221   1.24689
  Beta virt. eigenvalues --    1.26847   1.37639   1.38564   1.40379   1.41195
  Beta virt. eigenvalues --    1.42109   1.44251   1.46188   1.49865   1.51473
  Beta virt. eigenvalues --    1.52567   1.53276   1.56522   1.61893   1.62812
  Beta virt. eigenvalues --    1.66631   1.68232   1.71317   1.73324   1.76252
  Beta virt. eigenvalues --    1.79376   1.80809   1.82075   1.84032   1.84914
  Beta virt. eigenvalues --    1.87470   1.92303   1.93777   1.94964   1.95651
  Beta virt. eigenvalues --    2.00735   2.02839   2.04486   2.07584   2.10178
  Beta virt. eigenvalues --    2.11363   2.15772   2.17780   2.25229   2.29004
  Beta virt. eigenvalues --    2.33968   2.36464   2.41514   2.41747   2.47550
  Beta virt. eigenvalues --    2.52404   2.59541   2.62943   2.68879   2.81956
  Beta virt. eigenvalues --    2.83156   2.84016   2.85600   2.88859   2.91895
  Beta virt. eigenvalues --    2.93666   2.95244   2.97163   3.03401   3.03849
  Beta virt. eigenvalues --    3.04664   3.08745   3.11347   3.14244   3.16987
  Beta virt. eigenvalues --    3.22224   3.24135   3.27889   3.30541   3.33975
  Beta virt. eigenvalues --    3.36803   3.44083   3.47377   3.48195   3.51055
  Beta virt. eigenvalues --    3.55812   3.59231   3.66262   3.70756   3.74680
  Beta virt. eigenvalues --    3.78455   3.86182   3.91618   3.97237   4.12249
  Beta virt. eigenvalues --    4.20731   4.21571   4.23501   4.27213   4.40856
  Beta virt. eigenvalues --    4.46794   4.51643   4.69114   5.59427   5.60056
  Beta virt. eigenvalues --    5.63883   5.65434   5.71999   5.88583   6.04758
  Beta virt. eigenvalues --    6.16746   6.46473  24.68177  24.98384  25.01483
  Beta virt. eigenvalues --   25.13094  25.87776  51.56425  51.59394  51.71948
          Condensed to atoms (all electrons):
               1          2          3          4          5          6
     1  C    9.381693   0.416620  -1.441528  -1.971409   0.037099   0.197393
     2  H    0.416620   0.389970  -0.065442   0.009977  -0.001325  -0.000810
     3  C   -1.441528  -0.065442   7.484900  -0.618875  -0.082377  -0.117460
     4  C   -1.971409   0.009977  -0.618875   8.628392   0.359821  -0.093802
     5  O    0.037099  -0.001325  -0.082377   0.359821   8.055005  -0.065336
     6  O    0.197393  -0.000810  -0.117460  -0.093802  -0.065336   8.233969
     7  C   -0.151858  -0.002670  -0.043782  -0.006154  -0.001390   0.231389
     8  C    0.101060   0.001825   0.010301  -0.023192   0.007636  -0.136316
     9  H   -0.034294  -0.003935   0.036003  -0.028500   0.001555  -0.022920
    10  H   -0.019089  -0.000477   0.002628   0.006022   0.000579  -0.073343
    11  H    0.002971   0.000129   0.001073  -0.008254   0.000192  -0.011441
    12  H    0.007238  -0.002841   0.024058  -0.021672  -0.000290  -0.007121
    13  H    0.009077   0.000765  -0.008215  -0.005412   0.000376   0.016327
    14  O    0.038935  -0.019299  -0.075288  -0.045528  -0.002906   0.003031
    15  H    0.089191   0.006815  -0.039199  -0.030238  -0.000302  -0.001022
               7          8          9         10         11         12
     1  C   -0.151858   0.101060  -0.034294  -0.019089   0.002971   0.007238
     2  H   -0.002670   0.001825  -0.003935  -0.000477   0.000129  -0.002841
     3  C   -0.043782   0.010301   0.036003   0.002628   0.001073   0.024058
     4  C   -0.006154  -0.023192  -0.028500   0.006022  -0.008254  -0.021672
     5  O   -0.001390   0.007636   0.001555   0.000579   0.000192  -0.000290
     6  O    0.231389  -0.136316  -0.022920  -0.073343  -0.011441  -0.007121
     7  C    5.602072  -0.154829   0.434426   0.444696  -0.035543  -0.014116
     8  C   -0.154829   5.541845  -0.059950  -0.070697   0.434422   0.363936
     9  H    0.434426  -0.059950   0.512539  -0.025288  -0.000786  -0.000677
    10  H    0.444696  -0.070697  -0.025288   0.548535  -0.004811   0.011348
    11  H   -0.035543   0.434422  -0.000786  -0.004811   0.532153  -0.052677
    12  H   -0.014116   0.363936  -0.000677   0.011348  -0.052677   0.609404
    13  H   -0.061787   0.431658  -0.009429   0.000201  -0.031149  -0.034926
    14  O    0.006311  -0.012110   0.015751   0.001504  -0.000123   0.002318
    15  H    0.004320  -0.001906  -0.005517  -0.000593   0.000062  -0.000072
              13         14         15
     1  C    0.009077   0.038935   0.089191
     2  H    0.000765  -0.019299   0.006815
     3  C   -0.008215  -0.075288  -0.039199
     4  C   -0.005412  -0.045528  -0.030238
     5  O    0.000376  -0.002906  -0.000302
     6  O    0.016327   0.003031  -0.001022
     7  C   -0.061787   0.006311   0.004320
     8  C    0.431658  -0.012110  -0.001906
     9  H   -0.009429   0.015751  -0.005517
    10  H    0.000201   0.001504  -0.000593
    11  H   -0.031149  -0.000123   0.000062
    12  H   -0.034926   0.002318  -0.000072
    13  H    0.557871  -0.001745   0.000118
    14  O   -0.001745   8.075690   0.294012
    15  H    0.000118   0.294012   0.443723
          Atomic-Atomic Spin Densities.
               1          2          3          4          5          6
     1  C   -1.354010   0.019573   0.239815   0.121787  -0.010313  -0.001877
     2  H    0.019573   0.058582   0.002564  -0.004465  -0.000148   0.000318
     3  C    0.239815   0.002564   1.193233  -0.001774  -0.038120  -0.039195
     4  C    0.121787  -0.004465  -0.001774  -0.496661  -0.023433   0.091892
     5  O   -0.010313  -0.000148  -0.038120  -0.023433   0.325953   0.003742
     6  O   -0.001877   0.000318  -0.039195   0.091892   0.003742  -0.064582
     7  C   -0.008037  -0.000577  -0.023083   0.009167  -0.002631   0.009334
     8  C    0.013106  -0.000039   0.019243  -0.023835   0.002683  -0.002107
     9  H   -0.019875   0.000103   0.009482   0.019518  -0.000121  -0.000928
    10  H   -0.011425  -0.000091   0.008294   0.006067  -0.000168   0.001426
    11  H    0.006007   0.000062  -0.004440  -0.003485  -0.000024  -0.000107
    12  H   -0.014934   0.000318   0.007934   0.005564  -0.000182   0.001008
    13  H   -0.002343  -0.000077   0.002964   0.000506   0.000058  -0.000054
    14  O   -0.028456  -0.001287  -0.044723   0.046117  -0.000465  -0.001118
    15  H   -0.004384  -0.000752   0.011852  -0.004339   0.000069  -0.000006
               7          8          9         10         11         12
     1  C   -0.008037   0.013106  -0.019875  -0.011425   0.006007  -0.014934
     2  H   -0.000577  -0.000039   0.000103  -0.000091   0.000062   0.000318
     3  C   -0.023083   0.019243   0.009482   0.008294  -0.004440   0.007934
     4  C    0.009167  -0.023835   0.019518   0.006067  -0.003485   0.005564
     5  O   -0.002631   0.002683  -0.000121  -0.000168  -0.000024  -0.000182
     6  O    0.009334  -0.002107  -0.000928   0.001426  -0.000107   0.001008
     7  C    0.019898  -0.018212  -0.000873  -0.000313   0.001116   0.000900
     8  C   -0.018212   0.017601  -0.000908   0.001223  -0.000900   0.000392
     9  H   -0.000873  -0.000908   0.003324  -0.000939   0.000055  -0.001109
    10  H   -0.000313   0.001223  -0.000939  -0.002529   0.000686  -0.001168
    11  H    0.001116  -0.000900   0.000055   0.000686  -0.000574   0.000890
    12  H    0.000900   0.000392  -0.001109  -0.001168   0.000890  -0.002711
    13  H   -0.001572   0.001501  -0.000146  -0.000305   0.000131  -0.000476
    14  O    0.005681  -0.000438  -0.008446  -0.001126   0.000096   0.000224
    15  H   -0.000805   0.000519   0.001100   0.000103   0.000019  -0.000056
              13         14         15
     1  C   -0.002343  -0.028456  -0.004384
     2  H   -0.000077  -0.001287  -0.000752
     3  C    0.002964  -0.044723   0.011852
     4  C    0.000506   0.046117  -0.004339
     5  O    0.000058  -0.000465   0.000069
     6  O   -0.000054  -0.001118  -0.000006
     7  C   -0.001572   0.005681  -0.000805
     8  C    0.001501  -0.000438   0.000519
     9  H   -0.000146  -0.008446   0.001100
    10  H   -0.000305  -0.001126   0.000103
    11  H    0.000131   0.000096   0.000019
    12  H   -0.000476   0.000224  -0.000056
    13  H    0.000120   0.000098  -0.000025
    14  O    0.000098   0.692530   0.005578
    15  H   -0.000025   0.005578  -0.029471
 Mulliken charges and spin densities:
               1          2
     1  C   -0.663101  -1.055368
     2  H    0.270699   0.074081
     3  C    0.933204   1.344045
     4  C   -0.151174  -0.257372
     5  O   -0.308336   0.256899
     6  O   -0.152538  -0.002254
     7  C   -0.251086  -0.010004
     8  C   -0.433681   0.009829
     9  H    0.191024   0.000238
    10  H    0.178785  -0.000265
    11  H    0.173783  -0.000469
    12  H    0.116091  -0.003406
    13  H    0.136271   0.000380
    14  O   -0.280552   0.664263
    15  H    0.240611  -0.020596
 Sum of Mulliken charges =  -0.00000   1.00000
 Mulliken charges and spin densities with hydrogens summed into heavy atoms:
               1          2
     1  C   -0.392402  -0.981286
     3  C    0.933204   1.344045
     4  C   -0.151174  -0.257372
     5  O   -0.308336   0.256899
     6  O   -0.152538  -0.002254
     7  C    0.118723  -0.010031
     8  C   -0.007535   0.006333
    14  O   -0.039941   0.643666
 Electronic spatial extent (au):  <R**2>=           1056.7125
 Charge=             -0.0000 electrons
 Dipole moment (field-independent basis, Debye):
    X=             -1.1000    Y=             -3.2690    Z=              0.5851  Tot=              3.4984
 Quadrupole moment (field-independent basis, Debye-Ang):
   XX=            -44.5806   YY=            -58.2720   ZZ=            -43.6072
   XY=             -7.0701   XZ=             -0.5931   YZ=             -1.2671
 Traceless Quadrupole moment (field-independent basis, Debye-Ang):
   XX=              4.2393   YY=             -9.4521   ZZ=              5.2127
   XY=             -7.0701   XZ=             -0.5931   YZ=             -1.2671
 Octapole moment (field-independent basis, Debye-Ang**2):
  XXX=             -8.6986  YYY=            -23.9112  ZZZ=             -8.0786  XYY=              4.3709
  XXY=              2.5614  XXZ=              2.0412  XZZ=            -10.2122  YZZ=             -0.5754
  YYZ=             -1.5815  XYZ=              8.4266
 Hexadecapole moment (field-independent basis, Debye-Ang**3):
 XXXX=           -637.9425 YYYY=           -563.8751 ZZZZ=           -163.2320 XXXY=            -13.1910
 XXXZ=             -3.6720 YYYX=             -9.2282 YYYZ=             -2.4481 ZZZX=              2.9852
 ZZZY=              1.3455 XXYY=           -210.4056 XXZZ=           -109.2292 YYZZ=           -112.6425
 XXYZ=             -9.5534 YYXZ=             -3.2248 ZZXY=              5.6021
 N-N= 3.593657898981D+02 E-N=-1.701269499865D+03  KE= 4.176288046709D+02
 1\1\GINC-AJ\SP\UCCSD(T)-FC\6-311++G(d,p)\C5H7O3(2)\AAYUSH\11-May-2025\
 0\\# ccsd(t)/6-311++g(d,p) sp\\Title Card Required\\0,2\C,0,-1.821621,
 -0.243058,0.855969\H,0,-2.537878,-0.574124,1.584556\C,0,-0.799418,0.42
 2378,0.584942\C,0,0.33165,1.124251,-0.01272\O,0,0.400317,2.320357,0.02
 1221\O,0,1.272183,0.378589,-0.590077\C,0,1.187714,-1.063103,-0.581765\
 C,0,1.757803,-1.626431,0.704537\H,0,0.153793,-1.374129,-0.749338\H,0,1
 .784686,-1.361783,-1.441827\H,0,2.781502,-1.279117,0.850456\H,0,1.1591
 66,-1.327048,1.567039\H,0,1.762184,-2.717084,0.657725\O,0,-2.326973,-1
 .093706,-0.671853\H,0,-2.528816,-0.340559,-1.244586\\Version=ES64L-G16
 RevA.03\State=2-A\HF=-417.9708992\MP2=-419.2292584\MP3=-419.2600376\MP
 4D=-419.2905443\MP4DQ=-419.2659862\PUHF=-418.0043213\PMP2-0=-419.25878
 61\PMP3-0=-419.2830923\MP4SDQ=-419.2892255\CCSD=-419.2992466\CCSD(T)=-
 419.354955\S2=1.14097\S2-1=1.03331\S2A=0.873167\RMSD=8.221e-09\PG=C01 
 [X(C5H7O3)]\\@


 IF THE FACTS DO NOT CONFORM TO THE THEORY, THEY MUST BE DISPOSED OF.
 Job cpu time:       0 days 18 hours 48 minutes  0.3 seconds.
 Elapsed time:       0 days  0 hours 47 minutes 19.4 seconds.
 File lengths (MBytes):  RWF=  44733 Int=      0 D2E=      0 Chk=      6 Scr=      1
 Normal termination of Gaussian 16 at Sun May 11 08:10:11 2025.
