 Entering Gaussian System, Link 0=g16
 Initial command:
 /opt/g16/l1.exe "/home/aayush/scratches/g16/Gau-7079.inp" -scrdir="/home/aayush/scratches/g16/"
 Entering Link 1 = /opt/g16/l1.exe PID=      7082.
  
 Copyright (c) 1988,1990,1992,1993,1995,1998,2003,2009,2016,
            Gaussian, Inc.  All Rights Reserved.
  
 This is part of the Gaussian(R) 16 program.  It is based on
 the Gaussian(R) 09 system (copyright 2009, Gaussian, Inc.),
 the Gaussian(R) 03 system (copyright 2003, Gaussian, Inc.),
 the Gaussian(R) 98 system (copyright 1998, Gaussian, Inc.),
 the Gaussian(R) 94 system (copyright 1995, Gaussian, Inc.),
 the Gaussian 92(TM) system (copyright 1992, Gaussian, Inc.),
 the Gaussian 90(TM) system (copyright 1990, Gaussian, Inc.),
 the Gaussian 88(TM) system (copyright 1988, Gaussian, Inc.),
 the Gaussian 86(TM) system (copyright 1986, Carnegie Mellon
 University), and the Gaussian 82(TM) system (copyright 1983,
 Carnegie Mellon University). Gaussian is a federally registered
 trademark of Gaussian, Inc.
  
 This software contains proprietary and confidential information,
 including trade secrets, belonging to Gaussian, Inc.
  
 This software is provided under written license and may be
 used, copied, transmitted, or stored only in accord with that
 written license.
  
 The following legend is applicable only to US Government
 contracts under FAR:
  
                    RESTRICTED RIGHTS LEGEND
  
 Use, reproduction and disclosure by the US Government is
 subject to restrictions as set forth in subparagraphs (a)
 and (c) of the Commercial Computer Software - Restricted
 Rights clause in FAR 52.227-19.
  
 Gaussian, Inc.
 340 Quinnipiac St., Bldg. 40, Wallingford CT 06492
  
  
 ---------------------------------------------------------------
 Warning -- This program may not be used in any manner that
 competes with the business of Gaussian, Inc. or will provide
 assistance to any competitor of Gaussian, Inc.  The licensee
 of this program is prohibited from giving any competitor of
 Gaussian, Inc. access to this program.  By using this program,
 the user acknowledges that Gaussian, Inc. is engaged in the
 business of creating and licensing software in the field of
 computational chemistry and represents and warrants to the
 licensee that it is not a competitor of Gaussian, Inc. and that
 it will not use this program in any manner prohibited above.
 ---------------------------------------------------------------
  

 Cite this work as:
 Gaussian 16, Revision A.03,
 M. J. Frisch, G. W. Trucks, H. B. Schlegel, G. E. Scuseria, 
 M. A. Robb, J. R. Cheeseman, G. Scalmani, V. Barone, 
 G. A. Petersson, H. Nakatsuji, X. Li, M. Caricato, A. V. Marenich, 
 J. Bloino, B. G. Janesko, R. Gomperts, B. Mennucci, H. P. Hratchian, 
 J. V. Ortiz, A. F. Izmaylov, J. L. Sonnenberg, D. Williams-Young, 
 F. Ding, F. Lipparini, F. Egidi, J. Goings, B. Peng, A. Petrone, 
 T. Henderson, D. Ranasinghe, V. G. Zakrzewski, J. Gao, N. Rega, 
 G. Zheng, W. Liang, M. Hada, M. Ehara, K. Toyota, R. Fukuda, 
 J. Hasegawa, M. Ishida, T. Nakajima, Y. Honda, O. Kitao, H. Nakai, 
 T. Vreven, K. Throssell, J. A. Montgomery, Jr., J. E. Peralta, 
 F. Ogliaro, M. J. Bearpark, J. J. Heyd, E. N. Brothers, K. N. Kudin, 
 V. N. Staroverov, T. A. Keith, R. Kobayashi, J. Normand, 
 K. Raghavachari, A. P. Rendell, J. C. Burant, S. S. Iyengar, 
 J. Tomasi, M. Cossi, J. M. Millam, M. Klene, C. Adamo, R. Cammi, 
 J. W. Ochterski, R. L. Martin, K. Morokuma, O. Farkas, 
 J. B. Foresman, and D. J. Fox, Gaussian, Inc., Wallingford CT, 2016.
 
 ******************************************
 Gaussian 16:  ES64L-G16RevA.03 25-Dec-2016
                13-May-2025 
 ******************************************
 %chk=ethyl_propiolate.chk
 %nprocshared=24
 Will use up to   24 processors via shared memory.
 %mem=12GB
 --------------------------
 # ccsd(t)/6-311++g(d,p) sp
 --------------------------
 1/38=1,172=1/1;
 2/12=2,17=6,18=5,40=1/2;
 3/5=4,6=6,7=1111,11=9,25=1,30=1/1,2,3;
 4//1;
 5/5=2,38=5/2;
 8/6=4,9=120000,10=2/1,4;
 9/5=7,14=2/13;
 6/7=2,8=2,9=2,10=2/1;
 99/5=1,9=1/99;
 -------------------
 Title Card Required
 -------------------
 Symbolic Z-matrix:
 Charge =  0 Multiplicity = 2
 C                    -1.62778  -1.24988  -0.28795 
 H                    -1.88567  -2.27108  -0.52902 
 C                    -0.56959  -0.51744  -0.30886 
 C                     0.03656   0.79497  -0.0594 
 O                    -0.63336   1.73397   0.27202 
 O                     1.35324   0.8954   -0.23412 
 C                     2.13083  -0.28014  -0.52567 
 C                     2.46316  -1.04027   0.74266 
 H                     1.59552  -0.90384  -1.24653 
 H                     3.02754   0.10701  -1.00674 
 H                     2.9781   -0.38808   1.44909 
 H                     1.55886  -1.42667   1.21693 
 H                     3.11423  -1.88472   0.50829 
 O                    -3.02706  -0.50846   0.24214 
 H                    -2.74309   0.40618   0.39329 
 
                          Input orientation:                          
 ---------------------------------------------------------------------
 Center     Atomic      Atomic             Coordinates (Angstroms)
 Number     Number       Type             X           Y           Z
 ---------------------------------------------------------------------
      1          6           0       -1.627775   -1.249878   -0.287949
      2          1           0       -1.885666   -2.271078   -0.529024
      3          6           0       -0.569589   -0.517440   -0.308862
      4          6           0        0.036560    0.794974   -0.059403
      5          8           0       -0.633361    1.733968    0.272016
      6          8           0        1.353243    0.895402   -0.234119
      7          6           0        2.130826   -0.280136   -0.525667
      8          6           0        2.463157   -1.040269    0.742656
      9          1           0        1.595520   -0.903842   -1.246527
     10          1           0        3.027542    0.107006   -1.006742
     11          1           0        2.978097   -0.388084    1.449086
     12          1           0        1.558856   -1.426666    1.216926
     13          1           0        3.114230   -1.884723    0.508290
     14          8           0       -3.027062   -0.508455    0.242139
     15          1           0       -2.743093    0.406184    0.393287
 ---------------------------------------------------------------------
                    Distance matrix (angstroms):
                    1          2          3          4          5
     1  C    0.000000
     2  H    1.080497   0.000000
     3  C    1.287113   2.203583   0.000000
     4  C    2.646444   3.649133   1.466996   0.000000
     5  O    3.194645   4.272040   2.326010   1.200143   0.000000
     6  O    3.673090   4.539173   2.387256   1.332016   2.214940
     7  C    3.888958   4.482864   2.719478   2.399836   3.511929
     8  C    4.223956   4.695138   3.252167   3.146393   4.184055
     9  H    3.380568   3.808254   2.390862   2.593375   3.772522
    10  H    4.902017   5.479335   3.717031   3.211966   4.205287
    11  H    4.997403   5.578062   3.961463   3.511097   4.351003
    12  H    3.528529   3.952987   2.772183   2.980283   3.960843
    13  H    4.850117   5.120962   4.013443   4.120085   5.214901
    14  O    1.669942   2.237033   2.518503   3.342998   3.280116
    15  H    2.109635   2.958643   2.463780   2.842984   2.495734
                    6          7          8          9         10
     6  O    0.000000
     7  C    1.439279   0.000000
     8  C    2.435738   1.515549   0.000000
     9  H    2.078689   1.093252   2.174455   0.000000
    10  H    2.005441   1.088766   2.166833   1.769180   0.000000
    11  H    2.668458   2.151551   1.090666   3.073086   2.505723
    12  H    2.745871   2.162940   1.091785   2.518589   3.074718
    13  H    3.373624   2.147289   1.091754   2.519522   2.503961
    14  O    4.624360   5.219719   5.538578   4.872445   6.212626
    15  H    4.172882   5.007055   5.414732   4.819618   5.945571
                   11         12         13         14         15
    11  H    0.000000
    12  H    1.773921   0.000000
    13  H    1.773008   1.769511   0.000000
    14  O    6.126430   4.777443   6.299239   0.000000
    15  H    5.871762   4.748103   6.290446   0.969561   0.000000
 Stoichiometry    C5H7O3(2)
 Framework group  C1[X(C5H7O3)]
 Deg. of freedom    39
 Full point group                 C1      NOp   1
 Largest Abelian subgroup         C1      NOp   1
 Largest concise Abelian subgroup C1      NOp   1
                         Standard orientation:                         
 ---------------------------------------------------------------------
 Center     Atomic      Atomic             Coordinates (Angstroms)
 Number     Number       Type             X           Y           Z
 ---------------------------------------------------------------------
      1          6           0       -1.702426   -1.178520   -0.301430
      2          1           0       -1.971046   -2.194054   -0.554428
      3          6           0       -0.637535   -0.455755   -0.318119
      4          6           0       -0.017906    0.847604   -0.054699
      5          8           0       -0.677378    1.788407    0.292187
      6          8           0        1.298797    0.938033   -0.234651
      7          6           0        2.063901   -0.240804   -0.545270
      8          6           0        2.395247   -1.020423    0.711429
      9          1           0        1.519278   -0.850075   -1.271476
     10          1           0        2.961860    0.144195   -1.025747
     11          1           0        2.919703   -0.382300    1.423677
     12          1           0        1.489678   -1.404518    1.185149
     13          1           0        3.037230   -1.867784    0.462905
     14          8           0       -3.092111   -0.431056    0.245177
     15          1           0       -2.798850    0.478857    0.406746
 ---------------------------------------------------------------------
 Rotational constants (GHZ):           3.5547263           1.2274081           0.9911244
 Standard basis: 6-311++G(d,p) (5D, 7F)
 There are   233 symmetry adapted cartesian basis functions of A   symmetry.
 There are   225 symmetry adapted basis functions of A   symmetry.
   225 basis functions,   351 primitive gaussians,   233 cartesian basis functions
    31 alpha electrons       30 beta electrons
       nuclear repulsion energy       356.2744725209 Hartrees.
 NAtoms=   15 NActive=   15 NUniq=   15 SFac= 1.00D+00 NAtFMM=   60 NAOKFM=F Big=F
 Integral buffers will be    131072 words long.
 Raffenetti 2 integral format.
 Two-electron integral symmetry is turned on.
 One-electron integrals computed using PRISM.
 NBasis=   225 RedAO= T EigKep=  6.89D-06  NBF=   225
 NBsUse=   225 1.00D-06 EigRej= -1.00D+00 NBFU=   225
 ExpMin= 3.60D-02 ExpMax= 8.59D+03 ExpMxC= 1.30D+03 IAcc=3 IRadAn=         5 AccDes= 0.00D+00
 Harris functional with IExCor=  205 and IRadAn=       5 diagonalized for initial guess.
 HarFok:  IExCor=  205 AccDes= 0.00D+00 IRadAn=         5 IDoV= 1 UseB2=F ITyADJ=14
 ICtDFT=  3500011 ScaDFX=  1.000000  1.000000  1.000000  1.000000
 FoFCou: FMM=F IPFlag=           0 FMFlag=      100000 FMFlg1=           0
         NFxFlg=           0 DoJE=T BraDBF=F KetDBF=T FulRan=T
         wScrn=  0.000000 ICntrl=       500 IOpCl=  0 I1Cent=   200000004 NGrid=           0
         NMat0=    1 NMatS0=      1 NMatT0=    0 NMatD0=    1 NMtDS0=    0 NMtDT0=    0
 Petite list used in FoFCou.
 Initial guess <Sx>= 0.0000 <Sy>= 0.0000 <Sz>= 0.5000 <S**2>= 0.7500 S= 0.5000
 Requested convergence on RMS density matrix=1.00D-08 within 128 cycles.
 Requested convergence on MAX density matrix=1.00D-06.
 Requested convergence on             energy=1.00D-06.
 No special actions if energy rises.
 Initial convergence to 1.0D-05 achieved.  Increase integral accuracy.
 SCF Done:  E(UHF) =  -417.992339811     A.U. after   31 cycles
            NFock= 31  Conv=0.27D-08     -V/T= 2.0012
 <Sx>= 0.0000 <Sy>= 0.0000 <Sz>= 0.5000 <S**2>= 1.0784 S= 0.6526
 <L.S>=  0.00000000000    
 Annihilation of the first spin contaminant:
 S**2 before annihilation     1.0784,   after     0.8190
 ExpMin= 3.60D-02 ExpMax= 8.59D+03 ExpMxC= 1.30D+03 IAcc=3 IRadAn=         5 AccDes= 0.00D+00
 HarFok:  IExCor=  205 AccDes= 0.00D+00 IRadAn=         5 IDoV=-2 UseB2=F ITyADJ=14
 ICtDFT= 12500011 ScaDFX=  1.000000  1.000000  1.000000  1.000000
 Range of M.O.s used for correlation:     9   225
 NBasis=   225 NAE=    31 NBE=    30 NFC=     8 NFV=     0
 NROrb=    217 NOA=    23 NOB=    22 NVA=   194 NVB=   195

 **** Warning!!: The largest alpha MO coefficient is  0.13064170D+03


 **** Warning!!: The largest beta MO coefficient is  0.11753301D+03

 Semi-Direct transformation.
 ModeAB=           4 MOrb=            23 LenV=    1609174076
 LASXX=    109339976 LTotXX=   109339976 LenRXX=   221407890
 LTotAB=   112067914 MaxLAS=   128443385 LenRXY=           0
 NonZer=   330747866 LenScr=   498067456 LnRSAI=   128443385
 LnScr1=   193421312 LExtra=           0 Total=   1041340043
 MaxDsk=          -1 SrtSym=           T ITran=            4
 JobTyp=1 Pass  1:  I=   1 to  23.
 (rs|ai) integrals will be sorted in core.
 ModeAB=           4 MOrb=            22 LenV=    1609174076
 LASXX=    104936601 LTotXX=   104936601 LenRXX=   190867446
 LTotAB=    85930845 MaxLAS=   122858890 LenRXY=           0
 NonZer=   295804047 LenScr=   445446144 LnRSAI=   122858890
 LnScr1=   185057280 LExtra=           0 Total=    944229760
 MaxDsk=          -1 SrtSym=           T ITran=            4
 JobTyp=2 Pass  1:  I=   1 to  22.
 (rs|ai) integrals will be sorted in core.
 SymMOI:  orbitals are not symmetric.
 Spin components of T(2) and E(2):
     alpha-alpha T2 =       0.5113646037D-01 E2=     -0.1691393624D+00
     alpha-beta  T2 =       0.2807153043D+00 E2=     -0.9335775143D+00
     beta-beta   T2 =       0.5127151977D-01 E2=     -0.1622197954D+00
 ANorm=    0.1176062619D+01
 E2 =    -0.1264936672D+01 EUMP2 =    -0.41925727648318D+03
 (S**2,0)=  0.10784D+01           (S**2,1)=  0.99685D+00
 E(PUHF)=      -0.41801668206D+03        E(PMP2)=      -0.41927892741D+03
 Keep R2 and R3 ints in memory in canonical form, NReq=652884060.
 CIDS: In Core Option IDoMem=           1.
 Iterations=  50 Convergence= 0.100D-06
 Produce multiple copies of IABC intergrals
 Iteration Nr.   1
 **********************
 DD1Dir will call FoFMem   1 times, MxPair=      1496
 NAB=   506 NAA=   253 NBB=   231.
 E(PMP3)=      -0.41930191531D+03
 MP4(R+Q)=  0.24601280D-01
 E3=       -0.27495777D-01        EUMP3=      -0.41928477226D+03
 E4(DQ)=   -0.64411071D-02        UMP4(DQ)=   -0.41929121337D+03
 E4(SDQ)=  -0.29097968D-01        UMP4(SDQ)=  -0.41931387023D+03
 DE(Corr)=  -1.2674864     E(Corr)=     -419.25982619    
 NORM(A)=   0.11865553D+01
 Iteration Nr.   2
 **********************
 DD1Dir will call FoFMem   1 times, MxPair=      1496
 NAB=   506 NAA=   253 NBB=   231.
 DE(Corr)=  -1.3126311     E(CORR)=     -419.30497095     Delta=-4.51D-02
 NORM(A)=   0.12091436D+01
 Iteration Nr.   3
 **********************
 DD1Dir will call FoFMem   1 times, MxPair=      1496
 NAB=   506 NAA=   253 NBB=   231.
 DE(Corr)=  -1.3158998     E(CORR)=     -419.30823966     Delta=-3.27D-03
 NORM(A)=   0.12238671D+01
 Iteration Nr.   4
 **********************
 DD1Dir will call FoFMem   1 times, MxPair=      1496
 NAB=   506 NAA=   253 NBB=   231.
 DE(Corr)=  -1.3243199     E(CORR)=     -419.31665972     Delta=-8.42D-03
 NORM(A)=   0.12344028D+01
 Iteration Nr.   5
 **********************
 DD1Dir will call FoFMem   1 times, MxPair=      1496
 NAB=   506 NAA=   253 NBB=   231.
 DE(Corr)=  -1.3270734     E(CORR)=     -419.31941322     Delta=-2.75D-03
 NORM(A)=   0.12408377D+01
 Iteration Nr.   6
 **********************
 DD1Dir will call FoFMem   1 times, MxPair=      1496
 NAB=   506 NAA=   253 NBB=   231.
 DE(Corr)=  -1.3280709     E(CORR)=     -419.32041067     Delta=-9.97D-04
 NORM(A)=   0.12421908D+01
 Iteration Nr.   7
 **********************
 DD1Dir will call FoFMem   1 times, MxPair=      1496
 NAB=   506 NAA=   253 NBB=   231.
 DE(Corr)=  -1.3282613     E(CORR)=     -419.32060112     Delta=-1.90D-04
 NORM(A)=   0.12426270D+01
 Iteration Nr.   8
 **********************
 DD1Dir will call FoFMem   1 times, MxPair=      1496
 NAB=   506 NAA=   253 NBB=   231.
 DE(Corr)=  -1.3282479     E(CORR)=     -419.32058775     Delta= 1.34D-05
 NORM(A)=   0.12427747D+01
 Iteration Nr.   9
 **********************
 DD1Dir will call FoFMem   1 times, MxPair=      1496
 NAB=   506 NAA=   253 NBB=   231.
 DE(Corr)=  -1.3282797     E(CORR)=     -419.32061954     Delta=-3.18D-05
 NORM(A)=   0.12428036D+01
 Iteration Nr.  10
 **********************
 DD1Dir will call FoFMem   1 times, MxPair=      1496
 NAB=   506 NAA=   253 NBB=   231.
 DE(Corr)=  -1.3282808     E(CORR)=     -419.32062059     Delta=-1.05D-06
 NORM(A)=   0.12428391D+01
 Iteration Nr.  11
 **********************
 DD1Dir will call FoFMem   1 times, MxPair=      1496
 NAB=   506 NAA=   253 NBB=   231.
 DE(Corr)=  -1.3282980     E(CORR)=     -419.32063777     Delta=-1.72D-05
 NORM(A)=   0.12428742D+01
 Iteration Nr.  12
 **********************
 DD1Dir will call FoFMem   1 times, MxPair=      1496
 NAB=   506 NAA=   253 NBB=   231.
 DE(Corr)=  -1.3283064     E(CORR)=     -419.32064623     Delta=-8.46D-06
 NORM(A)=   0.12429102D+01
 Iteration Nr.  13
 **********************
 DD1Dir will call FoFMem   1 times, MxPair=      1496
 NAB=   506 NAA=   253 NBB=   231.
 DE(Corr)=  -1.3283150     E(CORR)=     -419.32065478     Delta=-8.55D-06
 NORM(A)=   0.12429385D+01
 Iteration Nr.  14
 **********************
 DD1Dir will call FoFMem   1 times, MxPair=      1496
 NAB=   506 NAA=   253 NBB=   231.
 DE(Corr)=  -1.3283211     E(CORR)=     -419.32066090     Delta=-6.12D-06
 NORM(A)=   0.12429583D+01
 Iteration Nr.  15
 **********************
 DD1Dir will call FoFMem   1 times, MxPair=      1496
 NAB=   506 NAA=   253 NBB=   231.
 DE(Corr)=  -1.3283244     E(CORR)=     -419.32066423     Delta=-3.33D-06
 NORM(A)=   0.12429688D+01
 Iteration Nr.  16
 **********************
 DD1Dir will call FoFMem   1 times, MxPair=      1496
 NAB=   506 NAA=   253 NBB=   231.
 DE(Corr)=  -1.3283264     E(CORR)=     -419.32066616     Delta=-1.94D-06
 NORM(A)=   0.12429730D+01
 Iteration Nr.  17
 **********************
 DD1Dir will call FoFMem   1 times, MxPair=      1496
 NAB=   506 NAA=   253 NBB=   231.
 DE(Corr)=  -1.3283268     E(CORR)=     -419.32066659     Delta=-4.24D-07
 NORM(A)=   0.12429741D+01
 Iteration Nr.  18
 **********************
 DD1Dir will call FoFMem   1 times, MxPair=      1496
 NAB=   506 NAA=   253 NBB=   231.
 DE(Corr)=  -1.3283269     E(CORR)=     -419.32066668     Delta=-9.11D-08
 NORM(A)=   0.12429742D+01
 Wavefunction amplitudes converged. E(Corr)=     -419.32066668    
 Largest amplitude= 9.13D-02
 Time for triples=    34774.77 seconds.
 T4(CCSD)= -0.60068070D-01
 T5(CCSD)=  0.45930228D-02
 CCSD(T)= -0.41937614173D+03

 S**2, projected HF & approx projected MPn energies after annihilation of
 unwanted spin states (see manual for definitions):

 spins       (S**2,0) (S**2,1)    PUHF        PMP2        PMP3        PMP4
 annihilated
 s+1         0.70968  0.73526 -418.016682 -419.278927 -419.301915
 s+1,s+2     0.75101  0.74986 -418.013927 -419.276356 -419.299596
 s+1 to s+3  0.74999  0.75001 -418.013999 -419.276411 -419.299623
 s+1 to s+4  0.75000  0.75000 -418.013998 -419.276410 -419.299622
 s+1 to s+5  0.75000  0.75000 -418.013998
 s+1 to s+6  0.75000  0.75000 -418.013998

 Discarding MO integrals.

 **********************************************************************

            Population analysis using the SCF density.

 **********************************************************************

 Orbital symmetries:
 Alpha Orbitals:
       Occupied  (A) (A) (A) (A) (A) (A) (A) (A) (A) (A) (A) (A)
                 (A) (A) (A) (A) (A) (A) (A) (A) (A) (A) (A) (A)
                 (A) (A) (A) (A) (A) (A) (A)
       Virtual   (A) (A) (A) (A) (A) (A) (A) (A) (A) (A) (A) (A)
                 (A) (A) (A) (A) (A) (A) (A) (A) (A) (A) (A) (A)
                 (A) (A) (A) (A) (A) (A) (A) (A) (A) (A) (A) (A)
                 (A) (A) (A) (A) (A) (A) (A) (A) (A) (A) (A) (A)
                 (A) (A) (A) (A) (A) (A) (A) (A) (A) (A) (A) (A)
                 (A) (A) (A) (A) (A) (A) (A) (A) (A) (A) (A) (A)
                 (A) (A) (A) (A) (A) (A) (A) (A) (A) (A) (A) (A)
                 (A) (A) (A) (A) (A) (A) (A) (A) (A) (A) (A) (A)
                 (A) (A) (A) (A) (A) (A) (A) (A) (A) (A) (A) (A)
                 (A) (A) (A) (A) (A) (A) (A) (A) (A) (A) (A) (A)
                 (A) (A) (A) (A) (A) (A) (A) (A) (A) (A) (A) (A)
                 (A) (A) (A) (A) (A) (A) (A) (A) (A) (A) (A) (A)
                 (A) (A) (A) (A) (A) (A) (A) (A) (A) (A) (A) (A)
                 (A) (A) (A) (A) (A) (A) (A) (A) (A) (A) (A) (A)
                 (A) (A) (A) (A) (A) (A) (A) (A) (A) (A) (A) (A)
                 (A) (A) (A) (A) (A) (A) (A) (A) (A) (A) (A) (A)
                 (A) (A)
 Beta  Orbitals:
       Occupied  (A) (A) (A) (A) (A) (A) (A) (A) (A) (A) (A) (A)
                 (A) (A) (A) (A) (A) (A) (A) (A) (A) (A) (A) (A)
                 (A) (A) (A) (A) (A) (A)
       Virtual   (A) (A) (A) (A) (A) (A) (A) (A) (A) (A) (A) (A)
                 (A) (A) (A) (A) (A) (A) (A) (A) (A) (A) (A) (A)
                 (A) (A) (A) (A) (A) (A) (A) (A) (A) (A) (A) (A)
                 (A) (A) (A) (A) (A) (A) (A) (A) (A) (A) (A) (A)
                 (A) (A) (A) (A) (A) (A) (A) (A) (A) (A) (A) (A)
                 (A) (A) (A) (A) (A) (A) (A) (A) (A) (A) (A) (A)
                 (A) (A) (A) (A) (A) (A) (A) (A) (A) (A) (A) (A)
                 (A) (A) (A) (A) (A) (A) (A) (A) (A) (A) (A) (A)
                 (A) (A) (A) (A) (A) (A) (A) (A) (A) (A) (A) (A)
                 (A) (A) (A) (A) (A) (A) (A) (A) (A) (A) (A) (A)
                 (A) (A) (A) (A) (A) (A) (A) (A) (A) (A) (A) (A)
                 (A) (A) (A) (A) (A) (A) (A) (A) (A) (A) (A) (A)
                 (A) (A) (A) (A) (A) (A) (A) (A) (A) (A) (A) (A)
                 (A) (A) (A) (A) (A) (A) (A) (A) (A) (A) (A) (A)
                 (A) (A) (A) (A) (A) (A) (A) (A) (A) (A) (A) (A)
                 (A) (A) (A) (A) (A) (A) (A) (A) (A) (A) (A) (A)
                 (A) (A) (A)
 The electronic state is 2-A.
 Alpha  occ. eigenvalues --  -20.62041 -20.59547 -20.57264 -11.41828 -11.32430
 Alpha  occ. eigenvalues --  -11.31710 -11.29621 -11.24417  -1.48873  -1.39974
 Alpha  occ. eigenvalues --   -1.34665  -1.10545  -1.06159  -0.92376  -0.88649
 Alpha  occ. eigenvalues --   -0.77560  -0.73087  -0.71662  -0.67981  -0.64529
 Alpha  occ. eigenvalues --   -0.63661  -0.61632  -0.59912  -0.57370  -0.55986
 Alpha  occ. eigenvalues --   -0.53051  -0.52318  -0.51030  -0.48199  -0.44176
 Alpha  occ. eigenvalues --   -0.42890
 Alpha virt. eigenvalues --    0.03119   0.04577   0.04981   0.06498   0.07494
 Alpha virt. eigenvalues --    0.07885   0.08208   0.09513   0.11003   0.11810
 Alpha virt. eigenvalues --    0.12741   0.13885   0.14440   0.15542   0.16005
 Alpha virt. eigenvalues --    0.16803   0.17130   0.17674   0.18868   0.19069
 Alpha virt. eigenvalues --    0.19944   0.20239   0.20600   0.21697   0.22600
 Alpha virt. eigenvalues --    0.24025   0.25061   0.26364   0.27238   0.28206
 Alpha virt. eigenvalues --    0.30302   0.30695   0.31192   0.32492   0.32862
 Alpha virt. eigenvalues --    0.34650   0.36027   0.36961   0.38183   0.38385
 Alpha virt. eigenvalues --    0.39396   0.40412   0.40620   0.41271   0.42392
 Alpha virt. eigenvalues --    0.43705   0.44863   0.46084   0.48445   0.49607
 Alpha virt. eigenvalues --    0.50030   0.50860   0.55768   0.58947   0.59740
 Alpha virt. eigenvalues --    0.61037   0.62539   0.65295   0.70743   0.73648
 Alpha virt. eigenvalues --    0.74600   0.75617   0.77493   0.78237   0.80684
 Alpha virt. eigenvalues --    0.82438   0.85286   0.85571   0.86711   0.86962
 Alpha virt. eigenvalues --    0.87378   0.89948   0.92486   0.93869   0.95118
 Alpha virt. eigenvalues --    0.99876   1.04180   1.07528   1.08719   1.14564
 Alpha virt. eigenvalues --    1.15694   1.22263   1.22795   1.25583   1.26741
 Alpha virt. eigenvalues --    1.31157   1.34719   1.36788   1.38564   1.39208
 Alpha virt. eigenvalues --    1.40902   1.42687   1.46991   1.49829   1.51449
 Alpha virt. eigenvalues --    1.53454   1.59016   1.59734   1.62731   1.66219
 Alpha virt. eigenvalues --    1.69026   1.70950   1.73503   1.74097   1.76882
 Alpha virt. eigenvalues --    1.80100   1.80635   1.83219   1.83881   1.86015
 Alpha virt. eigenvalues --    1.91296   1.92995   1.94323   1.95644   1.99447
 Alpha virt. eigenvalues --    2.02325   2.03025   2.08286   2.09629   2.15738
 Alpha virt. eigenvalues --    2.16592   2.20311   2.23940   2.26788   2.29796
 Alpha virt. eigenvalues --    2.38576   2.39544   2.45341   2.45895   2.48311
 Alpha virt. eigenvalues --    2.56638   2.60061   2.62785   2.80696   2.81351
 Alpha virt. eigenvalues --    2.83547   2.84942   2.89611   2.90344   2.91906
 Alpha virt. eigenvalues --    2.94032   2.95095   2.97334   3.00465   3.04441
 Alpha virt. eigenvalues --    3.08566   3.08723   3.09658   3.13546   3.20496
 Alpha virt. eigenvalues --    3.21611   3.23928   3.25813   3.28857   3.31786
 Alpha virt. eigenvalues --    3.38321   3.44857   3.47416   3.50703   3.58908
 Alpha virt. eigenvalues --    3.60716   3.64725   3.68018   3.75307   3.76720
 Alpha virt. eigenvalues --    3.96086   4.00484   4.06899   4.13237   4.19963
 Alpha virt. eigenvalues --    4.21054   4.22677   4.30227   4.41551   4.50778
 Alpha virt. eigenvalues --    4.56182   4.69012   5.53235   5.59200   5.59887
 Alpha virt. eigenvalues --    5.67917   5.72627   5.89348   6.06467   6.17120
 Alpha virt. eigenvalues --    6.45669  24.68180  24.98572  25.00292  25.12245
 Alpha virt. eigenvalues --   25.58571  51.56245  51.59098  51.73045
  Beta  occ. eigenvalues --  -20.62150 -20.57943 -20.56331 -11.42312 -11.34540
  Beta  occ. eigenvalues --  -11.31649 -11.26185 -11.24411  -1.48527  -1.38505
  Beta  occ. eigenvalues --   -1.29838  -1.06103  -1.05676  -0.92631  -0.88390
  Beta  occ. eigenvalues --   -0.76903  -0.72669  -0.70040  -0.67651  -0.63866
  Beta  occ. eigenvalues --   -0.62030  -0.59116  -0.56344  -0.55761  -0.53665
  Beta  occ. eigenvalues --   -0.52240  -0.51924  -0.47188  -0.46309  -0.41502
  Beta virt. eigenvalues --    0.02954   0.04486   0.04752   0.05413   0.06648
  Beta virt. eigenvalues --    0.07253   0.07977   0.08493   0.09297   0.11027
  Beta virt. eigenvalues --    0.11756   0.12994   0.13951   0.14421   0.15136
  Beta virt. eigenvalues --    0.16114   0.16812   0.17336   0.17635   0.18920
  Beta virt. eigenvalues --    0.19144   0.19892   0.20245   0.21239   0.21840
  Beta virt. eigenvalues --    0.23207   0.24490   0.25430   0.27355   0.28284
  Beta virt. eigenvalues --    0.28779   0.31086   0.31219   0.31291   0.32287
  Beta virt. eigenvalues --    0.33487   0.35089   0.36328   0.37594   0.38270
  Beta virt. eigenvalues --    0.39191   0.39964   0.40660   0.41010   0.41444
  Beta virt. eigenvalues --    0.42535   0.44027   0.45385   0.46981   0.48504
  Beta virt. eigenvalues --    0.49760   0.50481   0.51217   0.55968   0.59293
  Beta virt. eigenvalues --    0.60198   0.62249   0.63238   0.65536   0.70927
  Beta virt. eigenvalues --    0.71952   0.74828   0.76804   0.77272   0.79697
  Beta virt. eigenvalues --    0.81996   0.84656   0.85688   0.86093   0.86693
  Beta virt. eigenvalues --    0.87345   0.88957   0.90419   0.92380   0.94324
  Beta virt. eigenvalues --    0.95194   0.99863   1.04271   1.08627   1.09329
  Beta virt. eigenvalues --    1.14612   1.16133   1.22641   1.23837   1.24781
  Beta virt. eigenvalues --    1.27224   1.32460   1.36855   1.37946   1.40954
  Beta virt. eigenvalues --    1.41232   1.41553   1.42942   1.47813   1.50040
  Beta virt. eigenvalues --    1.51548   1.53782   1.59987   1.61350   1.63364
  Beta virt. eigenvalues --    1.66098   1.69921   1.71323   1.73748   1.75173
  Beta virt. eigenvalues --    1.78136   1.80568   1.81960   1.83569   1.84068
  Beta virt. eigenvalues --    1.86992   1.91610   1.93280   1.94715   1.95817
  Beta virt. eigenvalues --    1.99123   2.02574   2.03800   2.08337   2.09735
  Beta virt. eigenvalues --    2.16210   2.16618   2.21086   2.24414   2.27740
  Beta virt. eigenvalues --    2.29966   2.38687   2.39915   2.45746   2.45925
  Beta virt. eigenvalues --    2.48697   2.56929   2.60789   2.63106   2.80746
  Beta virt. eigenvalues --    2.81532   2.83633   2.85564   2.89731   2.90602
  Beta virt. eigenvalues --    2.92010   2.94237   2.95306   2.97470   3.00060
  Beta virt. eigenvalues --    3.04516   3.08158   3.09265   3.10293   3.14246
  Beta virt. eigenvalues --    3.21320   3.23622   3.25337   3.28070   3.30835
  Beta virt. eigenvalues --    3.34065   3.41468   3.44937   3.47633   3.51263
  Beta virt. eigenvalues --    3.58870   3.63653   3.65406   3.70092   3.76055
  Beta virt. eigenvalues --    3.77721   3.96690   4.00480   4.07565   4.13676
  Beta virt. eigenvalues --    4.19990   4.21075   4.22850   4.31793   4.41704
  Beta virt. eigenvalues --    4.50866   4.56920   4.69025   5.53876   5.58982
  Beta virt. eigenvalues --    5.62132   5.71061   5.75239   5.89360   6.07477
  Beta virt. eigenvalues --    6.17444   6.45832  24.68601  24.98361  25.00193
  Beta virt. eigenvalues --   25.12253  25.59090  51.57141  51.59149  51.73474
          Condensed to atoms (all electrons):
               1          2          3          4          5          6
     1  C   12.988195   0.481902  -4.570608  -1.982544   0.007872  -0.012139
     2  H    0.481902   0.428272  -0.087862  -0.010074  -0.000863   0.000843
     3  C   -4.570608  -0.087862   9.420531   0.362861   0.018215  -0.229973
     4  C   -1.982544  -0.010074   0.362861   7.355041   0.267649   0.241938
     5  O    0.007872  -0.000863   0.018215   0.267649   8.101175  -0.060587
     6  O   -0.012139   0.000843  -0.229973   0.241938  -0.060587   8.190875
     7  C   -0.249101  -0.002000   0.077655  -0.129678  -0.000413   0.258758
     8  C    0.143297   0.001062   0.079680  -0.115431   0.013824  -0.163767
     9  H   -0.030150  -0.001007  -0.011669   0.048105  -0.001996  -0.015268
    10  H   -0.023073  -0.000162  -0.005882  -0.000601   0.000031  -0.070357
    11  H    0.027437   0.000412   0.004068  -0.015979   0.000482  -0.009910
    12  H   -0.067820  -0.002363   0.041079   0.012994  -0.001792  -0.004934
    13  H   -0.003659   0.000129   0.004642  -0.012041   0.000574   0.012432
    14  O   -0.003092  -0.035965   0.018479   0.007217  -0.004490  -0.001717
    15  H   -0.039249   0.007441   0.025470  -0.010855   0.014352   0.003455
               7          8          9         10         11         12
     1  C   -0.249101   0.143297  -0.030150  -0.023073   0.027437  -0.067820
     2  H   -0.002000   0.001062  -0.001007  -0.000162   0.000412  -0.002363
     3  C    0.077655   0.079680  -0.011669  -0.005882   0.004068   0.041079
     4  C   -0.129678  -0.115431   0.048105  -0.000601  -0.015979   0.012994
     5  O   -0.000413   0.013824  -0.001996   0.000031   0.000482  -0.001792
     6  O    0.258758  -0.163767  -0.015268  -0.070357  -0.009910  -0.004934
     7  C    5.601821  -0.123914   0.406953   0.476151  -0.066152   0.008855
     8  C   -0.123914   5.484826  -0.053731  -0.073455   0.444262   0.356465
     9  H    0.406953  -0.053731   0.559313  -0.038996   0.003553  -0.006237
    10  H    0.476151  -0.073455  -0.038996   0.533948  -0.010290   0.012859
    11  H   -0.066152   0.444262   0.003553  -0.010290   0.538013  -0.051822
    12  H    0.008855   0.356465  -0.006237   0.012859  -0.051822   0.603377
    13  H   -0.045324   0.420375  -0.006361   0.003105  -0.035646  -0.034534
    14  O   -0.004119   0.001691   0.000438  -0.000183   0.000146  -0.000927
    15  H    0.000412  -0.000424   0.000562  -0.000066   0.000020   0.000472
              13         14         15
     1  C   -0.003659  -0.003092  -0.039249
     2  H    0.000129  -0.035965   0.007441
     3  C    0.004642   0.018479   0.025470
     4  C   -0.012041   0.007217  -0.010855
     5  O    0.000574  -0.004490   0.014352
     6  O    0.012432  -0.001717   0.003455
     7  C   -0.045324  -0.004119   0.000412
     8  C    0.420375   0.001691  -0.000424
     9  H   -0.006361   0.000438   0.000562
    10  H    0.003105  -0.000183  -0.000066
    11  H   -0.035646   0.000146   0.000020
    12  H   -0.034534  -0.000927   0.000472
    13  H    0.567485  -0.000125  -0.000124
    14  O   -0.000125   8.044745   0.292437
    15  H   -0.000124   0.292437   0.439166
          Atomic-Atomic Spin Densities.
               1          2          3          4          5          6
     1  C   -0.856605   0.055579  -0.347690   0.046436  -0.021060   0.003214
     2  H    0.055579   0.066070  -0.038802   0.003544  -0.000854  -0.000856
     3  C   -0.347690  -0.038802   1.944374   0.052171  -0.017524  -0.008110
     4  C    0.046436   0.003544   0.052171  -0.313822  -0.049970   0.094515
     5  O   -0.021060  -0.000854  -0.017524  -0.049970   0.254304   0.011506
     6  O    0.003214  -0.000856  -0.008110   0.094515   0.011506  -0.090205
     7  C   -0.007034  -0.001778  -0.000345  -0.011475  -0.000242   0.003049
     8  C   -0.021456  -0.000681   0.019486   0.008299   0.002385  -0.001251
     9  H    0.007136   0.000944  -0.010360   0.002337  -0.000177   0.001616
    10  H   -0.002329  -0.000154   0.005180  -0.004501  -0.000025   0.000614
    11  H    0.002413   0.000163  -0.003177  -0.000696  -0.000056   0.000427
    12  H    0.000902   0.000034   0.002396  -0.002702  -0.000066   0.000449
    13  H    0.000345  -0.000159   0.000260   0.000539  -0.000013  -0.000380
    14  O    0.115195  -0.000702  -0.038164  -0.021186   0.004803   0.001776
    15  H   -0.005626   0.000184  -0.002849   0.002248  -0.001727  -0.000255
               7          8          9         10         11         12
     1  C   -0.007034  -0.021456   0.007136  -0.002329   0.002413   0.000902
     2  H   -0.001778  -0.000681   0.000944  -0.000154   0.000163   0.000034
     3  C   -0.000345   0.019486  -0.010360   0.005180  -0.003177   0.002396
     4  C   -0.011475   0.008299   0.002337  -0.004501  -0.000696  -0.002702
     5  O   -0.000242   0.002385  -0.000177  -0.000025  -0.000056  -0.000066
     6  O    0.003049  -0.001251   0.001616   0.000614   0.000427   0.000449
     7  C    0.016604  -0.004329   0.000133  -0.001890   0.000749   0.002337
     8  C   -0.004329   0.009029   0.000571   0.003094  -0.000991  -0.000248
     9  H    0.000133   0.000571   0.001965  -0.002896   0.000252  -0.001170
    10  H   -0.001890   0.003094  -0.002896   0.004056  -0.000639   0.000355
    11  H    0.000749  -0.000991   0.000252  -0.000639   0.000226  -0.000318
    12  H    0.002337  -0.000248  -0.001170   0.000355  -0.000318  -0.000416
    13  H   -0.001159  -0.000089   0.000237  -0.000113   0.000414  -0.000199
    14  O    0.002824   0.001397  -0.000448   0.000157  -0.000136  -0.000138
    15  H    0.000270  -0.000089  -0.000193   0.000011  -0.000023  -0.000052
              13         14         15
     1  C    0.000345   0.115195  -0.005626
     2  H   -0.000159  -0.000702   0.000184
     3  C    0.000260  -0.038164  -0.002849
     4  C    0.000539  -0.021186   0.002248
     5  O   -0.000013   0.004803  -0.001727
     6  O   -0.000380   0.001776  -0.000255
     7  C   -0.001159   0.002824   0.000270
     8  C   -0.000089   0.001397  -0.000089
     9  H    0.000237  -0.000448  -0.000193
    10  H   -0.000113   0.000157   0.000011
    11  H    0.000414  -0.000136  -0.000023
    12  H   -0.000199  -0.000138  -0.000052
    13  H    0.000068   0.000078   0.000030
    14  O    0.000078   0.319672   0.006750
    15  H    0.000030   0.006750  -0.015820
 Mulliken charges and spin densities:
               1          2
     1  C   -0.667268  -1.030582
     2  H    0.220235   0.082532
     3  C    0.853313   1.556844
     4  C   -0.018602  -0.194263
     5  O   -0.354034   0.181282
     6  O   -0.139648   0.016110
     7  C   -0.209902  -0.002285
     8  C   -0.414761   0.015125
     9  H    0.146490  -0.000051
    10  H    0.196972   0.000921
    11  H    0.171406  -0.001393
    12  H    0.134330   0.001164
    13  H    0.129073  -0.000141
    14  O   -0.314534   0.391878
    15  H    0.266929  -0.017141
 Sum of Mulliken charges =  -0.00000   1.00000
 Mulliken charges and spin densities with hydrogens summed into heavy atoms:
               1          2
     1  C   -0.447033  -0.948050
     3  C    0.853313   1.556844
     4  C   -0.018602  -0.194263
     5  O   -0.354034   0.181282
     6  O   -0.139648   0.016110
     7  C    0.133560  -0.001415
     8  C    0.020048   0.014755
    14  O   -0.047605   0.374736
 Electronic spatial extent (au):  <R**2>=           1169.9933
 Charge=             -0.0000 electrons
 Dipole moment (field-independent basis, Debye):
    X=              3.5448    Y=             -3.8112    Z=             -1.2746  Tot=              5.3587
 Quadrupole moment (field-independent basis, Debye-Ang):
   XX=            -51.3852   YY=            -50.4361   ZZ=            -47.1815
   XY=             -1.9843   XZ=              0.6042   YZ=              0.8628
 Traceless Quadrupole moment (field-independent basis, Debye-Ang):
   XX=             -1.7176   YY=             -0.7685   ZZ=              2.4861
   XY=             -1.9843   XZ=              0.6042   YZ=              0.8628
 Octapole moment (field-independent basis, Debye-Ang**2):
  XXX=             46.1669  YYY=            -16.3382  ZZZ=              1.0814  XYY=             -7.9510
  XXY=              5.4713  XXZ=             -4.3779  XZZ=              1.8629  YZZ=              3.2771
  YYZ=             -4.7286  XYZ=             -3.3070
 Hexadecapole moment (field-independent basis, Debye-Ang**3):
 XXXX=          -1124.6547 YYYY=           -346.6228 ZZZZ=           -115.1465 XXXY=            -42.6731
 XXXZ=             -6.7604 YYYX=             24.8715 YYYZ=              3.5421 ZZZX=             -5.8860
 ZZZY=              1.5406 XXYY=           -211.0778 XXZZ=           -189.3231 YYZZ=            -75.9476
 XXYZ=             13.4870 YYXZ=              4.9666 ZZXY=              0.6879
 N-N= 3.562744725209D+02 E-N=-1.694730446560D+03  KE= 4.174722315806D+02
 1\1\GINC-AJ\SP\UCCSD(T)-FC\6-311++G(d,p)\C5H7O3(2)\AAYUSH\13-May-2025\
 0\\# ccsd(t)/6-311++g(d,p) sp\\Title Card Required\\0,2\C,0,-1.627775,
 -1.249878,-0.287949\H,0,-1.885666,-2.271078,-0.529024\C,0,-0.569589,-0
 .51744,-0.308862\C,0,0.03656,0.794974,-0.059403\O,0,-0.633361,1.733968
 ,0.272016\O,0,1.353243,0.895402,-0.234119\C,0,2.130826,-0.280136,-0.52
 5667\C,0,2.463157,-1.040269,0.742656\H,0,1.59552,-0.903842,-1.246527\H
 ,0,3.027542,0.107006,-1.006742\H,0,2.978097,-0.388084,1.449086\H,0,1.5
 58856,-1.426666,1.216926\H,0,3.11423,-1.884723,0.50829\O,0,-3.027062,-
 0.508455,0.242139\H,0,-2.743093,0.406184,0.393287\\Version=ES64L-G16Re
 vA.03\State=2-A\HF=-417.9923398\MP2=-419.2572765\MP3=-419.2847723\MP4D
 =-419.3158146\MP4DQ=-419.2912134\PUHF=-418.0166821\PMP2-0=-419.2789274
 \PMP3-0=-419.3019153\MP4SDQ=-419.3138702\CCSD=-419.3206667\CCSD(T)=-41
 9.3761417\S2=1.078374\S2-1=0.996848\S2A=0.818976\RMSD=2.681e-09\PG=C01
  [X(C5H7O3)]\\@


 Mondays are the potholes in the road of life.
                                -- Tom Wilson
 Job cpu time:       0 days 16 hours 23 minutes  0.5 seconds.
 Elapsed time:       0 days  0 hours 41 minutes  9.4 seconds.
 File lengths (MBytes):  RWF=  44733 Int=      0 D2E=      0 Chk=      6 Scr=      1
 Normal termination of Gaussian 16 at Tue May 13 18:41:43 2025.
