 Entering Gaussian System, Link 0=g16
 Initial command:
 /opt/g16/l1.exe "/home/aayush/scratches/g16/Gau-7860.inp" -scrdir="/home/aayush/scratches/g16/"
 Entering Link 1 = /opt/g16/l1.exe PID=      7863.
  
 Copyright (c) 1988,1990,1992,1993,1995,1998,2003,2009,2016,
            Gaussian, Inc.  All Rights Reserved.
  
 This is part of the Gaussian(R) 16 program.  It is based on
 the Gaussian(R) 09 system (copyright 2009, Gaussian, Inc.),
 the Gaussian(R) 03 system (copyright 2003, Gaussian, Inc.),
 the Gaussian(R) 98 system (copyright 1998, Gaussian, Inc.),
 the Gaussian(R) 94 system (copyright 1995, Gaussian, Inc.),
 the Gaussian 92(TM) system (copyright 1992, Gaussian, Inc.),
 the Gaussian 90(TM) system (copyright 1990, Gaussian, Inc.),
 the Gaussian 88(TM) system (copyright 1988, Gaussian, Inc.),
 the Gaussian 86(TM) system (copyright 1986, Carnegie Mellon
 University), and the Gaussian 82(TM) system (copyright 1983,
 Carnegie Mellon University). Gaussian is a federally registered
 trademark of Gaussian, Inc.
  
 This software contains proprietary and confidential information,
 including trade secrets, belonging to Gaussian, Inc.
  
 This software is provided under written license and may be
 used, copied, transmitted, or stored only in accord with that
 written license.
  
 The following legend is applicable only to US Government
 contracts under FAR:
  
                    RESTRICTED RIGHTS LEGEND
  
 Use, reproduction and disclosure by the US Government is
 subject to restrictions as set forth in subparagraphs (a)
 and (c) of the Commercial Computer Software - Restricted
 Rights clause in FAR 52.227-19.
  
 Gaussian, Inc.
 340 Quinnipiac St., Bldg. 40, Wallingford CT 06492
  
  
 ---------------------------------------------------------------
 Warning -- This program may not be used in any manner that
 competes with the business of Gaussian, Inc. or will provide
 assistance to any competitor of Gaussian, Inc.  The licensee
 of this program is prohibited from giving any competitor of
 Gaussian, Inc. access to this program.  By using this program,
 the user acknowledges that Gaussian, Inc. is engaged in the
 business of creating and licensing software in the field of
 computational chemistry and represents and warrants to the
 licensee that it is not a competitor of Gaussian, Inc. and that
 it will not use this program in any manner prohibited above.
 ---------------------------------------------------------------
  

 Cite this work as:
 Gaussian 16, Revision A.03,
 M. J. Frisch, G. W. Trucks, H. B. Schlegel, G. E. Scuseria, 
 M. A. Robb, J. R. Cheeseman, G. Scalmani, V. Barone, 
 G. A. Petersson, H. Nakatsuji, X. Li, M. Caricato, A. V. Marenich, 
 J. Bloino, B. G. Janesko, R. Gomperts, B. Mennucci, H. P. Hratchian, 
 J. V. Ortiz, A. F. Izmaylov, J. L. Sonnenberg, D. Williams-Young, 
 F. Ding, F. Lipparini, F. Egidi, J. Goings, B. Peng, A. Petrone, 
 T. Henderson, D. Ranasinghe, V. G. Zakrzewski, J. Gao, N. Rega, 
 G. Zheng, W. Liang, M. Hada, M. Ehara, K. Toyota, R. Fukuda, 
 J. Hasegawa, M. Ishida, T. Nakajima, Y. Honda, O. Kitao, H. Nakai, 
 T. Vreven, K. Throssell, J. A. Montgomery, Jr., J. E. Peralta, 
 F. Ogliaro, M. J. Bearpark, J. J. Heyd, E. N. Brothers, K. N. Kudin, 
 V. N. Staroverov, T. A. Keith, R. Kobayashi, J. Normand, 
 K. Raghavachari, A. P. Rendell, J. C. Burant, S. S. Iyengar, 
 J. Tomasi, M. Cossi, J. M. Millam, M. Klene, C. Adamo, R. Cammi, 
 J. W. Ochterski, R. L. Martin, K. Morokuma, O. Farkas, 
 J. B. Foresman, and D. J. Fox, Gaussian, Inc., Wallingford CT, 2016.
 
 ******************************************
 Gaussian 16:  ES64L-G16RevA.03 25-Dec-2016
                13-May-2025 
 ******************************************
 %chk=ethyl_propiolate.chk
 %nprocshared=24
 Will use up to   24 processors via shared memory.
 %mem=12GB
 --------------------------
 # ccsd(t)/6-311++g(d,p) sp
 --------------------------
 1/38=1,172=1/1;
 2/12=2,17=6,18=5,40=1/2;
 3/5=4,6=6,7=1111,11=9,25=1,30=1/1,2,3;
 4//1;
 5/5=2,38=5/2;
 8/6=4,9=120000,10=2/1,4;
 9/5=7,14=2/13;
 6/7=2,8=2,9=2,10=2/1;
 99/5=1,9=1/99;
 -------------------
 Title Card Required
 -------------------
 Symbolic Z-matrix:
 Charge =  0 Multiplicity = 2
 C                    -1.49352  -1.33515  -0.3429 
 H                    -1.95402  -2.28485  -0.51806 
 C                    -0.59111  -0.50269  -0.29936 
 C                     0.03952   0.79778  -0.05952 
 O                    -0.63145   1.73411   0.27198 
 O                     1.35325   0.89491  -0.23441 
 C                     2.13038  -0.28112  -0.52593 
 C                     2.46305  -1.04015   0.74271 
 H                     1.59254  -0.90454  -1.24502 
 H                     3.02642   0.1059   -1.00802 
 H                     2.97841  -0.38803   1.44888 
 H                     1.55881  -1.42701   1.21659 
 H                     3.11381  -1.88468   0.50798 
 O                    -3.10845  -0.45824   0.27508 
 H                    -2.78056   0.44721   0.41058 
 
                          Input orientation:                          
 ---------------------------------------------------------------------
 Center     Atomic      Atomic             Coordinates (Angstroms)
 Number     Number       Type             X           Y           Z
 ---------------------------------------------------------------------
      1          6           0       -1.493518   -1.335149   -0.342898
      2          1           0       -1.954023   -2.284846   -0.518061
      3          6           0       -0.591112   -0.502687   -0.299356
      4          6           0        0.039520    0.797784   -0.059518
      5          8           0       -0.631446    1.734112    0.271975
      6          8           0        1.353246    0.894913   -0.234411
      7          6           0        2.130378   -0.281119   -0.525933
      8          6           0        2.463050   -1.040153    0.742713
      9          1           0        1.592539   -0.904542   -1.245024
     10          1           0        3.026423    0.105903   -1.008022
     11          1           0        2.978412   -0.388029    1.448876
     12          1           0        1.558805   -1.427006    1.216590
     13          1           0        3.113809   -1.884680    0.507976
     14          8           0       -3.108446   -0.458244    0.275075
     15          1           0       -2.780557    0.447212    0.410576
 ---------------------------------------------------------------------
                    Distance matrix (angstroms):
                    1          2          3          4          5
     1  C    0.000000
     2  H    1.069893   0.000000
     3  C    1.228505   2.254207   0.000000
     4  C    2.641952   3.699606   1.465075   0.000000
     5  O    3.246783   4.304113   2.308964   1.198663   0.000000
     6  O    3.617874   4.596668   2.395419   1.328871   2.213523
     7  C    3.778505   4.549430   2.739879   2.398596   3.510767
     8  C    4.113393   4.759133   3.271496   3.145645   4.182588
     9  H    3.243918   3.874509   2.413319   2.591372   3.769601
    10  H    4.790500   5.546223   3.736194   3.209353   4.203506
    11  H    4.909750   5.638765   3.976300   3.509771   4.349673
    12  H    3.428865   4.010594   2.788297   2.981001   3.960071
    13  H    4.717354   5.186117   4.035855   4.119334   5.213280
    14  O    1.938774   2.301789   2.582425   3.405767   3.307864
    15  H    2.324006   3.001611   2.489976   2.880403   2.508785
                    6          7          8          9         10
     6  O    0.000000
     7  C    1.439434   0.000000
     8  C    2.435347   1.515344   0.000000
     9  H    2.077652   1.093169   2.174230   0.000000
    10  H    2.005126   1.088620   2.167004   1.770083   0.000000
    11  H    2.668438   2.151851   1.090656   3.073195   2.506516
    12  H    2.745718   2.162438   1.091730   2.516674   3.074510
    13  H    3.372960   2.146512   1.091703   2.519512   2.503659
    14  O    4.690129   5.302666   5.621287   4.960760   6.292950
    15  H    4.207704   5.052207   5.460585   4.867465   5.987481
                   11         12         13         14         15
    11  H    0.000000
    12  H    1.774462   0.000000
    13  H    1.773017   1.769078   0.000000
    14  O    6.199402   4.858825   6.387912   0.000000
    15  H    5.911127   4.795041   6.339618   0.972483   0.000000
 Stoichiometry    C5H7O3(2)
 Framework group  C1[X(C5H7O3)]
 Deg. of freedom    39
 Full point group                 C1      NOp   1
 Largest Abelian subgroup         C1      NOp   1
 Largest concise Abelian subgroup C1      NOp   1
                         Standard orientation:                         
 ---------------------------------------------------------------------
 Center     Atomic      Atomic             Coordinates (Angstroms)
 Number     Number       Type             X           Y           Z
 ---------------------------------------------------------------------
      1          6           0       -1.557966   -1.279248   -0.351343
      2          1           0       -2.020796   -2.227420   -0.528628
      3          6           0       -0.653647   -0.448934   -0.306500
      4          6           0       -0.019832    0.849449   -0.063757
      5          8           0       -0.688325    1.786351    0.271091
      6          8           0        1.293913    0.944121   -0.239855
      7          6           0        2.068079   -0.232834   -0.535517
      8          6           0        2.400464   -0.996138    0.730639
      9          1           0        1.528040   -0.853047   -1.255734
     10          1           0        2.964451    0.153520   -1.017535
     11          1           0        2.918076   -0.347137    1.438033
     12          1           0        1.495883   -1.382281    1.204454
     13          1           0        3.049064   -1.841464    0.492825
     14          8           0       -3.170232   -0.400450    0.270879
     15          1           0       -2.840161    0.503888    0.408528
 ---------------------------------------------------------------------
 Rotational constants (GHZ):           3.4910504           1.2152090           0.9805476
 Standard basis: 6-311++G(d,p) (5D, 7F)
 There are   233 symmetry adapted cartesian basis functions of A   symmetry.
 There are   225 symmetry adapted basis functions of A   symmetry.
   225 basis functions,   351 primitive gaussians,   233 cartesian basis functions
    31 alpha electrons       30 beta electrons
       nuclear repulsion energy       354.1722218305 Hartrees.
 NAtoms=   15 NActive=   15 NUniq=   15 SFac= 1.00D+00 NAtFMM=   60 NAOKFM=F Big=F
 Integral buffers will be    131072 words long.
 Raffenetti 2 integral format.
 Two-electron integral symmetry is turned on.
 One-electron integrals computed using PRISM.
 NBasis=   225 RedAO= T EigKep=  3.59D-06  NBF=   225
 NBsUse=   225 1.00D-06 EigRej= -1.00D+00 NBFU=   225
 ExpMin= 3.60D-02 ExpMax= 8.59D+03 ExpMxC= 1.30D+03 IAcc=3 IRadAn=         5 AccDes= 0.00D+00
 Harris functional with IExCor=  205 and IRadAn=       5 diagonalized for initial guess.
 HarFok:  IExCor=  205 AccDes= 0.00D+00 IRadAn=         5 IDoV= 1 UseB2=F ITyADJ=14
 ICtDFT=  3500011 ScaDFX=  1.000000  1.000000  1.000000  1.000000
 FoFCou: FMM=F IPFlag=           0 FMFlag=      100000 FMFlg1=           0
         NFxFlg=           0 DoJE=T BraDBF=F KetDBF=T FulRan=T
         wScrn=  0.000000 ICntrl=       500 IOpCl=  0 I1Cent=   200000004 NGrid=           0
         NMat0=    1 NMatS0=      1 NMatT0=    0 NMatD0=    1 NMtDS0=    0 NMtDT0=    0
 Petite list used in FoFCou.
 Initial guess <Sx>= 0.0000 <Sy>= 0.0000 <Sz>= 0.5000 <S**2>= 0.7500 S= 0.5000
 Requested convergence on RMS density matrix=1.00D-08 within 128 cycles.
 Requested convergence on MAX density matrix=1.00D-06.
 Requested convergence on             energy=1.00D-06.
 No special actions if energy rises.
 Initial convergence to 1.0D-05 achieved.  Increase integral accuracy.
 SCF Done:  E(UHF) =  -417.972834945     A.U. after   33 cycles
            NFock= 33  Conv=0.74D-08     -V/T= 2.0006
 <Sx>= 0.0000 <Sy>= 0.0000 <Sz>= 0.5000 <S**2>= 1.1145 S= 0.6681
 <L.S>=  0.00000000000    
 Annihilation of the first spin contaminant:
 S**2 before annihilation     1.1145,   after     0.8423
 ExpMin= 3.60D-02 ExpMax= 8.59D+03 ExpMxC= 1.30D+03 IAcc=3 IRadAn=         5 AccDes= 0.00D+00
 HarFok:  IExCor=  205 AccDes= 0.00D+00 IRadAn=         5 IDoV=-2 UseB2=F ITyADJ=14
 ICtDFT= 12500011 ScaDFX=  1.000000  1.000000  1.000000  1.000000
 Range of M.O.s used for correlation:     9   225
 NBasis=   225 NAE=    31 NBE=    30 NFC=     8 NFV=     0
 NROrb=    217 NOA=    23 NOB=    22 NVA=   194 NVB=   195

 **** Warning!!: The largest alpha MO coefficient is  0.13343841D+03


 **** Warning!!: The largest beta MO coefficient is  0.15215117D+03

 Semi-Direct transformation.
 ModeAB=           4 MOrb=            23 LenV=    1609174434
 LASXX=    109339976 LTotXX=   109339976 LenRXX=   221407890
 LTotAB=   112067914 MaxLAS=   128148916 LenRXY=           0
 NonZer=   330747866 LenScr=   498067456 LnRSAI=   128148916
 LnScr1=   192984064 LExtra=           0 Total=   1040608326
 MaxDsk=          -1 SrtSym=           T ITran=            4
 JobTyp=1 Pass  1:  I=   1 to  23.
 (rs|ai) integrals will be sorted in core.
 ModeAB=           4 MOrb=            22 LenV=    1609174434
 LASXX=    104936601 LTotXX=   104936601 LenRXX=   190867446
 LTotAB=    85930845 MaxLAS=   122577224 LenRXY=           0
 NonZer=   295804047 LenScr=   445446144 LnRSAI=   122577224
 LnScr1=   184631296 LExtra=           0 Total=    943522110
 MaxDsk=          -1 SrtSym=           T ITran=            4
 JobTyp=2 Pass  1:  I=   1 to  22.
 (rs|ai) integrals will be sorted in core.
 SymMOI:  orbitals are not symmetric.
 Spin components of T(2) and E(2):
     alpha-alpha T2 =       0.5066372014D-01 E2=     -0.1678032805D+00
     alpha-beta  T2 =       0.2790250800D+00 E2=     -0.9246758396D+00
     beta-beta   T2 =       0.5124774465D-01 E2=     -0.1590923963D+00
 ANorm=    0.1175132565D+01
 E2 =    -0.1251571516D+01 EUMP2 =    -0.41922440646112D+03
 (S**2,0)=  0.11145D+01           (S**2,1)=  0.10191D+01
 E(PUHF)=      -0.41800191644D+03        E(PMP2)=      -0.41925017673D+03
 Keep R2 and R3 ints in memory in canonical form, NReq=652884060.
 CIDS: In Core Option IDoMem=           1.
 Iterations=  50 Convergence= 0.100D-06
 Produce multiple copies of IABC intergrals
 Iteration Nr.   1
 **********************
 DD1Dir will call FoFMem   1 times, MxPair=      1496
 NAB=   506 NAA=   253 NBB=   231.
 E(PMP3)=      -0.41927559819D+03
 MP4(R+Q)=  0.24441253D-01
 E3=       -0.31107524D-01        EUMP3=      -0.41925551398D+03
 E4(DQ)=   -0.57386198D-02        UMP4(DQ)=   -0.41926125260D+03
 E4(SDQ)=  -0.28276496D-01        UMP4(SDQ)=  -0.41928379048D+03
 DE(Corr)=  -1.2580594     E(Corr)=     -419.23089435    
 NORM(A)=   0.11863053D+01
 Iteration Nr.   2
 **********************
 DD1Dir will call FoFMem   1 times, MxPair=      1496
 NAB=   506 NAA=   253 NBB=   231.
 DE(Corr)=  -1.3026622     E(CORR)=     -419.27549712     Delta=-4.46D-02
 NORM(A)=   0.12101716D+01
 Iteration Nr.   3
 **********************
 DD1Dir will call FoFMem   1 times, MxPair=      1496
 NAB=   506 NAA=   253 NBB=   231.
 DE(Corr)=  -1.3068383     E(CORR)=     -419.27967327     Delta=-4.18D-03
 NORM(A)=   0.12269826D+01
 Iteration Nr.   4
 **********************
 DD1Dir will call FoFMem   1 times, MxPair=      1496
 NAB=   506 NAA=   253 NBB=   231.
 DE(Corr)=  -1.3160733     E(CORR)=     -419.28890824     Delta=-9.23D-03
 NORM(A)=   0.12390618D+01
 Iteration Nr.   5
 **********************
 DD1Dir will call FoFMem   1 times, MxPair=      1496
 NAB=   506 NAA=   253 NBB=   231.
 DE(Corr)=  -1.3191891     E(CORR)=     -419.29202409     Delta=-3.12D-03
 NORM(A)=   0.12446474D+01
 Iteration Nr.   6
 **********************
 DD1Dir will call FoFMem   1 times, MxPair=      1496
 NAB=   506 NAA=   253 NBB=   231.
 DE(Corr)=  -1.3201067     E(CORR)=     -419.29294163     Delta=-9.18D-04
 NORM(A)=   0.12454439D+01
 Iteration Nr.   7
 **********************
 DD1Dir will call FoFMem   1 times, MxPair=      1496
 NAB=   506 NAA=   253 NBB=   231.
 DE(Corr)=  -1.3202165     E(CORR)=     -419.29305148     Delta=-1.10D-04
 NORM(A)=   0.12456366D+01
 Iteration Nr.   8
 **********************
 DD1Dir will call FoFMem   1 times, MxPair=      1496
 NAB=   506 NAA=   253 NBB=   231.
 DE(Corr)=  -1.3201969     E(CORR)=     -419.29303186     Delta= 1.96D-05
 NORM(A)=   0.12456560D+01
 Iteration Nr.   9
 **********************
 DD1Dir will call FoFMem   1 times, MxPair=      1496
 NAB=   506 NAA=   253 NBB=   231.
 DE(Corr)=  -1.3202107     E(CORR)=     -419.29304562     Delta=-1.38D-05
 NORM(A)=   0.12456492D+01
 Iteration Nr.  10
 **********************
 DD1Dir will call FoFMem   1 times, MxPair=      1496
 NAB=   506 NAA=   253 NBB=   231.
 DE(Corr)=  -1.3202039     E(CORR)=     -419.29303885     Delta= 6.77D-06
 NORM(A)=   0.12456545D+01
 Iteration Nr.  11
 **********************
 DD1Dir will call FoFMem   1 times, MxPair=      1496
 NAB=   506 NAA=   253 NBB=   231.
 DE(Corr)=  -1.3202187     E(CORR)=     -419.29305366     Delta=-1.48D-05
 NORM(A)=   0.12456828D+01
 Iteration Nr.  12
 **********************
 DD1Dir will call FoFMem   1 times, MxPair=      1496
 NAB=   506 NAA=   253 NBB=   231.
 DE(Corr)=  -1.3202238     E(CORR)=     -419.29305879     Delta=-5.13D-06
 NORM(A)=   0.12457194D+01
 Iteration Nr.  13
 **********************
 DD1Dir will call FoFMem   1 times, MxPair=      1496
 NAB=   506 NAA=   253 NBB=   231.
 DE(Corr)=  -1.3202340     E(CORR)=     -419.29306892     Delta=-1.01D-05
 NORM(A)=   0.12457491D+01
 Iteration Nr.  14
 **********************
 DD1Dir will call FoFMem   1 times, MxPair=      1496
 NAB=   506 NAA=   253 NBB=   231.
 DE(Corr)=  -1.3202404     E(CORR)=     -419.29307530     Delta=-6.38D-06
 NORM(A)=   0.12457690D+01
 Iteration Nr.  15
 **********************
 DD1Dir will call FoFMem   1 times, MxPair=      1496
 NAB=   506 NAA=   253 NBB=   231.
 DE(Corr)=  -1.3202439     E(CORR)=     -419.29307889     Delta=-3.59D-06
 NORM(A)=   0.12457786D+01
 Iteration Nr.  16
 **********************
 DD1Dir will call FoFMem   1 times, MxPair=      1496
 NAB=   506 NAA=   253 NBB=   231.
 DE(Corr)=  -1.3202462     E(CORR)=     -419.29308114     Delta=-2.24D-06
 NORM(A)=   0.12457830D+01
 Iteration Nr.  17
 **********************
 DD1Dir will call FoFMem   1 times, MxPair=      1496
 NAB=   506 NAA=   253 NBB=   231.
 DE(Corr)=  -1.3202467     E(CORR)=     -419.29308169     Delta=-5.49D-07
 NORM(A)=   0.12457841D+01
 Iteration Nr.  18
 **********************
 DD1Dir will call FoFMem   1 times, MxPair=      1496
 NAB=   506 NAA=   253 NBB=   231.
 DE(Corr)=  -1.3202470     E(CORR)=     -419.29308196     Delta=-2.72D-07
 NORM(A)=   0.12457843D+01
 Iteration Nr.  19
 **********************
 DD1Dir will call FoFMem   1 times, MxPair=      1496
 NAB=   506 NAA=   253 NBB=   231.
 DE(Corr)=  -1.3202470     E(CORR)=     -419.29308191     Delta= 4.67D-08
 NORM(A)=   0.12457842D+01
 Wavefunction amplitudes converged. E(Corr)=     -419.29308191    
 Largest amplitude= 7.11D-02
 Time for triples=    35607.57 seconds.
 T4(CCSD)= -0.59594661D-01
 T5(CCSD)=  0.45447929D-02
 CCSD(T)= -0.41934813178D+03

 S**2, projected HF & approx projected MPn energies after annihilation of
 unwanted spin states (see manual for definitions):

 spins       (S**2,0) (S**2,1)    PUHF        PMP2        PMP3        PMP4
 annihilated
 s+1         0.69570  0.72742 -418.001916 -419.250177 -419.275598
 s+1,s+2     0.75129  0.74984 -417.998525 -419.246939 -419.272572
 s+1 to s+3  0.74999  0.75001 -417.998624 -419.247012 -419.272605
 s+1 to s+4  0.75000  0.75000 -417.998623 -419.247011 -419.272605
 s+1 to s+5  0.75000  0.75000 -417.998623
 s+1 to s+6  0.75000  0.75000 -417.998623

 Discarding MO integrals.

 **********************************************************************

            Population analysis using the SCF density.

 **********************************************************************

 Orbital symmetries:
 Alpha Orbitals:
       Occupied  (A) (A) (A) (A) (A) (A) (A) (A) (A) (A) (A) (A)
                 (A) (A) (A) (A) (A) (A) (A) (A) (A) (A) (A) (A)
                 (A) (A) (A) (A) (A) (A) (A)
       Virtual   (A) (A) (A) (A) (A) (A) (A) (A) (A) (A) (A) (A)
                 (A) (A) (A) (A) (A) (A) (A) (A) (A) (A) (A) (A)
                 (A) (A) (A) (A) (A) (A) (A) (A) (A) (A) (A) (A)
                 (A) (A) (A) (A) (A) (A) (A) (A) (A) (A) (A) (A)
                 (A) (A) (A) (A) (A) (A) (A) (A) (A) (A) (A) (A)
                 (A) (A) (A) (A) (A) (A) (A) (A) (A) (A) (A) (A)
                 (A) (A) (A) (A) (A) (A) (A) (A) (A) (A) (A) (A)
                 (A) (A) (A) (A) (A) (A) (A) (A) (A) (A) (A) (A)
                 (A) (A) (A) (A) (A) (A) (A) (A) (A) (A) (A) (A)
                 (A) (A) (A) (A) (A) (A) (A) (A) (A) (A) (A) (A)
                 (A) (A) (A) (A) (A) (A) (A) (A) (A) (A) (A) (A)
                 (A) (A) (A) (A) (A) (A) (A) (A) (A) (A) (A) (A)
                 (A) (A) (A) (A) (A) (A) (A) (A) (A) (A) (A) (A)
                 (A) (A) (A) (A) (A) (A) (A) (A) (A) (A) (A) (A)
                 (A) (A) (A) (A) (A) (A) (A) (A) (A) (A) (A) (A)
                 (A) (A) (A) (A) (A) (A) (A) (A) (A) (A) (A) (A)
                 (A) (A)
 Beta  Orbitals:
       Occupied  (A) (A) (A) (A) (A) (A) (A) (A) (A) (A) (A) (A)
                 (A) (A) (A) (A) (A) (A) (A) (A) (A) (A) (A) (A)
                 (A) (A) (A) (A) (A) (A)
       Virtual   (A) (A) (A) (A) (A) (A) (A) (A) (A) (A) (A) (A)
                 (A) (A) (A) (A) (A) (A) (A) (A) (A) (A) (A) (A)
                 (A) (A) (A) (A) (A) (A) (A) (A) (A) (A) (A) (A)
                 (A) (A) (A) (A) (A) (A) (A) (A) (A) (A) (A) (A)
                 (A) (A) (A) (A) (A) (A) (A) (A) (A) (A) (A) (A)
                 (A) (A) (A) (A) (A) (A) (A) (A) (A) (A) (A) (A)
                 (A) (A) (A) (A) (A) (A) (A) (A) (A) (A) (A) (A)
                 (A) (A) (A) (A) (A) (A) (A) (A) (A) (A) (A) (A)
                 (A) (A) (A) (A) (A) (A) (A) (A) (A) (A) (A) (A)
                 (A) (A) (A) (A) (A) (A) (A) (A) (A) (A) (A) (A)
                 (A) (A) (A) (A) (A) (A) (A) (A) (A) (A) (A) (A)
                 (A) (A) (A) (A) (A) (A) (A) (A) (A) (A) (A) (A)
                 (A) (A) (A) (A) (A) (A) (A) (A) (A) (A) (A) (A)
                 (A) (A) (A) (A) (A) (A) (A) (A) (A) (A) (A) (A)
                 (A) (A) (A) (A) (A) (A) (A) (A) (A) (A) (A) (A)
                 (A) (A) (A) (A) (A) (A) (A) (A) (A) (A) (A) (A)
                 (A) (A) (A)
 The electronic state is 2-A.
 Alpha  occ. eigenvalues --  -20.61993 -20.61251 -20.56903 -11.41974 -11.31439
 Alpha  occ. eigenvalues --  -11.28339 -11.27768 -11.24144  -1.48802  -1.39767
 Alpha  occ. eigenvalues --   -1.36848  -1.09443  -1.05933  -0.92045  -0.87981
 Alpha  occ. eigenvalues --   -0.76963  -0.73398  -0.71136  -0.67796  -0.65214
 Alpha  occ. eigenvalues --   -0.64232  -0.63971  -0.59628  -0.57088  -0.55795
 Alpha  occ. eigenvalues --   -0.54253  -0.52095  -0.50563  -0.47927  -0.44054
 Alpha  occ. eigenvalues --   -0.42524
 Alpha virt. eigenvalues --    0.03288   0.04561   0.05176   0.06527   0.07575
 Alpha virt. eigenvalues --    0.08004   0.08146   0.09600   0.11099   0.11770
 Alpha virt. eigenvalues --    0.12806   0.14268   0.14690   0.15500   0.16325
 Alpha virt. eigenvalues --    0.16994   0.17122   0.17658   0.18861   0.19093
 Alpha virt. eigenvalues --    0.19828   0.20434   0.21261   0.21738   0.22409
 Alpha virt. eigenvalues --    0.23081   0.24873   0.26578   0.27835   0.28732
 Alpha virt. eigenvalues --    0.29779   0.30300   0.30912   0.32557   0.33822
 Alpha virt. eigenvalues --    0.34090   0.35617   0.36915   0.38095   0.38372
 Alpha virt. eigenvalues --    0.39099   0.39690   0.40605   0.41007   0.42547
 Alpha virt. eigenvalues --    0.43628   0.44658   0.46462   0.47987   0.49478
 Alpha virt. eigenvalues --    0.50043   0.51193   0.56246   0.59704   0.60327
 Alpha virt. eigenvalues --    0.62558   0.62984   0.65161   0.70818   0.73700
 Alpha virt. eigenvalues --    0.75399   0.77967   0.78380   0.78710   0.81665
 Alpha virt. eigenvalues --    0.83336   0.85212   0.85702   0.86062   0.87600
 Alpha virt. eigenvalues --    0.87803   0.90354   0.93070   0.94272   0.96350
 Alpha virt. eigenvalues --    1.02571   1.04197   1.07999   1.13534   1.14544
 Alpha virt. eigenvalues --    1.17197   1.22524   1.24881   1.26305   1.28726
 Alpha virt. eigenvalues --    1.30883   1.33604   1.36171   1.38662   1.40547
 Alpha virt. eigenvalues --    1.41135   1.43361   1.47245   1.49880   1.51468
 Alpha virt. eigenvalues --    1.53629   1.56070   1.60247   1.61678   1.65198
 Alpha virt. eigenvalues --    1.66842   1.70607   1.71819   1.72985   1.76078
 Alpha virt. eigenvalues --    1.79414   1.81007   1.83110   1.83624   1.87169
 Alpha virt. eigenvalues --    1.90946   1.92916   1.94449   1.95130   1.99753
 Alpha virt. eigenvalues --    2.03234   2.07288   2.08913   2.10469   2.13071
 Alpha virt. eigenvalues --    2.15287   2.21648   2.24472   2.28146   2.31547
 Alpha virt. eigenvalues --    2.37473   2.39847   2.43885   2.49049   2.55332
 Alpha virt. eigenvalues --    2.61525   2.63620   2.65345   2.81086   2.82534
 Alpha virt. eigenvalues --    2.83759   2.87613   2.90382   2.91382   2.93507
 Alpha virt. eigenvalues --    2.94733   2.97323   3.02371   3.03771   3.05237
 Alpha virt. eigenvalues --    3.09216   3.12142   3.14503   3.14925   3.18160
 Alpha virt. eigenvalues --    3.22946   3.25796   3.27481   3.32205   3.32407
 Alpha virt. eigenvalues --    3.42579   3.45229   3.48918   3.49748   3.54273
 Alpha virt. eigenvalues --    3.59306   3.61741   3.65606   3.73810   3.75737
 Alpha virt. eigenvalues --    3.77181   3.94085   3.98091   4.11463   4.20139
 Alpha virt. eigenvalues --    4.21313   4.22637   4.26581   4.41518   4.49486
 Alpha virt. eigenvalues --    4.53039   4.69384   5.50660   5.54435   5.59330
 Alpha virt. eigenvalues --    5.60339   5.72266   5.89452   6.03906   6.16983
 Alpha virt. eigenvalues --    6.46196  24.69135  24.99046  25.00509  25.12504
 Alpha virt. eigenvalues --   25.98716  51.53157  51.59262  51.74230
  Beta  occ. eigenvalues --  -20.62068 -20.57702 -20.56188 -11.42413 -11.31399
  Beta  occ. eigenvalues --  -11.30493 -11.25248 -11.24140  -1.48553  -1.38632
  Beta  occ. eigenvalues --   -1.24332  -1.06934  -1.05874  -0.92484  -0.88228
  Beta  occ. eigenvalues --   -0.76631  -0.73200  -0.70088  -0.67590  -0.63775
  Beta  occ. eigenvalues --   -0.62123  -0.59053  -0.56143  -0.55548  -0.51904
  Beta  occ. eigenvalues --   -0.51276  -0.48480  -0.46502  -0.45271  -0.42797
  Beta virt. eigenvalues --    0.03277   0.04380   0.05162   0.05930   0.06929
  Beta virt. eigenvalues --    0.07451   0.08165   0.08845   0.09847   0.11202
  Beta virt. eigenvalues --    0.11807   0.12922   0.14376   0.14700   0.15368
  Beta virt. eigenvalues --    0.16415   0.16959   0.17016   0.17640   0.19065
  Beta virt. eigenvalues --    0.19171   0.19773   0.20422   0.21519   0.22079
  Beta virt. eigenvalues --    0.22894   0.24020   0.25007   0.26642   0.28201
  Beta virt. eigenvalues --    0.29302   0.30271   0.30735   0.31527   0.32507
  Beta virt. eigenvalues --    0.34119   0.35245   0.36485   0.37074   0.38290
  Beta virt. eigenvalues --    0.38854   0.39678   0.40238   0.40824   0.41364
  Beta virt. eigenvalues --    0.42674   0.43926   0.45152   0.46845   0.48552
  Beta virt. eigenvalues --    0.49786   0.50428   0.51442   0.56358   0.59651
  Beta virt. eigenvalues --    0.60473   0.62739   0.63367   0.65755   0.71025
  Beta virt. eigenvalues --    0.72281   0.75612   0.77335   0.78578   0.79638
  Beta virt. eigenvalues --    0.82325   0.84589   0.85578   0.86086   0.86249
  Beta virt. eigenvalues --    0.87634   0.88110   0.90631   0.92927   0.94815
  Beta virt. eigenvalues --    0.97210   1.02078   1.04311   1.08224   1.13683
  Beta virt. eigenvalues --    1.15069   1.17598   1.22701   1.24966   1.27139
  Beta virt. eigenvalues --    1.29370   1.32270   1.34937   1.38043   1.41109
  Beta virt. eigenvalues --    1.41565   1.43085   1.45382   1.48453   1.50081
  Beta virt. eigenvalues --    1.51631   1.54014   1.55633   1.60394   1.62506
  Beta virt. eigenvalues --    1.65254   1.67069   1.70683   1.72289   1.73822
  Beta virt. eigenvalues --    1.78004   1.79531   1.82242   1.83151   1.83801
  Beta virt. eigenvalues --    1.88132   1.91236   1.93142   1.94696   1.95499
  Beta virt. eigenvalues --    1.99709   2.03331   2.07687   2.08965   2.10854
  Beta virt. eigenvalues --    2.13393   2.15371   2.22028   2.24606   2.28392
  Beta virt. eigenvalues --    2.31801   2.38413   2.39973   2.43835   2.49050
  Beta virt. eigenvalues --    2.55654   2.61510   2.63647   2.65930   2.81099
  Beta virt. eigenvalues --    2.82583   2.83815   2.87718   2.90187   2.91485
  Beta virt. eigenvalues --    2.93709   2.94765   2.97439   3.01912   3.03946
  Beta virt. eigenvalues --    3.05599   3.09280   3.11963   3.16905   3.20147
  Beta virt. eigenvalues --    3.23637   3.25353   3.26879   3.28459   3.32985
  Beta virt. eigenvalues --    3.34238   3.44961   3.45307   3.50398   3.50764
  Beta virt. eigenvalues --    3.58763   3.61599   3.63847   3.65884   3.74358
  Beta virt. eigenvalues --    3.76582   3.77996   3.93783   3.98562   4.12026
  Beta virt. eigenvalues --    4.20163   4.21332   4.22768   4.29401   4.41687
  Beta virt. eigenvalues --    4.49687   4.53305   4.69386   5.52765   5.59147
  Beta virt. eigenvalues --    5.62142   5.65768   5.72950   5.89489   6.06148
  Beta virt. eigenvalues --    6.17211   6.46316  24.69381  24.98895  25.00363
  Beta virt. eigenvalues --   25.12508  25.98748  51.55166  51.59311  51.74555
          Condensed to atoms (all electrons):
               1          2          3          4          5          6
     1  C   17.663110   0.659801  -7.367670  -3.826110   0.030445   0.015890
     2  H    0.659801   0.404508  -0.233156  -0.041587  -0.001457  -0.000207
     3  C   -7.367670  -0.233156  11.666068   0.965185   0.027663  -0.234121
     4  C   -3.826110  -0.041587   0.965185   8.657378   0.234043   0.235618
     5  O    0.030445  -0.001457   0.027663   0.234043   8.114367  -0.059768
     6  O    0.015890  -0.000207  -0.234121   0.235618  -0.059768   8.185702
     7  C   -0.243497  -0.001877   0.078165  -0.102115   0.002077   0.251020
     8  C    0.202322   0.001362   0.036991  -0.142329   0.013221  -0.167452
     9  H   -0.042820  -0.001628   0.001523   0.052648  -0.002342  -0.016267
    10  H   -0.023981  -0.000228  -0.008875   0.008625   0.000228  -0.072840
    11  H    0.035932   0.000534   0.003601  -0.029256   0.000531  -0.008958
    12  H   -0.070553  -0.002442   0.046303   0.021312  -0.002076  -0.006155
    13  H   -0.004017   0.000223   0.004055  -0.010615   0.000561   0.012981
    14  O   -0.167601  -0.030938   0.041026   0.015209  -0.003428  -0.001341
    15  H   -0.072178   0.001095   0.066288   0.004979   0.012836   0.002566
               7          8          9         10         11         12
     1  C   -0.243497   0.202322  -0.042820  -0.023981   0.035932  -0.070553
     2  H   -0.001877   0.001362  -0.001628  -0.000228   0.000534  -0.002442
     3  C    0.078165   0.036991   0.001523  -0.008875   0.003601   0.046303
     4  C   -0.102115  -0.142329   0.052648   0.008625  -0.029256   0.021312
     5  O    0.002077   0.013221  -0.002342   0.000228   0.000531  -0.002076
     6  O    0.251020  -0.167452  -0.016267  -0.072840  -0.008958  -0.006155
     7  C    5.571527  -0.114543   0.408289   0.474300  -0.061997   0.001406
     8  C   -0.114543   5.481090  -0.049119  -0.074453   0.443686   0.362011
     9  H    0.408289  -0.049119   0.551806  -0.040229   0.003165  -0.006208
    10  H    0.474300  -0.074453  -0.040229   0.539780  -0.009720   0.012637
    11  H   -0.061997   0.443686   0.003165  -0.009720   0.540864  -0.052379
    12  H    0.001406   0.362011  -0.006208   0.012637  -0.052379   0.598574
    13  H   -0.043691   0.416449  -0.006386   0.003167  -0.035947  -0.033510
    14  O   -0.004449   0.002570   0.000455  -0.000197   0.000158  -0.001313
    15  H   -0.001046  -0.000206   0.000763  -0.000154   0.000087   0.000214
              13         14         15
     1  C   -0.004017  -0.167601  -0.072178
     2  H    0.000223  -0.030938   0.001095
     3  C    0.004055   0.041026   0.066288
     4  C   -0.010615   0.015209   0.004979
     5  O    0.000561  -0.003428   0.012836
     6  O    0.012981  -0.001341   0.002566
     7  C   -0.043691  -0.004449  -0.001046
     8  C    0.416449   0.002570  -0.000206
     9  H   -0.006386   0.000455   0.000763
    10  H    0.003167  -0.000197  -0.000154
    11  H   -0.035947   0.000158   0.000087
    12  H   -0.033510  -0.001313   0.000214
    13  H    0.568201  -0.000096  -0.000139
    14  O   -0.000096   8.089087   0.289256
    15  H   -0.000139   0.289256   0.428326
          Atomic-Atomic Spin Densities.
               1          2          3          4          5          6
     1  C   -0.668821   0.051190  -0.362491  -0.131929  -0.028255   0.010788
     2  H    0.051190   0.062305  -0.034222  -0.003015  -0.000526  -0.000265
     3  C   -0.362491  -0.034222   1.526764   0.168593  -0.017467  -0.025813
     4  C   -0.131929  -0.003015   0.168593  -0.255868  -0.021574   0.079364
     5  O   -0.028255  -0.000526  -0.017467  -0.021574   0.198084   0.005675
     6  O    0.010788  -0.000265  -0.025813   0.079364   0.005675  -0.062830
     7  C    0.011520  -0.001735  -0.015109  -0.009800  -0.001721   0.001199
     8  C   -0.021167   0.000211   0.017805   0.008567   0.002350   0.000957
     9  H    0.016926   0.001384  -0.016392  -0.007434  -0.000336   0.002055
    10  H   -0.000941  -0.000097   0.002002  -0.001337  -0.000112   0.000192
    11  H    0.003275   0.000149  -0.002331  -0.002593  -0.000076   0.000487
    12  H    0.001598  -0.000023  -0.001118  -0.000931  -0.000204  -0.000163
    13  H   -0.001810  -0.000248   0.001994   0.001932   0.000017  -0.000440
    14  O    0.039447   0.008586  -0.037273  -0.008048   0.004681   0.001013
    15  H    0.004048  -0.000224  -0.008034   0.000915  -0.001297  -0.000362
               7          8          9         10         11         12
     1  C    0.011520  -0.021167   0.016926  -0.000941   0.003275   0.001598
     2  H   -0.001735   0.000211   0.001384  -0.000097   0.000149  -0.000023
     3  C   -0.015109   0.017805  -0.016392   0.002002  -0.002331  -0.001118
     4  C   -0.009800   0.008567  -0.007434  -0.001337  -0.002593  -0.000931
     5  O   -0.001721   0.002350  -0.000336  -0.000112  -0.000076  -0.000204
     6  O    0.001199   0.000957   0.002055   0.000192   0.000487  -0.000163
     7  C    0.018697  -0.010191   0.003292  -0.000449   0.001091   0.002924
     8  C   -0.010191   0.014285  -0.001226   0.001177  -0.001463  -0.002492
     9  H    0.003292  -0.001226   0.000507  -0.001288   0.000031  -0.000518
    10  H   -0.000449   0.001177  -0.001288   0.001694  -0.000326   0.000060
    11  H    0.001091  -0.001463   0.000031  -0.000326   0.000165   0.000077
    12  H    0.002924  -0.002492  -0.000518   0.000060   0.000077   0.000112
    13  H   -0.002489   0.001608   0.000417  -0.000148   0.000339  -0.000288
    14  O    0.002770   0.001011  -0.001108   0.000130  -0.000180   0.000063
    15  H   -0.000131  -0.000214  -0.000119  -0.000022   0.000007  -0.000037
              13         14         15
     1  C   -0.001810   0.039447   0.004048
     2  H   -0.000248   0.008586  -0.000224
     3  C    0.001994  -0.037273  -0.008034
     4  C    0.001932  -0.008048   0.000915
     5  O    0.000017   0.004681  -0.001297
     6  O   -0.000440   0.001013  -0.000362
     7  C   -0.002489   0.002770  -0.000131
     8  C    0.001608   0.001011  -0.000214
     9  H    0.000417  -0.001108  -0.000119
    10  H   -0.000148   0.000130  -0.000022
    11  H    0.000339  -0.000180   0.000007
    12  H   -0.000288   0.000063  -0.000037
    13  H   -0.000208   0.000140   0.000024
    14  O    0.000140   0.833802   0.007685
    15  H    0.000024   0.007685  -0.033022
 Mulliken charges and spin densities:
               1          2
     1  C   -0.789072  -1.076622
     2  H    0.245996   0.083472
     3  C    0.906956   1.196908
     4  C   -0.042986  -0.183156
     5  O   -0.366900   0.139238
     6  O   -0.136667   0.011857
     7  C   -0.213569  -0.000131
     8  C   -0.411599   0.011219
     9  H    0.146348  -0.003810
    10  H    0.191941   0.000535
    11  H    0.169699  -0.001348
    12  H    0.132179  -0.000941
    13  H    0.128764   0.000841
    14  O   -0.228401   0.852719
    15  H    0.267311  -0.030782
 Sum of Mulliken charges =  -0.00000   1.00000
 Mulliken charges and spin densities with hydrogens summed into heavy atoms:
               1          2
     1  C   -0.543075  -0.993150
     3  C    0.906956   1.196908
     4  C   -0.042986  -0.183156
     5  O   -0.366900   0.139238
     6  O   -0.136667   0.011857
     7  C    0.124720  -0.003406
     8  C    0.019043   0.009771
    14  O    0.038910   0.821937
 Electronic spatial extent (au):  <R**2>=           1179.2818
 Charge=             -0.0000 electrons
 Dipole moment (field-independent basis, Debye):
    X=              2.8721    Y=             -3.6354    Z=             -1.0254  Tot=              4.7451
 Quadrupole moment (field-independent basis, Debye-Ang):
   XX=            -47.8299   YY=            -50.3320   ZZ=            -47.2952
   XY=             -1.5445   XZ=              0.1076   YZ=              0.7847
 Traceless Quadrupole moment (field-independent basis, Debye-Ang):
   XX=              0.6558   YY=             -1.8463   ZZ=              1.1905
   XY=             -1.5445   XZ=              0.1076   YZ=              0.7847
 Octapole moment (field-independent basis, Debye-Ang**2):
  XXX=             30.5981  YYY=            -17.0003  ZZZ=              1.2803  XYY=             -9.6686
  XXY=              3.9966  XXZ=             -2.6464  XZZ=              1.6308  YZZ=              3.6685
  YYZ=             -4.3861  XYZ=             -3.4035
 Hexadecapole moment (field-independent basis, Debye-Ang**3):
 XXXX=          -1071.1523 YYYY=           -349.4128 ZZZZ=           -117.2304 XXXY=            -37.2786
 XXXZ=            -14.2554 YYYX=             29.0916 YYYZ=              3.5040 ZZZX=             -6.6321
 ZZZY=              1.0728 XXYY=           -207.7587 XXZZ=           -190.0900 YYZZ=            -77.3144
 XXYZ=             13.8551 YYXZ=              5.2289 ZZXY=              0.5698
 N-N= 3.541722218305D+02 E-N=-1.690950268672D+03  KE= 4.177235319896D+02
 1\1\GINC-AJ\SP\UCCSD(T)-FC\6-311++G(d,p)\C5H7O3(2)\AAYUSH\13-May-2025\
 0\\# ccsd(t)/6-311++g(d,p) sp\\Title Card Required\\0,2\C,0,-1.493518,
 -1.335149,-0.342898\H,0,-1.954023,-2.284846,-0.518061\C,0,-0.591112,-0
 .502687,-0.299356\C,0,0.03952,0.797784,-0.059518\O,0,-0.631446,1.73411
 2,0.271975\O,0,1.353246,0.894913,-0.234411\C,0,2.130378,-0.281119,-0.5
 25933\C,0,2.46305,-1.040153,0.742713\H,0,1.592539,-0.904542,-1.245024\
 H,0,3.026423,0.105903,-1.008022\H,0,2.978412,-0.388029,1.448876\H,0,1.
 558805,-1.427006,1.21659\H,0,3.113809,-1.88468,0.507976\O,0,-3.108446,
 -0.458244,0.275075\H,0,-2.780557,0.447212,0.410576\\Version=ES64L-G16R
 evA.03\State=2-A\HF=-417.9728349\MP2=-419.2244065\MP3=-419.255514\MP4D
 =-419.2856939\MP4DQ=-419.2612526\PUHF=-418.0019164\PMP2-0=-419.2501767
 \PMP3-0=-419.2755982\MP4SDQ=-419.2837905\CCSD=-419.2930819\CCSD(T)=-41
 9.3481318\S2=1.114522\S2-1=1.019146\S2A=0.842302\RMSD=7.400e-09\PG=C01
  [X(C5H7O3)]\\@


 WE THE UNWILLING
 LED BY THE UNQUALIFIED
 HAVE BEEN DOING THE UNBELIEVABLE SO LONG WITH SO LITTLE
 THAT WE NOW ATTEMPT THE IMPOSSIBLE WITH NOTHING.

                                    -- ANONYMOUS
 Job cpu time:       0 days 16 hours 58 minutes 56.9 seconds.
 Elapsed time:       0 days  0 hours 42 minutes 38.3 seconds.
 File lengths (MBytes):  RWF=  44733 Int=      0 D2E=      0 Chk=      6 Scr=      1
 Normal termination of Gaussian 16 at Tue May 13 20:16:30 2025.
