 Entering Gaussian System, Link 0=g16
 Initial command:
 /opt/g16/l1.exe "/home/aayush/scratches/g16/Gau-5014.inp" -scrdir="/home/aayush/scratches/g16/"
 Entering Link 1 = /opt/g16/l1.exe PID=      5017.
  
 Copyright (c) 1988,1990,1992,1993,1995,1998,2003,2009,2016,
            Gaussian, Inc.  All Rights Reserved.
  
 This is part of the Gaussian(R) 16 program.  It is based on
 the Gaussian(R) 09 system (copyright 2009, Gaussian, Inc.),
 the Gaussian(R) 03 system (copyright 2003, Gaussian, Inc.),
 the Gaussian(R) 98 system (copyright 1998, Gaussian, Inc.),
 the Gaussian(R) 94 system (copyright 1995, Gaussian, Inc.),
 the Gaussian 92(TM) system (copyright 1992, Gaussian, Inc.),
 the Gaussian 90(TM) system (copyright 1990, Gaussian, Inc.),
 the Gaussian 88(TM) system (copyright 1988, Gaussian, Inc.),
 the Gaussian 86(TM) system (copyright 1986, Carnegie Mellon
 University), and the Gaussian 82(TM) system (copyright 1983,
 Carnegie Mellon University). Gaussian is a federally registered
 trademark of Gaussian, Inc.
  
 This software contains proprietary and confidential information,
 including trade secrets, belonging to Gaussian, Inc.
  
 This software is provided under written license and may be
 used, copied, transmitted, or stored only in accord with that
 written license.
  
 The following legend is applicable only to US Government
 contracts under FAR:
  
                    RESTRICTED RIGHTS LEGEND
  
 Use, reproduction and disclosure by the US Government is
 subject to restrictions as set forth in subparagraphs (a)
 and (c) of the Commercial Computer Software - Restricted
 Rights clause in FAR 52.227-19.
  
 Gaussian, Inc.
 340 Quinnipiac St., Bldg. 40, Wallingford CT 06492
  
  
 ---------------------------------------------------------------
 Warning -- This program may not be used in any manner that
 competes with the business of Gaussian, Inc. or will provide
 assistance to any competitor of Gaussian, Inc.  The licensee
 of this program is prohibited from giving any competitor of
 Gaussian, Inc. access to this program.  By using this program,
 the user acknowledges that Gaussian, Inc. is engaged in the
 business of creating and licensing software in the field of
 computational chemistry and represents and warrants to the
 licensee that it is not a competitor of Gaussian, Inc. and that
 it will not use this program in any manner prohibited above.
 ---------------------------------------------------------------
  

 Cite this work as:
 Gaussian 16, Revision A.03,
 M. J. Frisch, G. W. Trucks, H. B. Schlegel, G. E. Scuseria, 
 M. A. Robb, J. R. Cheeseman, G. Scalmani, V. Barone, 
 G. A. Petersson, H. Nakatsuji, X. Li, M. Caricato, A. V. Marenich, 
 J. Bloino, B. G. Janesko, R. Gomperts, B. Mennucci, H. P. Hratchian, 
 J. V. Ortiz, A. F. Izmaylov, J. L. Sonnenberg, D. Williams-Young, 
 F. Ding, F. Lipparini, F. Egidi, J. Goings, B. Peng, A. Petrone, 
 T. Henderson, D. Ranasinghe, V. G. Zakrzewski, J. Gao, N. Rega, 
 G. Zheng, W. Liang, M. Hada, M. Ehara, K. Toyota, R. Fukuda, 
 J. Hasegawa, M. Ishida, T. Nakajima, Y. Honda, O. Kitao, H. Nakai, 
 T. Vreven, K. Throssell, J. A. Montgomery, Jr., J. E. Peralta, 
 F. Ogliaro, M. J. Bearpark, J. J. Heyd, E. N. Brothers, K. N. Kudin, 
 V. N. Staroverov, T. A. Keith, R. Kobayashi, J. Normand, 
 K. Raghavachari, A. P. Rendell, J. C. Burant, S. S. Iyengar, 
 J. Tomasi, M. Cossi, J. M. Millam, M. Klene, C. Adamo, R. Cammi, 
 J. W. Ochterski, R. L. Martin, K. Morokuma, O. Farkas, 
 J. B. Foresman, and D. J. Fox, Gaussian, Inc., Wallingford CT, 2016.
 
 ******************************************
 Gaussian 16:  ES64L-G16RevA.03 25-Dec-2016
                13-May-2025 
 ******************************************
 %chk=ethyl_propiolate.chk
 %nprocshared=24
 Will use up to   24 processors via shared memory.
 %mem=12GB
 --------------------------
 # ccsd(t)/6-311++g(d,p) sp
 --------------------------
 1/38=1,172=1/1;
 2/12=2,17=6,18=5,40=1/2;
 3/5=4,6=6,7=1111,11=9,25=1,30=1/1,2,3;
 4//1;
 5/5=2,38=5/2;
 8/6=4,9=120000,10=2/1,4;
 9/5=7,14=2/13;
 6/7=2,8=2,9=2,10=2/1;
 99/5=1,9=1/99;
 -------------------
 Title Card Required
 -------------------
 Symbolic Z-matrix:
 Charge =  0 Multiplicity = 2
 C                    -1.45997  -1.35618  -0.35647 
 H                    -1.96741  -2.28169  -0.51463 
 C                    -0.59464  -0.50059  -0.29782 
 C                     0.03938   0.79786  -0.0595 
 O                    -0.63114   1.73463   0.27212 
 O                     1.3531    0.89481  -0.23447 
 C                     2.13032  -0.28125  -0.52603 
 C                     2.46306  -1.04012   0.74269 
 H                     1.59228  -0.90464  -1.2447 
 H                     3.02637   0.10596  -1.00797 
 H                     2.97858  -0.38803   1.44878 
 H                     1.55878  -1.4271    1.21628 
 H                     3.11379  -1.88464   0.50776 
 O                    -3.12954  -0.44527   0.28359 
 H                    -2.78983   0.45715   0.41526 
 
                          Input orientation:                          
 ---------------------------------------------------------------------
 Center     Atomic      Atomic             Coordinates (Angstroms)
 Number     Number       Type             X           Y           Z
 ---------------------------------------------------------------------
      1          6           0       -1.459968   -1.356176   -0.356470
      2          1           0       -1.967406   -2.281688   -0.514627
      3          6           0       -0.594636   -0.500590   -0.297818
      4          6           0        0.039378    0.797857   -0.059498
      5          8           0       -0.631142    1.734632    0.272122
      6          8           0        1.353095    0.894814   -0.234466
      7          6           0        2.130315   -0.281245   -0.526031
      8          6           0        2.463058   -1.040122    0.742688
      9          1           0        1.592282   -0.904635   -1.244703
     10          1           0        3.026365    0.105965   -1.007972
     11          1           0        2.978580   -0.388031    1.448779
     12          1           0        1.558782   -1.427103    1.216279
     13          1           0        3.113793   -1.884635    0.507759
     14          8           0       -3.129538   -0.445266    0.283591
     15          1           0       -2.789831    0.457148    0.415261
 ---------------------------------------------------------------------
                    Distance matrix (angstroms):
                    1          2          3          4          5
     1  C    0.000000
     2  H    1.067277   0.000000
     3  C    1.218305   2.259162   0.000000
     4  C    2.641229   3.703771   1.464491   0.000000
     5  O    3.261162   4.305276   2.307029   1.198798   0.000000
     6  O    3.604881   4.603736   2.396836   1.328859   2.213396
     7  C    3.751581   4.559958   2.743274   2.398777   3.510905
     8  C    4.086340   4.769836   3.274636   3.145774   4.182674
     9  H    3.210775   3.885957   2.417117   2.591274   3.769629
    10  H    4.763349   5.557160   3.739502   3.209425   4.203398
    11  H    4.888449   5.648334   3.978837   3.510005   4.349749
    12  H    3.404618   4.019994   2.790721   2.981047   3.960274
    13  H    4.684597   5.198222   4.039428   4.119414   5.213363
    14  O    2.006714   2.315199   2.601312   3.421271   3.315731
    15  H    2.377446   3.007041   2.498925   2.888928   2.512447
                    6          7          8          9         10
     6  O    0.000000
     7  C    1.439512   0.000000
     8  C    2.435329   1.515342   0.000000
     9  H    2.077452   1.092970   2.174013   0.000000
    10  H    2.005100   1.088625   2.166943   1.770296   0.000000
    11  H    2.668559   2.151937   1.090665   3.073035   2.506380
    12  H    2.745590   2.162241   1.091677   2.516054   3.074311
    13  H    3.372876   2.146348   1.091719   2.519230   2.503512
    14  O    4.707249   5.324326   5.642850   4.984204   6.314042
    15  H    4.216341   5.063506   5.471916   4.879841   5.998088
                   11         12         13         14         15
    11  H    0.000000
    12  H    1.774698   0.000000
    13  H    1.773027   1.769010   0.000000
    14  O    6.218524   4.879985   6.411023   0.000000
    15  H    5.920900   4.806503   6.351793   0.973185   0.000000
 Stoichiometry    C5H7O3(2)
 Framework group  C1[X(C5H7O3)]
 Deg. of freedom    39
 Full point group                 C1      NOp   1
 Largest Abelian subgroup         C1      NOp   1
 Largest concise Abelian subgroup C1      NOp   1
                         Standard orientation:                         
 ---------------------------------------------------------------------
 Center     Atomic      Atomic             Coordinates (Angstroms)
 Number     Number       Type             X           Y           Z
 ---------------------------------------------------------------------
      1          6           0       -1.520964   -1.304845   -0.363158
      2          1           0       -2.028402   -2.230357   -0.521315
      3          6           0       -0.655632   -0.449259   -0.304506
      4          6           0       -0.021618    0.849188   -0.066186
      5          8           0       -0.692138    1.785963    0.265434
      6          8           0        1.292099    0.946145   -0.241154
      7          6           0        2.069319   -0.229914   -0.532719
      8          6           0        2.402062   -0.988791    0.736000
      9          1           0        1.531286   -0.853304   -1.251391
     10          1           0        2.965369    0.157296   -1.014660
     11          1           0        2.917584   -0.336700    1.442091
     12          1           0        1.497786   -1.375772    1.209591
     13          1           0        3.052797   -1.833304    0.501071
     14          8           0       -3.190534   -0.393935    0.276903
     15          1           0       -2.850827    0.508479    0.408573
 ---------------------------------------------------------------------
 Rotational constants (GHZ):           3.4742983           1.2117282           0.9776021
 Standard basis: 6-311++G(d,p) (5D, 7F)
 There are   233 symmetry adapted cartesian basis functions of A   symmetry.
 There are   225 symmetry adapted basis functions of A   symmetry.
   225 basis functions,   351 primitive gaussians,   233 cartesian basis functions
    31 alpha electrons       30 beta electrons
       nuclear repulsion energy       353.6620635027 Hartrees.
 NAtoms=   15 NActive=   15 NUniq=   15 SFac= 1.00D+00 NAtFMM=   60 NAOKFM=F Big=F
 Integral buffers will be    131072 words long.
 Raffenetti 2 integral format.
 Two-electron integral symmetry is turned on.
 One-electron integrals computed using PRISM.
 NBasis=   225 RedAO= T EigKep=  3.03D-06  NBF=   225
 NBsUse=   225 1.00D-06 EigRej= -1.00D+00 NBFU=   225
 ExpMin= 3.60D-02 ExpMax= 8.59D+03 ExpMxC= 1.30D+03 IAcc=3 IRadAn=         5 AccDes= 0.00D+00
 Harris functional with IExCor=  205 and IRadAn=       5 diagonalized for initial guess.
 HarFok:  IExCor=  205 AccDes= 0.00D+00 IRadAn=         5 IDoV= 1 UseB2=F ITyADJ=14
 ICtDFT=  3500011 ScaDFX=  1.000000  1.000000  1.000000  1.000000
 FoFCou: FMM=F IPFlag=           0 FMFlag=      100000 FMFlg1=           0
         NFxFlg=           0 DoJE=T BraDBF=F KetDBF=T FulRan=T
         wScrn=  0.000000 ICntrl=       500 IOpCl=  0 I1Cent=   200000004 NGrid=           0
         NMat0=    1 NMatS0=      1 NMatT0=    0 NMatD0=    1 NMtDS0=    0 NMtDT0=    0
 Petite list used in FoFCou.
 Initial guess <Sx>= 0.0000 <Sy>= 0.0000 <Sz>= 0.5000 <S**2>= 0.7500 S= 0.5000
 Requested convergence on RMS density matrix=1.00D-08 within 128 cycles.
 Requested convergence on MAX density matrix=1.00D-06.
 Requested convergence on             energy=1.00D-06.
 No special actions if energy rises.
 Initial convergence to 1.0D-05 achieved.  Increase integral accuracy.
 SCF Done:  E(UHF) =  -417.974217243     A.U. after   33 cycles
            NFock= 33  Conv=0.97D-08     -V/T= 2.0006
 <Sx>= 0.0000 <Sy>= 0.0000 <Sz>= 0.5000 <S**2>= 1.0499 S= 0.6402
 <L.S>=  0.00000000000    
 Annihilation of the first spin contaminant:
 S**2 before annihilation     1.0499,   after     0.8107
 ExpMin= 3.60D-02 ExpMax= 8.59D+03 ExpMxC= 1.30D+03 IAcc=3 IRadAn=         5 AccDes= 0.00D+00
 HarFok:  IExCor=  205 AccDes= 0.00D+00 IRadAn=         5 IDoV=-2 UseB2=F ITyADJ=14
 ICtDFT= 12500011 ScaDFX=  1.000000  1.000000  1.000000  1.000000
 Range of M.O.s used for correlation:     9   225
 NBasis=   225 NAE=    31 NBE=    30 NFC=     8 NFV=     0
 NROrb=    217 NOA=    23 NOB=    22 NVA=   194 NVB=   195

 **** Warning!!: The largest alpha MO coefficient is  0.13339409D+03


 **** Warning!!: The largest beta MO coefficient is  0.15948260D+03

 Semi-Direct transformation.
 ModeAB=           4 MOrb=            23 LenV=    1609174388
 LASXX=    109339976 LTotXX=   109339976 LenRXX=   221407890
 LTotAB=   112067914 MaxLAS=   128148916 LenRXY=           0
 NonZer=   330747866 LenScr=   498067456 LnRSAI=   128148916
 LnScr1=   192984064 LExtra=           0 Total=   1040608326
 MaxDsk=          -1 SrtSym=           T ITran=            4
 JobTyp=1 Pass  1:  I=   1 to  23.
 (rs|ai) integrals will be sorted in core.
 ModeAB=           4 MOrb=            22 LenV=    1609174388
 LASXX=    104936601 LTotXX=   104936601 LenRXX=   190867446
 LTotAB=    85930845 MaxLAS=   122577224 LenRXY=           0
 NonZer=   295804047 LenScr=   445446144 LnRSAI=   122577224
 LnScr1=   184631296 LExtra=           0 Total=    943522110
 MaxDsk=          -1 SrtSym=           T ITran=            4
 JobTyp=2 Pass  1:  I=   1 to  22.
 (rs|ai) integrals will be sorted in core.
 SymMOI:  orbitals are not symmetric.
 Spin components of T(2) and E(2):
     alpha-alpha T2 =       0.5091792899D-01 E2=     -0.1680354616D+00
     alpha-beta  T2 =       0.2806160073D+00 E2=     -0.9268091134D+00
     beta-beta   T2 =       0.5105494089D-01 E2=     -0.1583580212D+00
 ANorm=    0.1175835395D+01
 E2 =    -0.1253202596D+01 EUMP2 =    -0.41922741983915D+03
 (S**2,0)=  0.10499D+01           (S**2,1)=  0.97050D+00
 E(PUHF)=      -0.41799799202D+03        E(PMP2)=      -0.41924838059D+03
 Keep R2 and R3 ints in memory in canonical form, NReq=652884060.
 CIDS: In Core Option IDoMem=           1.
 Iterations=  50 Convergence= 0.100D-06
 Produce multiple copies of IABC intergrals
 Iteration Nr.   1
 **********************
 DD1Dir will call FoFMem   1 times, MxPair=      1496
 NAB=   506 NAA=   253 NBB=   231.
 E(PMP3)=      -0.41927388422D+03
 MP4(R+Q)=  0.24622647D-01
 E3=       -0.30412656D-01        EUMP3=      -0.41925783250D+03
 E4(DQ)=   -0.56056644D-02        UMP4(DQ)=   -0.41926343816D+03
 E4(SDQ)=  -0.27382925D-01        UMP4(SDQ)=  -0.41928521542D+03
 DE(Corr)=  -1.2587383     E(Corr)=     -419.23295555    
 NORM(A)=   0.11860476D+01
 Iteration Nr.   2
 **********************
 DD1Dir will call FoFMem   1 times, MxPair=      1496
 NAB=   506 NAA=   253 NBB=   231.
 DE(Corr)=  -1.3027700     E(CORR)=     -419.27698729     Delta=-4.40D-02
 NORM(A)=   0.12087398D+01
 Iteration Nr.   3
 **********************
 DD1Dir will call FoFMem   1 times, MxPair=      1496
 NAB=   506 NAA=   253 NBB=   231.
 DE(Corr)=  -1.3063774     E(CORR)=     -419.28059466     Delta=-3.61D-03
 NORM(A)=   0.12233612D+01
 Iteration Nr.   4
 **********************
 DD1Dir will call FoFMem   1 times, MxPair=      1496
 NAB=   506 NAA=   253 NBB=   231.
 DE(Corr)=  -1.3147078     E(CORR)=     -419.28892504     Delta=-8.33D-03
 NORM(A)=   0.12336089D+01
 Iteration Nr.   5
 **********************
 DD1Dir will call FoFMem   1 times, MxPair=      1496
 NAB=   506 NAA=   253 NBB=   231.
 DE(Corr)=  -1.3173740     E(CORR)=     -419.29159120     Delta=-2.67D-03
 NORM(A)=   0.12385889D+01
 Iteration Nr.   6
 **********************
 DD1Dir will call FoFMem   1 times, MxPair=      1496
 NAB=   506 NAA=   253 NBB=   231.
 DE(Corr)=  -1.3181876     E(CORR)=     -419.29240487     Delta=-8.14D-04
 NORM(A)=   0.12393480D+01
 Iteration Nr.   7
 **********************
 DD1Dir will call FoFMem   1 times, MxPair=      1496
 NAB=   506 NAA=   253 NBB=   231.
 DE(Corr)=  -1.3182913     E(CORR)=     -419.29250858     Delta=-1.04D-04
 NORM(A)=   0.12395068D+01
 Iteration Nr.   8
 **********************
 DD1Dir will call FoFMem   1 times, MxPair=      1496
 NAB=   506 NAA=   253 NBB=   231.
 DE(Corr)=  -1.3182728     E(CORR)=     -419.29249003     Delta= 1.85D-05
 NORM(A)=   0.12395254D+01
 Iteration Nr.   9
 **********************
 DD1Dir will call FoFMem   1 times, MxPair=      1496
 NAB=   506 NAA=   253 NBB=   231.
 DE(Corr)=  -1.3182838     E(CORR)=     -419.29250109     Delta=-1.11D-05
 NORM(A)=   0.12395192D+01
 Iteration Nr.  10
 **********************
 DD1Dir will call FoFMem   1 times, MxPair=      1496
 NAB=   506 NAA=   253 NBB=   231.
 DE(Corr)=  -1.3182792     E(CORR)=     -419.29249647     Delta= 4.62D-06
 NORM(A)=   0.12395217D+01
 Iteration Nr.  11
 **********************
 DD1Dir will call FoFMem   1 times, MxPair=      1496
 NAB=   506 NAA=   253 NBB=   231.
 DE(Corr)=  -1.3182913     E(CORR)=     -419.29250858     Delta=-1.21D-05
 NORM(A)=   0.12395424D+01
 Iteration Nr.  12
 **********************
 DD1Dir will call FoFMem   1 times, MxPair=      1496
 NAB=   506 NAA=   253 NBB=   231.
 DE(Corr)=  -1.3182949     E(CORR)=     -419.29251219     Delta=-3.62D-06
 NORM(A)=   0.12395693D+01
 Iteration Nr.  13
 **********************
 DD1Dir will call FoFMem   1 times, MxPair=      1496
 NAB=   506 NAA=   253 NBB=   231.
 DE(Corr)=  -1.3183027     E(CORR)=     -419.29251992     Delta=-7.73D-06
 NORM(A)=   0.12395924D+01
 Iteration Nr.  14
 **********************
 DD1Dir will call FoFMem   1 times, MxPair=      1496
 NAB=   506 NAA=   253 NBB=   231.
 DE(Corr)=  -1.3183074     E(CORR)=     -419.29252469     Delta=-4.77D-06
 NORM(A)=   0.12396080D+01
 Iteration Nr.  15
 **********************
 DD1Dir will call FoFMem   1 times, MxPair=      1496
 NAB=   506 NAA=   253 NBB=   231.
 DE(Corr)=  -1.3183102     E(CORR)=     -419.29252745     Delta=-2.76D-06
 NORM(A)=   0.12396158D+01
 Iteration Nr.  16
 **********************
 DD1Dir will call FoFMem   1 times, MxPair=      1496
 NAB=   506 NAA=   253 NBB=   231.
 DE(Corr)=  -1.3183120     E(CORR)=     -419.29252924     Delta=-1.79D-06
 NORM(A)=   0.12396193D+01
 Iteration Nr.  17
 **********************
 DD1Dir will call FoFMem   1 times, MxPair=      1496
 NAB=   506 NAA=   253 NBB=   231.
 DE(Corr)=  -1.3183124     E(CORR)=     -419.29252965     Delta=-4.07D-07
 NORM(A)=   0.12396202D+01
 Iteration Nr.  18
 **********************
 DD1Dir will call FoFMem   1 times, MxPair=      1496
 NAB=   506 NAA=   253 NBB=   231.
 DE(Corr)=  -1.3183127     E(CORR)=     -419.29252990     Delta=-2.46D-07
 NORM(A)=   0.12396203D+01
 Iteration Nr.  19
 **********************
 DD1Dir will call FoFMem   1 times, MxPair=      1496
 NAB=   506 NAA=   253 NBB=   231.
 DE(Corr)=  -1.3183126     E(CORR)=     -419.29252981     Delta= 8.80D-08
 NORM(A)=   0.12396200D+01
 Wavefunction amplitudes converged. E(Corr)=     -419.29252981    
 Largest amplitude= 6.51D-02
 Time for triples=    35551.00 seconds.
 T4(CCSD)= -0.58752157D-01
 T5(CCSD)=  0.43097894D-02
 CCSD(T)= -0.41934697218D+03

 S**2, projected HF & approx projected MPn energies after annihilation of
 unwanted spin states (see manual for definitions):

 spins       (S**2,0) (S**2,1)    PUHF        PMP2        PMP3        PMP4
 annihilated
 s+1         0.71435  0.73543 -417.997992 -419.248381 -419.273884
 s+1,s+2     0.75073  0.74990 -417.995704 -419.246202 -419.271854
 s+1 to s+3  0.74999  0.75000 -417.995762 -419.246245 -419.271873
 s+1 to s+4  0.75000  0.75000 -417.995762 -419.246244 -419.271873
 s+1 to s+5  0.75000  0.75000 -417.995762
 s+1 to s+6  0.75000  0.75000 -417.995762

 Discarding MO integrals.

 **********************************************************************

            Population analysis using the SCF density.

 **********************************************************************

 Orbital symmetries:
 Alpha Orbitals:
       Occupied  (A) (A) (A) (A) (A) (A) (A) (A) (A) (A) (A) (A)
                 (A) (A) (A) (A) (A) (A) (A) (A) (A) (A) (A) (A)
                 (A) (A) (A) (A) (A) (A) (A)
       Virtual   (A) (A) (A) (A) (A) (A) (A) (A) (A) (A) (A) (A)
                 (A) (A) (A) (A) (A) (A) (A) (A) (A) (A) (A) (A)
                 (A) (A) (A) (A) (A) (A) (A) (A) (A) (A) (A) (A)
                 (A) (A) (A) (A) (A) (A) (A) (A) (A) (A) (A) (A)
                 (A) (A) (A) (A) (A) (A) (A) (A) (A) (A) (A) (A)
                 (A) (A) (A) (A) (A) (A) (A) (A) (A) (A) (A) (A)
                 (A) (A) (A) (A) (A) (A) (A) (A) (A) (A) (A) (A)
                 (A) (A) (A) (A) (A) (A) (A) (A) (A) (A) (A) (A)
                 (A) (A) (A) (A) (A) (A) (A) (A) (A) (A) (A) (A)
                 (A) (A) (A) (A) (A) (A) (A) (A) (A) (A) (A) (A)
                 (A) (A) (A) (A) (A) (A) (A) (A) (A) (A) (A) (A)
                 (A) (A) (A) (A) (A) (A) (A) (A) (A) (A) (A) (A)
                 (A) (A) (A) (A) (A) (A) (A) (A) (A) (A) (A) (A)
                 (A) (A) (A) (A) (A) (A) (A) (A) (A) (A) (A) (A)
                 (A) (A) (A) (A) (A) (A) (A) (A) (A) (A) (A) (A)
                 (A) (A) (A) (A) (A) (A) (A) (A) (A) (A) (A) (A)
                 (A) (A)
 Beta  Orbitals:
       Occupied  (A) (A) (A) (A) (A) (A) (A) (A) (A) (A) (A) (A)
                 (A) (A) (A) (A) (A) (A) (A) (A) (A) (A) (A) (A)
                 (A) (A) (A) (A) (A) (A)
       Virtual   (A) (A) (A) (A) (A) (A) (A) (A) (A) (A) (A) (A)
                 (A) (A) (A) (A) (A) (A) (A) (A) (A) (A) (A) (A)
                 (A) (A) (A) (A) (A) (A) (A) (A) (A) (A) (A) (A)
                 (A) (A) (A) (A) (A) (A) (A) (A) (A) (A) (A) (A)
                 (A) (A) (A) (A) (A) (A) (A) (A) (A) (A) (A) (A)
                 (A) (A) (A) (A) (A) (A) (A) (A) (A) (A) (A) (A)
                 (A) (A) (A) (A) (A) (A) (A) (A) (A) (A) (A) (A)
                 (A) (A) (A) (A) (A) (A) (A) (A) (A) (A) (A) (A)
                 (A) (A) (A) (A) (A) (A) (A) (A) (A) (A) (A) (A)
                 (A) (A) (A) (A) (A) (A) (A) (A) (A) (A) (A) (A)
                 (A) (A) (A) (A) (A) (A) (A) (A) (A) (A) (A) (A)
                 (A) (A) (A) (A) (A) (A) (A) (A) (A) (A) (A) (A)
                 (A) (A) (A) (A) (A) (A) (A) (A) (A) (A) (A) (A)
                 (A) (A) (A) (A) (A) (A) (A) (A) (A) (A) (A) (A)
                 (A) (A) (A) (A) (A) (A) (A) (A) (A) (A) (A) (A)
                 (A) (A) (A) (A) (A) (A) (A) (A) (A) (A) (A) (A)
                 (A) (A) (A)
 The electronic state is 2-A.
 Alpha  occ. eigenvalues --  -20.61983 -20.61500 -20.56825 -11.42034 -11.31371
 Alpha  occ. eigenvalues --  -11.27918 -11.27400 -11.24083  -1.48757  -1.39673
 Alpha  occ. eigenvalues --   -1.37162  -1.09186  -1.05876  -0.92028  -0.87940
 Alpha  occ. eigenvalues --   -0.76868  -0.73537  -0.71008  -0.67740  -0.65682
 Alpha  occ. eigenvalues --   -0.64387  -0.64091  -0.59548  -0.56998  -0.55723
 Alpha  occ. eigenvalues --   -0.54483  -0.52028  -0.50311  -0.47829  -0.43918
 Alpha  occ. eigenvalues --   -0.42409
 Alpha virt. eigenvalues --    0.03317   0.04552   0.05216   0.06527   0.07585
 Alpha virt. eigenvalues --    0.07999   0.08142   0.09561   0.11118   0.11758
 Alpha virt. eigenvalues --    0.12826   0.14332   0.14734   0.15432   0.16413
 Alpha virt. eigenvalues --    0.17010   0.17069   0.17664   0.18841   0.19136
 Alpha virt. eigenvalues --    0.19772   0.20421   0.21373   0.21757   0.22244
 Alpha virt. eigenvalues --    0.23102   0.24878   0.26577   0.27870   0.28880
 Alpha virt. eigenvalues --    0.29625   0.30289   0.30989   0.32585   0.33642
 Alpha virt. eigenvalues --    0.34261   0.35551   0.36908   0.37771   0.38382
 Alpha virt. eigenvalues --    0.38858   0.39721   0.40641   0.41063   0.42519
 Alpha virt. eigenvalues --    0.43583   0.44618   0.46508   0.47908   0.49480
 Alpha virt. eigenvalues --    0.50088   0.51291   0.56351   0.59804   0.60577
 Alpha virt. eigenvalues --    0.62684   0.63071   0.65425   0.70786   0.73624
 Alpha virt. eigenvalues --    0.75312   0.77995   0.78365   0.79885   0.81914
 Alpha virt. eigenvalues --    0.83315   0.84931   0.85748   0.86068   0.87663
 Alpha virt. eigenvalues --    0.87906   0.90376   0.93016   0.94116   0.96091
 Alpha virt. eigenvalues --    1.03029   1.04243   1.07965   1.13917   1.15412
 Alpha virt. eigenvalues --    1.17900   1.22488   1.24869   1.26009   1.29282
 Alpha virt. eigenvalues --    1.31169   1.32884   1.36462   1.38671   1.40781
 Alpha virt. eigenvalues --    1.41159   1.43453   1.47378   1.49664   1.51026
 Alpha virt. eigenvalues --    1.53570   1.56211   1.60170   1.61682   1.65071
 Alpha virt. eigenvalues --    1.66035   1.70307   1.71558   1.72363   1.75009
 Alpha virt. eigenvalues --    1.79731   1.81878   1.83025   1.83819   1.87431
 Alpha virt. eigenvalues --    1.90853   1.92881   1.94216   1.95322   1.99817
 Alpha virt. eigenvalues --    2.03303   2.07414   2.08928   2.10437   2.12288
 Alpha virt. eigenvalues --    2.14954   2.21721   2.24547   2.27870   2.31853
 Alpha virt. eigenvalues --    2.37089   2.39483   2.42978   2.48622   2.56284
 Alpha virt. eigenvalues --    2.62190   2.66035   2.67757   2.81143   2.82674
 Alpha virt. eigenvalues --    2.83801   2.87912   2.89904   2.91742   2.94014
 Alpha virt. eigenvalues --    2.94794   2.97363   3.02692   3.04121   3.05982
 Alpha virt. eigenvalues --    3.09288   3.11897   3.14462   3.15446   3.19202
 Alpha virt. eigenvalues --    3.23269   3.26429   3.28412   3.32658   3.33648
 Alpha virt. eigenvalues --    3.42559   3.45308   3.48617   3.50322   3.53839
 Alpha virt. eigenvalues --    3.56810   3.59277   3.65437   3.72905   3.75132
 Alpha virt. eigenvalues --    3.76847   3.92458   3.98492   4.11475   4.20179
 Alpha virt. eigenvalues --    4.21374   4.22773   4.25907   4.41644   4.49634
 Alpha virt. eigenvalues --    4.53255   4.69447   5.50117   5.54432   5.59354
 Alpha virt. eigenvalues --    5.60473   5.72328   5.89436   6.03369   6.16948
 Alpha virt. eigenvalues --    6.46266  24.69239  24.99096  25.00505  25.12557
 Alpha virt. eigenvalues --   26.07384  51.52413  51.59222  51.74501
  Beta  occ. eigenvalues --  -20.62047 -20.57750 -20.56192 -11.42433 -11.31337
  Beta  occ. eigenvalues --  -11.29819 -11.25194 -11.24079  -1.48537  -1.38664
  Beta  occ. eigenvalues --   -1.23648  -1.07111  -1.05827  -0.92443  -0.88199
  Beta  occ. eigenvalues --   -0.76604  -0.73350  -0.70107  -0.67562  -0.63767
  Beta  occ. eigenvalues --   -0.62180  -0.59038  -0.56135  -0.55506  -0.51853
  Beta  occ. eigenvalues --   -0.50951  -0.48466  -0.46581  -0.44767  -0.42922
  Beta virt. eigenvalues --    0.03315   0.04390   0.05220   0.06065   0.07009
  Beta virt. eigenvalues --    0.07482   0.08169   0.08920   0.10027   0.11279
  Beta virt. eigenvalues --    0.11831   0.12921   0.14474   0.14751   0.15392
  Beta virt. eigenvalues --    0.16492   0.16869   0.17038   0.17647   0.19084
  Beta virt. eigenvalues --    0.19199   0.19732   0.20428   0.21532   0.22091
  Beta virt. eigenvalues --    0.22815   0.23813   0.25058   0.26636   0.28246
  Beta virt. eigenvalues --    0.29348   0.30091   0.30676   0.31573   0.32583
  Beta virt. eigenvalues --    0.34282   0.35139   0.36167   0.37093   0.37928
  Beta virt. eigenvalues --    0.38721   0.39767   0.40265   0.40849   0.41407
  Beta virt. eigenvalues --    0.42646   0.43876   0.45065   0.46812   0.48559
  Beta virt. eigenvalues --    0.49803   0.50445   0.51508   0.56453   0.59848
  Beta virt. eigenvalues --    0.60619   0.62791   0.63348   0.66085   0.71003
  Beta virt. eigenvalues --    0.72336   0.75659   0.77458   0.78523   0.80274
  Beta virt. eigenvalues --    0.82330   0.84227   0.85575   0.86145   0.86228
  Beta virt. eigenvalues --    0.87691   0.87991   0.90661   0.92898   0.94897
  Beta virt. eigenvalues --    0.96804   1.02726   1.04355   1.08152   1.13998
  Beta virt. eigenvalues --    1.15983   1.18373   1.22733   1.25343   1.27299
  Beta virt. eigenvalues --    1.30003   1.32457   1.34221   1.38075   1.40989
  Beta virt. eigenvalues --    1.41574   1.42942   1.44752   1.48442   1.49698
  Beta virt. eigenvalues --    1.51941   1.54406   1.55752   1.60286   1.62155
  Beta virt. eigenvalues --    1.65189   1.66007   1.70123   1.71933   1.73832
  Beta virt. eigenvalues --    1.77012   1.79720   1.82792   1.83273   1.83936
  Beta virt. eigenvalues --    1.88339   1.91189   1.93097   1.94426   1.95715
  Beta virt. eigenvalues --    1.99806   2.03398   2.07713   2.08985   2.10949
  Beta virt. eigenvalues --    2.12556   2.15045   2.21994   2.24639   2.28039
  Beta virt. eigenvalues --    2.32063   2.38045   2.39688   2.42968   2.48656
  Beta virt. eigenvalues --    2.56452   2.62210   2.65974   2.68375   2.81156
  Beta virt. eigenvalues --    2.82718   2.83851   2.87983   2.89665   2.91811
  Beta virt. eigenvalues --    2.94180   2.94846   2.97488   3.02267   3.04156
  Beta virt. eigenvalues --    3.06397   3.09352   3.12359   3.18153   3.20824
  Beta virt. eigenvalues --    3.24060   3.24963   3.27630   3.29841   3.34251
  Beta virt. eigenvalues --    3.35086   3.44632   3.45573   3.50416   3.52031
  Beta virt. eigenvalues --    3.57670   3.58851   3.61766   3.65500   3.73068
  Beta virt. eigenvalues --    3.75738   3.77707   3.92261   3.98905   4.11997
  Beta virt. eigenvalues --    4.20200   4.21393   4.22896   4.28900   4.41785
  Beta virt. eigenvalues --    4.49795   4.53490   4.69448   5.52374   5.59192
  Beta virt. eigenvalues --    5.62086   5.66376   5.72912   5.89475   6.05748
  Beta virt. eigenvalues --    6.17150   6.46372  24.69477  24.98960  25.00369
  Beta virt. eigenvalues --   25.12561  26.07389  51.54547  51.59266  51.74790
          Condensed to atoms (all electrons):
               1          2          3          4          5          6
     1  C   19.630304   0.716108  -8.567505  -4.636069   0.038105   0.024082
     2  H    0.716108   0.405070  -0.282785  -0.053979  -0.001568  -0.000560
     3  C   -8.567505  -0.282785  12.617532   1.239652   0.029403  -0.232817
     4  C   -4.636069  -0.053979   1.239652   9.201717   0.226490   0.231907
     5  O    0.038105  -0.001568   0.029403   0.226490   8.115408  -0.058500
     6  O    0.024082  -0.000560  -0.232817   0.231907  -0.058500   8.180689
     7  C   -0.258333  -0.002815   0.088707  -0.090199   0.003195   0.248874
     8  C    0.227869   0.002035   0.020980  -0.155189   0.012792  -0.167382
     9  H   -0.047462  -0.001686   0.005658   0.053720  -0.002387  -0.015939
    10  H   -0.025099  -0.000323  -0.007624   0.009528   0.000373  -0.073798
    11  H    0.038583   0.000582   0.003025  -0.032578   0.000529  -0.008629
    12  H   -0.074772  -0.002569   0.049422   0.023938  -0.002009  -0.006471
    13  H   -0.003926   0.000231   0.003594  -0.009994   0.000544   0.013043
    14  O   -0.159477  -0.026880   0.034488   0.015644  -0.004367  -0.001144
    15  H   -0.087293  -0.000282   0.079086   0.010247   0.012824   0.002465
               7          8          9         10         11         12
     1  C   -0.258333   0.227869  -0.047462  -0.025099   0.038583  -0.074772
     2  H   -0.002815   0.002035  -0.001686  -0.000323   0.000582  -0.002569
     3  C    0.088707   0.020980   0.005658  -0.007624   0.003025   0.049422
     4  C   -0.090199  -0.155189   0.053720   0.009528  -0.032578   0.023938
     5  O    0.003195   0.012792  -0.002387   0.000373   0.000529  -0.002009
     6  O    0.248874  -0.167382  -0.015939  -0.073798  -0.008629  -0.006471
     7  C    5.563845  -0.113515   0.408912   0.473830  -0.061212   0.000708
     8  C   -0.113515   5.481965  -0.048349  -0.074472   0.443664   0.362454
     9  H    0.408912  -0.048349   0.550306  -0.040415   0.003059  -0.006212
    10  H    0.473830  -0.074472  -0.040415   0.541699  -0.009644   0.012729
    11  H   -0.061212   0.443664   0.003059  -0.009644   0.541379  -0.052463
    12  H    0.000708   0.362454  -0.006212   0.012729  -0.052463   0.597976
    13  H   -0.043445   0.415636  -0.006346   0.003175  -0.035957  -0.033314
    14  O   -0.003941   0.002531   0.000318  -0.000178   0.000148  -0.001357
    15  H   -0.001234  -0.000130   0.000776  -0.000166   0.000089   0.000156
              13         14         15
     1  C   -0.003926  -0.159477  -0.087293
     2  H    0.000231  -0.026880  -0.000282
     3  C    0.003594   0.034488   0.079086
     4  C   -0.009994   0.015644   0.010247
     5  O    0.000544  -0.004367   0.012824
     6  O    0.013043  -0.001144   0.002465
     7  C   -0.043445  -0.003941  -0.001234
     8  C    0.415636   0.002531  -0.000130
     9  H   -0.006346   0.000318   0.000776
    10  H    0.003175  -0.000178  -0.000166
    11  H   -0.035957   0.000148   0.000089
    12  H   -0.033314  -0.001357   0.000156
    13  H    0.568288  -0.000075  -0.000131
    14  O   -0.000075   8.075154   0.290559
    15  H   -0.000131   0.290559   0.425663
          Atomic-Atomic Spin Densities.
               1          2          3          4          5          6
     1  C   -0.575545   0.045866  -0.322293  -0.141763  -0.027824   0.012618
     2  H    0.045866   0.058614  -0.031953  -0.003222  -0.000423  -0.000019
     3  C   -0.322293  -0.031953   1.338301   0.171052  -0.016115  -0.028153
     4  C   -0.141763  -0.003222   0.171052  -0.226408  -0.016296   0.069152
     5  O   -0.027824  -0.000423  -0.016115  -0.016296   0.176920   0.004220
     6  O    0.012618  -0.000019  -0.028153   0.069152   0.004220  -0.052859
     7  C    0.011810  -0.001442  -0.014639  -0.010383  -0.001739   0.002100
     8  C   -0.018492   0.000369   0.014738   0.007861   0.002167   0.001041
     9  H    0.016947   0.001145  -0.015148  -0.008486  -0.000302   0.001634
    10  H   -0.001135  -0.000075   0.001615  -0.000786  -0.000097   0.000247
    11  H    0.003201   0.000112  -0.001907  -0.002575  -0.000071   0.000361
    12  H    0.001937  -0.000065  -0.001534  -0.000582  -0.000212  -0.000273
    13  H   -0.001922  -0.000195   0.001865   0.001978   0.000014  -0.000353
    14  O    0.015730   0.008727  -0.030058  -0.006676   0.004415   0.000693
    15  H    0.007592  -0.000310  -0.009258   0.000306  -0.001118  -0.000391
               7          8          9         10         11         12
     1  C    0.011810  -0.018492   0.016947  -0.001135   0.003201   0.001937
     2  H   -0.001442   0.000369   0.001145  -0.000075   0.000112  -0.000065
     3  C   -0.014639   0.014738  -0.015148   0.001615  -0.001907  -0.001534
     4  C   -0.010383   0.007861  -0.008486  -0.000786  -0.002575  -0.000582
     5  O   -0.001739   0.002167  -0.000302  -0.000097  -0.000071  -0.000212
     6  O    0.002100   0.001041   0.001634   0.000247   0.000361  -0.000273
     7  C    0.018401  -0.009374   0.003069  -0.000265   0.000810   0.002397
     8  C   -0.009374   0.012860  -0.001380   0.001082  -0.001439  -0.002278
     9  H    0.003069  -0.001380   0.000526  -0.001013   0.000052  -0.000271
    10  H   -0.000265   0.001082  -0.001013   0.001383  -0.000321  -0.000029
    11  H    0.000810  -0.001439   0.000052  -0.000321   0.000244   0.000174
    12  H    0.002397  -0.002278  -0.000271  -0.000029   0.000174   0.000071
    13  H   -0.002235   0.001632   0.000324  -0.000122   0.000253  -0.000327
    14  O    0.002448   0.000827  -0.001007   0.000114  -0.000158   0.000117
    15  H   -0.000256  -0.000200  -0.000079  -0.000028   0.000018  -0.000028
              13         14         15
     1  C   -0.001922   0.015730   0.007592
     2  H   -0.000195   0.008727  -0.000310
     3  C    0.001865  -0.030058  -0.009258
     4  C    0.001978  -0.006676   0.000306
     5  O    0.000014   0.004415  -0.001118
     6  O   -0.000353   0.000693  -0.000391
     7  C   -0.002235   0.002448  -0.000256
     8  C    0.001632   0.000827  -0.000200
     9  H    0.000324  -0.001007  -0.000079
    10  H   -0.000122   0.000114  -0.000028
    11  H    0.000253  -0.000158   0.000018
    12  H   -0.000327   0.000117  -0.000028
    13  H   -0.000161   0.000122   0.000015
    14  O    0.000122   0.897521   0.006640
    15  H    0.000015   0.006640  -0.034884
 Mulliken charges and spin densities:
               1          2
     1  C   -0.815116  -0.973273
     2  H    0.249421   0.077129
     3  C    0.919183   1.056512
     4  C   -0.034834  -0.166829
     5  O   -0.370834   0.123539
     6  O   -0.135822   0.010016
     7  C   -0.213378   0.000701
     8  C   -0.410889   0.009412
     9  H    0.146045  -0.003989
    10  H    0.190388   0.000569
    11  H    0.169425  -0.001244
    12  H    0.131784  -0.000902
    13  H    0.128678   0.000888
    14  O   -0.221423   0.899454
    15  H    0.267373  -0.031982
 Sum of Mulliken charges =  -0.00000   1.00000
 Mulliken charges and spin densities with hydrogens summed into heavy atoms:
               1          2
     1  C   -0.565695  -0.896145
     3  C    0.919183   1.056512
     4  C   -0.034834  -0.166829
     5  O   -0.370834   0.123539
     6  O   -0.135822   0.010016
     7  C    0.123054  -0.002720
     8  C    0.018997   0.008154
    14  O    0.045950   0.867472
 Electronic spatial extent (au):  <R**2>=           1182.0909
 Charge=             -0.0000 electrons
 Dipole moment (field-independent basis, Debye):
    X=              2.7369    Y=             -3.6064    Z=             -0.9758  Tot=              4.6313
 Quadrupole moment (field-independent basis, Debye-Ang):
   XX=            -47.1996   YY=            -50.3267   ZZ=            -47.3300
   XY=             -1.4346   XZ=              0.0331   YZ=              0.7698
 Traceless Quadrupole moment (field-independent basis, Debye-Ang):
   XX=              1.0858   YY=             -2.0413   ZZ=              0.9554
   XY=             -1.4346   XZ=              0.0331   YZ=              0.7698
 Octapole moment (field-independent basis, Debye-Ang**2):
  XXX=             27.8448  YYY=            -17.0858  ZZZ=              1.3389  XYY=            -10.0388
  XXY=              3.7608  XXZ=             -2.3718  XZZ=              1.5552  YZZ=              3.7658
  YYZ=             -4.2803  XYZ=             -3.4206
 Hexadecapole moment (field-independent basis, Debye-Ang**3):
 XXXX=          -1062.7560 YYYY=           -350.5309 ZZZZ=           -117.8531 XXXY=            -36.4525
 XXXZ=            -15.4875 YYYX=             29.9149 YYYZ=              3.4246 ZZZX=             -6.7835
 ZZZY=              0.9402 XXYY=           -207.2947 XXZZ=           -190.3974 YYZZ=            -77.6943
 XXYZ=             13.9202 YYXZ=              5.2308 ZZXY=              0.5502
 N-N= 3.536620635027D+02 E-N=-1.689980759890D+03  KE= 4.177418277020D+02
 1\1\GINC-AJ\SP\UCCSD(T)-FC\6-311++G(d,p)\C5H7O3(2)\AAYUSH\13-May-2025\
 0\\# ccsd(t)/6-311++g(d,p) sp\\Title Card Required\\0,2\C,0,-1.4599679
 9,-1.35617604,-0.35646973\H,0,-1.96740599,-2.28168804,-0.51462673\C,0,
 -0.59463599,-0.50059004,-0.29781773\C,0,0.03937801,0.79785696,-0.05949
 773\O,0,-0.63114199,1.73463196,0.27212227\O,0,1.35309501,0.89481396,-0
 .23446573\C,0,2.13031501,-0.28124504,-0.52603073\C,0,2.46305801,-1.040
 12204,0.74268827\H,0,1.59228201,-0.90463504,-1.24470273\H,0,3.02636501
 ,0.10596496,-1.00797173\H,0,2.97858001,-0.38803104,1.44877927\H,0,1.55
 878201,-1.42710304,1.21627927\H,0,3.11379301,-1.88463504,0.50775927\O,
 0,-3.12953799,-0.44526604,0.28359127\H,0,-2.78983099,0.45714796,0.4152
 6127\\Version=ES64L-G16RevA.03\State=2-A\HF=-417.9742172\MP2=-419.2274
 198\MP3=-419.2578325\MP4D=-419.2880608\MP4DQ=-419.2634382\PUHF=-417.99
 7992\PMP2-0=-419.2483806\PMP3-0=-419.2738842\MP4SDQ=-419.2852154\CCSD=
 -419.2925298\CCSD(T)=-419.3469722\S2=1.049943\S2-1=0.9705\S2A=0.810655
 \RMSD=9.725e-09\PG=C01 [X(C5H7O3)]\\@


 CONFIDENCE IS WHAT YOU FEEL BEFORE YOU FULLY
 COMPREHEND THE SITUATION.
 Job cpu time:       0 days 16 hours 59 minutes 40.1 seconds.
 Elapsed time:       0 days  0 hours 42 minutes 40.6 seconds.
 File lengths (MBytes):  RWF=  44733 Int=      0 D2E=      0 Chk=      6 Scr=      1
 Normal termination of Gaussian 16 at Tue May 13 15:31:52 2025.
