 Entering Gaussian System, Link 0=g16
 Initial command:
 /opt/g16/l1.exe "/home/aayush/scratches/g16/Gau-7465.inp" -scrdir="/home/aayush/scratches/g16/"
 Entering Link 1 = /opt/g16/l1.exe PID=      7468.
  
 Copyright (c) 1988,1990,1992,1993,1995,1998,2003,2009,2016,
            Gaussian, Inc.  All Rights Reserved.
  
 This is part of the Gaussian(R) 16 program.  It is based on
 the Gaussian(R) 09 system (copyright 2009, Gaussian, Inc.),
 the Gaussian(R) 03 system (copyright 2003, Gaussian, Inc.),
 the Gaussian(R) 98 system (copyright 1998, Gaussian, Inc.),
 the Gaussian(R) 94 system (copyright 1995, Gaussian, Inc.),
 the Gaussian 92(TM) system (copyright 1992, Gaussian, Inc.),
 the Gaussian 90(TM) system (copyright 1990, Gaussian, Inc.),
 the Gaussian 88(TM) system (copyright 1988, Gaussian, Inc.),
 the Gaussian 86(TM) system (copyright 1986, Carnegie Mellon
 University), and the Gaussian 82(TM) system (copyright 1983,
 Carnegie Mellon University). Gaussian is a federally registered
 trademark of Gaussian, Inc.
  
 This software contains proprietary and confidential information,
 including trade secrets, belonging to Gaussian, Inc.
  
 This software is provided under written license and may be
 used, copied, transmitted, or stored only in accord with that
 written license.
  
 The following legend is applicable only to US Government
 contracts under FAR:
  
                    RESTRICTED RIGHTS LEGEND
  
 Use, reproduction and disclosure by the US Government is
 subject to restrictions as set forth in subparagraphs (a)
 and (c) of the Commercial Computer Software - Restricted
 Rights clause in FAR 52.227-19.
  
 Gaussian, Inc.
 340 Quinnipiac St., Bldg. 40, Wallingford CT 06492
  
  
 ---------------------------------------------------------------
 Warning -- This program may not be used in any manner that
 competes with the business of Gaussian, Inc. or will provide
 assistance to any competitor of Gaussian, Inc.  The licensee
 of this program is prohibited from giving any competitor of
 Gaussian, Inc. access to this program.  By using this program,
 the user acknowledges that Gaussian, Inc. is engaged in the
 business of creating and licensing software in the field of
 computational chemistry and represents and warrants to the
 licensee that it is not a competitor of Gaussian, Inc. and that
 it will not use this program in any manner prohibited above.
 ---------------------------------------------------------------
  

 Cite this work as:
 Gaussian 16, Revision A.03,
 M. J. Frisch, G. W. Trucks, H. B. Schlegel, G. E. Scuseria, 
 M. A. Robb, J. R. Cheeseman, G. Scalmani, V. Barone, 
 G. A. Petersson, H. Nakatsuji, X. Li, M. Caricato, A. V. Marenich, 
 J. Bloino, B. G. Janesko, R. Gomperts, B. Mennucci, H. P. Hratchian, 
 J. V. Ortiz, A. F. Izmaylov, J. L. Sonnenberg, D. Williams-Young, 
 F. Ding, F. Lipparini, F. Egidi, J. Goings, B. Peng, A. Petrone, 
 T. Henderson, D. Ranasinghe, V. G. Zakrzewski, J. Gao, N. Rega, 
 G. Zheng, W. Liang, M. Hada, M. Ehara, K. Toyota, R. Fukuda, 
 J. Hasegawa, M. Ishida, T. Nakajima, Y. Honda, O. Kitao, H. Nakai, 
 T. Vreven, K. Throssell, J. A. Montgomery, Jr., J. E. Peralta, 
 F. Ogliaro, M. J. Bearpark, J. J. Heyd, E. N. Brothers, K. N. Kudin, 
 V. N. Staroverov, T. A. Keith, R. Kobayashi, J. Normand, 
 K. Raghavachari, A. P. Rendell, J. C. Burant, S. S. Iyengar, 
 J. Tomasi, M. Cossi, J. M. Millam, M. Klene, C. Adamo, R. Cammi, 
 J. W. Ochterski, R. L. Martin, K. Morokuma, O. Farkas, 
 J. B. Foresman, and D. J. Fox, Gaussian, Inc., Wallingford CT, 2016.
 
 ******************************************
 Gaussian 16:  ES64L-G16RevA.03 25-Dec-2016
                13-May-2025 
 ******************************************
 %chk=ethyl_propiolate.chk
 %nprocshared=24
 Will use up to   24 processors via shared memory.
 %mem=12GB
 --------------------------
 # ccsd(t)/6-311++g(d,p) sp
 --------------------------
 1/38=1,172=1/1;
 2/12=2,17=6,18=5,40=1/2;
 3/5=4,6=6,7=1111,11=9,25=1,30=1/1,2,3;
 4//1;
 5/5=2,38=5/2;
 8/6=4,9=120000,10=2/1,4;
 9/5=7,14=2/13;
 6/7=2,8=2,9=2,10=2/1;
 99/5=1,9=1/99;
 -------------------
 Title Card Required
 -------------------
 Symbolic Z-matrix:
 Charge =  0 Multiplicity = 2
 C                    -1.61168  -1.26108  -0.2948 
 H                    -1.89179  -2.2766   -0.52928 
 C                    -0.5717   -0.51499  -0.30766 
 C                     0.03716   0.79566  -0.05938 
 O                    -0.63306   1.73394   0.27198 
 O                     1.35331   0.89533  -0.23417 
 C                     2.13076  -0.28031  -0.5257 
 C                     2.46313  -1.04026   0.74267 
 H                     1.59505  -0.90396  -1.24637 
 H                     3.02732   0.10676  -1.00705 
 H                     2.97812  -0.38807   1.44905 
 H                     1.55888  -1.42672   1.21699 
 H                     3.11416  -1.88472   0.50826 
 O                    -3.03763  -0.50211   0.24638 
 H                    -2.74676   0.41095   0.39495 
 
                          Input orientation:                          
 ---------------------------------------------------------------------
 Center     Atomic      Atomic             Coordinates (Angstroms)
 Number     Number       Type             X           Y           Z
 ---------------------------------------------------------------------
      1          6           0       -1.611681   -1.261084   -0.294804
      2          1           0       -1.891787   -2.276599   -0.529277
      3          6           0       -0.571702   -0.514987   -0.307662
      4          6           0        0.037156    0.795657   -0.059375
      5          8           0       -0.633062    1.733936    0.271978
      6          8           0        1.353308    0.895333   -0.234166
      7          6           0        2.130759   -0.280310   -0.525696
      8          6           0        2.463134   -1.040258    0.742671
      9          1           0        1.595051   -0.903957   -1.246366
     10          1           0        3.027316    0.106761   -1.007054
     11          1           0        2.978121   -0.388069    1.449046
     12          1           0        1.558878   -1.426721    1.216988
     13          1           0        3.114159   -1.884719    0.508258
     14          8           0       -3.037635   -0.502105    0.246380
     15          1           0       -2.746761    0.410952    0.394954
 ---------------------------------------------------------------------
                    Distance matrix (angstroms):
                    1          2          3          4          5
     1  C    0.000000
     2  H    1.079216   0.000000
     3  C    1.279993   2.212468   0.000000
     4  C    2.646559   3.657921   1.466336   0.000000
     5  O    3.201419   4.279111   2.323231   1.199731   0.000000
     6  O    3.666738   4.547404   2.387481   1.331444   2.214747
     7  C    3.875705   4.490664   2.721380   2.399653   3.511720
     8  C    4.210610   4.702311   3.254126   3.146304   4.183794
     9  H    3.363947   3.815285   2.393174   2.593197   3.772047
    10  H    4.888619   5.486916   3.718689   3.211500   4.204996
    11  H    4.986928   5.585366   3.962748   3.510814   4.350751
    12  H    3.516446   3.959649   2.774020   2.980554   3.960732
    13  H    4.833983   5.127333   4.015901   4.120021   5.214610
    14  O    1.703606   2.250209   2.527440   3.351419   3.283673
    15  H    2.135387   2.967847   2.466154   2.846859   2.496624
                    6          7          8          9         10
     6  O    0.000000
     7  C    1.439290   0.000000
     8  C    2.435659   1.515503   0.000000
     9  H    2.078565   1.093290   2.174492   0.000000
    10  H    2.005369   1.088735   2.166908   1.769238   0.000000
    11  H    2.668397   2.151567   1.090655   3.073153   2.505934
    12  H    2.745914   2.162927   1.091792   2.518472   3.074775
    13  H    3.373497   2.147153   1.091741   2.519581   2.503938
    14  O    4.632941   5.230448   5.549268   4.883805   6.222977
    15  H    4.176240   5.011551   5.419403   4.824339   5.949632
                   11         12         13         14         15
    11  H    0.000000
    12  H    1.773950   0.000000
    13  H    1.773006   1.769452   0.000000
    14  O    6.135856   4.787998   6.310687   0.000000
    15  H    5.875697   4.753032   6.295500   0.969719   0.000000
 Stoichiometry    C5H7O3(2)
 Framework group  C1[X(C5H7O3)]
 Deg. of freedom    39
 Full point group                 C1      NOp   1
 Largest Abelian subgroup         C1      NOp   1
 Largest concise Abelian subgroup C1      NOp   1
                         Standard orientation:                         
 ---------------------------------------------------------------------
 Center     Atomic      Atomic             Coordinates (Angstroms)
 Number     Number       Type             X           Y           Z
 ---------------------------------------------------------------------
      1          6           0       -1.685371   -1.191417   -0.307730
      2          1           0       -1.975266   -2.201677   -0.552768
      3          6           0       -0.639058   -0.454170   -0.316586
      4          6           0       -0.017818    0.848206   -0.055778
      5          8           0       -0.678441    1.788256    0.289529
      6          8           0        1.298359    0.938627   -0.235346
      7          6           0        2.064337   -0.240149   -0.544089
      8          6           0        2.395747   -1.017718    0.713808
      9          1           0        1.520084   -0.850697   -1.269556
     10          1           0        2.962064    0.144825   -1.024948
     11          1           0        2.919463   -0.378285    1.425408
     12          1           0        1.490296   -1.401936    1.187668
     13          1           0        3.038416   -1.864931    0.466614
     14          8           0       -3.102313   -0.426621    0.248718
     15          1           0       -2.802915    0.482105    0.406619
 ---------------------------------------------------------------------
 Rotational constants (GHZ):           3.5463758           1.2258565           0.9897543
 Standard basis: 6-311++G(d,p) (5D, 7F)
 There are   233 symmetry adapted cartesian basis functions of A   symmetry.
 There are   225 symmetry adapted basis functions of A   symmetry.
   225 basis functions,   351 primitive gaussians,   233 cartesian basis functions
    31 alpha electrons       30 beta electrons
       nuclear repulsion energy       355.9685429160 Hartrees.
 NAtoms=   15 NActive=   15 NUniq=   15 SFac= 1.00D+00 NAtFMM=   60 NAOKFM=F Big=F
 Integral buffers will be    131072 words long.
 Raffenetti 2 integral format.
 Two-electron integral symmetry is turned on.
 One-electron integrals computed using PRISM.
 NBasis=   225 RedAO= T EigKep=  6.44D-06  NBF=   225
 NBsUse=   225 1.00D-06 EigRej= -1.00D+00 NBFU=   225
 ExpMin= 3.60D-02 ExpMax= 8.59D+03 ExpMxC= 1.30D+03 IAcc=3 IRadAn=         5 AccDes= 0.00D+00
 Harris functional with IExCor=  205 and IRadAn=       5 diagonalized for initial guess.
 HarFok:  IExCor=  205 AccDes= 0.00D+00 IRadAn=         5 IDoV= 1 UseB2=F ITyADJ=14
 ICtDFT=  3500011 ScaDFX=  1.000000  1.000000  1.000000  1.000000
 FoFCou: FMM=F IPFlag=           0 FMFlag=      100000 FMFlg1=           0
         NFxFlg=           0 DoJE=T BraDBF=F KetDBF=T FulRan=T
         wScrn=  0.000000 ICntrl=       500 IOpCl=  0 I1Cent=   200000004 NGrid=           0
         NMat0=    1 NMatS0=      1 NMatT0=    0 NMatD0=    1 NMtDS0=    0 NMtDT0=    0
 Petite list used in FoFCou.
 Initial guess <Sx>= 0.0000 <Sy>= 0.0000 <Sz>= 0.5000 <S**2>= 0.7500 S= 0.5000
 Requested convergence on RMS density matrix=1.00D-08 within 128 cycles.
 Requested convergence on MAX density matrix=1.00D-06.
 Requested convergence on             energy=1.00D-06.
 No special actions if energy rises.
 Initial convergence to 1.0D-05 achieved.  Increase integral accuracy.
 SCF Done:  E(UHF) =  -417.987085275     A.U. after   31 cycles
            NFock= 31  Conv=0.30D-08     -V/T= 2.0012
 <Sx>= 0.0000 <Sy>= 0.0000 <Sz>= 0.5000 <S**2>= 1.1085 S= 0.6655
 <L.S>=  0.00000000000    
 Annihilation of the first spin contaminant:
 S**2 before annihilation     1.1085,   after     0.8401
 ExpMin= 3.60D-02 ExpMax= 8.59D+03 ExpMxC= 1.30D+03 IAcc=3 IRadAn=         5 AccDes= 0.00D+00
 HarFok:  IExCor=  205 AccDes= 0.00D+00 IRadAn=         5 IDoV=-2 UseB2=F ITyADJ=14
 ICtDFT= 12500011 ScaDFX=  1.000000  1.000000  1.000000  1.000000
 Range of M.O.s used for correlation:     9   225
 NBasis=   225 NAE=    31 NBE=    30 NFC=     8 NFV=     0
 NROrb=    217 NOA=    23 NOB=    22 NVA=   194 NVB=   195

 **** Warning!!: The largest alpha MO coefficient is  0.12977015D+03


 **** Warning!!: The largest beta MO coefficient is  0.12180410D+03

 Semi-Direct transformation.
 ModeAB=           4 MOrb=            23 LenV=    1609174095
 LASXX=    109339976 LTotXX=   109339976 LenRXX=   221407890
 LTotAB=   112067914 MaxLAS=   128443385 LenRXY=           0
 NonZer=   330747866 LenScr=   498067456 LnRSAI=   128443385
 LnScr1=   193421312 LExtra=           0 Total=   1041340043
 MaxDsk=          -1 SrtSym=           T ITran=            4
 JobTyp=1 Pass  1:  I=   1 to  23.
 (rs|ai) integrals will be sorted in core.
 ModeAB=           4 MOrb=            22 LenV=    1609174095
 LASXX=    104936601 LTotXX=   104936601 LenRXX=   190867446
 LTotAB=    85930845 MaxLAS=   122858890 LenRXY=           0
 NonZer=   295804047 LenScr=   445446144 LnRSAI=   122858890
 LnScr1=   185057280 LExtra=           0 Total=    944229760
 MaxDsk=          -1 SrtSym=           T ITran=            4
 JobTyp=2 Pass  1:  I=   1 to  22.
 (rs|ai) integrals will be sorted in core.
 SymMOI:  orbitals are not symmetric.
 Spin components of T(2) and E(2):
     alpha-alpha T2 =       0.5095630076D-01 E2=     -0.1687998267D+00
     alpha-beta  T2 =       0.2801793005D+00 E2=     -0.9314761190D+00
     beta-beta   T2 =       0.5146660349D-01 E2=     -0.1620843192D+00
 ANorm=    0.1175841063D+01
 E2 =    -0.1262360265D+01 EUMP2 =    -0.41924944554010D+03
 (S**2,0)=  0.11085D+01           (S**2,1)=  0.10172D+01
 E(PUHF)=      -0.41801479734D+03        E(PMP2)=      -0.41927408278D+03
 Keep R2 and R3 ints in memory in canonical form, NReq=652884060.
 CIDS: In Core Option IDoMem=           1.
 Iterations=  50 Convergence= 0.100D-06
 Produce multiple copies of IABC intergrals
 Iteration Nr.   1
 **********************
 DD1Dir will call FoFMem   1 times, MxPair=      1496
 NAB=   506 NAA=   253 NBB=   231.
 E(PMP3)=      -0.41929730422D+03
 MP4(R+Q)=  0.24544693D-01
 E3=       -0.28363037D-01        EUMP3=      -0.41927780858D+03
 E4(DQ)=   -0.64027030D-02        UMP4(DQ)=   -0.41928421128D+03
 E4(SDQ)=  -0.29439965D-01        UMP4(SDQ)=  -0.41930724854D+03
 DE(Corr)=  -1.2659179     E(Corr)=     -419.25300313    
 NORM(A)=   0.11868043D+01
 Iteration Nr.   2
 **********************
 DD1Dir will call FoFMem   1 times, MxPair=      1496
 NAB=   506 NAA=   253 NBB=   231.
 DE(Corr)=  -1.3113352     E(CORR)=     -419.29842046     Delta=-4.54D-02
 NORM(A)=   0.12102199D+01
 Iteration Nr.   3
 **********************
 DD1Dir will call FoFMem   1 times, MxPair=      1496
 NAB=   506 NAA=   253 NBB=   231.
 DE(Corr)=  -1.3150652     E(CORR)=     -419.30215047     Delta=-3.73D-03
 NORM(A)=   0.12261555D+01
 Iteration Nr.   4
 **********************
 DD1Dir will call FoFMem   1 times, MxPair=      1496
 NAB=   506 NAA=   253 NBB=   231.
 DE(Corr)=  -1.3240284     E(CORR)=     -419.31111369     Delta=-8.96D-03
 NORM(A)=   0.12374481D+01
 Iteration Nr.   5
 **********************
 DD1Dir will call FoFMem   1 times, MxPair=      1496
 NAB=   506 NAA=   253 NBB=   231.
 DE(Corr)=  -1.3269927     E(CORR)=     -419.31407802     Delta=-2.96D-03
 NORM(A)=   0.12437973D+01
 Iteration Nr.   6
 **********************
 DD1Dir will call FoFMem   1 times, MxPair=      1496
 NAB=   506 NAA=   253 NBB=   231.
 DE(Corr)=  -1.3279992     E(CORR)=     -419.31508447     Delta=-1.01D-03
 NORM(A)=   0.12450282D+01
 Iteration Nr.   7
 **********************
 DD1Dir will call FoFMem   1 times, MxPair=      1496
 NAB=   506 NAA=   253 NBB=   231.
 DE(Corr)=  -1.3281749     E(CORR)=     -419.31526016     Delta=-1.76D-04
 NORM(A)=   0.12454471D+01
 Iteration Nr.   8
 **********************
 DD1Dir will call FoFMem   1 times, MxPair=      1496
 NAB=   506 NAA=   253 NBB=   231.
 DE(Corr)=  -1.3281594     E(CORR)=     -419.31524466     Delta= 1.55D-05
 NORM(A)=   0.12455897D+01
 Iteration Nr.   9
 **********************
 DD1Dir will call FoFMem   1 times, MxPair=      1496
 NAB=   506 NAA=   253 NBB=   231.
 DE(Corr)=  -1.3281903     E(CORR)=     -419.31527562     Delta=-3.10D-05
 NORM(A)=   0.12456255D+01
 Iteration Nr.  10
 **********************
 DD1Dir will call FoFMem   1 times, MxPair=      1496
 NAB=   506 NAA=   253 NBB=   231.
 DE(Corr)=  -1.3281906     E(CORR)=     -419.31527592     Delta=-3.05D-07
 NORM(A)=   0.12456657D+01
 Iteration Nr.  11
 **********************
 DD1Dir will call FoFMem   1 times, MxPair=      1496
 NAB=   506 NAA=   253 NBB=   231.
 DE(Corr)=  -1.3282088     E(CORR)=     -419.31529406     Delta=-1.81D-05
 NORM(A)=   0.12457057D+01
 Iteration Nr.  12
 **********************
 DD1Dir will call FoFMem   1 times, MxPair=      1496
 NAB=   506 NAA=   253 NBB=   231.
 DE(Corr)=  -1.3282178     E(CORR)=     -419.31530312     Delta=-9.06D-06
 NORM(A)=   0.12457456D+01
 Iteration Nr.  13
 **********************
 DD1Dir will call FoFMem   1 times, MxPair=      1496
 NAB=   506 NAA=   253 NBB=   231.
 DE(Corr)=  -1.3282272     E(CORR)=     -419.31531252     Delta=-9.41D-06
 NORM(A)=   0.12457754D+01
 Iteration Nr.  14
 **********************
 DD1Dir will call FoFMem   1 times, MxPair=      1496
 NAB=   506 NAA=   253 NBB=   231.
 DE(Corr)=  -1.3282338     E(CORR)=     -419.31531905     Delta=-6.52D-06
 NORM(A)=   0.12457956D+01
 Iteration Nr.  15
 **********************
 DD1Dir will call FoFMem   1 times, MxPair=      1496
 NAB=   506 NAA=   253 NBB=   231.
 DE(Corr)=  -1.3282373     E(CORR)=     -419.31532254     Delta=-3.49D-06
 NORM(A)=   0.12458059D+01
 Iteration Nr.  16
 **********************
 DD1Dir will call FoFMem   1 times, MxPair=      1496
 NAB=   506 NAA=   253 NBB=   231.
 DE(Corr)=  -1.3282392     E(CORR)=     -419.31532451     Delta=-1.97D-06
 NORM(A)=   0.12458099D+01
 Iteration Nr.  17
 **********************
 DD1Dir will call FoFMem   1 times, MxPair=      1496
 NAB=   506 NAA=   253 NBB=   231.
 DE(Corr)=  -1.3282396     E(CORR)=     -419.31532491     Delta=-4.05D-07
 NORM(A)=   0.12458109D+01
 Iteration Nr.  18
 **********************
 DD1Dir will call FoFMem   1 times, MxPair=      1496
 NAB=   506 NAA=   253 NBB=   231.
 DE(Corr)=  -1.3282397     E(CORR)=     -419.31532498     Delta=-6.99D-08
 NORM(A)=   0.12458110D+01
 Wavefunction amplitudes converged. E(Corr)=     -419.31532498    
 Largest amplitude= 8.91D-02
 Time for triples=    35436.34 seconds.
 T4(CCSD)= -0.60285564D-01
 T5(CCSD)=  0.46390173D-02
 CCSD(T)= -0.41937097153D+03

 S**2, projected HF & approx projected MPn energies after annihilation of
 unwanted spin states (see manual for definitions):

 spins       (S**2,0) (S**2,1)    PUHF        PMP2        PMP3        PMP4
 annihilated
 s+1         0.69724  0.72972 -418.014797 -419.274083 -419.297304
 s+1,s+2     0.75141  0.74983 -418.011331 -419.270820 -419.294325
 s+1 to s+3  0.74999  0.75001 -418.011432 -419.270895 -419.294360
 s+1 to s+4  0.75000  0.75000 -418.011431 -419.270894 -419.294359
 s+1 to s+5  0.75000  0.75000 -418.011431
 s+1 to s+6  0.75000  0.75000 -418.011431

 Discarding MO integrals.

 **********************************************************************

            Population analysis using the SCF density.

 **********************************************************************

 Orbital symmetries:
 Alpha Orbitals:
       Occupied  (A) (A) (A) (A) (A) (A) (A) (A) (A) (A) (A) (A)
                 (A) (A) (A) (A) (A) (A) (A) (A) (A) (A) (A) (A)
                 (A) (A) (A) (A) (A) (A) (A)
       Virtual   (A) (A) (A) (A) (A) (A) (A) (A) (A) (A) (A) (A)
                 (A) (A) (A) (A) (A) (A) (A) (A) (A) (A) (A) (A)
                 (A) (A) (A) (A) (A) (A) (A) (A) (A) (A) (A) (A)
                 (A) (A) (A) (A) (A) (A) (A) (A) (A) (A) (A) (A)
                 (A) (A) (A) (A) (A) (A) (A) (A) (A) (A) (A) (A)
                 (A) (A) (A) (A) (A) (A) (A) (A) (A) (A) (A) (A)
                 (A) (A) (A) (A) (A) (A) (A) (A) (A) (A) (A) (A)
                 (A) (A) (A) (A) (A) (A) (A) (A) (A) (A) (A) (A)
                 (A) (A) (A) (A) (A) (A) (A) (A) (A) (A) (A) (A)
                 (A) (A) (A) (A) (A) (A) (A) (A) (A) (A) (A) (A)
                 (A) (A) (A) (A) (A) (A) (A) (A) (A) (A) (A) (A)
                 (A) (A) (A) (A) (A) (A) (A) (A) (A) (A) (A) (A)
                 (A) (A) (A) (A) (A) (A) (A) (A) (A) (A) (A) (A)
                 (A) (A) (A) (A) (A) (A) (A) (A) (A) (A) (A) (A)
                 (A) (A) (A) (A) (A) (A) (A) (A) (A) (A) (A) (A)
                 (A) (A) (A) (A) (A) (A) (A) (A) (A) (A) (A) (A)
                 (A) (A)
 Beta  Orbitals:
       Occupied  (A) (A) (A) (A) (A) (A) (A) (A) (A) (A) (A) (A)
                 (A) (A) (A) (A) (A) (A) (A) (A) (A) (A) (A) (A)
                 (A) (A) (A) (A) (A) (A)
       Virtual   (A) (A) (A) (A) (A) (A) (A) (A) (A) (A) (A) (A)
                 (A) (A) (A) (A) (A) (A) (A) (A) (A) (A) (A) (A)
                 (A) (A) (A) (A) (A) (A) (A) (A) (A) (A) (A) (A)
                 (A) (A) (A) (A) (A) (A) (A) (A) (A) (A) (A) (A)
                 (A) (A) (A) (A) (A) (A) (A) (A) (A) (A) (A) (A)
                 (A) (A) (A) (A) (A) (A) (A) (A) (A) (A) (A) (A)
                 (A) (A) (A) (A) (A) (A) (A) (A) (A) (A) (A) (A)
                 (A) (A) (A) (A) (A) (A) (A) (A) (A) (A) (A) (A)
                 (A) (A) (A) (A) (A) (A) (A) (A) (A) (A) (A) (A)
                 (A) (A) (A) (A) (A) (A) (A) (A) (A) (A) (A) (A)
                 (A) (A) (A) (A) (A) (A) (A) (A) (A) (A) (A) (A)
                 (A) (A) (A) (A) (A) (A) (A) (A) (A) (A) (A) (A)
                 (A) (A) (A) (A) (A) (A) (A) (A) (A) (A) (A) (A)
                 (A) (A) (A) (A) (A) (A) (A) (A) (A) (A) (A) (A)
                 (A) (A) (A) (A) (A) (A) (A) (A) (A) (A) (A) (A)
                 (A) (A) (A) (A) (A) (A) (A) (A) (A) (A) (A) (A)
                 (A) (A) (A)
 The electronic state is 2-A.
 Alpha  occ. eigenvalues --  -20.62067 -20.59718 -20.57270 -11.41870 -11.31893
 Alpha  occ. eigenvalues --  -11.31713 -11.29493 -11.24413  -1.48915  -1.40010
 Alpha  occ. eigenvalues --   -1.34804  -1.10505  -1.06167  -0.92355  -0.88580
 Alpha  occ. eigenvalues --   -0.77488  -0.73085  -0.71642  -0.68002  -0.64526
 Alpha  occ. eigenvalues --   -0.63669  -0.61842  -0.59919  -0.57378  -0.56007
 Alpha  occ. eigenvalues --   -0.53066  -0.52329  -0.51071  -0.48216  -0.44304
 Alpha  occ. eigenvalues --   -0.42927
 Alpha virt. eigenvalues --    0.03128   0.04570   0.04990   0.06498   0.07497
 Alpha virt. eigenvalues --    0.07888   0.08212   0.09522   0.11006   0.11795
 Alpha virt. eigenvalues --    0.12739   0.13930   0.14461   0.15549   0.16023
 Alpha virt. eigenvalues --    0.16817   0.17132   0.17671   0.18880   0.19033
 Alpha virt. eigenvalues --    0.19921   0.20275   0.20645   0.21696   0.22589
 Alpha virt. eigenvalues --    0.23851   0.24956   0.26317   0.27431   0.28144
 Alpha virt. eigenvalues --    0.30261   0.30641   0.31021   0.32451   0.32928
 Alpha virt. eigenvalues --    0.34618   0.36002   0.36902   0.38187   0.38373
 Alpha virt. eigenvalues --    0.39401   0.40392   0.40569   0.41130   0.42412
 Alpha virt. eigenvalues --    0.43687   0.44797   0.46098   0.48443   0.49597
 Alpha virt. eigenvalues --    0.49999   0.50848   0.55798   0.59018   0.59770
 Alpha virt. eigenvalues --    0.61261   0.62563   0.65158   0.70767   0.73643
 Alpha virt. eigenvalues --    0.74824   0.75733   0.77560   0.78296   0.80776
 Alpha virt. eigenvalues --    0.82549   0.85312   0.85566   0.86810   0.86934
 Alpha virt. eigenvalues --    0.87396   0.89986   0.92563   0.93892   0.95524
 Alpha virt. eigenvalues --    1.00111   1.04134   1.07784   1.09070   1.14526
 Alpha virt. eigenvalues --    1.15773   1.22552   1.22995   1.25495   1.26774
 Alpha virt. eigenvalues --    1.31098   1.34947   1.36708   1.38387   1.39272
 Alpha virt. eigenvalues --    1.40886   1.42745   1.46983   1.49864   1.51573
 Alpha virt. eigenvalues --    1.53628   1.58837   1.59782   1.62524   1.65905
 Alpha virt. eigenvalues --    1.68621   1.70790   1.73399   1.74634   1.76458
 Alpha virt. eigenvalues --    1.79860   1.80251   1.83197   1.83731   1.86103
 Alpha virt. eigenvalues --    1.91246   1.92946   1.94365   1.95513   1.99463
 Alpha virt. eigenvalues --    2.02600   2.03649   2.08325   2.09647   2.15514
 Alpha virt. eigenvalues --    2.16366   2.20527   2.24026   2.27325   2.29801
 Alpha virt. eigenvalues --    2.38779   2.39501   2.45843   2.46304   2.49712
 Alpha virt. eigenvalues --    2.55988   2.60033   2.62795   2.80785   2.81670
 Alpha virt. eigenvalues --    2.83544   2.85819   2.90188   2.90440   2.92086
 Alpha virt. eigenvalues --    2.94179   2.95265   2.97307   3.00720   3.04396
 Alpha virt. eigenvalues --    3.08755   3.09327   3.09655   3.13598   3.20657
 Alpha virt. eigenvalues --    3.21644   3.23880   3.25586   3.28461   3.31214
 Alpha virt. eigenvalues --    3.38767   3.44875   3.47450   3.50609   3.58771
 Alpha virt. eigenvalues --    3.59688   3.64692   3.67972   3.75431   3.76823
 Alpha virt. eigenvalues --    3.95448   4.00211   4.03160   4.12850   4.19960
 Alpha virt. eigenvalues --    4.21054   4.22602   4.29715   4.41481   4.50642
 Alpha virt. eigenvalues --    4.55205   4.69029   5.53010   5.59184   5.59882
 Alpha virt. eigenvalues --    5.64992   5.72169   5.89321   6.06147   6.17038
 Alpha virt. eigenvalues --    6.45711  24.68278  24.98655  25.00320  25.12250
 Alpha virt. eigenvalues --   25.62921  51.56008  51.59101  51.73134
  Beta  occ. eigenvalues --  -20.62173 -20.57766 -20.56347 -11.42362 -11.34134
  Beta  occ. eigenvalues --  -11.31654 -11.26125 -11.24407  -1.48575  -1.38556
  Beta  occ. eigenvalues --   -1.28796  -1.06140  -1.05876  -0.92668  -0.88421
  Beta  occ. eigenvalues --   -0.76873  -0.72721  -0.70076  -0.67685  -0.63885
  Beta  occ. eigenvalues --   -0.61944  -0.59141  -0.56319  -0.55763  -0.53239
  Beta  occ. eigenvalues --   -0.52064  -0.51052  -0.47135  -0.46333  -0.41765
  Beta virt. eigenvalues --    0.02984   0.04451   0.04781   0.05417   0.06659
  Beta virt. eigenvalues --    0.07259   0.07983   0.08513   0.09338   0.11033
  Beta virt. eigenvalues --    0.11750   0.12977   0.14001   0.14434   0.15157
  Beta virt. eigenvalues --    0.16136   0.16823   0.17297   0.17624   0.18930
  Beta virt. eigenvalues --    0.19131   0.19865   0.20266   0.21276   0.21854
  Beta virt. eigenvalues --    0.23187   0.24554   0.25225   0.27119   0.28271
  Beta virt. eigenvalues --    0.28823   0.31033   0.31110   0.31243   0.32269
  Beta virt. eigenvalues --    0.33502   0.35123   0.36429   0.37505   0.38317
  Beta virt. eigenvalues --    0.39179   0.39968   0.40614   0.40912   0.41330
  Beta virt. eigenvalues --    0.42556   0.44006   0.45352   0.46951   0.48538
  Beta virt. eigenvalues --    0.49770   0.50441   0.51199   0.55981   0.59261
  Beta virt. eigenvalues --    0.60202   0.62306   0.63250   0.65394   0.70906
  Beta virt. eigenvalues --    0.71976   0.74933   0.76829   0.77487   0.79588
  Beta virt. eigenvalues --    0.82012   0.84707   0.85714   0.86090   0.86596
  Beta virt. eigenvalues --    0.87351   0.88836   0.90440   0.92468   0.94297
  Beta virt. eigenvalues --    0.95631   0.99968   1.04220   1.08553   1.09796
  Beta virt. eigenvalues --    1.14598   1.16199   1.22635   1.24076   1.24808
  Beta virt. eigenvalues --    1.27269   1.32413   1.37003   1.37899   1.41021
  Beta virt. eigenvalues --    1.41268   1.42175   1.42999   1.47830   1.50091
  Beta virt. eigenvalues --    1.51599   1.53934   1.59992   1.60708   1.63252
  Beta virt. eigenvalues --    1.65771   1.69652   1.71123   1.73765   1.74997
  Beta virt. eigenvalues --    1.78058   1.80483   1.81589   1.83456   1.83900
  Beta virt. eigenvalues --    1.87083   1.91559   1.93227   1.94782   1.95645
  Beta virt. eigenvalues --    1.99170   2.02713   2.04601   2.08356   2.09736
  Beta virt. eigenvalues --    2.15951   2.16399   2.21264   2.24425   2.28243
  Beta virt. eigenvalues --    2.29960   2.38967   2.39872   2.45791   2.46686
  Beta virt. eigenvalues --    2.49979   2.56403   2.60654   2.63063   2.80802
  Beta virt. eigenvalues --    2.81779   2.83629   2.86272   2.90315   2.90684
  Beta virt. eigenvalues --    2.92172   2.94359   2.95585   2.97484   3.00277
  Beta virt. eigenvalues --    3.04484   3.08437   3.09495   3.10619   3.14651
  Beta virt. eigenvalues --    3.21397   3.23918   3.25433   3.28100   3.30297
  Beta virt. eigenvalues --    3.33631   3.41892   3.44952   3.47676   3.51365
  Beta virt. eigenvalues --    3.58871   3.63286   3.65327   3.69969   3.76187
  Beta virt. eigenvalues --    3.77764   3.96118   4.00071   4.04119   4.13283
  Beta virt. eigenvalues --    4.19987   4.21076   4.22769   4.31498   4.41645
  Beta virt. eigenvalues --    4.50746   4.55889   4.69039   5.53914   5.58969
  Beta virt. eigenvalues --    5.62122   5.70080   5.73948   5.89336   6.07367
  Beta virt. eigenvalues --    6.17354   6.45870  24.68648  24.98452  25.00204
  Beta virt. eigenvalues --   25.12257  25.63346  51.57098  51.59153  51.73558
          Condensed to atoms (all electrons):
               1          2          3          4          5          6
     1  C   13.359230   0.502356  -4.776091  -2.121731   0.008380  -0.009768
     2  H    0.502356   0.423545  -0.103099  -0.012262  -0.000961   0.000718
     3  C   -4.776091  -0.103099   9.584512   0.396701   0.020232  -0.232055
     4  C   -2.121731  -0.012262   0.396701   7.469738   0.264450   0.242992
     5  O    0.008380  -0.000961   0.020232   0.264450   8.101397  -0.060725
     6  O   -0.009768   0.000718  -0.232055   0.242992  -0.060725   8.191037
     7  C   -0.243515  -0.001805   0.075159  -0.129077  -0.000305   0.258241
     8  C    0.148113   0.001006   0.075743  -0.117949   0.013880  -0.164323
     9  H   -0.031344  -0.001078  -0.010523   0.049261  -0.002062  -0.015460
    10  H   -0.023131  -0.000160  -0.006587   0.000732   0.000041  -0.070522
    11  H    0.028063   0.000421   0.004257  -0.017263   0.000487  -0.009841
    12  H   -0.067650  -0.002417   0.041830   0.013689  -0.001846  -0.005068
    13  H   -0.003535   0.000150   0.004535  -0.012107   0.000577   0.012513
    14  O   -0.038741  -0.036141   0.026255   0.007155  -0.003718  -0.001743
    15  H   -0.041998   0.006543   0.029908  -0.009069   0.014037   0.003300
               7          8          9         10         11         12
     1  C   -0.243515   0.148113  -0.031344  -0.023131   0.028063  -0.067650
     2  H   -0.001805   0.001006  -0.001078  -0.000160   0.000421  -0.002417
     3  C    0.075159   0.075743  -0.010523  -0.006587   0.004257   0.041830
     4  C   -0.129077  -0.117949   0.049261   0.000732  -0.017263   0.013689
     5  O   -0.000305   0.013880  -0.002062   0.000041   0.000487  -0.001846
     6  O    0.258241  -0.164323  -0.015460  -0.070522  -0.009841  -0.005068
     7  C    5.598979  -0.121844   0.406553   0.475896  -0.065822   0.007822
     8  C   -0.121844   5.483419  -0.053321  -0.073352   0.444210   0.357163
     9  H    0.406553  -0.053321   0.558836  -0.039233   0.003567  -0.006289
    10  H    0.475896  -0.073352  -0.039233   0.534133  -0.010258   0.012831
    11  H   -0.065822   0.444210   0.003567  -0.010258   0.538215  -0.051878
    12  H    0.007822   0.357163  -0.006289   0.012831  -0.051878   0.602901
    13  H   -0.045072   0.419984  -0.006381   0.003128  -0.035674  -0.034451
    14  O   -0.004376   0.001832   0.000520  -0.000185   0.000155  -0.000947
    15  H    0.000154  -0.000432   0.000616  -0.000080   0.000036   0.000458
              13         14         15
     1  C   -0.003535  -0.038741  -0.041998
     2  H    0.000150  -0.036141   0.006543
     3  C    0.004535   0.026255   0.029908
     4  C   -0.012107   0.007155  -0.009069
     5  O    0.000577  -0.003718   0.014037
     6  O    0.012513  -0.001743   0.003300
     7  C   -0.045072  -0.004376   0.000154
     8  C    0.419984   0.001832  -0.000432
     9  H   -0.006381   0.000520   0.000616
    10  H    0.003128  -0.000185  -0.000080
    11  H   -0.035674   0.000155   0.000036
    12  H   -0.034451  -0.000947   0.000458
    13  H    0.567419  -0.000132  -0.000134
    14  O   -0.000132   8.062576   0.291432
    15  H   -0.000134   0.291432   0.438960
          Atomic-Atomic Spin Densities.
               1          2          3          4          5          6
     1  C   -0.896913   0.055686  -0.346471   0.026604  -0.022067   0.002817
     2  H    0.055686   0.066269  -0.038566   0.002936  -0.000829  -0.000862
     3  C   -0.346471  -0.038566   1.921430   0.065275  -0.017924  -0.009283
     4  C    0.026604   0.002936   0.065275  -0.314918  -0.046933   0.095233
     5  O   -0.022067  -0.000829  -0.017924  -0.046933   0.251892   0.011043
     6  O    0.002817  -0.000862  -0.009283   0.095233   0.011043  -0.088787
     7  C   -0.005942  -0.001961  -0.002528  -0.009264  -0.000433   0.002070
     8  C   -0.022030  -0.000613   0.020894   0.007968   0.002453  -0.000892
     9  H    0.009091   0.001118  -0.011758   0.000621  -0.000211   0.001871
    10  H   -0.002088  -0.000156   0.004794  -0.004192  -0.000043   0.000524
    11  H    0.002692   0.000181  -0.003229  -0.001082  -0.000066   0.000488
    12  H    0.000662   0.000036   0.001944  -0.002460  -0.000080   0.000398
    13  H   -0.000080  -0.000198   0.000633   0.000857  -0.000006  -0.000419
    14  O    0.117503   0.000804  -0.043612  -0.021006   0.004841   0.001839
    15  H   -0.005111   0.000192  -0.003611   0.002381  -0.001758  -0.000238
               7          8          9         10         11         12
     1  C   -0.005942  -0.022030   0.009091  -0.002088   0.002692   0.000662
     2  H   -0.001961  -0.000613   0.001118  -0.000156   0.000181   0.000036
     3  C   -0.002528   0.020894  -0.011758   0.004794  -0.003229   0.001944
     4  C   -0.009264   0.007968   0.000621  -0.004192  -0.001082  -0.002460
     5  O   -0.000433   0.002453  -0.000211  -0.000043  -0.000066  -0.000080
     6  O    0.002070  -0.000892   0.001871   0.000524   0.000488   0.000398
     7  C    0.017541  -0.006466   0.000730  -0.001574   0.000909   0.002818
     8  C   -0.006466   0.010933   0.000480   0.002706  -0.001027  -0.000785
     9  H    0.000730   0.000480   0.001617  -0.002731   0.000195  -0.001186
    10  H   -0.001574   0.002706  -0.002731   0.003795  -0.000606   0.000356
    11  H    0.000909  -0.001027   0.000195  -0.000606   0.000192  -0.000320
    12  H    0.002818  -0.000785  -0.001186   0.000356  -0.000320  -0.000281
    13  H   -0.001531   0.000179   0.000330  -0.000124   0.000441  -0.000183
    14  O    0.003154   0.001424  -0.000635   0.000166  -0.000161  -0.000113
    15  H    0.000267  -0.000110  -0.000206   0.000006  -0.000024  -0.000059
              13         14         15
     1  C   -0.000080   0.117503  -0.005111
     2  H   -0.000198   0.000804   0.000192
     3  C    0.000633  -0.043612  -0.003611
     4  C    0.000857  -0.021006   0.002381
     5  O   -0.000006   0.004841  -0.001758
     6  O   -0.000419   0.001839  -0.000238
     7  C   -0.001531   0.003154   0.000267
     8  C    0.000179   0.001424  -0.000110
     9  H    0.000330  -0.000635  -0.000206
    10  H   -0.000124   0.000166   0.000006
    11  H    0.000441  -0.000161  -0.000024
    12  H   -0.000183  -0.000113  -0.000059
    13  H   -0.000011   0.000103   0.000035
    14  O    0.000103   0.401578   0.007287
    15  H    0.000035   0.007287  -0.018718
 Mulliken charges and spin densities:
               1          2
     1  C   -0.688636  -1.085649
     2  H    0.223184   0.084035
     3  C    0.869224   1.537988
     4  C   -0.025261  -0.197979
     5  O   -0.353862   0.179877
     6  O   -0.139297   0.015803
     7  C   -0.210989  -0.002210
     8  C   -0.414128   0.015115
     9  H    0.146337  -0.000673
    10  H    0.196746   0.000834
    11  H    0.171324  -0.001419
    12  H    0.133850   0.000747
    13  H    0.129180   0.000025
    14  O   -0.303940   0.473172
    15  H    0.266267  -0.019666
 Sum of Mulliken charges =  -0.00000   1.00000
 Mulliken charges and spin densities with hydrogens summed into heavy atoms:
               1          2
     1  C   -0.465452  -1.001614
     3  C    0.869224   1.537988
     4  C   -0.025261  -0.197979
     5  O   -0.353862   0.179877
     6  O   -0.139297   0.015803
     7  C    0.132094  -0.002049
     8  C    0.020227   0.014468
    14  O   -0.037673   0.453506
 Electronic spatial extent (au):  <R**2>=           1171.3172
 Charge=             -0.0000 electrons
 Dipole moment (field-independent basis, Debye):
    X=              3.5287    Y=             -3.7947    Z=             -1.2585  Tot=              5.3325
 Quadrupole moment (field-independent basis, Debye-Ang):
   XX=            -51.1763   YY=            -50.3710   ZZ=            -47.1874
   XY=             -1.9450   XZ=              0.5764   YZ=              0.8699
 Traceless Quadrupole moment (field-independent basis, Debye-Ang):
   XX=             -1.5981   YY=             -0.7928   ZZ=              2.3909
   XY=             -1.9450   XZ=              0.5764   YZ=              0.8699
 Octapole moment (field-independent basis, Debye-Ang**2):
  XXX=             45.2449  YYY=            -16.4654  ZZZ=              1.0762  XYY=             -8.1635
  XXY=              5.3327  XXZ=             -4.2559  XZZ=              1.8894  YZZ=              3.3184
  YYZ=             -4.7133  XYZ=             -3.3459
 Hexadecapole moment (field-independent basis, Debye-Ang**3):
 XXXX=          -1121.4011 YYYY=           -346.6447 ZZZZ=           -115.3499 XXXY=            -42.2618
 XXXZ=             -7.3509 YYYX=             25.4198 YYYZ=              3.6265 ZZZX=             -5.9145
 ZZZY=              1.5136 XXYY=           -210.7071 XXZZ=           -189.5481 YYZZ=            -76.0755
 XXYZ=             13.5757 YYXZ=              5.0557 ZZXY=              0.6584
 N-N= 3.559685429160D+02 E-N=-1.694164417238D+03  KE= 4.175055484596D+02
 1\1\GINC-AJ\SP\UCCSD(T)-FC\6-311++G(d,p)\C5H7O3(2)\AAYUSH\13-May-2025\
 0\\# ccsd(t)/6-311++g(d,p) sp\\Title Card Required\\0,2\C,0,-1.611681,
 -1.261084,-0.294804\H,0,-1.891787,-2.276599,-0.529277\C,0,-0.571702,-0
 .514987,-0.307662\C,0,0.037156,0.795657,-0.059375\O,0,-0.633062,1.7339
 36,0.271978\O,0,1.353308,0.895333,-0.234166\C,0,2.130759,-0.28031,-0.5
 25696\C,0,2.463134,-1.040258,0.742671\H,0,1.595051,-0.903957,-1.246366
 \H,0,3.027316,0.106761,-1.007054\H,0,2.978121,-0.388069,1.449046\H,0,1
 .558878,-1.426721,1.216988\H,0,3.114159,-1.884719,0.508258\O,0,-3.0376
 35,-0.502105,0.24638\H,0,-2.746761,0.410952,0.394954\\Version=ES64L-G1
 6RevA.03\State=2-A\HF=-417.9870853\MP2=-419.2494455\MP3=-419.2778086\M
 P4D=-419.308756\MP4DQ=-419.2842113\PUHF=-418.0147973\PMP2-0=-419.27408
 28\PMP3-0=-419.2973042\MP4SDQ=-419.3072485\CCSD=-419.315325\CCSD(T)=-4
 19.3709715\S2=1.108499\S2-1=1.017236\S2A=0.840119\RMSD=2.974e-09\PG=C0
 1 [X(C5H7O3)]\\@


 It takes a long time to grow an old friend.
                            -- John Leonard
 Job cpu time:       0 days 16 hours 36 minutes 56.3 seconds.
 Elapsed time:       0 days  0 hours 41 minutes 45.5 seconds.
 File lengths (MBytes):  RWF=  44733 Int=      0 D2E=      0 Chk=      6 Scr=      1
 Normal termination of Gaussian 16 at Tue May 13 19:28:40 2025.
