 Entering Gaussian System, Link 0=g16
 Initial command:
 /opt/g16/l1.exe "/home/aayush/scratches/g16/Gau-6014.inp" -scrdir="/home/aayush/scratches/g16/"
 Entering Link 1 = /opt/g16/l1.exe PID=      6017.
  
 Copyright (c) 1988,1990,1992,1993,1995,1998,2003,2009,2016,
            Gaussian, Inc.  All Rights Reserved.
  
 This is part of the Gaussian(R) 16 program.  It is based on
 the Gaussian(R) 09 system (copyright 2009, Gaussian, Inc.),
 the Gaussian(R) 03 system (copyright 2003, Gaussian, Inc.),
 the Gaussian(R) 98 system (copyright 1998, Gaussian, Inc.),
 the Gaussian(R) 94 system (copyright 1995, Gaussian, Inc.),
 the Gaussian 92(TM) system (copyright 1992, Gaussian, Inc.),
 the Gaussian 90(TM) system (copyright 1990, Gaussian, Inc.),
 the Gaussian 88(TM) system (copyright 1988, Gaussian, Inc.),
 the Gaussian 86(TM) system (copyright 1986, Carnegie Mellon
 University), and the Gaussian 82(TM) system (copyright 1983,
 Carnegie Mellon University). Gaussian is a federally registered
 trademark of Gaussian, Inc.
  
 This software contains proprietary and confidential information,
 including trade secrets, belonging to Gaussian, Inc.
  
 This software is provided under written license and may be
 used, copied, transmitted, or stored only in accord with that
 written license.
  
 The following legend is applicable only to US Government
 contracts under FAR:
  
                    RESTRICTED RIGHTS LEGEND
  
 Use, reproduction and disclosure by the US Government is
 subject to restrictions as set forth in subparagraphs (a)
 and (c) of the Commercial Computer Software - Restricted
 Rights clause in FAR 52.227-19.
  
 Gaussian, Inc.
 340 Quinnipiac St., Bldg. 40, Wallingford CT 06492
  
  
 ---------------------------------------------------------------
 Warning -- This program may not be used in any manner that
 competes with the business of Gaussian, Inc. or will provide
 assistance to any competitor of Gaussian, Inc.  The licensee
 of this program is prohibited from giving any competitor of
 Gaussian, Inc. access to this program.  By using this program,
 the user acknowledges that Gaussian, Inc. is engaged in the
 business of creating and licensing software in the field of
 computational chemistry and represents and warrants to the
 licensee that it is not a competitor of Gaussian, Inc. and that
 it will not use this program in any manner prohibited above.
 ---------------------------------------------------------------
  

 Cite this work as:
 Gaussian 16, Revision A.03,
 M. J. Frisch, G. W. Trucks, H. B. Schlegel, G. E. Scuseria, 
 M. A. Robb, J. R. Cheeseman, G. Scalmani, V. Barone, 
 G. A. Petersson, H. Nakatsuji, X. Li, M. Caricato, A. V. Marenich, 
 J. Bloino, B. G. Janesko, R. Gomperts, B. Mennucci, H. P. Hratchian, 
 J. V. Ortiz, A. F. Izmaylov, J. L. Sonnenberg, D. Williams-Young, 
 F. Ding, F. Lipparini, F. Egidi, J. Goings, B. Peng, A. Petrone, 
 T. Henderson, D. Ranasinghe, V. G. Zakrzewski, J. Gao, N. Rega, 
 G. Zheng, W. Liang, M. Hada, M. Ehara, K. Toyota, R. Fukuda, 
 J. Hasegawa, M. Ishida, T. Nakajima, Y. Honda, O. Kitao, H. Nakai, 
 T. Vreven, K. Throssell, J. A. Montgomery, Jr., J. E. Peralta, 
 F. Ogliaro, M. J. Bearpark, J. J. Heyd, E. N. Brothers, K. N. Kudin, 
 V. N. Staroverov, T. A. Keith, R. Kobayashi, J. Normand, 
 K. Raghavachari, A. P. Rendell, J. C. Burant, S. S. Iyengar, 
 J. Tomasi, M. Cossi, J. M. Millam, M. Klene, C. Adamo, R. Cammi, 
 J. W. Ochterski, R. L. Martin, K. Morokuma, O. Farkas, 
 J. B. Foresman, and D. J. Fox, Gaussian, Inc., Wallingford CT, 2016.
 
 ******************************************
 Gaussian 16:  ES64L-G16RevA.03 25-Dec-2016
                24-Aug-2025 
 ******************************************
 %nprocshared=24
 Will use up to   24 processors via shared memory.
 %mem=12GB
 %chk=ethyl_propiolate_ts1.chk
 --------------------------
 # ccsd(t)/6-311++g(d,p) sp
 --------------------------
 1/38=1,172=1/1;
 2/12=2,17=6,18=5,40=1/2;
 3/5=4,6=6,7=1111,11=9,25=1,30=1/1,2,3;
 4//1;
 5/5=2,38=5/2;
 8/6=4,9=120000,10=2/1,4;
 9/5=7,14=2/13;
 6/7=2,8=2,9=2,10=2/1;
 99/5=1,9=1/99;
 -------------------
 Title Card Required
 -------------------
 Symbolic Z-matrix:
 Charge =  0 Multiplicity = 2
 O                    -1.35136   1.69613   0.09732 
 H                    -1.97804   1.81473   0.8277 
 C                    -2.72513  -0.46861  -0.44734 
 H                    -3.75105  -0.54656  -0.72415 
 C                    -1.56419  -0.27212  -0.14389 
 C                    -0.16434  -0.53997   0.22542 
 O                     0.16657  -0.89239   1.3213 
 O                     0.63796  -0.33829  -0.81034 
 C                     2.05253  -0.42442  -0.53934 
 C                     2.54099   0.84369   0.13191 
 H                     2.50168  -0.56309  -1.52093 
 H                     2.23948  -1.30541   0.0756 
 H                     3.62288   0.79293   0.2692 
 H                     2.30528   1.71249  -0.4838 
 H                     2.07309   0.96473   1.10925 
 
                          Input orientation:                          
 ---------------------------------------------------------------------
 Center     Atomic      Atomic             Coordinates (Angstroms)
 Number     Number       Type             X           Y           Z
 ---------------------------------------------------------------------
      1          8           0       -1.351356    1.696125    0.097321
      2          1           0       -1.978041    1.814728    0.827699
      3          6           0       -2.725133   -0.468609   -0.447339
      4          1           0       -3.751051   -0.546560   -0.724150
      5          6           0       -1.564191   -0.272118   -0.143889
      6          6           0       -0.164342   -0.539967    0.225420
      7          8           0        0.166565   -0.892390    1.321304
      8          8           0        0.637960   -0.338293   -0.810339
      9          6           0        2.052528   -0.424417   -0.539340
     10          6           0        2.540994    0.843692    0.131910
     11          1           0        2.501680   -0.563091   -1.520930
     12          1           0        2.239482   -1.305408    0.075602
     13          1           0        3.622881    0.792927    0.269200
     14          1           0        2.305278    1.712493   -0.483802
     15          1           0        2.073085    0.964727    1.109253
 ---------------------------------------------------------------------
                    Distance matrix (angstroms):
                    1          2          3          4          5
     1  O    0.000000
     2  H    0.969666   0.000000
     3  C    2.621067   2.719834   0.000000
     4  H    3.385703   3.335788   1.065462   0.000000
     5  C    1.994357   2.338842   1.215926   2.279118   0.000000
     6  C    2.534861   3.032628   2.648650   3.710284   1.472314
     7  O    3.240776   3.488763   3.416080   4.432967   2.350967
     8  O    2.986651   3.763260   3.385136   4.394795   2.301739
     9  C    4.060599   4.809163   4.778751   5.807805   3.641460
    10  C    3.984749   4.674260   5.457999   6.500421   4.263055
    11  H    4.750650   5.589095   5.336769   6.303315   4.302582
    12  H    4.680148   5.299849   5.061729   6.091136   3.947631
    13  H    5.058492   5.720693   6.511696   7.560148   5.311373
    14  H    3.702559   4.480771   5.483026   6.468401   4.361996
    15  H    3.644962   4.148903   5.244075   6.290144   4.041030
                    6          7          8          9         10
     6  C    0.000000
     7  O    1.197774   0.000000
     8  O    1.325578   2.252363   0.000000
     9  C    2.347919   2.690325   1.442865   0.000000
    10  C    3.040082   3.172783   2.430321   1.515677   0.000000
    11  H    3.187153   3.693169   2.007218   1.088341   2.170821
    12  H    2.527195   2.453435   2.070042   1.090528   2.170878
    13  H    4.015169   3.986645   3.369691   2.145151   1.091744
    14  H    3.416957   3.823338   2.663137   2.152522   1.090632
    15  H    2.837489   2.669956   2.728054   2.155923   1.090315
                   11         12         13         14         15
    11  H    0.000000
    12  H    1.780083   0.000000
    13  H    2.510068   2.520770   0.000000
    14  H    2.508484   3.070014   1.774455   0.000000
    15  H    3.071772   2.499927   1.771178   1.775075   0.000000
 Stoichiometry    C5H7O3(2)
 Framework group  C1[X(C5H7O3)]
 Deg. of freedom    39
 Full point group                 C1      NOp   1
 Largest Abelian subgroup         C1      NOp   1
 Largest concise Abelian subgroup C1      NOp   1
                         Standard orientation:                         
 ---------------------------------------------------------------------
 Center     Atomic      Atomic             Coordinates (Angstroms)
 Number     Number       Type             X           Y           Z
 ---------------------------------------------------------------------
      1          8           0       -1.408369    1.672767    0.100932
      2          1           0       -2.035054    1.791370    0.831310
      3          6           0       -2.782146   -0.491967   -0.443728
      4          1           0       -3.808064   -0.569918   -0.720539
      5          6           0       -1.621204   -0.295476   -0.140278
      6          6           0       -0.221355   -0.563325    0.229031
      7          8           0        0.109552   -0.915748    1.324915
      8          8           0        0.580947   -0.361651   -0.806728
      9          6           0        1.995515   -0.447775   -0.535729
     10          6           0        2.483981    0.820334    0.135521
     11          1           0        2.444667   -0.586449   -1.517319
     12          1           0        2.182469   -1.328766    0.079213
     13          1           0        3.565868    0.769569    0.272811
     14          1           0        2.248265    1.689135   -0.480191
     15          1           0        2.016072    0.941369    1.112864
 ---------------------------------------------------------------------
 Rotational constants (GHZ):           3.6330721           1.3098764           1.1915302
 Standard basis: 6-311++G(d,p) (5D, 7F)
 There are   233 symmetry adapted cartesian basis functions of A   symmetry.
 There are   225 symmetry adapted basis functions of A   symmetry.
   225 basis functions,   351 primitive gaussians,   233 cartesian basis functions
    31 alpha electrons       30 beta electrons
       nuclear repulsion energy       362.6740034635 Hartrees.
 NAtoms=   15 NActive=   15 NUniq=   15 SFac= 1.00D+00 NAtFMM=   60 NAOKFM=F Big=F
 Integral buffers will be    131072 words long.
 Raffenetti 2 integral format.
 Two-electron integral symmetry is turned on.
 One-electron integrals computed using PRISM.
 NBasis=   225 RedAO= T EigKep=  2.57D-06  NBF=   225
 NBsUse=   225 1.00D-06 EigRej= -1.00D+00 NBFU=   225
 ExpMin= 3.60D-02 ExpMax= 8.59D+03 ExpMxC= 1.30D+03 IAcc=3 IRadAn=         5 AccDes= 0.00D+00
 Harris functional with IExCor=  205 and IRadAn=       5 diagonalized for initial guess.
 HarFok:  IExCor=  205 AccDes= 0.00D+00 IRadAn=         5 IDoV= 1 UseB2=F ITyADJ=14
 ICtDFT=  3500011 ScaDFX=  1.000000  1.000000  1.000000  1.000000
 FoFCou: FMM=F IPFlag=           0 FMFlag=      100000 FMFlg1=           0
         NFxFlg=           0 DoJE=T BraDBF=F KetDBF=T FulRan=T
         wScrn=  0.000000 ICntrl=       500 IOpCl=  0 I1Cent=   200000004 NGrid=           0
         NMat0=    1 NMatS0=      1 NMatT0=    0 NMatD0=    1 NMtDS0=    0 NMtDT0=    0
 Petite list used in FoFCou.
 Initial guess <Sx>= 0.0000 <Sy>= 0.0000 <Sz>= 0.5000 <S**2>= 0.7500 S= 0.5000
 Requested convergence on RMS density matrix=1.00D-08 within 128 cycles.
 Requested convergence on MAX density matrix=1.00D-06.
 Requested convergence on             energy=1.00D-06.
 No special actions if energy rises.
 Initial convergence to 1.0D-05 achieved.  Increase integral accuracy.
 SCF Done:  E(UHF) =  -417.979187254     A.U. after   36 cycles
            NFock= 36  Conv=0.36D-08     -V/T= 2.0006
 <Sx>= 0.0000 <Sy>= 0.0000 <Sz>= 0.5000 <S**2>= 1.0156 S= 0.6250
 <L.S>=  0.00000000000    
 Annihilation of the first spin contaminant:
 S**2 before annihilation     1.0156,   after     0.7923
 ExpMin= 3.60D-02 ExpMax= 8.59D+03 ExpMxC= 1.30D+03 IAcc=3 IRadAn=         5 AccDes= 0.00D+00
 HarFok:  IExCor=  205 AccDes= 0.00D+00 IRadAn=         5 IDoV=-2 UseB2=F ITyADJ=14
 ICtDFT= 12500011 ScaDFX=  1.000000  1.000000  1.000000  1.000000
 Range of M.O.s used for correlation:     9   225
 NBasis=   225 NAE=    31 NBE=    30 NFC=     8 NFV=     0
 NROrb=    217 NOA=    23 NOB=    22 NVA=   194 NVB=   195

 **** Warning!!: The largest alpha MO coefficient is  0.18189101D+03


 **** Warning!!: The largest beta MO coefficient is  0.17828581D+03

 Semi-Direct transformation.
 ModeAB=           4 MOrb=            23 LenV=    1609174088
 LASXX=    109339976 LTotXX=   109339976 LenRXX=   221407890
 LTotAB=   112067914 MaxLAS=   130160289 LenRXY=           0
 NonZer=   330747866 LenScr=   498067456 LnRSAI=   130160289
 LnScr1=   196006912 LExtra=           0 Total=   1045642547
 MaxDsk=          -1 SrtSym=           T ITran=            4
 JobTyp=1 Pass  1:  I=   1 to  23.
 (rs|ai) integrals will be sorted in core.
 ModeAB=           4 MOrb=            22 LenV=    1609174088
 LASXX=    104936601 LTotXX=   104936601 LenRXX=   190867446
 LTotAB=    85930845 MaxLAS=   124501146 LenRXY=           0
 NonZer=   295804047 LenScr=   445446144 LnRSAI=   124501146
 LnScr1=   187516928 LExtra=           0 Total=    948331664
 MaxDsk=          -1 SrtSym=           T ITran=            4
 JobTyp=2 Pass  1:  I=   1 to  22.
 (rs|ai) integrals will be sorted in core.
 SymMOI:  orbitals are not symmetric.
 Spin components of T(2) and E(2):
     alpha-alpha T2 =       0.5213438590D-01 E2=     -0.1699054793D+00
     alpha-beta  T2 =       0.2811236437D+00 E2=     -0.9295627906D+00
     beta-beta   T2 =       0.4984026749D-01 E2=     -0.1571780563D+00
 ANorm=    0.1176051996D+01
 E2 =    -0.1256646326D+01 EUMP2 =    -0.41923583357990D+03
 (S**2,0)=  0.10156D+01           (S**2,1)=  0.94225D+00
 E(PUHF)=      -0.41800098833D+03        E(PMP2)=      -0.41925488294D+03
 Keep R2 and R3 ints in memory in canonical form, NReq=652884060.
 CIDS: In Core Option IDoMem=           1.
 Iterations=  50 Convergence= 0.100D-06
 Produce multiple copies of IABC intergrals
 Iteration Nr.   1
 **********************
 DD1Dir will call FoFMem   1 times, MxPair=      1496
 NAB=   506 NAA=   253 NBB=   231.
 E(PMP3)=      -0.41928010148D+03
 MP4(R+Q)=  0.24508481D-01
 E3=       -0.29900508D-01        EUMP3=      -0.41926573409D+03
 E4(DQ)=   -0.58724689D-02        UMP4(DQ)=   -0.41927160656D+03
 E4(SDQ)=  -0.27339416D-01        UMP4(SDQ)=  -0.41929307350D+03
 DE(Corr)=  -1.2617555     E(Corr)=     -419.24094277    
 NORM(A)=   0.11860116D+01
 Iteration Nr.   2
 **********************
 DD1Dir will call FoFMem   1 times, MxPair=      1496
 NAB=   506 NAA=   253 NBB=   231.
 DE(Corr)=  -1.3055529     E(CORR)=     -419.28474017     Delta=-4.38D-02
 NORM(A)=   0.12081720D+01
 Iteration Nr.   3
 **********************
 DD1Dir will call FoFMem   1 times, MxPair=      1496
 NAB=   506 NAA=   253 NBB=   231.
 DE(Corr)=  -1.3091032     E(CORR)=     -419.28829044     Delta=-3.55D-03
 NORM(A)=   0.12216367D+01
 Iteration Nr.   4
 **********************
 DD1Dir will call FoFMem   1 times, MxPair=      1496
 NAB=   506 NAA=   253 NBB=   231.
 DE(Corr)=  -1.3169847     E(CORR)=     -419.29617198     Delta=-7.88D-03
 NORM(A)=   0.12306056D+01
 Iteration Nr.   5
 **********************
 DD1Dir will call FoFMem   1 times, MxPair=      1496
 NAB=   506 NAA=   253 NBB=   231.
 DE(Corr)=  -1.3193326     E(CORR)=     -419.29851987     Delta=-2.35D-03
 NORM(A)=   0.12346586D+01
 Iteration Nr.   6
 **********************
 DD1Dir will call FoFMem   1 times, MxPair=      1496
 NAB=   506 NAA=   253 NBB=   231.
 DE(Corr)=  -1.3199968     E(CORR)=     -419.29918402     Delta=-6.64D-04
 NORM(A)=   0.12352396D+01
 Iteration Nr.   7
 **********************
 DD1Dir will call FoFMem   1 times, MxPair=      1496
 NAB=   506 NAA=   253 NBB=   231.
 DE(Corr)=  -1.3200794     E(CORR)=     -419.29926662     Delta=-8.26D-05
 NORM(A)=   0.12353498D+01
 Iteration Nr.   8
 **********************
 DD1Dir will call FoFMem   1 times, MxPair=      1496
 NAB=   506 NAA=   253 NBB=   231.
 DE(Corr)=  -1.3200542     E(CORR)=     -419.29924146     Delta= 2.52D-05
 NORM(A)=   0.12353575D+01
 Iteration Nr.   9
 **********************
 DD1Dir will call FoFMem   1 times, MxPair=      1496
 NAB=   506 NAA=   253 NBB=   231.
 DE(Corr)=  -1.3200689     E(CORR)=     -419.29925612     Delta=-1.47D-05
 NORM(A)=   0.12353220D+01
 Iteration Nr.  10
 **********************
 DD1Dir will call FoFMem   1 times, MxPair=      1496
 NAB=   506 NAA=   253 NBB=   231.
 DE(Corr)=  -1.3200484     E(CORR)=     -419.29923567     Delta= 2.04D-05
 NORM(A)=   0.12353031D+01
 Iteration Nr.  11
 **********************
 DD1Dir will call FoFMem   1 times, MxPair=      1496
 NAB=   506 NAA=   253 NBB=   231.
 DE(Corr)=  -1.3200677     E(CORR)=     -419.29925499     Delta=-1.93D-05
 NORM(A)=   0.12353438D+01
 Iteration Nr.  12
 **********************
 DD1Dir will call FoFMem   1 times, MxPair=      1496
 NAB=   506 NAA=   253 NBB=   231.
 DE(Corr)=  -1.3200657     E(CORR)=     -419.29925292     Delta= 2.07D-06
 NORM(A)=   0.12354299D+01
 Iteration Nr.  13
 **********************
 DD1Dir will call FoFMem   1 times, MxPair=      1496
 NAB=   506 NAA=   253 NBB=   231.
 DE(Corr)=  -1.3200844     E(CORR)=     -419.29927163     Delta=-1.87D-05
 NORM(A)=   0.12355293D+01
 Iteration Nr.  14
 **********************
 DD1Dir will call FoFMem   1 times, MxPair=      1496
 NAB=   506 NAA=   253 NBB=   231.
 DE(Corr)=  -1.3201015     E(CORR)=     -419.29928870     Delta=-1.71D-05
 NORM(A)=   0.12356040D+01
 Iteration Nr.  15
 **********************
 DD1Dir will call FoFMem   1 times, MxPair=      1496
 NAB=   506 NAA=   253 NBB=   231.
 DE(Corr)=  -1.3201104     E(CORR)=     -419.29929764     Delta=-8.94D-06
 NORM(A)=   0.12356414D+01
 Iteration Nr.  16
 **********************
 DD1Dir will call FoFMem   1 times, MxPair=      1496
 NAB=   506 NAA=   253 NBB=   231.
 DE(Corr)=  -1.3201188     E(CORR)=     -419.29930610     Delta=-8.46D-06
 NORM(A)=   0.12356501D+01
 Iteration Nr.  17
 **********************
 DD1Dir will call FoFMem   1 times, MxPair=      1496
 NAB=   506 NAA=   253 NBB=   231.
 DE(Corr)=  -1.3201178     E(CORR)=     -419.29930503     Delta= 1.07D-06
 NORM(A)=   0.12356471D+01
 Iteration Nr.  18
 **********************
 DD1Dir will call FoFMem   1 times, MxPair=      1496
 NAB=   506 NAA=   253 NBB=   231.
 DE(Corr)=  -1.3201172     E(CORR)=     -419.29930450     Delta= 5.33D-07
 NORM(A)=   0.12356411D+01
 Iteration Nr.  19
 **********************
 DD1Dir will call FoFMem   1 times, MxPair=      1496
 NAB=   506 NAA=   253 NBB=   231.
 DE(Corr)=  -1.3201155     E(CORR)=     -419.29930279     Delta= 1.71D-06
 NORM(A)=   0.12356365D+01
 Iteration Nr.  20
 **********************
 DD1Dir will call FoFMem   1 times, MxPair=      1496
 NAB=   506 NAA=   253 NBB=   231.
 DE(Corr)=  -1.3201143     E(CORR)=     -419.29930157     Delta= 1.21D-06
 NORM(A)=   0.12356332D+01
 Iteration Nr.  21
 **********************
 DD1Dir will call FoFMem   1 times, MxPair=      1496
 NAB=   506 NAA=   253 NBB=   231.
 DE(Corr)=  -1.3201136     E(CORR)=     -419.29930085     Delta= 7.28D-07
 NORM(A)=   0.12356331D+01
 Iteration Nr.  22
 **********************
 DD1Dir will call FoFMem   1 times, MxPair=      1496
 NAB=   506 NAA=   253 NBB=   231.
 DE(Corr)=  -1.3201134     E(CORR)=     -419.29930066     Delta= 1.89D-07
 NORM(A)=   0.12356354D+01
 Iteration Nr.  23
 **********************
 DD1Dir will call FoFMem   1 times, MxPair=      1496
 NAB=   506 NAA=   253 NBB=   231.
 DE(Corr)=  -1.3201138     E(CORR)=     -419.29930106     Delta=-4.04D-07
 NORM(A)=   0.12356394D+01
 Iteration Nr.  24
 **********************
 DD1Dir will call FoFMem   1 times, MxPair=      1496
 NAB=   506 NAA=   253 NBB=   231.
 DE(Corr)=  -1.3201145     E(CORR)=     -419.29930171     Delta=-6.50D-07
 NORM(A)=   0.12356433D+01
 Iteration Nr.  25
 **********************
 DD1Dir will call FoFMem   1 times, MxPair=      1496
 NAB=   506 NAA=   253 NBB=   231.
 DE(Corr)=  -1.3201151     E(CORR)=     -419.29930238     Delta=-6.68D-07
 NORM(A)=   0.12356456D+01
 Iteration Nr.  26
 **********************
 DD1Dir will call FoFMem   1 times, MxPair=      1496
 NAB=   506 NAA=   253 NBB=   231.
 DE(Corr)=  -1.3201154     E(CORR)=     -419.29930265     Delta=-2.68D-07
 NORM(A)=   0.12356462D+01
 Iteration Nr.  27
 **********************
 DD1Dir will call FoFMem   1 times, MxPair=      1496
 NAB=   506 NAA=   253 NBB=   231.
 DE(Corr)=  -1.3201154     E(CORR)=     -419.29930269     Delta=-4.69D-08
 NORM(A)=   0.12356458D+01
 Wavefunction amplitudes converged. E(Corr)=     -419.29930269    
 Largest amplitude= 6.45D-02
 Time for triples=    36122.77 seconds.
 T4(CCSD)= -0.58441583D-01
 T5(CCSD)=  0.41749476D-02
 CCSD(T)= -0.41935356933D+03

 S**2, projected HF & approx projected MPn energies after annihilation of
 unwanted spin states (see manual for definitions):

 spins       (S**2,0) (S**2,1)    PUHF        PMP2        PMP3        PMP4
 annihilated
 s+1         0.72508  0.74053 -418.000988 -419.254883 -419.280101
 s+1,s+2     0.75043  0.74992 -417.999267 -419.253252 -419.278588
 s+1 to s+3  0.75000  0.75000 -417.999303 -419.253278 -419.278600
 s+1 to s+4  0.75000  0.75000 -417.999303 -419.253278 -419.278599
 s+1 to s+5  0.75000  0.75000 -417.999303
 s+1 to s+6  0.75000  0.75000 -417.999303

 Discarding MO integrals.

 **********************************************************************

            Population analysis using the SCF density.

 **********************************************************************

 Orbital symmetries:
 Alpha Orbitals:
       Occupied  (A) (A) (A) (A) (A) (A) (A) (A) (A) (A) (A) (A)
                 (A) (A) (A) (A) (A) (A) (A) (A) (A) (A) (A) (A)
                 (A) (A) (A) (A) (A) (A) (A)
       Virtual   (A) (A) (A) (A) (A) (A) (A) (A) (A) (A) (A) (A)
                 (A) (A) (A) (A) (A) (A) (A) (A) (A) (A) (A) (A)
                 (A) (A) (A) (A) (A) (A) (A) (A) (A) (A) (A) (A)
                 (A) (A) (A) (A) (A) (A) (A) (A) (A) (A) (A) (A)
                 (A) (A) (A) (A) (A) (A) (A) (A) (A) (A) (A) (A)
                 (A) (A) (A) (A) (A) (A) (A) (A) (A) (A) (A) (A)
                 (A) (A) (A) (A) (A) (A) (A) (A) (A) (A) (A) (A)
                 (A) (A) (A) (A) (A) (A) (A) (A) (A) (A) (A) (A)
                 (A) (A) (A) (A) (A) (A) (A) (A) (A) (A) (A) (A)
                 (A) (A) (A) (A) (A) (A) (A) (A) (A) (A) (A) (A)
                 (A) (A) (A) (A) (A) (A) (A) (A) (A) (A) (A) (A)
                 (A) (A) (A) (A) (A) (A) (A) (A) (A) (A) (A) (A)
                 (A) (A) (A) (A) (A) (A) (A) (A) (A) (A) (A) (A)
                 (A) (A) (A) (A) (A) (A) (A) (A) (A) (A) (A) (A)
                 (A) (A) (A) (A) (A) (A) (A) (A) (A) (A) (A) (A)
                 (A) (A) (A) (A) (A) (A) (A) (A) (A) (A) (A) (A)
                 (A) (A)
 Beta  Orbitals:
       Occupied  (A) (A) (A) (A) (A) (A) (A) (A) (A) (A) (A) (A)
                 (A) (A) (A) (A) (A) (A) (A) (A) (A) (A) (A) (A)
                 (A) (A) (A) (A) (A) (A)
       Virtual   (A) (A) (A) (A) (A) (A) (A) (A) (A) (A) (A) (A)
                 (A) (A) (A) (A) (A) (A) (A) (A) (A) (A) (A) (A)
                 (A) (A) (A) (A) (A) (A) (A) (A) (A) (A) (A) (A)
                 (A) (A) (A) (A) (A) (A) (A) (A) (A) (A) (A) (A)
                 (A) (A) (A) (A) (A) (A) (A) (A) (A) (A) (A) (A)
                 (A) (A) (A) (A) (A) (A) (A) (A) (A) (A) (A) (A)
                 (A) (A) (A) (A) (A) (A) (A) (A) (A) (A) (A) (A)
                 (A) (A) (A) (A) (A) (A) (A) (A) (A) (A) (A) (A)
                 (A) (A) (A) (A) (A) (A) (A) (A) (A) (A) (A) (A)
                 (A) (A) (A) (A) (A) (A) (A) (A) (A) (A) (A) (A)
                 (A) (A) (A) (A) (A) (A) (A) (A) (A) (A) (A) (A)
                 (A) (A) (A) (A) (A) (A) (A) (A) (A) (A) (A) (A)
                 (A) (A) (A) (A) (A) (A) (A) (A) (A) (A) (A) (A)
                 (A) (A) (A) (A) (A) (A) (A) (A) (A) (A) (A) (A)
                 (A) (A) (A) (A) (A) (A) (A) (A) (A) (A) (A) (A)
                 (A) (A) (A) (A) (A) (A) (A) (A) (A) (A) (A) (A)
                 (A) (A) (A)
 The electronic state is 2-A.
 Alpha  occ. eigenvalues --  -20.62257 -20.60948 -20.55484 -11.41307 -11.29421
 Alpha  occ. eigenvalues --  -11.27118 -11.26459 -11.22188  -1.48011  -1.38081
 Alpha  occ. eigenvalues --   -1.37635  -1.07944  -1.04206  -0.92544  -0.83612
 Alpha  occ. eigenvalues --   -0.76334  -0.73101  -0.69256  -0.68853  -0.65840
 Alpha  occ. eigenvalues --   -0.64339  -0.62700  -0.57699  -0.55740  -0.53812
 Alpha  occ. eigenvalues --   -0.53033  -0.50168  -0.47690  -0.45721  -0.43160
 Alpha  occ. eigenvalues --   -0.42245
 Alpha virt. eigenvalues --    0.03709   0.04615   0.05644   0.06823   0.07012
 Alpha virt. eigenvalues --    0.08742   0.09643   0.10494   0.11139   0.11695
 Alpha virt. eigenvalues --    0.13362   0.13911   0.14722   0.15666   0.16802
 Alpha virt. eigenvalues --    0.16952   0.17742   0.18049   0.18955   0.19250
 Alpha virt. eigenvalues --    0.20622   0.21335   0.21747   0.22519   0.23077
 Alpha virt. eigenvalues --    0.24064   0.24999   0.26827   0.27621   0.29448
 Alpha virt. eigenvalues --    0.30129   0.30318   0.32136   0.33254   0.34025
 Alpha virt. eigenvalues --    0.34901   0.36102   0.37460   0.38973   0.39947
 Alpha virt. eigenvalues --    0.40595   0.41513   0.42725   0.43410   0.43605
 Alpha virt. eigenvalues --    0.45007   0.47155   0.47931   0.48652   0.50910
 Alpha virt. eigenvalues --    0.51209   0.54383   0.58044   0.59869   0.60577
 Alpha virt. eigenvalues --    0.62799   0.66125   0.68556   0.68920   0.71559
 Alpha virt. eigenvalues --    0.73268   0.74876   0.78964   0.82448   0.82735
 Alpha virt. eigenvalues --    0.83856   0.87095   0.87541   0.88249   0.89705
 Alpha virt. eigenvalues --    0.90691   0.91915   0.92122   0.95478   0.97361
 Alpha virt. eigenvalues --    1.00174   1.04187   1.08780   1.10678   1.15269
 Alpha virt. eigenvalues --    1.20335   1.23072   1.24811   1.28825   1.29882
 Alpha virt. eigenvalues --    1.33807   1.37597   1.38642   1.39872   1.43363
 Alpha virt. eigenvalues --    1.45009   1.46091   1.49305   1.52836   1.55169
 Alpha virt. eigenvalues --    1.56076   1.57196   1.58941   1.61584   1.66514
 Alpha virt. eigenvalues --    1.68705   1.70608   1.73149   1.74879   1.77866
 Alpha virt. eigenvalues --    1.80863   1.81846   1.84746   1.86141   1.88833
 Alpha virt. eigenvalues --    1.90806   1.91552   1.95099   1.97124   1.98694
 Alpha virt. eigenvalues --    2.03340   2.05611   2.09072   2.12661   2.15095
 Alpha virt. eigenvalues --    2.16348   2.20765   2.25205   2.31254   2.33176
 Alpha virt. eigenvalues --    2.35300   2.38232   2.42579   2.48891   2.60774
 Alpha virt. eigenvalues --    2.64288   2.66444   2.75232   2.82438   2.83247
 Alpha virt. eigenvalues --    2.84518   2.85388   2.89140   2.92652   2.94317
 Alpha virt. eigenvalues --    2.96447   2.97813   3.02490   3.05294   3.06442
 Alpha virt. eigenvalues --    3.12696   3.13403   3.16035   3.18441   3.23489
 Alpha virt. eigenvalues --    3.27327   3.28402   3.31457   3.34629   3.39036
 Alpha virt. eigenvalues --    3.43808   3.45280   3.48300   3.50020   3.55582
 Alpha virt. eigenvalues --    3.61497   3.62054   3.65771   3.71894   3.72666
 Alpha virt. eigenvalues --    3.80847   3.85551   4.01278   4.13801   4.22047
 Alpha virt. eigenvalues --    4.22644   4.24625   4.27815   4.40563   4.50242
 Alpha virt. eigenvalues --    4.57945   4.67546   5.55297   5.55821   5.61524
 Alpha virt. eigenvalues --    5.66301   5.77498   5.93520   6.04706   6.22093
 Alpha virt. eigenvalues --    6.43437  24.68788  25.00177  25.02258  25.14845
 Alpha virt. eigenvalues --   26.13540  51.53089  51.61366  51.71938
  Beta  occ. eigenvalues --  -20.60954 -20.58499 -20.55880 -11.40955 -11.29422
  Beta  occ. eigenvalues --  -11.28347 -11.24920 -11.22190  -1.48165  -1.38289
  Beta  occ. eigenvalues --   -1.24755  -1.07752  -1.03413  -0.91551  -0.82994
  Beta  occ. eigenvalues --   -0.76127  -0.72019  -0.69513  -0.67458  -0.63225
  Beta  occ. eigenvalues --   -0.62823  -0.58065  -0.55552  -0.53905  -0.50245
  Beta  occ. eigenvalues --   -0.50086  -0.48452  -0.46928  -0.44263  -0.42306
  Beta virt. eigenvalues --    0.03781   0.04472   0.04731   0.06631   0.07011
  Beta virt. eigenvalues --    0.08025   0.08890   0.09736   0.10746   0.11897
  Beta virt. eigenvalues --    0.12035   0.13562   0.14445   0.15487   0.15928
  Beta virt. eigenvalues --    0.17109   0.17160   0.17906   0.18622   0.19243
  Beta virt. eigenvalues --    0.19669   0.21010   0.21699   0.21722   0.22770
  Beta virt. eigenvalues --    0.23289   0.24188   0.25087   0.26395   0.27796
  Beta virt. eigenvalues --    0.29583   0.30157   0.30860   0.32859   0.33698
  Beta virt. eigenvalues --    0.34895   0.35685   0.36240   0.37638   0.39356
  Beta virt. eigenvalues --    0.39954   0.40918   0.41424   0.43294   0.43569
  Beta virt. eigenvalues --    0.43835   0.44957   0.47303   0.47983   0.48925
  Beta virt. eigenvalues --    0.50850   0.51486   0.54311   0.58113   0.60118
  Beta virt. eigenvalues --    0.60740   0.63022   0.66204   0.68847   0.69444
  Beta virt. eigenvalues --    0.73965   0.74533   0.76042   0.79921   0.82185
  Beta virt. eigenvalues --    0.82896   0.86492   0.86703   0.87566   0.88081
  Beta virt. eigenvalues --    0.89532   0.89893   0.91731   0.92338   0.95037
  Beta virt. eigenvalues --    0.97080   1.00296   1.04274   1.08631   1.11511
  Beta virt. eigenvalues --    1.15321   1.20317   1.23346   1.25108   1.29285
  Beta virt. eigenvalues --    1.32465   1.35856   1.38045   1.40375   1.41850
  Beta virt. eigenvalues --    1.43831   1.45473   1.46835   1.49623   1.54826
  Beta virt. eigenvalues --    1.55751   1.57072   1.58341   1.60221   1.63004
  Beta virt. eigenvalues --    1.67808   1.69550   1.71295   1.73914   1.75639
  Beta virt. eigenvalues --    1.79195   1.81049   1.81871   1.84914   1.85689
  Beta virt. eigenvalues --    1.88612   1.90581   1.91388   1.95006   1.96997
  Beta virt. eigenvalues --    1.98669   2.03369   2.05625   2.09153   2.12686
  Beta virt. eigenvalues --    2.15311   2.16721   2.21185   2.25240   2.31480
  Beta virt. eigenvalues --    2.33546   2.36537   2.38458   2.42592   2.48920
  Beta virt. eigenvalues --    2.60792   2.64293   2.66362   2.75245   2.82396
  Beta virt. eigenvalues --    2.83247   2.84570   2.85480   2.89591   2.92722
  Beta virt. eigenvalues --    2.94521   2.96511   2.97992   3.03052   3.05304
  Beta virt. eigenvalues --    3.07005   3.12988   3.15204   3.19751   3.23193
  Beta virt. eigenvalues --    3.25038   3.27432   3.28667   3.31755   3.37354
  Beta virt. eigenvalues --    3.40671   3.45237   3.49174   3.50964   3.52888
  Beta virt. eigenvalues --    3.56271   3.61606   3.63848   3.65730   3.72321
  Beta virt. eigenvalues --    3.72434   3.80332   3.86639   4.01158   4.13558
  Beta virt. eigenvalues --    4.22121   4.22716   4.27321   4.27936   4.40516
  Beta virt. eigenvalues --    4.50080   4.57886   4.67540   5.57454   5.61155
  Beta virt. eigenvalues --    5.65634   5.67468   5.77428   5.93497   6.07087
  Beta virt. eigenvalues --    6.22005   6.43352  24.68693  25.00398  25.02307
  Beta virt. eigenvalues --   25.14843  26.13791  51.55075  51.61501  51.71724
          Condensed to atoms (all electrons):
               1          2          3          4          5          6
     1  O    8.064039   0.253320  -0.123702  -0.001469   0.373769  -0.398503
     2  H    0.253320   0.476628  -0.099131  -0.002537   0.066622   0.061975
     3  C   -0.123702  -0.099131  23.657256   0.616163  -8.241758  -8.767775
     4  H   -0.001469  -0.002537   0.616163   0.405713  -0.178381  -0.046801
     5  C    0.373769   0.066622  -8.241758  -0.178381  15.100731  -1.858652
     6  C   -0.398503   0.061975  -8.767775  -0.046801  -1.858652  16.867024
     7  O   -0.005552  -0.000553  -0.063281  -0.001914   0.146175   0.343793
     8  O    0.005897  -0.000168  -0.085827  -0.002804  -0.166400   0.146351
     9  C   -0.020153   0.003655  -0.145934  -0.000745  -0.324138   0.345549
    10  C    0.023827  -0.004218   0.086311   0.000181   0.130953  -0.316904
    11  H    0.000595   0.000045  -0.002789  -0.000008  -0.006697   0.009386
    12  H   -0.001899   0.000196  -0.029789  -0.000235  -0.065028   0.083445
    13  H    0.001212   0.000064  -0.005607  -0.000025  -0.002957   0.011095
    14  H   -0.002373  -0.000018  -0.006148  -0.000004  -0.005547   0.007131
    15  H    0.000711  -0.000251   0.030275  -0.000065   0.026985  -0.070161
               7          8          9         10         11         12
     1  O   -0.005552   0.005897  -0.020153   0.023827   0.000595  -0.001899
     2  H   -0.000553  -0.000168   0.003655  -0.004218   0.000045   0.000196
     3  C   -0.063281  -0.085827  -0.145934   0.086311  -0.002789  -0.029789
     4  H   -0.001914  -0.002804  -0.000745   0.000181  -0.000008  -0.000235
     5  C    0.146175  -0.166400  -0.324138   0.130953  -0.006697  -0.065028
     6  C    0.343793   0.146351   0.345549  -0.316904   0.009386   0.083445
     7  O    8.028323  -0.121511   0.031943  -0.056274   0.003818  -0.021359
     8  O   -0.121511   8.272335   0.152189  -0.066547  -0.082134  -0.016285
     9  C    0.031943   0.152189   5.399111  -0.058498   0.443570   0.451890
    10  C   -0.056274  -0.066547  -0.058498   5.520318  -0.049696  -0.052254
    11  H    0.003818  -0.082134   0.443570  -0.049696   0.553458  -0.036460
    12  H   -0.021359  -0.016285   0.451890  -0.052254  -0.036460   0.521112
    13  H   -0.001677   0.015203  -0.048421   0.405568   0.000608  -0.003515
    14  H    0.002515  -0.003892  -0.024054   0.409069  -0.006100   0.000784
    15  H   -0.003873  -0.014667  -0.044213   0.415562   0.006776  -0.003013
              13         14         15
     1  O    0.001212  -0.002373   0.000711
     2  H    0.000064  -0.000018  -0.000251
     3  C   -0.005607  -0.006148   0.030275
     4  H   -0.000025  -0.000004  -0.000065
     5  C   -0.002957  -0.005547   0.026985
     6  C    0.011095   0.007131  -0.070161
     7  O   -0.001677   0.002515  -0.003873
     8  O    0.015203  -0.003892  -0.014667
     9  C   -0.048421  -0.024054  -0.044213
    10  C    0.405568   0.409069   0.415562
    11  H    0.000608  -0.006100   0.006776
    12  H   -0.003515   0.000784  -0.003013
    13  H    0.561076  -0.031444  -0.039561
    14  H   -0.031444   0.552979  -0.043123
    15  H   -0.039561  -0.043123   0.560489
          Atomic-Atomic Spin Densities.
               1          2          3          4          5          6
     1  O    0.923532   0.016057  -0.370274  -0.004627   0.055364   0.260282
     2  H    0.016057  -0.045093   0.050311   0.000847  -0.025053  -0.030777
     3  C   -0.370274   0.050311  -0.301193  -0.033028   0.373192   1.406494
     4  H   -0.004627   0.000847  -0.033028  -0.069695   0.016209   0.010810
     5  C    0.055364  -0.025053   0.373192   0.016209  -1.352775  -0.093716
     6  C    0.260282  -0.030777   1.406494   0.010810  -0.093716  -1.361444
     7  O    0.001462  -0.000080  -0.007320  -0.000120   0.017642   0.012217
     8  O    0.000273   0.000619  -0.027185  -0.000650   0.029306  -0.009253
     9  C    0.003698  -0.000420   0.003444   0.000014  -0.007651   0.003589
    10  C   -0.003396   0.000618  -0.003386  -0.000189   0.013929  -0.008043
    11  H    0.000122  -0.000032  -0.000109  -0.000025  -0.001028   0.001351
    12  H    0.000913  -0.000096   0.008260   0.000051   0.009377  -0.018349
    13  H   -0.000139   0.000031  -0.000281  -0.000010   0.000390   0.000230
    14  H   -0.000109  -0.000046  -0.000473   0.000019  -0.001087   0.000947
    15  H    0.000268  -0.000152  -0.005551  -0.000026  -0.009753   0.015178
               7          8          9         10         11         12
     1  O    0.001462   0.000273   0.003698  -0.003396   0.000122   0.000913
     2  H   -0.000080   0.000619  -0.000420   0.000618  -0.000032  -0.000096
     3  C   -0.007320  -0.027185   0.003444  -0.003386  -0.000109   0.008260
     4  H   -0.000120  -0.000650   0.000014  -0.000189  -0.000025   0.000051
     5  C    0.017642   0.029306  -0.007651   0.013929  -0.001028   0.009377
     6  C    0.012217  -0.009253   0.003589  -0.008043   0.001351  -0.018349
     7  O   -0.107827   0.000752   0.001812   0.000612   0.000087  -0.000159
     8  O    0.000752   0.009308  -0.004596   0.003273   0.000618   0.000865
     9  C    0.001812  -0.004596   0.010183  -0.008476  -0.000776  -0.000452
    10  C    0.000612   0.003273  -0.008476   0.006634   0.000030   0.000003
    11  H    0.000087   0.000618  -0.000776   0.000030  -0.000092  -0.000088
    12  H   -0.000159   0.000865  -0.000452   0.000003  -0.000088  -0.000495
    13  H    0.000010   0.000222  -0.001964   0.001934  -0.000131   0.000192
    14  H   -0.000094  -0.000200   0.001285  -0.000939  -0.000031  -0.000005
    15  H   -0.000241  -0.000796   0.001701  -0.001017   0.000165   0.000276
              13         14         15
     1  O   -0.000139  -0.000109   0.000268
     2  H    0.000031  -0.000046  -0.000152
     3  C   -0.000281  -0.000473  -0.005551
     4  H   -0.000010   0.000019  -0.000026
     5  C    0.000390  -0.001087  -0.009753
     6  C    0.000230   0.000947   0.015178
     7  O    0.000010  -0.000094  -0.000241
     8  O    0.000222  -0.000200  -0.000796
     9  C   -0.001964   0.001285   0.001701
    10  C    0.001934  -0.000939  -0.001017
    11  H   -0.000131  -0.000031   0.000165
    12  H    0.000192  -0.000005   0.000276
    13  H   -0.000326  -0.000051  -0.000338
    14  H   -0.000051   0.000114   0.000049
    15  H   -0.000338   0.000049  -0.000059
 Mulliken charges and spin densities:
               1          2
     1  O   -0.169720   0.883426
     2  H    0.244372  -0.033266
     3  C   -0.818264   1.092904
     4  H    0.212932  -0.080420
     5  C    1.004325  -0.975652
     6  C   -0.416954   0.189518
     7  O   -0.280574  -0.081249
     8  O   -0.031739   0.002555
     9  C   -0.161751   0.001391
    10  C   -0.387397   0.001588
    11  H    0.165629   0.000061
    12  H    0.172408   0.000293
    13  H    0.138381  -0.000233
    14  H    0.150223  -0.000620
    15  H    0.178130  -0.000295
 Sum of Mulliken charges =  -0.00000   1.00000
 Mulliken charges and spin densities with hydrogens summed into heavy atoms:
               1          2
     1  O    0.074652   0.850161
     3  C   -0.605332   1.012483
     5  C    1.004325  -0.975652
     6  C   -0.416954   0.189518
     7  O   -0.280574  -0.081249
     8  O   -0.031739   0.002555
     9  C    0.176285   0.001745
    10  C    0.079336   0.000440
 Electronic spatial extent (au):  <R**2>=           1062.3914
 Charge=             -0.0000 electrons
 Dipole moment (field-independent basis, Debye):
    X=             -0.7915    Y=              0.4677    Z=             -0.7253  Tot=              1.1710
 Quadrupole moment (field-independent basis, Debye-Ang):
   XX=            -30.4228   YY=            -48.2310   ZZ=            -51.6272
   XY=             -0.8750   XZ=             -2.0234   YZ=              5.4948
 Traceless Quadrupole moment (field-independent basis, Debye-Ang):
   XX=             13.0042   YY=             -4.8040   ZZ=             -8.2002
   XY=             -0.8750   XZ=             -2.0234   YZ=              5.4948
 Octapole moment (field-independent basis, Debye-Ang**2):
  XXX=            -33.8727  YYY=              5.9379  ZZZ=             -1.6980  XYY=             -0.6597
  XXY=             -0.5880  XXZ=             -5.2469  XZZ=             -0.1592  YZZ=              7.9355
  YYZ=              3.3633  XYZ=             -7.0976
 Hexadecapole moment (field-independent basis, Debye-Ang**3):
 XXXX=           -750.7876 YYYY=           -253.6112 ZZZZ=           -174.0290 XXXY=             -9.3072
 XXXZ=             17.9544 YYYX=            -25.0831 YYYZ=             10.8385 ZZZX=            -11.3922
 ZZZY=              8.3565 XXYY=           -197.6149 XXZZ=           -180.5286 YYZZ=            -71.4774
 XXYZ=             20.5707 YYXZ=            -13.4148 ZZXY=             -9.5515
 N-N= 3.626740034635D+02 E-N=-1.708587079867D+03  KE= 4.177402484409D+02
 1\1\GINC-AJ\SP\UCCSD(T)-FC\6-311++G(d,p)\C5H7O3(2)\AAYUSH\24-Aug-2025\
 0\\# ccsd(t)/6-311++g(d,p) sp\\Title Card Required\\0,2\O,0,-1.3513555
 7,1.69612544,0.097321\H,0,-1.97804057,1.81472844,0.827699\C,0,-2.72513
 257,-0.46860856,-0.447339\H,0,-3.75105057,-0.54655956,-0.72415\C,0,-1.
 56419057,-0.27211756,-0.143889\C,0,-0.16434157,-0.53996656,0.22542\O,0
 ,0.16656543,-0.89238956,1.321304\O,0,0.63796043,-0.33829256,-0.810339\
 C,0,2.05252843,-0.42441656,-0.53934\C,0,2.54099443,0.84369244,0.13191\
 H,0,2.50168043,-0.56309056,-1.52093\H,0,2.23948243,-1.30540756,0.07560
 2\H,0,3.62288143,0.79292744,0.2692\H,0,2.30527843,1.71249344,-0.483802
 \H,0,2.07308543,0.96472744,1.109253\\Version=ES64L-G16RevA.03\State=2-
 A\HF=-417.9791873\MP2=-419.2358336\MP3=-419.2657341\MP4D=-419.296115\M
 P4DQ=-419.2716066\PUHF=-418.0009883\PMP2-0=-419.2548829\PMP3-0=-419.28
 01015\MP4SDQ=-419.2930735\CCSD=-419.2993027\CCSD(T)=-419.3535693\S2=1.
 015589\S2-1=0.942253\S2A=0.792328\RMSD=3.587e-09\PG=C01 [X(C5H7O3)]\\@


 WE ARE REACHING THE STAGE WHERE THE PROBLEMS WE MUST SOLVE ARE 
 GOING TO BECOME INSOLUBLE WITHOUT COMPUTERS.
 I DO NOT FEAR COMPUTERS.  I FEAR THE LACK OF THEM.

                                   -- ISSAC ASIMOV
 Job cpu time:       0 days 19 hours  8 minutes 49.6 seconds.
 Elapsed time:       0 days  0 hours 48 minutes  5.2 seconds.
 File lengths (MBytes):  RWF=  44733 Int=      0 D2E=      0 Chk=      6 Scr=      1
 Normal termination of Gaussian 16 at Sun Aug 24 01:26:09 2025.
