 Entering Gaussian System, Link 0=g16
 Initial command:
 /opt/g16/l1.exe "/home/aayush/scratches/g16/Gau-43381.inp" -scrdir="/home/aayush/scratches/g16/"
 Entering Link 1 = /opt/g16/l1.exe PID=     43384.
  
 Copyright (c) 1988,1990,1992,1993,1995,1998,2003,2009,2016,
            Gaussian, Inc.  All Rights Reserved.
  
 This is part of the Gaussian(R) 16 program.  It is based on
 the Gaussian(R) 09 system (copyright 2009, Gaussian, Inc.),
 the Gaussian(R) 03 system (copyright 2003, Gaussian, Inc.),
 the Gaussian(R) 98 system (copyright 1998, Gaussian, Inc.),
 the Gaussian(R) 94 system (copyright 1995, Gaussian, Inc.),
 the Gaussian 92(TM) system (copyright 1992, Gaussian, Inc.),
 the Gaussian 90(TM) system (copyright 1990, Gaussian, Inc.),
 the Gaussian 88(TM) system (copyright 1988, Gaussian, Inc.),
 the Gaussian 86(TM) system (copyright 1986, Carnegie Mellon
 University), and the Gaussian 82(TM) system (copyright 1983,
 Carnegie Mellon University). Gaussian is a federally registered
 trademark of Gaussian, Inc.
  
 This software contains proprietary and confidential information,
 including trade secrets, belonging to Gaussian, Inc.
  
 This software is provided under written license and may be
 used, copied, transmitted, or stored only in accord with that
 written license.
  
 The following legend is applicable only to US Government
 contracts under FAR:
  
                    RESTRICTED RIGHTS LEGEND
  
 Use, reproduction and disclosure by the US Government is
 subject to restrictions as set forth in subparagraphs (a)
 and (c) of the Commercial Computer Software - Restricted
 Rights clause in FAR 52.227-19.
  
 Gaussian, Inc.
 340 Quinnipiac St., Bldg. 40, Wallingford CT 06492
  
  
 ---------------------------------------------------------------
 Warning -- This program may not be used in any manner that
 competes with the business of Gaussian, Inc. or will provide
 assistance to any competitor of Gaussian, Inc.  The licensee
 of this program is prohibited from giving any competitor of
 Gaussian, Inc. access to this program.  By using this program,
 the user acknowledges that Gaussian, Inc. is engaged in the
 business of creating and licensing software in the field of
 computational chemistry and represents and warrants to the
 licensee that it is not a competitor of Gaussian, Inc. and that
 it will not use this program in any manner prohibited above.
 ---------------------------------------------------------------
  

 Cite this work as:
 Gaussian 16, Revision A.03,
 M. J. Frisch, G. W. Trucks, H. B. Schlegel, G. E. Scuseria, 
 M. A. Robb, J. R. Cheeseman, G. Scalmani, V. Barone, 
 G. A. Petersson, H. Nakatsuji, X. Li, M. Caricato, A. V. Marenich, 
 J. Bloino, B. G. Janesko, R. Gomperts, B. Mennucci, H. P. Hratchian, 
 J. V. Ortiz, A. F. Izmaylov, J. L. Sonnenberg, D. Williams-Young, 
 F. Ding, F. Lipparini, F. Egidi, J. Goings, B. Peng, A. Petrone, 
 T. Henderson, D. Ranasinghe, V. G. Zakrzewski, J. Gao, N. Rega, 
 G. Zheng, W. Liang, M. Hada, M. Ehara, K. Toyota, R. Fukuda, 
 J. Hasegawa, M. Ishida, T. Nakajima, Y. Honda, O. Kitao, H. Nakai, 
 T. Vreven, K. Throssell, J. A. Montgomery, Jr., J. E. Peralta, 
 F. Ogliaro, M. J. Bearpark, J. J. Heyd, E. N. Brothers, K. N. Kudin, 
 V. N. Staroverov, T. A. Keith, R. Kobayashi, J. Normand, 
 K. Raghavachari, A. P. Rendell, J. C. Burant, S. S. Iyengar, 
 J. Tomasi, M. Cossi, J. M. Millam, M. Klene, C. Adamo, R. Cammi, 
 J. W. Ochterski, R. L. Martin, K. Morokuma, O. Farkas, 
 J. B. Foresman, and D. J. Fox, Gaussian, Inc., Wallingford CT, 2016.
 
 ******************************************
 Gaussian 16:  ES64L-G16RevA.03 25-Dec-2016
                16-Aug-2025 
 ******************************************
 %nprocshared=24
 Will use up to   24 processors via shared memory.
 %mem=12GB
 %chk=ethyl_propiolate_ts1.chk
 --------------------------
 # freq 6-311++g(d,p) m062x
 --------------------------
 1/10=4,30=1,38=1/1,3;
 2/12=2,17=6,18=5,40=1/2;
 3/5=4,6=6,7=1111,11=2,25=1,30=1,71=2,74=-55,140=1/1,2,3;
 4//1;
 5/5=2,38=5,98=1/2;
 8/6=4,10=90,11=11/1;
 11/6=1,8=1,9=11,15=111,16=1/1,2,10;
 10/6=1/2;
 6/7=2,8=2,9=2,10=2,28=1/1;
 7/8=1,10=1,25=1/1,2,3,16;
 1/10=4,30=1/3;
 99//99;
 -------------------
 Title Card Required
 -------------------
 Symbolic Z-matrix:
 Charge =  0 Multiplicity = 2
 O                    -1.35136   1.69613   0.09732 
 H                    -1.97804   1.81473   0.8277 
 C                    -2.72513  -0.46861  -0.44734 
 H                    -3.75105  -0.54656  -0.72415 
 C                    -1.56419  -0.27212  -0.14389 
 C                    -0.16434  -0.53997   0.22542 
 O                     0.16657  -0.89239   1.3213 
 O                     0.63796  -0.33829  -0.81034 
 C                     2.05253  -0.42442  -0.53934 
 C                     2.54099   0.84369   0.13191 
 H                     2.50168  -0.56309  -1.52093 
 H                     2.23948  -1.30541   0.0756 
 H                     3.62288   0.79293   0.2692 
 H                     2.30528   1.71249  -0.4838 
 H                     2.07309   0.96473   1.10925 
 

 GradGradGradGradGradGradGradGradGradGradGradGradGradGradGradGradGradGrad
 Berny optimization.
 Initialization pass.
 Trust Radius=3.00D-01 FncErr=1.00D-07 GrdErr=1.00D-07 EigMax=2.50D+02 EigMin=1.00D-04
 Number of steps in this run=      2 maximum allowed number of steps=      2.
 GradGradGradGradGradGradGradGradGradGradGradGradGradGradGradGradGradGrad

                          Input orientation:                          
 ---------------------------------------------------------------------
 Center     Atomic      Atomic             Coordinates (Angstroms)
 Number     Number       Type             X           Y           Z
 ---------------------------------------------------------------------
      1          8           0       -1.351356    1.696125    0.097321
      2          1           0       -1.978041    1.814728    0.827699
      3          6           0       -2.725133   -0.468609   -0.447339
      4          1           0       -3.751051   -0.546560   -0.724150
      5          6           0       -1.564191   -0.272118   -0.143889
      6          6           0       -0.164342   -0.539967    0.225420
      7          8           0        0.166565   -0.892390    1.321304
      8          8           0        0.637960   -0.338293   -0.810339
      9          6           0        2.052528   -0.424417   -0.539340
     10          6           0        2.540994    0.843692    0.131910
     11          1           0        2.501680   -0.563091   -1.520930
     12          1           0        2.239482   -1.305408    0.075602
     13          1           0        3.622881    0.792927    0.269200
     14          1           0        2.305278    1.712493   -0.483802
     15          1           0        2.073085    0.964727    1.109253
 ---------------------------------------------------------------------
                    Distance matrix (angstroms):
                    1          2          3          4          5
     1  O    0.000000
     2  H    0.969666   0.000000
     3  C    2.621067   2.719834   0.000000
     4  H    3.385703   3.335788   1.065462   0.000000
     5  C    1.994357   2.338842   1.215926   2.279118   0.000000
     6  C    2.534861   3.032628   2.648650   3.710284   1.472314
     7  O    3.240776   3.488763   3.416080   4.432967   2.350967
     8  O    2.986651   3.763260   3.385136   4.394795   2.301739
     9  C    4.060599   4.809163   4.778751   5.807805   3.641460
    10  C    3.984749   4.674260   5.457999   6.500421   4.263055
    11  H    4.750650   5.589095   5.336769   6.303315   4.302582
    12  H    4.680148   5.299849   5.061729   6.091136   3.947631
    13  H    5.058492   5.720693   6.511696   7.560148   5.311373
    14  H    3.702559   4.480771   5.483026   6.468401   4.361996
    15  H    3.644962   4.148903   5.244075   6.290144   4.041030
                    6          7          8          9         10
     6  C    0.000000
     7  O    1.197774   0.000000
     8  O    1.325578   2.252363   0.000000
     9  C    2.347919   2.690325   1.442865   0.000000
    10  C    3.040082   3.172783   2.430321   1.515677   0.000000
    11  H    3.187153   3.693169   2.007218   1.088341   2.170821
    12  H    2.527195   2.453435   2.070042   1.090528   2.170878
    13  H    4.015169   3.986645   3.369691   2.145151   1.091744
    14  H    3.416957   3.823338   2.663137   2.152522   1.090632
    15  H    2.837489   2.669956   2.728054   2.155923   1.090315
                   11         12         13         14         15
    11  H    0.000000
    12  H    1.780083   0.000000
    13  H    2.510068   2.520770   0.000000
    14  H    2.508484   3.070014   1.774455   0.000000
    15  H    3.071772   2.499927   1.771178   1.775075   0.000000
 Stoichiometry    C5H7O3(2)
 Framework group  C1[X(C5H7O3)]
 Deg. of freedom    39
 Full point group                 C1      NOp   1
 Largest Abelian subgroup         C1      NOp   1
 Largest concise Abelian subgroup C1      NOp   1
                         Standard orientation:                         
 ---------------------------------------------------------------------
 Center     Atomic      Atomic             Coordinates (Angstroms)
 Number     Number       Type             X           Y           Z
 ---------------------------------------------------------------------
      1          8           0       -1.408369    1.672767    0.100932
      2          1           0       -2.035054    1.791370    0.831310
      3          6           0       -2.782146   -0.491967   -0.443728
      4          1           0       -3.808064   -0.569918   -0.720539
      5          6           0       -1.621204   -0.295476   -0.140278
      6          6           0       -0.221355   -0.563325    0.229031
      7          8           0        0.109552   -0.915748    1.324915
      8          8           0        0.580947   -0.361651   -0.806728
      9          6           0        1.995515   -0.447775   -0.535729
     10          6           0        2.483981    0.820334    0.135521
     11          1           0        2.444667   -0.586449   -1.517319
     12          1           0        2.182469   -1.328766    0.079213
     13          1           0        3.565868    0.769569    0.272811
     14          1           0        2.248265    1.689135   -0.480191
     15          1           0        2.016072    0.941369    1.112864
 ---------------------------------------------------------------------
 Rotational constants (GHZ):           3.6330721           1.3098764           1.1915302
 Standard basis: 6-311++G(d,p) (5D, 7F)
 There are   233 symmetry adapted cartesian basis functions of A   symmetry.
 There are   225 symmetry adapted basis functions of A   symmetry.
   225 basis functions,   351 primitive gaussians,   233 cartesian basis functions
    31 alpha electrons       30 beta electrons
       nuclear repulsion energy       362.6740034635 Hartrees.
 NAtoms=   15 NActive=   15 NUniq=   15 SFac= 1.00D+00 NAtFMM=   60 NAOKFM=F Big=F
 Integral buffers will be    131072 words long.
 Raffenetti 2 integral format.
 Two-electron integral symmetry is turned on.
 One-electron integrals computed using PRISM.
 NBasis=   225 RedAO= T EigKep=  2.57D-06  NBF=   225
 NBsUse=   225 1.00D-06 EigRej= -1.00D+00 NBFU=   225
 ExpMin= 3.60D-02 ExpMax= 8.59D+03 ExpMxC= 1.30D+03 IAcc=3 IRadAn=         5 AccDes= 0.00D+00
 Harris functional with IExCor= 1009 and IRadAn=       5 diagonalized for initial guess.
 HarFok:  IExCor= 1009 AccDes= 0.00D+00 IRadAn=         5 IDoV= 1 UseB2=F ITyADJ=14
 ICtDFT=  3500011 ScaDFX=  1.000000  1.000000  1.000000  1.000000
 FoFCou: FMM=F IPFlag=           0 FMFlag=      100000 FMFlg1=           0
         NFxFlg=           0 DoJE=T BraDBF=F KetDBF=T FulRan=T
         wScrn=  0.000000 ICntrl=       500 IOpCl=  0 I1Cent=   200000004 NGrid=           0
         NMat0=    1 NMatS0=      1 NMatT0=    0 NMatD0=    1 NMtDS0=    0 NMtDT0=    0
 Petite list used in FoFCou.
 Initial guess <Sx>= 0.0000 <Sy>= 0.0000 <Sz>= 0.5000 <S**2>= 0.7500 S= 0.5000
 Requested convergence on RMS density matrix=1.00D-08 within 128 cycles.
 Requested convergence on MAX density matrix=1.00D-06.
 Requested convergence on             energy=1.00D-06.
 No special actions if energy rises.
 Restarting incremental Fock formation.
 SCF Done:  E(UM062X) =  -420.202229004     A.U. after   23 cycles
            NFock= 23  Conv=0.46D-08     -V/T= 2.0033
 <Sx>= 0.0000 <Sy>= 0.0000 <Sz>= 0.5000 <S**2>= 0.7761 S= 0.5130
 <L.S>=  0.00000000000    
 Annihilation of the first spin contaminant:
 S**2 before annihilation     0.7761,   after     0.7503
 DoSCS=F DFT=T ScalE2(SS,OS)=  1.000000  1.000000
 Range of M.O.s used for correlation:     1   225
 NBasis=   225 NAE=    31 NBE=    30 NFC=     0 NFV=     0
 NROrb=    225 NOA=    31 NOB=    30 NVA=   194 NVB=   195

 **** Warning!!: The largest alpha MO coefficient is  0.16834192D+03


 **** Warning!!: The largest beta MO coefficient is  0.16232517D+03

 Symmetrizing basis deriv contribution to polar:
 IMax=3 JMax=2 DiffMx= 0.00D+00
 G2DrvN: will do    16 centers at a time, making    1 passes.
 Calling FoFCou, ICntrl=  3107 FMM=F I1Cent=   0 AccDes= 0.00D+00.
 End of G2Drv F.D. properties file   721 does not exist.
 End of G2Drv F.D. properties file   722 does not exist.
 End of G2Drv F.D. properties file   788 does not exist.
          IDoAtm=111111111111111
          Differentiating once with respect to electric field.
                with respect to dipole field.
          Differentiating once with respect to nuclear coordinates.
 Keep R1 and R2 ints in memory in canonical form, NReq=671901991.
          There are    48 degrees of freedom in the 1st order CPHF.  IDoFFX=6 NUNeed=     3.
     45 vectors produced by pass  0 Test12= 2.47D-14 2.08D-09 XBig12= 9.26D+01 4.10D+00.
 AX will form    45 AO Fock derivatives at one time.
     45 vectors produced by pass  1 Test12= 2.47D-14 2.08D-09 XBig12= 1.86D+01 4.92D-01.
     45 vectors produced by pass  2 Test12= 2.47D-14 2.08D-09 XBig12= 7.36D-01 1.18D-01.
     45 vectors produced by pass  3 Test12= 2.47D-14 2.08D-09 XBig12= 1.16D-02 1.27D-02.
     45 vectors produced by pass  4 Test12= 2.47D-14 2.08D-09 XBig12= 1.16D-04 1.48D-03.
     45 vectors produced by pass  5 Test12= 2.47D-14 2.08D-09 XBig12= 1.05D-06 1.18D-04.
     40 vectors produced by pass  6 Test12= 2.47D-14 2.08D-09 XBig12= 1.04D-08 1.07D-05.
     22 vectors produced by pass  7 Test12= 2.47D-14 2.08D-09 XBig12= 7.75D-11 6.95D-07.
      4 vectors produced by pass  8 Test12= 2.47D-14 2.08D-09 XBig12= 6.11D-13 6.67D-08.
      3 vectors produced by pass  9 Test12= 2.47D-14 2.08D-09 XBig12= 7.59D-15 8.38D-09.
      2 vectors produced by pass 10 Test12= 2.47D-14 2.08D-09 XBig12= 2.22D-16 2.17D-09.
      1 vectors produced by pass 11 Test12= 2.47D-14 2.08D-09 XBig12= 2.02D-16 2.26D-09.
 InvSVY:  IOpt=1 It=  1 EMax= 3.55D-15
 Solved reduced A of dimension   342 with    48 vectors.
 Isotropic polarizability for W=    0.000000       75.08 Bohr**3.
 End of Minotr F.D. properties file   721 does not exist.
 End of Minotr F.D. properties file   722 does not exist.
 End of Minotr F.D. properties file   788 does not exist.

 **********************************************************************

            Population analysis using the SCF density.

 **********************************************************************

 Orbital symmetries:
 Alpha Orbitals:
       Occupied  (A) (A) (A) (A) (A) (A) (A) (A) (A) (A) (A) (A)
                 (A) (A) (A) (A) (A) (A) (A) (A) (A) (A) (A) (A)
                 (A) (A) (A) (A) (A) (A) (A)
       Virtual   (A) (A) (A) (A) (A) (A) (A) (A) (A) (A) (A) (A)
                 (A) (A) (A) (A) (A) (A) (A) (A) (A) (A) (A) (A)
                 (A) (A) (A) (A) (A) (A) (A) (A) (A) (A) (A) (A)
                 (A) (A) (A) (A) (A) (A) (A) (A) (A) (A) (A) (A)
                 (A) (A) (A) (A) (A) (A) (A) (A) (A) (A) (A) (A)
                 (A) (A) (A) (A) (A) (A) (A) (A) (A) (A) (A) (A)
                 (A) (A) (A) (A) (A) (A) (A) (A) (A) (A) (A) (A)
                 (A) (A) (A) (A) (A) (A) (A) (A) (A) (A) (A) (A)
                 (A) (A) (A) (A) (A) (A) (A) (A) (A) (A) (A) (A)
                 (A) (A) (A) (A) (A) (A) (A) (A) (A) (A) (A) (A)
                 (A) (A) (A) (A) (A) (A) (A) (A) (A) (A) (A) (A)
                 (A) (A) (A) (A) (A) (A) (A) (A) (A) (A) (A) (A)
                 (A) (A) (A) (A) (A) (A) (A) (A) (A) (A) (A) (A)
                 (A) (A) (A) (A) (A) (A) (A) (A) (A) (A) (A) (A)
                 (A) (A) (A) (A) (A) (A) (A) (A) (A) (A) (A) (A)
                 (A) (A) (A) (A) (A) (A) (A) (A) (A) (A) (A) (A)
                 (A) (A)
 Beta  Orbitals:
       Occupied  (A) (A) (A) (A) (A) (A) (A) (A) (A) (A) (A) (A)
                 (A) (A) (A) (A) (A) (A) (A) (A) (A) (A) (A) (A)
                 (A) (A) (A) (A) (A) (A)
       Virtual   (A) (A) (A) (A) (A) (A) (A) (A) (A) (A) (A) (A)
                 (A) (A) (A) (A) (A) (A) (A) (A) (A) (A) (A) (A)
                 (A) (A) (A) (A) (A) (A) (A) (A) (A) (A) (A) (A)
                 (A) (A) (A) (A) (A) (A) (A) (A) (A) (A) (A) (A)
                 (A) (A) (A) (A) (A) (A) (A) (A) (A) (A) (A) (A)
                 (A) (A) (A) (A) (A) (A) (A) (A) (A) (A) (A) (A)
                 (A) (A) (A) (A) (A) (A) (A) (A) (A) (A) (A) (A)
                 (A) (A) (A) (A) (A) (A) (A) (A) (A) (A) (A) (A)
                 (A) (A) (A) (A) (A) (A) (A) (A) (A) (A) (A) (A)
                 (A) (A) (A) (A) (A) (A) (A) (A) (A) (A) (A) (A)
                 (A) (A) (A) (A) (A) (A) (A) (A) (A) (A) (A) (A)
                 (A) (A) (A) (A) (A) (A) (A) (A) (A) (A) (A) (A)
                 (A) (A) (A) (A) (A) (A) (A) (A) (A) (A) (A) (A)
                 (A) (A) (A) (A) (A) (A) (A) (A) (A) (A) (A) (A)
                 (A) (A) (A) (A) (A) (A) (A) (A) (A) (A) (A) (A)
                 (A) (A) (A) (A) (A) (A) (A) (A) (A) (A) (A) (A)
                 (A) (A) (A)
 The electronic state is 2-A.
 Alpha  occ. eigenvalues --  -19.68129 -19.65581 -19.63074 -10.70658 -10.60375
 Alpha  occ. eigenvalues --  -10.59777 -10.58747 -10.53372  -1.25695  -1.16401
 Alpha  occ. eigenvalues --   -1.11691  -0.91177  -0.87528  -0.78155  -0.70737
 Alpha  occ. eigenvalues --   -0.64530  -0.62245  -0.58611  -0.57292  -0.53569
 Alpha  occ. eigenvalues --   -0.53238  -0.50128  -0.48395  -0.46029  -0.45083
 Alpha  occ. eigenvalues --   -0.41746  -0.40867  -0.39742  -0.38344  -0.36720
 Alpha  occ. eigenvalues --   -0.33928
 Alpha virt. eigenvalues --   -0.00575  -0.00232   0.00491   0.01483   0.02537
 Alpha virt. eigenvalues --    0.02768   0.03341   0.04305   0.05685   0.06165
 Alpha virt. eigenvalues --    0.07089   0.07605   0.08409   0.09847   0.10629
 Alpha virt. eigenvalues --    0.11016   0.11379   0.12384   0.12846   0.13691
 Alpha virt. eigenvalues --    0.14260   0.14595   0.15115   0.15630   0.15784
 Alpha virt. eigenvalues --    0.16856   0.17469   0.18294   0.19080   0.20553
 Alpha virt. eigenvalues --    0.21214   0.21726   0.23560   0.24307   0.24486
 Alpha virt. eigenvalues --    0.25286   0.26706   0.27631   0.29686   0.30829
 Alpha virt. eigenvalues --    0.31219   0.32035   0.32566   0.34038   0.34549
 Alpha virt. eigenvalues --    0.34822   0.35981   0.36959   0.38813   0.40500
 Alpha virt. eigenvalues --    0.41159   0.43300   0.44843   0.46771   0.48678
 Alpha virt. eigenvalues --    0.50016   0.53583   0.55080   0.55974   0.58273
 Alpha virt. eigenvalues --    0.59071   0.60589   0.63192   0.65986   0.67023
 Alpha virt. eigenvalues --    0.69088   0.69976   0.70304   0.72099   0.72142
 Alpha virt. eigenvalues --    0.73773   0.75439   0.77391   0.78784   0.79716
 Alpha virt. eigenvalues --    0.83898   0.86487   0.91346   0.93731   0.98197
 Alpha virt. eigenvalues --    1.00943   1.04643   1.06552   1.08451   1.11565
 Alpha virt. eigenvalues --    1.15786   1.17974   1.19464   1.20461   1.23691
 Alpha virt. eigenvalues --    1.25238   1.26438   1.29458   1.32850   1.35274
 Alpha virt. eigenvalues --    1.35755   1.36631   1.38424   1.41778   1.45773
 Alpha virt. eigenvalues --    1.47736   1.49269   1.51464   1.53356   1.57044
 Alpha virt. eigenvalues --    1.58573   1.59817   1.62054   1.62673   1.65457
 Alpha virt. eigenvalues --    1.66390   1.67923   1.70650   1.73436   1.74658
 Alpha virt. eigenvalues --    1.78895   1.81112   1.83958   1.86861   1.89071
 Alpha virt. eigenvalues --    1.90472   1.94775   1.99353   2.03923   2.05096
 Alpha virt. eigenvalues --    2.10017   2.11430   2.14272   2.21111   2.31780
 Alpha virt. eigenvalues --    2.35419   2.36252   2.44902   2.52034   2.53413
 Alpha virt. eigenvalues --    2.54478   2.55685   2.60631   2.62107   2.63457
 Alpha virt. eigenvalues --    2.65699   2.66551   2.71969   2.73751   2.75852
 Alpha virt. eigenvalues --    2.79825   2.82919   2.84545   2.89513   2.91397
 Alpha virt. eigenvalues --    2.94535   2.96864   2.99283   3.02704   3.05162
 Alpha virt. eigenvalues --    3.11216   3.15883   3.16310   3.18915   3.21322
 Alpha virt. eigenvalues --    3.27268   3.27984   3.31610   3.36790   3.37595
 Alpha virt. eigenvalues --    3.45495   3.48632   3.65422   3.76516   3.85680
 Alpha virt. eigenvalues --    3.86327   3.89856   3.90976   4.03063   4.12244
 Alpha virt. eigenvalues --    4.19094   4.28427   5.12994   5.14580   5.17143
 Alpha virt. eigenvalues --    5.20526   5.32512   5.47562   5.60488   5.73662
 Alpha virt. eigenvalues --    5.94861  23.60350  23.92857  23.94403  24.06110
 Alpha virt. eigenvalues --   25.00497  49.96928  50.01558  50.11203
  Beta  occ. eigenvalues --  -19.68133 -19.64233 -19.63094 -10.70628 -10.60374
  Beta  occ. eigenvalues --  -10.59849 -10.58472 -10.53372  -1.25696  -1.16442
  Beta  occ. eigenvalues --   -1.06298  -0.90470  -0.87017  -0.77871  -0.70425
  Beta  occ. eigenvalues --   -0.64400  -0.61705  -0.58545  -0.56876  -0.53204
  Beta  occ. eigenvalues --   -0.51376  -0.48970  -0.46629  -0.45156  -0.41726
  Beta  occ. eigenvalues --   -0.39659  -0.39471  -0.38448  -0.37882  -0.35774
  Beta virt. eigenvalues --   -0.10005  -0.00181   0.00454   0.00788   0.01784
  Beta virt. eigenvalues --    0.02631   0.02808   0.03378   0.04365   0.05743
  Beta virt. eigenvalues --    0.06131   0.07193   0.07513   0.08469   0.09919
  Beta virt. eigenvalues --    0.10771   0.11260   0.11620   0.12492   0.12760
  Beta virt. eigenvalues --    0.13681   0.14358   0.14964   0.15440   0.15689
  Beta virt. eigenvalues --    0.16066   0.16874   0.17376   0.18295   0.19179
  Beta virt. eigenvalues --    0.20848   0.21478   0.21857   0.23693   0.24183
  Beta virt. eigenvalues --    0.24563   0.25320   0.26869   0.27681   0.29647
  Beta virt. eigenvalues --    0.30827   0.31204   0.32010   0.32625   0.34118
  Beta virt. eigenvalues --    0.34535   0.34816   0.36076   0.36982   0.38877
  Beta virt. eigenvalues --    0.40485   0.41303   0.43241   0.44845   0.46799
  Beta virt. eigenvalues --    0.48828   0.50036   0.53583   0.55137   0.56245
  Beta virt. eigenvalues --    0.58773   0.59427   0.60814   0.63288   0.66197
  Beta virt. eigenvalues --    0.66963   0.69389   0.69994   0.70243   0.71975
  Beta virt. eigenvalues --    0.72116   0.73777   0.75415   0.77284   0.78729
  Beta virt. eigenvalues --    0.79705   0.83940   0.86545   0.91387   0.94059
  Beta virt. eigenvalues --    0.98192   1.00993   1.04888   1.06968   1.08520
  Beta virt. eigenvalues --    1.13063   1.16486   1.18430   1.20043   1.21305
  Beta virt. eigenvalues --    1.23887   1.25760   1.26757   1.29730   1.33796
  Beta virt. eigenvalues --    1.35595   1.36456   1.36838   1.39063   1.42482
  Beta virt. eigenvalues --    1.46449   1.47993   1.49598   1.51887   1.53854
  Beta virt. eigenvalues --    1.57398   1.58668   1.59832   1.62116   1.62758
  Beta virt. eigenvalues --    1.65474   1.66389   1.67933   1.70674   1.73591
  Beta virt. eigenvalues --    1.74740   1.79065   1.81166   1.84264   1.87004
  Beta virt. eigenvalues --    1.89198   1.90751   1.95310   1.99382   2.04060
  Beta virt. eigenvalues --    2.05253   2.10178   2.12418   2.14301   2.21135
  Beta virt. eigenvalues --    2.31800   2.35491   2.36359   2.44998   2.52038
  Beta virt. eigenvalues --    2.53591   2.54490   2.55789   2.61294   2.62243
  Beta virt. eigenvalues --    2.63757   2.66000   2.66718   2.72356   2.73790
  Beta virt. eigenvalues --    2.76087   2.80600   2.83077   2.87015   2.90773
  Beta virt. eigenvalues --    2.92881   2.94601   2.97261   2.99552   3.03490
  Beta virt. eigenvalues --    3.07615   3.11533   3.16412   3.19972   3.20445
  Beta virt. eigenvalues --    3.22401   3.27307   3.29741   3.31685   3.37287
  Beta virt. eigenvalues --    3.37518   3.45446   3.49390   3.65402   3.76555
  Beta virt. eigenvalues --    3.85706   3.86359   3.90920   3.92819   4.03052
  Beta virt. eigenvalues --    4.12149   4.18989   4.28423   5.14316   5.16449
  Beta virt. eigenvalues --    5.20994   5.22858   5.32614   5.47551   5.62926
  Beta virt. eigenvalues --    5.73646   5.94849  23.60427  23.92864  23.94409
  Beta virt. eigenvalues --   24.06110  25.00964  49.96445  50.01462  50.11231
          Condensed to atoms (all electrons):
               1          2          3          4          5          6
     1  O    8.117942   0.233021  -0.303323  -0.003481   0.494147  -0.285198
     2  H    0.233021   0.512128  -0.094398  -0.002610   0.075909   0.043886
     3  C   -0.303323  -0.094398  23.956834   0.563172  -7.632900  -9.721102
     4  H   -0.003481  -0.002610   0.563172   0.426134  -0.136804  -0.042445
     5  C    0.494147   0.075909  -7.632900  -0.136804  14.796676  -1.918138
     6  C   -0.285198   0.043886  -9.721102  -0.042445  -1.918138  17.696315
     7  O   -0.008906   0.000028  -0.073689  -0.001456   0.084942   0.410962
     8  O    0.005354  -0.001170  -0.063828  -0.002566  -0.203906   0.125568
     9  C   -0.020199   0.003467  -0.169710  -0.000871  -0.353005   0.411777
    10  C    0.016335  -0.004007   0.068713   0.000220   0.098363  -0.283210
    11  H    0.000767   0.000024  -0.012239  -0.000015  -0.020369   0.041338
    12  H   -0.001140   0.000234  -0.031880  -0.000208  -0.052892   0.072739
    13  H    0.000416   0.000196  -0.007511  -0.000015  -0.007358   0.020732
    14  H   -0.001866  -0.000219   0.001825   0.000036   0.007673  -0.010736
    15  H    0.002804  -0.000211   0.027830  -0.000191   0.017320  -0.058592
               7          8          9         10         11         12
     1  O   -0.008906   0.005354  -0.020199   0.016335   0.000767  -0.001140
     2  H    0.000028  -0.001170   0.003467  -0.004007   0.000024   0.000234
     3  C   -0.073689  -0.063828  -0.169710   0.068713  -0.012239  -0.031880
     4  H   -0.001456  -0.002566  -0.000871   0.000220  -0.000015  -0.000208
     5  C    0.084942  -0.203906  -0.353005   0.098363  -0.020369  -0.052892
     6  C    0.410962   0.125568   0.411777  -0.283210   0.041338   0.072739
     7  O    7.972563  -0.151436   0.050148  -0.071233   0.004510  -0.015886
     8  O   -0.151436   8.256054   0.119675  -0.028103  -0.093282  -0.008613
     9  C    0.050148   0.119675   5.441283   0.027067   0.446851   0.414701
    10  C   -0.071233  -0.028103   0.027067   5.485851  -0.054781  -0.040364
    11  H    0.004510  -0.093282   0.446851  -0.054781   0.532268  -0.038161
    12  H   -0.015886  -0.008613   0.414701  -0.040364  -0.038161   0.522718
    13  H   -0.002211   0.015167  -0.048736   0.400768  -0.000372  -0.004392
    14  H    0.001646  -0.001277  -0.034886   0.414950  -0.010795   0.005236
    15  H    0.001452  -0.022956  -0.008692   0.385008   0.009069  -0.010128
              13         14         15
     1  O    0.000416  -0.001866   0.002804
     2  H    0.000196  -0.000219  -0.000211
     3  C   -0.007511   0.001825   0.027830
     4  H   -0.000015   0.000036  -0.000191
     5  C   -0.007358   0.007673   0.017320
     6  C    0.020732  -0.010736  -0.058592
     7  O   -0.002211   0.001646   0.001452
     8  O    0.015167  -0.001277  -0.022956
     9  C   -0.048736  -0.034886  -0.008692
    10  C    0.400768   0.414950   0.385008
    11  H   -0.000372  -0.010795   0.009069
    12  H   -0.004392   0.005236  -0.010128
    13  H    0.536138  -0.031945  -0.039492
    14  H   -0.031945   0.529375  -0.041913
    15  H   -0.039492  -0.041913   0.549659
          Atomic-Atomic Spin Densities.
               1          2          3          4          5          6
     1  O    0.865532   0.010052  -0.339817  -0.004389  -0.022342   0.217895
     2  H    0.010052  -0.030042   0.030231   0.000558  -0.007700  -0.019563
     3  C   -0.339817   0.030231   1.659053   0.060681  -0.524675  -0.381522
     4  H   -0.004389   0.000558   0.060681  -0.011328  -0.039868  -0.023585
     5  C   -0.022342  -0.007700  -0.524675  -0.039868   0.178586   0.216845
     6  C    0.217895  -0.019563  -0.381522  -0.023585   0.216845  -0.010313
     7  O    0.002274  -0.000243   0.003263  -0.000040   0.003776  -0.005033
     8  O    0.003303   0.000223  -0.019276  -0.000305   0.002787   0.019168
     9  C    0.004951  -0.000633  -0.031666  -0.000217  -0.035079   0.059142
    10  C   -0.003056   0.000740   0.034517   0.000259   0.040096  -0.064503
    11  H    0.000264  -0.000026  -0.001475  -0.000021  -0.001647   0.002380
    12  H    0.000635  -0.000067  -0.000544  -0.000064   0.001355  -0.002485
    13  H   -0.000055   0.000030   0.001585   0.000017   0.001780  -0.002777
    14  H   -0.000067  -0.000059  -0.001934  -0.000019  -0.003052   0.004465
    15  H    0.000247  -0.000318  -0.010395  -0.000044  -0.017015   0.025775
               7          8          9         10         11         12
     1  O    0.002274   0.003303   0.004951  -0.003056   0.000264   0.000635
     2  H   -0.000243   0.000223  -0.000633   0.000740  -0.000026  -0.000067
     3  C    0.003263  -0.019276  -0.031666   0.034517  -0.001475  -0.000544
     4  H   -0.000040  -0.000305  -0.000217   0.000259  -0.000021  -0.000064
     5  C    0.003776   0.002787  -0.035079   0.040096  -0.001647   0.001355
     6  C   -0.005033   0.019168   0.059142  -0.064503   0.002380  -0.002485
     7  O   -0.014750   0.000606   0.000012   0.000609   0.000041  -0.000382
     8  O    0.000606  -0.004022  -0.002638   0.001408   0.000082   0.000240
     9  C    0.000012  -0.002638   0.013079  -0.012627   0.000739   0.002347
    10  C    0.000609   0.001408  -0.012627   0.010673  -0.001010  -0.002127
    11  H    0.000041   0.000082   0.000739  -0.001010   0.000206   0.000263
    12  H   -0.000382   0.000240   0.002347  -0.002127   0.000263   0.000082
    13  H   -0.000049   0.000141  -0.001815   0.002153  -0.000044  -0.000191
    14  H   -0.000047  -0.000122   0.001227  -0.001481   0.000040   0.000192
    15  H   -0.000177  -0.000856   0.002571  -0.002017   0.000404   0.000719
              13         14         15
     1  O   -0.000055  -0.000067   0.000247
     2  H    0.000030  -0.000059  -0.000318
     3  C    0.001585  -0.001934  -0.010395
     4  H    0.000017  -0.000019  -0.000044
     5  C    0.001780  -0.003052  -0.017015
     6  C   -0.002777   0.004465   0.025775
     7  O   -0.000049  -0.000047  -0.000177
     8  O    0.000141  -0.000122  -0.000856
     9  C   -0.001815   0.001227   0.002571
    10  C    0.002153  -0.001481  -0.002017
    11  H   -0.000044   0.000040   0.000404
    12  H   -0.000191   0.000192   0.000719
    13  H    0.000262  -0.000434  -0.000573
    14  H   -0.000434   0.000601   0.000173
    15  H   -0.000573   0.000173   0.000183
 Mulliken charges and spin densities:
               1          2
     1  O   -0.246674   0.735428
     2  H    0.233722  -0.016816
     3  C   -0.507795   0.478027
     4  H    0.201100  -0.018365
     5  C    0.750343  -0.206152
     6  C   -0.503896   0.035889
     7  O   -0.201433  -0.010138
     8  O    0.055317   0.000739
     9  C   -0.278870  -0.000605
    10  C   -0.415577   0.003635
    11  H    0.195187   0.000194
    12  H    0.188036  -0.000027
    13  H    0.168615   0.000029
    14  H    0.172896  -0.000517
    15  H    0.189030  -0.001321
 Sum of Mulliken charges =  -0.00000   1.00000
 Mulliken charges and spin densities with hydrogens summed into heavy atoms:
               1          2
     1  O   -0.012952   0.718611
     3  C   -0.306694   0.459662
     5  C    0.750343  -0.206152
     6  C   -0.503896   0.035889
     7  O   -0.201433  -0.010138
     8  O    0.055317   0.000739
     9  C    0.104354  -0.000437
    10  C    0.114963   0.001826
 APT charges:
               1
     1  O   -0.147124
     2  H    0.248857
     3  C   -0.119142
     4  H    0.240060
     5  C   -0.494263
     6  C    1.463174
     7  O   -0.774385
     8  O   -0.936714
     9  C    0.531957
    10  C   -0.042794
    11  H   -0.013253
    12  H   -0.011104
    13  H    0.010407
    14  H    0.016775
    15  H    0.027548
 Sum of APT charges =  -0.00000
 APT charges with hydrogens summed into heavy atoms:
               1
     1  O    0.101734
     3  C    0.120918
     5  C   -0.494263
     6  C    1.463174
     7  O   -0.774385
     8  O   -0.936714
     9  C    0.507601
    10  C    0.011936
 Electronic spatial extent (au):  <R**2>=           1062.3075
 Charge=             -0.0000 electrons
 Dipole moment (field-independent basis, Debye):
    X=             -0.6997    Y=             -0.2966    Z=             -0.7554  Tot=              1.0715
 Quadrupole moment (field-independent basis, Debye-Ang):
   XX=            -29.7813   YY=            -49.2964   ZZ=            -51.0904
   XY=              0.5596   XZ=             -1.5769   YZ=              5.0611
 Traceless Quadrupole moment (field-independent basis, Debye-Ang):
   XX=             13.6081   YY=             -5.9070   ZZ=             -7.7011
   XY=              0.5596   XZ=             -1.5769   YZ=              5.0611
 Octapole moment (field-independent basis, Debye-Ang**2):
  XXX=            -35.7031  YYY=              1.7727  ZZZ=             -1.5603  XYY=              1.2746
  XXY=             -2.9074  XXZ=             -6.2367  XZZ=             -0.0675  YZZ=              6.7497
  YYZ=              3.1957  XYZ=             -6.7384
 Hexadecapole moment (field-independent basis, Debye-Ang**3):
 XXXX=           -740.3122 YYYY=           -264.8674 ZZZZ=           -174.3155 XXXY=              0.2555
 XXXZ=             21.4371 YYYX=            -17.4821 YYYZ=              9.3731 ZZZX=            -10.4839
 ZZZY=              7.5445 XXYY=           -200.6858 XXZZ=           -180.7025 YYZZ=            -72.4521
 XXYZ=             20.1389 YYXZ=            -12.5611 ZZXY=             -8.2632
 N-N= 3.626740034635D+02 E-N=-1.710156385008D+03  KE= 4.188188495707D+02
  Exact polarizability:  91.056   7.963  74.510   4.701   3.387  59.666
 Approx polarizability:  97.627   9.011  79.614   7.501   0.249  76.950
                          Isotropic Fermi Contact Couplings
        Atom                 a.u.       MegaHertz       Gauss      10(-4) cm-1
     1  O(17)              0.12991     -78.75161     -28.10053     -26.26871
     2  H(1)              -0.01272     -56.85487     -20.28723     -18.96474
     3  C(13)              0.05726      64.37521      22.97068      21.47326
     4  H(1)              -0.00702     -31.37116     -11.19401     -10.46429
     5  C(13)              0.00819       9.20354       3.28405       3.06997
     6  C(13)              0.01905      21.42030       7.64329       7.14504
     7  O(17)             -0.00378       2.29362       0.81842       0.76507
     8  O(17)              0.00053      -0.32195      -0.11488      -0.10739
     9  C(13)             -0.00001      -0.01463      -0.00522      -0.00488
    10  C(13)             -0.00061      -0.68107      -0.24302      -0.22718
    11  H(1)               0.00003       0.15290       0.05456       0.05100
    12  H(1)              -0.00004      -0.19654      -0.07013      -0.06556
    13  H(1)              -0.00001      -0.04817      -0.01719      -0.01607
    14  H(1)               0.00002       0.07549       0.02694       0.02518
    15  H(1)               0.00001       0.06353       0.02267       0.02119
 --------------------------------------------------------
       Center         ----  Spin Dipole Couplings  ----
                      3XX-RR        3YY-RR        3ZZ-RR
 --------------------------------------------------------
     1   Atom       -0.872293      2.224157     -1.351864
     2   Atom        0.002698     -0.043250      0.040553
     3   Atom       -0.256531      0.436668     -0.180137
     4   Atom        0.032488     -0.006039     -0.026449
     5   Atom        0.083383     -0.038248     -0.045135
     6   Atom        0.008303      0.010803     -0.019106
     7   Atom        0.029061     -0.041512      0.012451
     8   Atom        0.007746     -0.012194      0.004449
     9   Atom        0.002794     -0.000759     -0.002035
    10   Atom        0.003169     -0.001482     -0.001687
    11   Atom        0.001287     -0.000517     -0.000770
    12   Atom        0.001197      0.000039     -0.001236
    13   Atom        0.001663     -0.000775     -0.000888
    14   Atom        0.004139     -0.002088     -0.002051
    15   Atom        0.003618     -0.001833     -0.001785
 --------------------------------------------------------
                        XY            XZ            YZ
 --------------------------------------------------------
     1   Atom        1.481241      0.288268      0.688842
     2   Atom        0.000296     -0.112602      0.039343
     3   Atom       -0.047813     -0.025060      0.049937
     4   Atom        0.006470      0.017374      0.004292
     5   Atom       -0.005222      0.033579      0.004112
     6   Atom       -0.019805      0.005399     -0.001909
     7   Atom       -0.052099     -0.011539     -0.023914
     8   Atom       -0.012988     -0.008238      0.006145
     9   Atom       -0.002660     -0.000411      0.000281
    10   Atom       -0.001359      0.000072      0.000052
    11   Atom       -0.001052     -0.000822      0.000434
    12   Atom       -0.001413      0.000122     -0.000068
    13   Atom       -0.000379      0.000138      0.000010
    14   Atom        0.000001     -0.000953      0.000091
    15   Atom       -0.001240      0.001830     -0.000331
 --------------------------------------------------------


 ---------------------------------------------------------------------------------
              Anisotropic Spin Dipole Couplings in Principal Axis System
 ---------------------------------------------------------------------------------

       Atom             a.u.   MegaHertz   Gauss  10(-4) cm-1        Axes

              Baa    -1.4872   107.614    38.399    35.896 -0.4896  0.0337  0.8713
     1 O(17)  Bbb    -1.4610   105.720    37.723    35.264  0.7908 -0.4038  0.4600
              Bcc     2.9483  -213.334   -76.123   -71.160  0.3674  0.9142  0.1711
 
              Baa    -0.1041   -55.524   -19.812   -18.521  0.6627 -0.4090  0.6273
     2 H(1)   Bbb    -0.0367   -19.559    -6.979    -6.524  0.4148  0.8979  0.1473
              Bcc     0.1407    75.084    26.792    25.045 -0.6235  0.1625  0.7647
 
              Baa    -0.2655   -35.630   -12.714   -11.885  0.9656  0.0476  0.2556
     3 C(13)  Bbb    -0.1787   -23.978    -8.556    -7.998 -0.2502 -0.0976  0.9633
              Bcc     0.4442    59.609    21.270    19.883 -0.0708  0.9941  0.0824
 
              Baa    -0.0314   -16.770    -5.984    -5.594 -0.2517 -0.0986  0.9628
     4 H(1)   Bbb    -0.0070    -3.746    -1.337    -1.250 -0.1838  0.9816  0.0525
              Bcc     0.0385    20.516     7.321     6.843  0.9502  0.1638  0.2652
 
              Baa    -0.0550    -7.384    -2.635    -2.463 -0.2356 -0.2999  0.9244
     5 C(13)  Bbb    -0.0367    -4.929    -1.759    -1.644 -0.0420  0.9535  0.2986
              Bcc     0.0918    12.313     4.394     4.107  0.9709 -0.0315  0.2372
 
              Baa    -0.0203    -2.726    -0.973    -0.909 -0.2515 -0.1010  0.9626
     6 C(13)  Bbb    -0.0096    -1.290    -0.460    -0.430  0.6830  0.6861  0.2504
              Bcc     0.0299     4.016     1.433     1.340 -0.6857  0.7205 -0.1035
 
              Baa    -0.0770     5.573     1.989     1.859  0.4474  0.8479  0.2843
     7 O(17)  Bbb     0.0203    -1.468    -0.524    -0.490 -0.1568 -0.2386  0.9584
              Bcc     0.0567    -4.105    -1.465    -1.369  0.8805 -0.4733  0.0262
 
              Baa    -0.0188     1.358     0.485     0.453  0.4147  0.9053 -0.0925
     8 O(17)  Bbb    -0.0018     0.128     0.046     0.043  0.5200 -0.1524  0.8405
              Bcc     0.0205    -1.486    -0.530    -0.496  0.7467 -0.3966 -0.5339
 
              Baa    -0.0022    -0.296    -0.105    -0.099  0.4092  0.8280 -0.3834
     9 C(13)  Bbb    -0.0021    -0.275    -0.098    -0.092  0.2454  0.3048  0.9203
              Bcc     0.0043     0.571     0.204     0.190  0.8788 -0.4706 -0.0784
 
              Baa    -0.0019    -0.252    -0.090    -0.084  0.2490  0.9058 -0.3428
    10 C(13)  Bbb    -0.0017    -0.223    -0.080    -0.074  0.0798  0.3335  0.9394
              Bcc     0.0035     0.475     0.169     0.158  0.9652 -0.2613  0.0107
 
              Baa    -0.0011    -0.585    -0.209    -0.195  0.0611 -0.5249  0.8490
    11 H(1)   Bbb    -0.0010    -0.521    -0.186    -0.174  0.5039  0.7504  0.4277
              Bcc     0.0021     1.106     0.395     0.369  0.8616 -0.4017 -0.3104
 
              Baa    -0.0012    -0.663    -0.236    -0.221 -0.0527 -0.0049  0.9986
    12 H(1)   Bbb    -0.0009    -0.485    -0.173    -0.162  0.5556  0.8308  0.0334
              Bcc     0.0022     1.148     0.410     0.383  0.8298 -0.5566  0.0410
 
              Baa    -0.0009    -0.484    -0.173    -0.161 -0.1029 -0.3615  0.9267
    13 H(1)   Bbb    -0.0008    -0.438    -0.156    -0.146  0.1198  0.9203  0.3724
              Bcc     0.0017     0.921     0.329     0.307  0.9874 -0.1493  0.0514
 
              Baa    -0.0022    -1.198    -0.428    -0.400  0.1283 -0.4956  0.8590
    14 H(1)   Bbb    -0.0020    -1.087    -0.388    -0.362  0.0754  0.8685  0.4899
              Bcc     0.0043     2.285     0.815     0.762  0.9889 -0.0019 -0.1488
 
              Baa    -0.0024    -1.257    -0.448    -0.419 -0.3212 -0.1732  0.9310
    15 H(1)   Bbb    -0.0021    -1.113    -0.397    -0.371  0.1369  0.9643  0.2267
              Bcc     0.0044     2.370     0.846     0.790  0.9371 -0.2002  0.2861
 

 ---------------------------------------------------------------------------------

 Calling FoFJK, ICntrl=    100127 FMM=F ISym2X=0 I1Cent= 0 IOpClX= 1 NMat=1 NMatS=1 NMatT=0.
 Full mass-weighted force constant matrix:
 Low frequencies --- -577.2922  -12.7048   -4.3714   -0.0007    0.0004    0.0012
 Low frequencies ---    8.8903   49.9042   61.4690
 ******    1 imaginary frequencies (negative Signs) ****** 
 Diagonal vibrational polarizability:
       58.7856420      83.7043627      40.0530359
 Harmonic frequencies (cm**-1), IR intensities (KM/Mole), Raman scattering
 activities (A**4/AMU), depolarization ratios for plane and unpolarized
 incident light, reduced masses (AMU), force constants (mDyne/A),
 and normal coordinates:
                      1                      2                      3
                      A                      A                      A
 Frequencies --   -577.2920                49.7565                61.4099
 Red. masses --     12.0284                 4.6077                 3.6519
 Frc consts  --      2.3618                 0.0067                 0.0081
 IR Inten    --     73.2264                 6.2792                 1.9507
  Atom  AN      X      Y      Z        X      Y      Z        X      Y      Z
     1   8    -0.05  -0.51  -0.07    -0.19  -0.01   0.27     0.21  -0.05   0.09
     2   1     0.02  -0.20  -0.08    -0.07  -0.26   0.42     0.24  -0.03   0.11
     3   6     0.05  -0.05   0.01     0.06  -0.02  -0.23    -0.00   0.12  -0.07
     4   1     0.06  -0.20  -0.02     0.09  -0.03  -0.34     0.00   0.22  -0.10
     5   6     0.03   0.79   0.11     0.02   0.01  -0.07     0.01   0.00  -0.02
     6   6     0.01   0.05   0.01     0.00   0.06   0.01    -0.02  -0.09   0.00
     7   8    -0.02  -0.03  -0.01    -0.02   0.19   0.06    -0.05  -0.07   0.02
     8   8    -0.00  -0.01  -0.00     0.03  -0.06   0.00     0.01  -0.15   0.01
     9   6     0.01  -0.01  -0.00     0.03  -0.11   0.03     0.00   0.03   0.08
    10   6    -0.00  -0.00  -0.00     0.10  -0.04  -0.16    -0.18   0.21  -0.13
    11   1     0.00  -0.00  -0.00     0.03  -0.29   0.06     0.06  -0.10   0.12
    12   1     0.01  -0.01  -0.01    -0.04  -0.03   0.17     0.07   0.16   0.24
    13   1    -0.01  -0.00  -0.00     0.09  -0.10  -0.12    -0.19   0.35  -0.02
    14   1    -0.01  -0.00  -0.00     0.18  -0.12  -0.30    -0.23   0.06  -0.31
    15   1    -0.01   0.00  -0.00     0.08   0.15  -0.19    -0.29   0.34  -0.19
                      4                      5                      6
                      A                      A                      A
 Frequencies --    117.0034               161.0845               172.1073
 Red. masses --      3.4607                 3.1531                 3.7711
 Frc consts  --      0.0279                 0.0482                 0.0658
 IR Inten    --      1.4784                24.6006                 3.4573
  Atom  AN      X      Y      Z        X      Y      Z        X      Y      Z
     1   8     0.05  -0.03   0.04     0.18  -0.05   0.03     0.22  -0.10   0.09
     2   1     0.22  -0.10   0.20    -0.22   0.17  -0.35     0.02  -0.00  -0.09
     3   6     0.01   0.00   0.00     0.04  -0.08  -0.21    -0.10  -0.17   0.11
     4   1     0.00   0.02   0.03     0.10  -0.14  -0.42    -0.14  -0.31   0.28
     5   6     0.02  -0.01  -0.02    -0.04  -0.04   0.06    -0.07  -0.05  -0.11
     6   6     0.03   0.03  -0.04    -0.04   0.02   0.12    -0.05   0.08  -0.10
     7   8     0.08   0.23   0.01     0.01   0.03   0.10    -0.09   0.14  -0.07
     8   8    -0.01  -0.16  -0.11    -0.11   0.08   0.07     0.00   0.10  -0.05
     9   6    -0.00  -0.00  -0.09    -0.09   0.05  -0.10    -0.02   0.00   0.06
    10   6    -0.18  -0.07   0.18     0.03  -0.03  -0.04     0.07  -0.01   0.02
    11   1     0.03   0.25  -0.11    -0.21   0.14  -0.17     0.05  -0.12   0.11
    12   1     0.10  -0.10  -0.26    -0.02  -0.02  -0.21    -0.16   0.03   0.14
    13   1    -0.16   0.08   0.08     0.06  -0.00  -0.33     0.01  -0.25   0.35
    14   1    -0.38   0.03   0.39    -0.17   0.05   0.15     0.45  -0.04  -0.16
    15   1    -0.13  -0.38   0.24     0.27  -0.19   0.10    -0.19   0.22  -0.13
                      7                      8                      9
                      A                      A                      A
 Frequencies --    212.6578               229.8468               264.1227
 Red. masses --      1.4865                 1.4445                 2.2076
 Frc consts  --      0.0396                 0.0450                 0.0907
 IR Inten    --     36.6240                 5.4839                21.2676
  Atom  AN      X      Y      Z        X      Y      Z        X      Y      Z
     1   8     0.00  -0.09  -0.05    -0.01  -0.04  -0.05    -0.03  -0.16   0.02
     2   1     0.59  -0.25   0.47     0.33  -0.11   0.25    -0.62   0.02  -0.52
     3   6    -0.05   0.05   0.01     0.01   0.05  -0.06    -0.07   0.20   0.02
     4   1    -0.07   0.17   0.04     0.03   0.14  -0.15    -0.10   0.46   0.06
     5   6    -0.02  -0.06  -0.04    -0.00  -0.04   0.06    -0.01  -0.10  -0.02
     6   6    -0.02  -0.01  -0.00     0.01  -0.01   0.04     0.01  -0.03  -0.01
     7   8    -0.05   0.02   0.02     0.08   0.00   0.02     0.04   0.06   0.01
     8   8     0.00   0.04   0.03    -0.05   0.04   0.01     0.02  -0.01  -0.00
     9   6     0.01   0.03   0.01    -0.05   0.02  -0.04     0.03   0.03  -0.01
    10   6     0.08   0.02  -0.01    -0.02  -0.02   0.02     0.05   0.01   0.01
    11   1    -0.02   0.03  -0.00    -0.06   0.05  -0.05     0.02   0.05  -0.01
    12   1     0.01   0.03   0.00    -0.05  -0.00  -0.07     0.04   0.02  -0.02
    13   1     0.12   0.08  -0.31    -0.09  -0.27   0.46     0.05  -0.04   0.03
    14   1    -0.15   0.05   0.12     0.44  -0.01  -0.15     0.11   0.03   0.02
    15   1     0.33  -0.09   0.13    -0.38   0.18  -0.18     0.04   0.02   0.01
                     10                     11                     12
                      A                      A                      A
 Frequencies --    336.2400               430.3362               562.1922
 Red. masses --      2.9486                 3.7095                 3.8976
 Frc consts  --      0.1964                 0.4047                 0.7258
 IR Inten    --      9.9174                 3.8490                 4.2162
  Atom  AN      X      Y      Z        X      Y      Z        X      Y      Z
     1   8     0.01  -0.04  -0.01    -0.00  -0.05  -0.00     0.00  -0.01  -0.00
     2   1     0.02   0.02  -0.01    -0.05  -0.18  -0.02     0.12   0.33   0.04
     3   6    -0.00   0.02  -0.04     0.08   0.03   0.05    -0.19  -0.02  -0.07
     4   1     0.02   0.07  -0.12     0.04   0.10   0.19    -0.12  -0.08  -0.35
     5   6    -0.02  -0.03   0.08     0.13  -0.05  -0.12    -0.24  -0.02   0.23
     6   6     0.01   0.04  -0.04     0.07   0.07   0.04    -0.02   0.06  -0.03
     7   8     0.20   0.01  -0.10    -0.09  -0.00   0.07     0.00   0.01  -0.05
     8   8    -0.04   0.13  -0.06     0.07   0.22   0.10     0.14   0.03   0.04
     9   6    -0.09  -0.11   0.19     0.04  -0.13  -0.09     0.25  -0.08  -0.05
    10   6    -0.08  -0.03   0.01    -0.19  -0.10  -0.08     0.00  -0.01  -0.02
    11   1     0.07  -0.40   0.30    -0.03  -0.12  -0.13     0.14   0.03  -0.11
    12   1    -0.37  -0.01   0.42    -0.03  -0.18  -0.13     0.30  -0.13  -0.13
    13   1    -0.04   0.15  -0.26    -0.21   0.27   0.12    -0.01   0.36   0.19
    14   1    -0.36  -0.12  -0.02    -0.41  -0.20  -0.14    -0.20  -0.11  -0.08
    15   1     0.13  -0.01   0.10    -0.43  -0.22  -0.17    -0.24  -0.12  -0.12
                     13                     14                     15
                      A                      A                      A
 Frequencies --    606.8488               671.9936               722.1976
 Red. masses --      6.0201                 1.3387                 1.2956
 Frc consts  --      1.3062                 0.3562                 0.3981
 IR Inten    --     14.8101                27.4957                40.5028
  Atom  AN      X      Y      Z        X      Y      Z        X      Y      Z
     1   8    -0.01  -0.05  -0.01     0.00   0.03   0.01    -0.01  -0.00   0.00
     2   1     0.00   0.17  -0.04    -0.00   0.06  -0.00     0.05   0.22   0.01
     3   6     0.24   0.00   0.05    -0.01  -0.16   0.02     0.04  -0.02  -0.14
     4   1     0.34   0.40  -0.39    -0.06   0.97  -0.13    -0.25   0.12   0.92
     5   6     0.12  -0.12   0.39    -0.01   0.04  -0.03    -0.01  -0.00   0.06
     6   6     0.04   0.03  -0.12    -0.01  -0.02  -0.00     0.00  -0.02  -0.01
     7   8    -0.31   0.04  -0.02     0.02   0.01  -0.00    -0.01   0.01   0.00
     8   8     0.01   0.03  -0.20     0.00   0.01   0.02     0.00   0.01  -0.00
     9   6    -0.02   0.02  -0.01     0.00  -0.00   0.00     0.00  -0.00  -0.00
    10   6     0.01   0.01   0.01    -0.00  -0.00  -0.00     0.00  -0.00  -0.00
    11   1     0.16  -0.14   0.10    -0.01   0.01  -0.01     0.00  -0.01   0.00
    12   1    -0.20   0.08   0.13     0.01  -0.01  -0.01    -0.00   0.00   0.00
    13   1     0.01  -0.05  -0.04    -0.00   0.01   0.00     0.00   0.01   0.00
    14   1     0.03   0.06   0.07    -0.01  -0.01  -0.01    -0.00   0.00   0.00
    15   1     0.06  -0.03   0.04    -0.01   0.00  -0.01    -0.00  -0.01  -0.00
                     16                     17                     18
                      A                      A                      A
 Frequencies --    764.7782               780.5725               802.8375
 Red. masses --      4.1466                 1.3372                 1.2067
 Frc consts  --      1.4289                 0.4800                 0.4582
 IR Inten    --     11.5285               105.0431                 4.9714
  Atom  AN      X      Y      Z        X      Y      Z        X      Y      Z
     1   8     0.03  -0.02  -0.02    -0.03  -0.06   0.02     0.00  -0.00  -0.00
     2   1    -0.16  -0.72  -0.07     0.23   0.94   0.09    -0.01  -0.01  -0.01
     3   6     0.00  -0.02  -0.03     0.01   0.01   0.02     0.03   0.01   0.01
     4   1    -0.09   0.26   0.23     0.04   0.00  -0.09     0.04  -0.01  -0.00
     5   6    -0.02  -0.07   0.02     0.03  -0.03  -0.07     0.02  -0.01   0.02
     6   6     0.03   0.46   0.12     0.01   0.10   0.03    -0.02  -0.02  -0.04
     7   8    -0.01  -0.12  -0.07     0.00  -0.03  -0.01    -0.01   0.02  -0.04
     8   8    -0.01  -0.13  -0.02     0.00  -0.03   0.00     0.01   0.01   0.04
     9   6    -0.01  -0.00   0.02    -0.03   0.01   0.01    -0.03  -0.03   0.07
    10   6    -0.00   0.01   0.01    -0.01  -0.00  -0.00    -0.01  -0.02   0.03
    11   1    -0.02   0.12  -0.00    -0.02   0.04   0.00    -0.09   0.52  -0.04
    12   1     0.09  -0.04  -0.06     0.01  -0.00  -0.02     0.13  -0.31  -0.38
    13   1    -0.00  -0.06  -0.04    -0.01  -0.06  -0.04     0.02   0.03  -0.19
    14   1     0.05  -0.00  -0.03     0.03   0.00  -0.01    -0.04  -0.29  -0.34
    15   1     0.07   0.10   0.03     0.03   0.03   0.02     0.11   0.44   0.02
                     19                     20                     21
                      A                      A                      A
 Frequencies --    896.8664               926.3429              1073.1773
 Red. masses --      3.2688                 2.7249                 4.1030
 Frc consts  --      1.5491                 1.3776                 2.7842
 IR Inten    --     16.8210                 6.8576                25.7238
  Atom  AN      X      Y      Z        X      Y      Z        X      Y      Z
     1   8     0.00  -0.00  -0.00    -0.00  -0.02  -0.00    -0.00  -0.01  -0.00
     2   1    -0.02  -0.05  -0.02     0.01   0.04  -0.00     0.01   0.02   0.00
     3   6     0.05   0.01   0.01     0.11   0.02   0.03     0.07   0.01   0.02
     4   1     0.06   0.00  -0.02     0.12   0.01   0.04     0.07   0.01   0.05
     5   6     0.02  -0.02   0.07     0.07  -0.02  -0.00     0.04  -0.01  -0.03
     6   6    -0.05   0.01  -0.11    -0.15   0.02  -0.04    -0.15   0.01   0.04
     7   8     0.00   0.05  -0.16     0.01   0.03  -0.12     0.02  -0.00  -0.01
     8   8     0.12  -0.04   0.24    -0.14  -0.04   0.11    -0.21   0.03  -0.04
     9   6    -0.08   0.09   0.02     0.04  -0.10  -0.02     0.31   0.16   0.14
    10   6    -0.11  -0.06  -0.10     0.15   0.10   0.04    -0.06  -0.17  -0.09
    11   1    -0.24  -0.03  -0.04    -0.32  -0.22  -0.17     0.34   0.28   0.14
    12   1     0.25   0.27   0.18     0.04  -0.11  -0.04     0.40   0.24   0.22
    13   1    -0.13  -0.56  -0.11     0.12   0.60   0.39    -0.06  -0.27  -0.13
    14   1     0.18   0.24   0.22    -0.16   0.07   0.11    -0.04  -0.22  -0.15
    15   1     0.03  -0.34   0.00    -0.22  -0.15  -0.10    -0.06  -0.28  -0.09
                     22                     23                     24
                      A                      A                      A
 Frequencies --   1129.4417              1204.0375              1286.7120
 Red. masses --      2.0861                 1.7716                 3.7907
 Frc consts  --      1.5679                 1.5132                 3.6977
 IR Inten    --     21.9926                 6.9623               533.0040
  Atom  AN      X      Y      Z        X      Y      Z        X      Y      Z
     1   8    -0.00   0.00   0.00    -0.00   0.00   0.00    -0.00   0.01   0.00
     2   1    -0.00  -0.01  -0.00     0.00   0.00  -0.00     0.01   0.02   0.00
     3   6    -0.01  -0.00  -0.00    -0.02  -0.00  -0.00    -0.08  -0.01  -0.02
     4   1    -0.02  -0.00  -0.01    -0.02  -0.00  -0.01    -0.08  -0.02  -0.05
     5   6    -0.01   0.00   0.01    -0.00   0.00  -0.00    -0.01   0.01   0.01
     6   6     0.03   0.00  -0.00     0.07  -0.00  -0.01     0.38   0.01  -0.14
     7   8    -0.00  -0.00   0.00    -0.01  -0.01   0.03    -0.05   0.01  -0.01
     8   8     0.06  -0.05  -0.01    -0.01   0.02  -0.07    -0.19  -0.02   0.09
     9   6    -0.11   0.19   0.05    -0.04  -0.06   0.18     0.10   0.04   0.03
    10   6     0.11  -0.15  -0.03     0.03   0.05  -0.13    -0.02  -0.02   0.06
    11   1    -0.09   0.10   0.08    -0.33   0.37  -0.02    -0.68  -0.28  -0.27
    12   1    -0.22   0.17   0.03     0.30  -0.26  -0.21     0.04   0.13   0.16
    13   1     0.09   0.46   0.20    -0.03  -0.08   0.28     0.00  -0.03  -0.14
    14   1    -0.40  -0.36  -0.16    -0.02   0.31   0.28     0.01  -0.19  -0.18
    15   1    -0.36  -0.20  -0.25    -0.07  -0.45  -0.10     0.00   0.10   0.05
                     25                     26                     27
                      A                      A                      A
 Frequencies --   1345.3997              1402.1022              1430.9726
 Red. masses --      1.2447                 1.2827                 1.3762
 Frc consts  --      1.3274                 1.4857                 1.6603
 IR Inten    --     91.8854                24.3507                13.7814
  Atom  AN      X      Y      Z        X      Y      Z        X      Y      Z
     1   8     0.00  -0.00  -0.00    -0.00   0.00   0.00    -0.00   0.00   0.00
     2   1    -0.00  -0.00   0.00     0.00   0.00  -0.00     0.00   0.00  -0.00
     3   6     0.01   0.00   0.00    -0.01  -0.00  -0.00    -0.01  -0.00  -0.00
     4   1     0.01   0.00   0.01    -0.01  -0.00  -0.01    -0.01  -0.00  -0.01
     5   6     0.00   0.00  -0.00     0.00   0.00   0.00     0.00   0.00   0.00
     6   6    -0.06  -0.00   0.03     0.06  -0.00  -0.01     0.05  -0.00  -0.01
     7   8     0.01  -0.01   0.02    -0.01   0.01  -0.01    -0.01   0.00  -0.01
     8   8     0.05   0.03  -0.08    -0.04   0.01   0.03    -0.04   0.01   0.02
     9   6    -0.03  -0.01  -0.00    -0.04  -0.04  -0.03    -0.08  -0.08  -0.05
    10   6    -0.00  -0.03   0.05    -0.01  -0.10  -0.05     0.07   0.07   0.04
    11   1    -0.50  -0.21  -0.19     0.33   0.25   0.11     0.43   0.27   0.14
    12   1     0.68   0.28   0.21     0.26   0.19   0.20     0.40   0.23   0.24
    13   1     0.01   0.07  -0.04    -0.01   0.47   0.21     0.07  -0.33  -0.11
    14   1    -0.02  -0.11  -0.06     0.17   0.24   0.34    -0.32  -0.18  -0.15
    15   1     0.02   0.19   0.03     0.21   0.38   0.00    -0.30  -0.19  -0.10
                     28                     29                     30
                      A                      A                      A
 Frequencies --   1491.3124              1502.2430              1514.9793
 Red. masses --      1.0400                 1.0541                 1.0936
 Frc consts  --      1.3628                 1.4016                 1.4788
 IR Inten    --     10.9754                 1.2291                21.1870
  Atom  AN      X      Y      Z        X      Y      Z        X      Y      Z
     1   8    -0.00   0.00   0.00     0.00  -0.00   0.00    -0.00  -0.00  -0.00
     2   1     0.00   0.00  -0.00    -0.00  -0.00  -0.00    -0.00  -0.00   0.00
     3   6    -0.00  -0.00  -0.00     0.00   0.00   0.00     0.00   0.00   0.00
     4   1    -0.00  -0.00   0.00     0.00   0.00   0.00     0.01   0.00   0.00
     5   6     0.00  -0.00   0.00    -0.00   0.00  -0.00    -0.00  -0.00  -0.00
     6   6     0.00  -0.00   0.00    -0.01   0.00  -0.00    -0.03   0.00  -0.00
     7   8    -0.00   0.00  -0.01     0.00  -0.00   0.01     0.01  -0.00   0.01
     8   8    -0.00  -0.00   0.00     0.01  -0.00  -0.00     0.02  -0.00  -0.01
     9   6     0.01   0.02  -0.02    -0.00  -0.04  -0.03     0.05  -0.05  -0.01
    10   6     0.01   0.01  -0.04    -0.03   0.03  -0.01     0.02  -0.02   0.00
    11   1    -0.00  -0.12  -0.01    -0.12   0.38  -0.13    -0.29   0.43  -0.22
    12   1    -0.00  -0.00  -0.05    -0.19   0.19   0.34    -0.38   0.14   0.37
    13   1    -0.08  -0.36   0.56    -0.05   0.14   0.29     0.03  -0.17  -0.16
    14   1    -0.55  -0.09   0.05     0.18  -0.19  -0.38    -0.20   0.14   0.29
    15   1     0.36   0.29   0.10     0.37  -0.35   0.23    -0.24   0.30  -0.16
                     31                     32                     33
                      A                      A                      A
 Frequencies --   1847.0934              2117.9368              3076.2409
 Red. masses --     11.9564                 6.3632                 1.0353
 Frc consts  --     24.0341                16.8170                 5.7723
 IR Inten    --    347.1899                94.6561                 8.9825
  Atom  AN      X      Y      Z        X      Y      Z        X      Y      Z
     1   8    -0.00   0.01  -0.00     0.00   0.02   0.00    -0.00  -0.00  -0.00
     2   1     0.03   0.00   0.02    -0.00   0.02  -0.01    -0.00  -0.00   0.00
     3   6    -0.09  -0.01  -0.02    -0.38  -0.05  -0.10    -0.00  -0.00   0.00
     4   1    -0.13  -0.03  -0.01    -0.68  -0.10  -0.19    -0.00  -0.00  -0.00
     5   6     0.08   0.00   0.00     0.54   0.00   0.13     0.00   0.00   0.00
     6   6     0.20  -0.23   0.72    -0.11   0.03  -0.06     0.00   0.00  -0.00
     7   8    -0.15   0.15  -0.47     0.01  -0.01   0.02     0.00   0.00   0.00
     8   8     0.02   0.02  -0.07    -0.00  -0.00   0.00    -0.00  -0.00   0.00
     9   6     0.03  -0.01   0.02     0.00   0.00  -0.00    -0.00   0.00   0.00
    10   6    -0.01   0.01   0.00    -0.00  -0.00  -0.00    -0.02  -0.04  -0.02
    11   1    -0.17   0.08  -0.09     0.01  -0.00   0.00     0.00  -0.00  -0.01
    12   1    -0.14  -0.02   0.09     0.00  -0.00  -0.00     0.00  -0.02   0.01
    13   1     0.00  -0.04  -0.06     0.00   0.00   0.00     0.62  -0.03   0.08
    14   1     0.04   0.01  -0.01     0.00  -0.00  -0.00    -0.13   0.45  -0.33
    15   1    -0.04  -0.05  -0.00     0.00   0.00   0.00    -0.23   0.05   0.47
                     34                     35                     36
                      A                      A                      A
 Frequencies --   3108.5015              3153.4151              3154.6836
 Red. masses --      1.0608                 1.1015                 1.1049
 Frc consts  --      6.0391                 6.4533                 6.4784
 IR Inten    --     19.7029                14.9688                 1.7890
  Atom  AN      X      Y      Z        X      Y      Z        X      Y      Z
     1   8     0.00  -0.00   0.00    -0.00   0.00   0.00     0.00  -0.00  -0.00
     2   1     0.00   0.00  -0.00     0.00   0.00  -0.00    -0.00  -0.00  -0.00
     3   6    -0.00  -0.00  -0.00     0.00   0.00   0.00    -0.00  -0.00  -0.00
     4   1     0.00   0.00   0.00    -0.00   0.00  -0.00    -0.00   0.00  -0.00
     5   6     0.00  -0.00  -0.00    -0.00  -0.00  -0.00     0.00  -0.00  -0.00
     6   6    -0.00  -0.00   0.00     0.00   0.00  -0.00     0.00  -0.00   0.00
     7   8    -0.00   0.00  -0.00    -0.00  -0.00   0.00    -0.00   0.00  -0.00
     8   8     0.00   0.00  -0.00     0.00  -0.00   0.00    -0.00  -0.00  -0.00
     9   6     0.03  -0.06  -0.00    -0.01   0.00   0.02    -0.01  -0.02   0.05
    10   6    -0.01   0.01  -0.00    -0.07   0.05  -0.03     0.05   0.01  -0.06
    11   1    -0.23   0.06   0.50     0.12  -0.04  -0.26     0.18  -0.05  -0.40
    12   1    -0.13   0.66  -0.47    -0.01   0.02  -0.01    -0.06   0.29  -0.20
    13   1     0.12  -0.01   0.01     0.66  -0.02   0.08    -0.36   0.02  -0.06
    14   1     0.01  -0.05   0.04     0.14  -0.54   0.39     0.06  -0.18   0.12
    15   1     0.01  -0.00  -0.03     0.02   0.00  -0.07    -0.30   0.07   0.62
                     37                     38                     39
                      A                      A                      A
 Frequencies --   3175.9818              3474.5455              3819.3442
 Red. masses --      1.1074                 1.1492                 1.0675
 Frc consts  --      6.5815                 8.1742                 9.1749
 IR Inten    --     14.5186                70.9846                50.5692
  Atom  AN      X      Y      Z        X      Y      Z        X      Y      Z
     1   8     0.00   0.00   0.00     0.00   0.00   0.00     0.04  -0.01  -0.05
     2   1     0.00   0.00  -0.00     0.00  -0.00  -0.00    -0.65   0.12   0.75
     3   6    -0.00  -0.00  -0.00    -0.11  -0.01  -0.03    -0.00  -0.00  -0.00
     4   1     0.00   0.00   0.00     0.96   0.07   0.26     0.00   0.00   0.00
     5   6     0.00  -0.00   0.00     0.03   0.00   0.01     0.00   0.00   0.00
     6   6    -0.00   0.00  -0.00    -0.00   0.00  -0.00     0.00  -0.00  -0.00
     7   8     0.00  -0.00   0.00     0.00  -0.00  -0.00    -0.00   0.00  -0.00
     8   8     0.00  -0.00   0.00     0.00  -0.00  -0.00    -0.00  -0.00   0.00
     9   6     0.02   0.02  -0.07    -0.00  -0.00   0.00     0.00   0.00   0.00
    10   6     0.01   0.02  -0.05     0.00  -0.00   0.00    -0.00   0.00  -0.00
    11   1    -0.26   0.08   0.58     0.00  -0.00  -0.00    -0.00   0.00   0.00
    12   1     0.07  -0.35   0.24     0.00   0.00   0.00    -0.00  -0.00  -0.00
    13   1    -0.05   0.01  -0.02     0.00   0.00   0.00    -0.00  -0.00   0.00
    14   1     0.09  -0.31   0.22    -0.00   0.00  -0.00    -0.00  -0.00   0.00
    15   1    -0.21   0.06   0.43    -0.00  -0.00   0.00     0.00   0.00  -0.00

 -------------------
 - Thermochemistry -
 -------------------
 Temperature   298.150 Kelvin.  Pressure   1.00000 Atm.
 Atom     1 has atomic number  8 and mass  15.99491
 Atom     2 has atomic number  1 and mass   1.00783
 Atom     3 has atomic number  6 and mass  12.00000
 Atom     4 has atomic number  1 and mass   1.00783
 Atom     5 has atomic number  6 and mass  12.00000
 Atom     6 has atomic number  6 and mass  12.00000
 Atom     7 has atomic number  8 and mass  15.99491
 Atom     8 has atomic number  8 and mass  15.99491
 Atom     9 has atomic number  6 and mass  12.00000
 Atom    10 has atomic number  6 and mass  12.00000
 Atom    11 has atomic number  1 and mass   1.00783
 Atom    12 has atomic number  1 and mass   1.00783
 Atom    13 has atomic number  1 and mass   1.00783
 Atom    14 has atomic number  1 and mass   1.00783
 Atom    15 has atomic number  1 and mass   1.00783
 Molecular mass:   115.03952 amu.
 Principal axes and moments of inertia in atomic units:
                           1         2         3
     Eigenvalues --   496.753471377.794991514.64161
           X            0.99994   0.01123  -0.00052
           Y           -0.01115   0.99666   0.08087
           Z            0.00142  -0.08086   0.99672
 This molecule is an asymmetric top.
 Rotational symmetry number  1.
 Warning -- assumption of classical behavior for rotation
           may cause significant error
 Rotational temperatures (Kelvin)      0.17436     0.06286     0.05718
 Rotational constants (GHZ):           3.63307     1.30988     1.19153
    1 imaginary frequencies ignored.
 Zero-point vibrational energy     293547.5 (Joules/Mol)
                                   70.15954 (Kcal/Mol)
 Warning -- explicit consideration of  12 degrees of freedom as
           vibrations may cause significant error
 Vibrational temperatures:     71.59    88.36   168.34   231.76   247.62
          (Kelvin)            305.97   330.70   380.01   483.77   619.16
                              808.87   873.12   966.85  1039.08  1100.35
                             1123.07  1155.10  1290.39  1332.80  1544.06
                             1625.01  1732.34  1851.29  1935.73  2017.31
                             2058.85  2145.67  2161.39  2179.72  2657.56
                             3047.24  4426.02  4472.44  4537.06  4538.89
                             4569.53  4999.10  5495.18
 
 Zero-point correction=                           0.111806 (Hartree/Particle)
 Thermal correction to Energy=                    0.121438
 Thermal correction to Enthalpy=                  0.122382
 Thermal correction to Gibbs Free Energy=         0.075960
 Sum of electronic and zero-point Energies=           -420.090423
 Sum of electronic and thermal Energies=              -420.080791
 Sum of electronic and thermal Enthalpies=            -420.079847
 Sum of electronic and thermal Free Energies=         -420.126269
 
                     E (Thermal)             CV                S
                      KCal/Mol        Cal/Mol-Kelvin    Cal/Mol-Kelvin
 Total                   76.204             32.284             97.704
 Electronic               0.000              0.000              1.377
 Translational            0.889              2.981             40.136
 Rotational               0.889              2.981             28.429
 Vibrational             74.426             26.322             27.762
 Vibration     1          0.595              1.978              4.827
 Vibration     2          0.597              1.973              4.411
 Vibration     3          0.608              1.935              3.149
 Vibration     4          0.622              1.890              2.537
 Vibration     5          0.626              1.877              2.412
 Vibration     6          0.644              1.822              2.021
 Vibration     7          0.652              1.795              1.880
 Vibration     8          0.671              1.739              1.634
 Vibration     9          0.717              1.603              1.230
 Vibration    10          0.792              1.404              0.858
 Vibration    11          0.918              1.113              0.519
 Vibration    12          0.966              1.017              0.438
                       Q            Log10(Q)             Ln(Q)
 Total Bot       0.115065D-34        -34.939058        -80.450154
 Total V=0       0.307786D+17         16.488248         37.965594
 Vib (Bot)       0.325480D-48        -48.487476       -111.646538
 Vib (Bot)    1  0.415479D+01          0.618549          1.424262
 Vib (Bot)    2  0.336213D+01          0.526615          1.212575
 Vib (Bot)    3  0.174779D+01          0.242489          0.558352
 Vib (Bot)    4  0.125461D+01          0.098508          0.226822
 Vib (Bot)    5  0.117012D+01          0.068231          0.157108
 Vib (Bot)    6  0.932970D+00         -0.030132         -0.069382
 Vib (Bot)    7  0.856968D+00         -0.067035         -0.154355
 Vib (Bot)    8  0.733883D+00         -0.134373         -0.309406
 Vib (Bot)    9  0.553546D+00         -0.256846         -0.591411
 Vib (Bot)   10  0.404783D+00         -0.392778         -0.904404
 Vib (Bot)   11  0.275867D+00         -0.559301         -1.287837
 Vib (Bot)   12  0.244322D+00         -0.612037         -1.409267
 Vib (V=0)       0.870624D+03          2.939830          6.769210
 Vib (V=0)    1  0.468477D+01          0.670688          1.544316
 Vib (V=0)    2  0.389911D+01          0.590965          1.360748
 Vib (V=0)    3  0.231790D+01          0.365095          0.840663
 Vib (V=0)    4  0.185057D+01          0.267305          0.615493
 Vib (V=0)    5  0.177247D+01          0.248579          0.572375
 Vib (V=0)    6  0.155851D+01          0.192708          0.443727
 Vib (V=0)    7  0.149217D+01          0.173817          0.400229
 Vib (V=0)    8  0.138802D+01          0.142396          0.327880
 Vib (V=0)    9  0.124593D+01          0.095494          0.219883
 Vib (V=0)   10  0.114331D+01          0.058164          0.133929
 Vib (V=0)   11  0.107105D+01          0.029811          0.068643
 Vib (V=0)   12  0.105650D+01          0.023870          0.054963
 Electronic      0.200000D+01          0.301030          0.693147
 Translational   0.484981D+08          7.685724         17.697035
 Rotational      0.364471D+06          5.561663         12.806203
 ***** Axes restored to original set *****
 -------------------------------------------------------------------
 Center     Atomic                   Forces (Hartrees/Bohr)
 Number     Number              X              Y              Z
 -------------------------------------------------------------------
      1        8           0.000000177   -0.000000372   -0.000002831
      2        1          -0.000001589   -0.000000001   -0.000002411
      3        6           0.000000547   -0.000001195   -0.000002196
      4        1           0.000000464   -0.000001462   -0.000003082
      5        6           0.000000352   -0.000000620   -0.000001258
      6        6          -0.000000234    0.000000344   -0.000001294
      7        8          -0.000000527    0.000000461    0.000001352
      8        8           0.000000984   -0.000000260    0.000000660
      9        6          -0.000000163    0.000000005    0.000001658
     10        6          -0.000000484    0.000001024    0.000001333
     11        1           0.000001492   -0.000000385    0.000001895
     12        1           0.000000339    0.000000394    0.000002430
     13        1          -0.000000352    0.000000969    0.000002264
     14        1           0.000000042    0.000000073    0.000000719
     15        1          -0.000001048    0.000001026    0.000000762
 -------------------------------------------------------------------
 Cartesian Forces:  Max     0.000003082 RMS     0.000001248

 GradGradGradGradGradGradGradGradGradGradGradGradGradGradGradGradGradGrad
 Berny optimization.
 Search for a local minimum.
 Step number   1 out of a maximum of    2
 All quantities printed in internal units (Hartrees-Bohrs-Radians)
 Second derivative matrix not updated -- analytic derivatives used.
 ITU=  0
     Eigenvalues ---   -0.16476   0.00039   0.00068   0.00162   0.00240
     Eigenvalues ---    0.00426   0.00592   0.00802   0.01369   0.02109
     Eigenvalues ---    0.02920   0.03286   0.03705   0.05256   0.06320
     Eigenvalues ---    0.07313   0.07610   0.08623   0.10024   0.10231
     Eigenvalues ---    0.11583   0.14139   0.17016   0.17312   0.20015
     Eigenvalues ---    0.28410   0.29384   0.43390   0.49377   0.62641
     Eigenvalues ---    0.70220   0.76566   0.79225   0.86779   0.89525
     Eigenvalues ---    0.93241   0.98836   1.74113   2.40643
 Eigenvalue     1 is  -1.65D-01 should be greater than     0.000000 Eigenvector:
                          Y5        Y1        Z5        X1        Z1
   1                    0.77518  -0.60309   0.10798  -0.06951  -0.06090
                          Z2        Y2        Y6        Y3        X2
   1                   -0.05526  -0.04851   0.04373  -0.03925   0.03498
 Angle between quadratic step and forces=  77.82 degrees.
 Linear search not attempted -- first point.
 B after Tr=     0.000023   -0.000030    0.000019
         Rot=    1.000000   -0.000016   -0.000004    0.000001 Ang=  -0.00 deg.
 Variable       Old X    -DE/DX   Delta X   Delta X   Delta X     New X
                                 (Linear)    (Quad)   (Total)
    X1       -2.55369   0.00000   0.00000   0.00026   0.00029  -2.55340
    Y1        3.20521  -0.00000   0.00000  -0.00003  -0.00006   3.20515
    Z1        0.18391  -0.00000   0.00000   0.00029   0.00043   0.18434
    X2       -3.73795  -0.00000   0.00000  -0.00022  -0.00018  -3.73813
    Y2        3.42934  -0.00000   0.00000   0.00010   0.00003   3.42937
    Z2        1.56412  -0.00000   0.00000  -0.00015   0.00001   1.56413
    X3       -5.14975   0.00000   0.00000   0.00002   0.00003  -5.14972
    Y3       -0.88554  -0.00000   0.00000   0.00010   0.00011  -0.88543
    Z3       -0.84535  -0.00000   0.00000  -0.00005  -0.00001  -0.84536
    X4       -7.08846   0.00000   0.00000   0.00005   0.00006  -7.08840
    Y4       -1.03285  -0.00000   0.00000   0.00012   0.00016  -1.03269
    Z4       -1.36845  -0.00000   0.00000  -0.00016  -0.00012  -1.36856
    X5       -2.95589   0.00000   0.00000   0.00001   0.00003  -2.95586
    Y5       -0.51423  -0.00000   0.00000   0.00002   0.00000  -0.51422
    Z5       -0.27191  -0.00000   0.00000   0.00003   0.00006  -0.27185
    X6       -0.31056  -0.00000   0.00000  -0.00000   0.00002  -0.31054
    Y6       -1.02039   0.00000   0.00000  -0.00012  -0.00016  -1.02055
    Z6        0.42598  -0.00000   0.00000   0.00000  -0.00001   0.42597
    X7        0.31476  -0.00000   0.00000  -0.00001   0.00003   0.31479
    Y7       -1.68637   0.00000   0.00000  -0.00025  -0.00036  -1.68673
    Z7        2.49690   0.00000   0.00000  -0.00004  -0.00008   2.49682
    X8        1.20557   0.00000   0.00000  -0.00000   0.00001   1.20558
    Y8       -0.63928  -0.00000   0.00000  -0.00005  -0.00004  -0.63932
    Z8       -1.53132   0.00000   0.00000   0.00001   0.00000  -1.53132
    X9        3.87872  -0.00000   0.00000  -0.00001   0.00001   3.87872
    Y9       -0.80203   0.00000   0.00000  -0.00001  -0.00002  -0.80205
    Z9       -1.01920   0.00000   0.00000   0.00006   0.00002  -1.01918
   X10        4.80178  -0.00000   0.00000  -0.00009  -0.00006   4.80172
   Y10        1.59435   0.00000   0.00000   0.00013   0.00008   1.59443
   Z10        0.24927   0.00000   0.00000  -0.00014  -0.00011   0.24916
   X11        4.72749   0.00000   0.00000   0.00005   0.00004   4.72753
   Y11       -1.06409  -0.00000   0.00000  -0.00018  -0.00013  -1.06422
   Z11       -2.87414   0.00000   0.00000   0.00011   0.00005  -2.87409
   X12        4.23201   0.00000   0.00000  -0.00002   0.00000   4.23201
   Y12       -2.46686   0.00000   0.00000   0.00011   0.00007  -2.46679
   Z12        0.14287   0.00000   0.00000   0.00024   0.00014   0.14301
   X13        6.84625  -0.00000   0.00000  -0.00013  -0.00010   6.84616
   Y13        1.49842   0.00000   0.00000   0.00012   0.00006   1.49848
   Z13        0.50871   0.00000   0.00000   0.00014   0.00016   0.50887
   X14        4.35634   0.00000   0.00000   0.00008   0.00011   4.35645
   Y14        3.23614   0.00000   0.00000  -0.00000  -0.00001   3.23613
   Z14       -0.91425   0.00000   0.00000  -0.00039  -0.00030  -0.91456
   X15        3.91756  -0.00000   0.00000  -0.00033  -0.00028   3.91728
   Y15        1.82307   0.00000   0.00000   0.00038   0.00027   1.82334
   Z15        2.09618   0.00000   0.00000  -0.00028  -0.00024   2.09595
         Item               Value     Threshold  Converged?
 Maximum Force            0.000003     0.000450     YES
 RMS     Force            0.000001     0.000300     YES
 Maximum Displacement     0.000430     0.001800     YES
 RMS     Displacement     0.000146     0.001200     YES
 Predicted change in Energy=-8.660286D-10
 Optimization completed.
    -- Stationary point found.
 GradGradGradGradGradGradGradGradGradGradGradGradGradGradGradGradGradGrad


 ----------------------------------------------------------------------

 Electric dipole moment (input orientation):
 (Debye = 10**-18 statcoulomb cm , SI units = C m)
                  (au)            (Debye)         (10**-30 SI)
   Tot        0.421577D+00      0.107154D+01      0.357428D+01
   x         -0.275277D+00     -0.699684D+00     -0.233390D+01
   y         -0.116708D+00     -0.296643D+00     -0.989495D+00
   z         -0.297201D+00     -0.755410D+00     -0.251978D+01

 Dipole polarizability, Alpha (input orientation).
 (esu units = cm**3 , SI units = C**2 m**2 J**-1)
 Alpha(0;0):
               (au)            (10**-24 esu)      (10**-40 SI)
   iso        0.750773D+02      0.111253D+02      0.123786D+02
   aniso      0.321040D+02      0.475732D+01      0.529323D+01
   xx         0.910560D+02      0.134931D+02      0.150131D+02
   yx         0.796250D+01      0.117992D+01      0.131284D+01
   yy         0.745102D+02      0.110413D+02      0.122851D+02
   zx         0.470135D+01      0.696668D+00      0.775148D+00
   zy         0.338749D+01      0.501973D+00      0.558521D+00
   zz         0.596658D+02      0.884157D+01      0.983757D+01

 ----------------------------------------------------------------------

 Dipole orientation:
     8         -2.37499457         -3.28097438          0.65050810
     1         -4.18810574         -3.23849055          0.38873216
     6         -3.21605931          0.06571854          4.20373761
     1         -4.31275924         -0.14395759          5.87920414
     6         -1.98463033          0.10244462          2.26415754
     6         -0.40286614          1.05952346          0.18496224
     8         -1.21555958          2.33517853         -1.49893463
     8          1.97177273          0.31443564          0.46931785
     6          3.65929468          0.89505877         -1.59213916
     6          3.26917607         -0.94457227         -3.75252957
     1          5.53481470          0.72180808         -0.76613161
     1          3.34194982          2.84421848         -2.18117197
     1          4.64314143         -0.56436826         -5.24384930
     1          3.52081009         -2.88190421         -3.09592466
     1          1.37584906         -0.74546690         -4.54050650

 Electric dipole moment (dipole orientation):
 (Debye = 10**-18 statcoulomb cm , SI units = C m)
                  (au)            (Debye)         (10**-30 SI)
   Tot        0.421577D+00      0.107154D+01      0.357428D+01
   x          0.000000D+00      0.000000D+00      0.000000D+00
   y          0.000000D+00      0.000000D+00      0.000000D+00
   z          0.421577D+00      0.107154D+01      0.357428D+01

 Dipole polarizability, Alpha (dipole orientation).
 (esu units = cm**3 , SI units = C**2 m**2 J**-1)
 Alpha(0;0):
               (au)            (10**-24 esu)      (10**-40 SI)
   iso        0.750773D+02      0.111253D+02      0.123786D+02
   aniso      0.321040D+02      0.475732D+01      0.529323D+01
   xx         0.720847D+02      0.106819D+02      0.118852D+02
   yx         0.870172D+00      0.128946D+00      0.143472D+00
   yy         0.704307D+02      0.104368D+02      0.116125D+02
   zx        -0.156527D+02     -0.231949D+01     -0.258078D+01
   zy         0.730337D+01      0.108225D+01      0.120416D+01
   zz         0.827166D+02      0.122573D+02      0.136381D+02

 ----------------------------------------------------------------------
 1\1\GINC-AJ\Freq\UM062X\6-311++G(d,p)\C5H7O3(2)\AAYUSH\16-Aug-2025\0\\
 # freq 6-311++g(d,p) m062x\\Title Card Required\\0,2\O,-1.35135557,1.6
 9612544,0.097321\H,-1.97804057,1.81472844,0.827699\C,-2.72513257,-0.46
 860856,-0.447339\H,-3.75105057,-0.54655956,-0.72415\C,-1.56419057,-0.2
 7211756,-0.143889\C,-0.16434157,-0.53996656,0.22542\O,0.16656543,-0.89
 238956,1.321304\O,0.63796043,-0.33829256,-0.810339\C,2.05252843,-0.424
 41656,-0.53934\C,2.54099443,0.84369244,0.13191\H,2.50168043,-0.5630905
 6,-1.52093\H,2.23948243,-1.30540756,0.075602\H,3.62288143,0.79292744,0
 .2692\H,2.30527843,1.71249344,-0.483802\H,2.07308543,0.96472744,1.1092
 53\\Version=ES64L-G16RevA.03\State=2-A\HF=-420.202229\S2=0.776102\S2-1
 =0.\S2A=0.750258\RMSD=4.642e-09\RMSF=1.248e-06\ZeroPoint=0.1118064\The
 rmal=0.1214381\Dipole=-0.275277,-0.1167084,-0.2972013\DipoleDeriv=-0.3
 704999,0.2136799,-0.0589396,0.1393373,0.2171265,0.1323539,-0.0827937,0
 .0016963,-0.2879972,0.1924976,-0.0915201,0.0502422,-0.0005535,0.325453
 4,0.0170348,0.0839045,0.084066,0.2286206,-0.2364915,0.5085919,0.058769
 6,0.0485532,-0.018589,0.0288662,0.0281171,0.1422368,-0.1023469,0.27982
 87,0.0260789,0.0185824,0.0341539,0.2110258,0.0026011,0.0118136,-0.0012
 742,0.2293256,-0.4482206,-0.5173432,-0.154007,-0.1248005,-0.8914179,-0
 .1619105,-0.1185678,-0.1885038,-0.1431518,2.1044598,-0.3415963,-0.1322
 663,-0.0534862,0.6303888,-0.3574981,-0.491699,-0.4810999,1.654673,-0.8
 101973,0.1753362,-0.1942267,0.0418069,-0.465302,0.2431131,0.018122,0.3
 345774,-1.0476559,-1.6289583,-0.046766,0.3838307,-0.0724984,-0.3294264
 ,0.0686304,0.5051092,0.1016332,-0.8517569,0.9938802,0.0741058,-0.07059
 13,0.021577,0.3117462,0.0726658,0.0716577,0.0236905,0.290245,-0.062612
 1,-0.0215308,0.0367917,-0.0471425,-0.0557325,-0.0791896,-0.0285922,-0.
 0507232,-0.0100369,-0.0245517,-0.0008212,0.0303959,-0.0087703,0.056324
 8,-0.0291994,0.0694878,-0.0536864,-0.0715314,-0.0171174,-0.0330054,0.0
 199052,0.0231192,-0.0557167,0.0255969,-0.0665258,0.0621903,0.0395235,-
 0.1307966,-0.0073919,-0.023333,0.0059319,0.0668748,0.0015973,-0.024688
 9,-0.0109314,0.0951437,0.0846796,0.0445334,-0.0374783,-0.0013672,-0.04
 12249,0.0386903,-0.030957,0.0651612,0.0068694,0.0740994,0.0176487,0.07
 23245,-0.0058609,0.0384691,-0.0033523,0.0556124,-0.0290328,-0.0299237\
 Polar=91.0559754,7.9625021,74.5102072,4.7013513,3.387485,59.6658435\Qu
 adrupole=10.1172584,-4.3917102,-5.7255482,0.4160362,-1.1724175,3.76283
 98\PG=C01 [X(C5H7O3)]\NImag=1\\0.23349556,-0.04087299,-0.02037899,-0.2
 5841820,0.03949265,0.30282002,-0.22243752,0.04080418,0.25658513,0.2223
 7649,0.02860762,-0.02395372,-0.04002469,-0.03545212,0.02705832,0.25378
 113,-0.05169248,-0.29748878,-0.25386681,0.04780209,0.29665053,-0.00843
 817,-0.07046198,-0.00735612,0.00220135,-0.00122262,-0.00237027,1.31101
 045,-0.00799719,-0.03405211,-0.00534227,-0.00067831,-0.00103135,-0.000
 70041,0.14907672,0.07277990,-0.00295061,-0.02079697,-0.00031162,-0.000
 10959,-0.00086909,-0.00046607,0.33080009,0.04063658,0.14070802,0.00023
 465,0.00105291,0.00017394,0.00005665,-0.00026005,-0.00013117,-0.393699
 71,-0.03114713,-0.09930416,0.38433104,0.00030893,-0.00013656,0.0001380
 9,-0.00039258,0.00000955,-0.00025603,-0.02155185,-0.02384928,-0.006454
 12,0.02907342,0.01599460,-0.00022923,0.00027615,0.00003558,-0.00006161
 ,-0.00008088,-0.00010892,-0.09922344,-0.00884410,-0.05210332,0.0994782
 8,0.00823347,0.04263742,-0.00181347,0.06010631,0.00958295,-0.00171207,
 0.00750309,0.00138131,-0.91404517,-0.11641046,-0.22791436,0.00873635,-
 0.00755166,0.00179111,1.22175044,0.01389456,0.10253858,0.00731031,-0.0
 0487351,-0.00051427,0.00542947,-0.03694254,-0.01260123,-0.00706155,0.0
 0164933,0.00518952,0.00113145,-0.00311206,-0.07253397,0.00905401,0.031
 98727,-0.00591511,-0.00368630,-0.00687899,0.00048117,-0.22144599,-0.02
 679961,-0.09179752,0.00108199,-0.00135927,0.00442598,0.26837248,-0.025
 48910,0.18236959,-0.00159227,0.01318924,-0.00208451,-0.00116656,0.0021
 8693,0.00354119,0.01635226,0.00769265,0.00213923,-0.00066166,0.0001447
 6,-0.00200767,-0.24336523,0.00837289,-0.04503542,0.64898301,0.00369518
 ,-0.02669560,-0.00044364,0.00016282,-0.00132208,-0.00104643,-0.0240821
 5,-0.00287684,-0.00655733,-0.00055297,0.00378683,-0.00026514,0.0440884
 8,-0.04434789,0.01067958,-0.07009504,0.28460736,-0.00286305,0.00109526
 ,-0.00303696,0.00280441,-0.00114132,0.00220581,-0.00190698,0.00112434,
 0.00205642,-0.00125901,0.00019545,0.00523889,-0.02870114,-0.00016559,-
 0.06550102,0.10460778,-0.21746573,0.92306336,0.00017608,-0.00100709,0.
 00131964,0.00003335,-0.00058353,-0.00107551,-0.00539242,-0.00035084,-0
 .00049754,0.00021018,-0.00024067,0.00150740,-0.01781536,0.01924664,-0.
 04469277,-0.16834375,0.06422450,-0.18573856,0.16378211,0.00098075,0.00
 145663,0.00042046,-0.00019435,0.00025907,0.00022488,0.00308570,0.00089
 939,0.00062536,0.00016490,-0.00053413,-0.00060798,0.01305418,0.0096944
 4,0.01780593,0.05862057,-0.13955342,0.18516005,-0.07069584,0.11013150,
 0.00068572,-0.00150424,0.00348907,-0.00103412,0.00068853,-0.00174838,-
 0.00107423,-0.00048123,0.00108208,0.00003337,-0.00029357,0.00028243,-0
 .03577712,0.01873963,-0.02618447,-0.17614343,0.18429817,-0.64954999,0.
 19369519,-0.23363193,0.77278878,-0.00065609,-0.00258825,0.00060664,0.0
 0062867,-0.00097481,-0.00148658,-0.00913113,-0.00033837,-0.00242250,0.
 00101899,0.00021308,-0.00117651,-0.05182643,0.00392512,0.03437231,-0.1
 9638097,-0.01810306,0.10253323,0.02635669,-0.00674394,0.03102791,0.502
 12832,0.00171081,-0.00059398,-0.00166691,0.00068802,-0.00055356,0.0002
 4350,0.00065689,0.00059443,0.00015483,-0.00001428,-0.00032587,0.000083
 22,0.00303742,0.00930388,-0.00080374,-0.01392957,-0.07541168,0.0356250
 7,-0.00877234,0.02290715,0.03197734,0.00803595,0.10528923,0.00124463,0
 .00063363,0.00051753,-0.00065747,0.00040615,0.00035764,0.00143550,0.00
 039709,0.00021898,-0.00004412,-0.00018521,-0.00062910,0.00777790,-0.00
 118103,0.00531381,0.07945447,0.03505230,-0.22317899,0.03058113,0.03180
 812,-0.09807963,-0.09679483,-0.07520834,0.40532860,0.00079935,0.000235
 70,-0.00070132,0.00007196,0.00033932,0.00048088,0.00258506,0.00016322,
 0.00062096,-0.00037475,-0.00002147,0.00001475,0.00147025,-0.00341502,-
 0.00000620,-0.05523744,-0.00430726,0.03485601,-0.00041824,0.00597877,-
 0.01965398,-0.17590717,0.01262533,-0.01994223,0.45236421,-0.00038899,0
 .00200108,0.00007222,-0.00007512,0.00005403,0.00002892,0.00156801,0.00
 019516,0.00034655,0.00002983,-0.00012339,0.00008150,-0.00047579,0.0031
 6379,0.00083710,-0.00501298,0.00265896,-0.00901470,0.00248204,-0.00560
 061,0.00095034,0.01546432,-0.06903176,0.01221831,-0.02331934,0.5614170
 1,-0.00043452,0.00055814,-0.00004525,-0.00002141,0.00016722,0.00011186
 ,0.00125936,0.00005615,0.00066548,-0.00004617,-0.00000187,0.00026249,0
 .00439594,0.00089967,-0.00362970,0.03440325,-0.00577533,0.01228699,0.0
 0117663,-0.00055454,-0.00393752,-0.04202185,0.01164858,-0.09684460,-0.
 06121630,-0.03959896,0.63168018,-0.00003258,0.00031027,0.00002232,-0.0
 0003602,-0.00010100,-0.00008678,-0.00010928,0.00002076,0.00001366,0.00
 008726,-0.00002209,-0.00000498,-0.00047970,0.00133038,0.00065284,0.001
 91912,-0.00124358,-0.00937321,0.00082519,-0.00154316,0.00269859,-0.037
 79383,-0.03486324,-0.01753910,-0.07962426,-0.02138910,-0.00795014,0.57
 803515,0.00005962,-0.00005537,0.00009609,-0.00007674,0.00002028,0.0000
 2363,0.00025558,-0.00005179,0.00006743,-0.00000713,0.00000220,-0.00001
 316,-0.00039953,-0.00026754,-0.00019149,-0.00070550,-0.00045518,0.0036
 1054,-0.00106313,-0.00017308,-0.00183195,-0.00130993,0.00584606,-0.001
 10229,-0.03278957,-0.18465020,-0.05116255,-0.02946834,0.52200134,-0.00
 008800,0.00005835,-0.00027012,0.00014858,-0.00008399,0.00005311,0.0000
 8616,0.00001980,-0.00001176,0.00001341,-0.00002201,0.00000352,-0.00041
 526,0.00029637,0.00007974,0.00145141,0.00104892,0.00238722,-0.00121895
 ,-0.00159990,-0.00057034,-0.00802348,-0.00449901,-0.00150975,-0.012920
 38,-0.04973346,-0.11100294,-0.01518348,-0.03516835,0.57032529,-0.00000
 211,-0.00016759,0.00001873,0.00000608,-0.00007253,-0.00007399,-0.00072
 147,-0.00001898,-0.00025774,0.00004945,0.00002523,-0.00005520,-0.00110
 689,-0.00019856,0.00115053,-0.00374562,0.00344246,-0.00547854,0.001498
 18,-0.00054012,0.00129955,-0.03411713,0.00192995,0.03406032,-0.0859080
 4,0.01362000,0.09233778,0.00682465,-0.00086236,-0.01112786,0.11263790,
 0.00002856,0.00005090,0.00004251,-0.00001626,-0.00001985,-0.00000839,-
 0.00002021,-0.00001082,0.00002663,0.00000867,-0.00000466,0.00000236,0.
 00017902,0.00016414,-0.00006051,-0.00001478,-0.00069045,0.00247704,-0.
 00163011,0.00065022,-0.00040025,0.00302108,0.00064692,-0.00260568,0.01
 338543,-0.05680421,-0.02689660,0.01140453,-0.00353884,-0.02744563,-0.0
 1326904,0.05666295,0.00007881,-0.00012210,0.00003639,-0.00001969,0.000
 00278,-0.00001997,-0.00009742,-0.00000447,-0.00006802,-0.00001321,-0.0
 0000145,-0.00002885,-0.00023414,-0.00015445,0.00028101,-0.00248286,0.0
 0066594,-0.00094271,0.00138321,-0.00045916,0.00094289,-0.00630921,0.00
 167823,0.00942789,0.10618014,-0.02814219,-0.28306940,0.00422614,-0.001
 20171,-0.01122010,-0.10740602,0.03323230,0.29707693,-0.00009444,-0.000
 36598,0.00012365,-0.00002239,0.00002375,-0.00005370,-0.00039276,0.0000
 1247,-0.00005534,0.00003195,0.00003678,-0.00003529,-0.00003259,-0.0004
 1341,0.00011985,0.00282974,0.00336271,-0.00866244,0.00038410,-0.001096
 80,0.00393494,-0.02712890,0.02993185,-0.02037771,-0.05465001,0.0265590
 5,-0.01627233,0.00383584,-0.00948102,0.00718437,0.00424218,-0.01124094
 ,0.00638682,0.07097652,-0.00000753,-0.00008219,-0.00003268,0.00002065,
 -0.00002022,-0.00001763,-0.00019069,-0.00001695,-0.00004054,-0.0000040
 5,0.00000750,0.00001791,0.00015354,0.00000259,-0.00019165,-0.00042148,
 -0.00016727,0.00359473,-0.00225202,0.00057957,-0.00096899,0.00488519,0
 .00226755,-0.00091284,0.03503828,-0.22822143,0.12319103,0.00320134,-0.
 02182631,0.01544221,-0.00201838,0.00545547,-0.00306234,-0.03640623,0.2
 4375052,-0.00001331,0.00015378,0.00002539,0.00000116,-0.00004642,-0.00
 001469,-0.00006476,-0.00004288,0.00002120,0.00002822,0.00000084,0.0000
 0089,-0.00023042,0.00046615,-0.00006175,0.00261882,-0.00031587,-0.0002
 8426,0.00158099,-0.00077509,-0.00072048,-0.00745614,0.00257629,-0.0026
 0432,-0.02462273,0.12609919,-0.14030190,0.00332743,-0.01438239,0.01042
 056,-0.00441710,0.02273335,-0.01378701,0.02962647,-0.13431194,0.147271
 52,-0.00016957,0.00009226,-0.00001237,0.00001762,-0.00001636,-0.000009
 73,-0.00004600,0.00002196,0.00001024,0.00003416,0.00001149,0.00000856,
 -0.00008917,0.00009571,-0.00002169,0.00145092,0.00048254,-0.00130642,-
 0.00006938,-0.00040550,0.00040795,-0.00058264,-0.00270415,-0.00032111,
 -0.01008563,0.00311235,0.00029917,-0.31398318,0.01285895,-0.03385861,0
 .00028231,-0.00018154,-0.00034391,0.00019611,-0.00042265,0.00014165,0.
 34020692,0.00006203,-0.00003356,0.00003894,0.00002420,-0.00004540,-0.0
 0005652,-0.00028793,-0.00001536,-0.00006889,0.00001622,-0.00001022,-0.
 00000541,0.00005707,0.00059062,0.00029931,0.00108768,-0.00004231,-0.00
 294607,0.00020495,-0.00037380,0.00103763,-0.00642783,-0.00548204,-0.00
 231357,-0.02620870,0.00477777,-0.00058208,0.01469146,-0.04857300,0.001
 12122,0.00063919,0.00103655,-0.00014612,0.00061472,0.00045330,0.001078
 67,-0.01356878,0.04901694,0.00005811,-0.00003848,0.00009904,-0.0000397
 2,-0.00000615,-0.00002726,-0.00010594,-0.00000114,-0.00000725,0.000006
 96,-0.00000033,-0.00000397,-0.00001593,0.00010601,0.00009566,0.0004669
 0,-0.00001721,-0.00282798,0.00052883,0.00026545,0.00114921,-0.00400676
 ,-0.00368829,0.00014727,-0.01332435,0.00380029,-0.00250189,-0.03271301
 ,0.00067569,-0.05027714,0.00041625,0.00060492,-0.00005896,0.00020852,0
 .00009816,0.00043106,0.03760554,0.00007781,0.05057355,0.00014049,-0.00
 012858,-0.00005230,0.00004820,-0.00001897,-0.00001892,-0.00019081,-0.0
 0003213,-0.00005206,-0.00002504,-0.00001406,-0.00000078,0.00024172,0.0
 0031609,0.00004319,-0.00024511,-0.00050530,0.00151679,-0.00052571,-0.0
 0000313,-0.00071524,0.00207115,0.00054046,0.00045207,0.00055079,-0.010
 46919,0.00626528,-0.06026181,0.04897497,-0.03371951,0.00009545,0.00079
 479,0.00002704,-0.00019182,-0.00222545,-0.00105705,-0.00505075,0.02590
 791,-0.01819567,0.06024204,-0.00000494,-0.00007316,-0.00002701,0.00003
 471,-0.00000881,-0.00002682,-0.00013974,0.00000074,-0.00004668,-0.0000
 0266,-0.00000539,0.00000359,0.00004024,0.00011391,0.00005235,-0.000083
 18,-0.00042250,0.00075259,-0.00016589,0.00023614,-0.00039735,0.0010430
 2,0.00297184,0.00015440,0.00691011,-0.02560446,0.01689987,0.04649083,-
 0.21767476,0.12315038,0.00024560,0.00104116,-0.00007756,-0.00209264,-0
 .00330216,-0.00361288,0.00000993,0.00021049,-0.00087699,-0.05052142,0.
 23878071,-0.00008632,0.00009004,-0.00004066,-0.00001308,0.00007129,0.0
 0003999,0.00022354,0.00002640,0.00005340,0.00000495,0.00000796,0.00000
 187,-0.00017230,-0.00044127,-0.00005127,-0.00047152,0.00051551,-0.0004
 9328,0.00054427,0.00029934,0.00043757,0.00160725,0.00101348,0.00034183
 ,0.00393096,-0.01533033,0.01005277,-0.03414463,0.12556483,-0.13922010,
 0.00057198,0.00057463,0.00091920,-0.00179389,-0.00303823,-0.00105890,-
 0.00002725,0.00139844,-0.00278367,0.03796356,-0.13327714,0.14637587,0.
 00039008,-0.00019841,0.00019181,-0.00006582,0.00004128,-0.00001104,0.0
 0001780,-0.00001436,-0.00002027,-0.00002951,-0.00001932,-0.00000540,0.
 00008734,0.00012437,0.00004117,-0.00079643,-0.00056933,-0.00102888,-0.
 00070100,-0.00066204,0.00061489,0.00132046,0.00112691,0.00067053,0.004
 36392,-0.00170509,-0.01217471,-0.09920657,0.01401414,0.10767161,-0.000
 03493,-0.00244921,-0.00137570,0.00001648,0.00064948,0.00053676,-0.0121
 1173,0.00318782,0.02911025,0.00310121,-0.00176397,-0.00813752,0.103648
 70,-0.00007641,0.00000804,-0.00007408,0.00002439,0.00006801,0.00005220
 ,0.00025681,0.00003612,0.00003778,-0.00000700,-0.00000071,-0.00001297,
 -0.00026986,-0.00049656,0.00011282,-0.00103218,0.00093206,-0.00290166,
 0.00060333,-0.00057909,0.00181786,-0.00010158,0.00157182,0.00283896,0.
 01538519,-0.00423175,-0.02884874,0.01118094,-0.05060380,-0.02258490,-0
 .00275486,-0.00463949,-0.00220771,0.00055568,0.00112002,0.00037921,0.0
 0061379,-0.00150998,-0.00099974,-0.01261599,0.00373626,0.02252505,-0.0
 1176226,0.05458904,0.00018081,-0.00019099,0.00008549,-0.00002949,-0.00
 000653,-0.00002604,-0.00015951,-0.00004426,-0.00004000,-0.00002326,-0.
 00000197,-0.00001491,0.00015897,0.00011391,0.00009388,-0.00045764,-0.0
 0037373,-0.00142349,0.00090602,0.00101902,0.00061879,-0.00044948,0.000
 86577,0.00119283,0.00630378,-0.00261480,-0.01372658,0.10605434,-0.0249
 8434,-0.26918720,-0.00103869,-0.00227671,0.00051072,-0.00033391,0.0002
 3281,0.00066270,-0.00257202,0.00106664,0.00599234,0.00754358,-0.002670
 75,-0.01457462,-0.11608349,0.02986592,0.28983610\\-0.00000018,0.000000
 37,0.00000283,0.00000159,0.,0.00000241,-0.00000055,0.00000120,0.000002
 20,-0.00000046,0.00000146,0.00000308,-0.00000035,0.00000062,0.00000126
 ,0.00000023,-0.00000034,0.00000129,0.00000053,-0.00000046,-0.00000135,
 -0.00000098,0.00000026,-0.00000066,0.00000016,0.,-0.00000166,0.0000004
 8,-0.00000102,-0.00000133,-0.00000149,0.00000039,-0.00000189,-0.000000
 34,-0.00000039,-0.00000243,0.00000035,-0.00000097,-0.00000226,-0.00000
 004,-0.00000007,-0.00000072,0.00000105,-0.00000103,-0.00000076\\\@


 SACRED COWS MAKE GREAT HAMBURGERS -- ROBERT REISNER
 Job cpu time:       0 days  0 hours 56 minutes 43.9 seconds.
 Elapsed time:       0 days  0 hours  2 minutes 22.1 seconds.
 File lengths (MBytes):  RWF=    153 Int=      0 D2E=      0 Chk=      5 Scr=      1
 Normal termination of Gaussian 16 at Sat Aug 16 16:39:54 2025.
