 Entering Gaussian System, Link 0=g16
 Initial command:
 /opt/g16/l1.exe "/home/aayush/scratches/g16/Gau-50840.inp" -scrdir="/home/aayush/scratches/g16/"
 Entering Link 1 = /opt/g16/l1.exe PID=     50843.
  
 Copyright (c) 1988,1990,1992,1993,1995,1998,2003,2009,2016,
            Gaussian, Inc.  All Rights Reserved.
  
 This is part of the Gaussian(R) 16 program.  It is based on
 the Gaussian(R) 09 system (copyright 2009, Gaussian, Inc.),
 the Gaussian(R) 03 system (copyright 2003, Gaussian, Inc.),
 the Gaussian(R) 98 system (copyright 1998, Gaussian, Inc.),
 the Gaussian(R) 94 system (copyright 1995, Gaussian, Inc.),
 the Gaussian 92(TM) system (copyright 1992, Gaussian, Inc.),
 the Gaussian 90(TM) system (copyright 1990, Gaussian, Inc.),
 the Gaussian 88(TM) system (copyright 1988, Gaussian, Inc.),
 the Gaussian 86(TM) system (copyright 1986, Carnegie Mellon
 University), and the Gaussian 82(TM) system (copyright 1983,
 Carnegie Mellon University). Gaussian is a federally registered
 trademark of Gaussian, Inc.
  
 This software contains proprietary and confidential information,
 including trade secrets, belonging to Gaussian, Inc.
  
 This software is provided under written license and may be
 used, copied, transmitted, or stored only in accord with that
 written license.
  
 The following legend is applicable only to US Government
 contracts under FAR:
  
                    RESTRICTED RIGHTS LEGEND
  
 Use, reproduction and disclosure by the US Government is
 subject to restrictions as set forth in subparagraphs (a)
 and (c) of the Commercial Computer Software - Restricted
 Rights clause in FAR 52.227-19.
  
 Gaussian, Inc.
 340 Quinnipiac St., Bldg. 40, Wallingford CT 06492
  
  
 ---------------------------------------------------------------
 Warning -- This program may not be used in any manner that
 competes with the business of Gaussian, Inc. or will provide
 assistance to any competitor of Gaussian, Inc.  The licensee
 of this program is prohibited from giving any competitor of
 Gaussian, Inc. access to this program.  By using this program,
 the user acknowledges that Gaussian, Inc. is engaged in the
 business of creating and licensing software in the field of
 computational chemistry and represents and warrants to the
 licensee that it is not a competitor of Gaussian, Inc. and that
 it will not use this program in any manner prohibited above.
 ---------------------------------------------------------------
  

 Cite this work as:
 Gaussian 16, Revision A.03,
 M. J. Frisch, G. W. Trucks, H. B. Schlegel, G. E. Scuseria, 
 M. A. Robb, J. R. Cheeseman, G. Scalmani, V. Barone, 
 G. A. Petersson, H. Nakatsuji, X. Li, M. Caricato, A. V. Marenich, 
 J. Bloino, B. G. Janesko, R. Gomperts, B. Mennucci, H. P. Hratchian, 
 J. V. Ortiz, A. F. Izmaylov, J. L. Sonnenberg, D. Williams-Young, 
 F. Ding, F. Lipparini, F. Egidi, J. Goings, B. Peng, A. Petrone, 
 T. Henderson, D. Ranasinghe, V. G. Zakrzewski, J. Gao, N. Rega, 
 G. Zheng, W. Liang, M. Hada, M. Ehara, K. Toyota, R. Fukuda, 
 J. Hasegawa, M. Ishida, T. Nakajima, Y. Honda, O. Kitao, H. Nakai, 
 T. Vreven, K. Throssell, J. A. Montgomery, Jr., J. E. Peralta, 
 F. Ogliaro, M. J. Bearpark, J. J. Heyd, E. N. Brothers, K. N. Kudin, 
 V. N. Staroverov, T. A. Keith, R. Kobayashi, J. Normand, 
 K. Raghavachari, A. P. Rendell, J. C. Burant, S. S. Iyengar, 
 J. Tomasi, M. Cossi, J. M. Millam, M. Klene, C. Adamo, R. Cammi, 
 J. W. Ochterski, R. L. Martin, K. Morokuma, O. Farkas, 
 J. B. Foresman, and D. J. Fox, Gaussian, Inc., Wallingford CT, 2016.
 
 ******************************************
 Gaussian 16:  ES64L-G16RevA.03 25-Dec-2016
                23-Jun-2025 
 ******************************************
 %nprocshared=24
 Will use up to   24 processors via shared memory.
 %mem=12GB
 %chk=ethyl_propiolate_ts1.chk
 --------------------------
 # freq 6-311++g(d,p) m062x
 --------------------------
 1/10=4,30=1,38=1/1,3;
 2/12=2,17=6,18=5,40=1/2;
 3/5=4,6=6,7=1111,11=2,25=1,30=1,71=2,74=-55,140=1/1,2,3;
 4//1;
 5/5=2,38=5,98=1/2;
 8/6=4,10=90,11=11/1;
 11/6=1,8=1,9=11,15=111,16=1/1,2,10;
 10/6=1/2;
 6/7=2,8=2,9=2,10=2,28=1/1;
 7/8=1,10=1,25=1/1,2,3,16;
 1/10=4,30=1/3;
 99//99;
 -------------------
 Title Card Required
 -------------------
 Symbolic Z-matrix:
 Charge =  0 Multiplicity = 2
 O                    -1.40145   1.72983   0.09024 
 H                    -2.03405   1.81981   0.82121 
 C                    -2.78893  -0.49143  -0.43818 
 H                    -3.81732  -0.54762  -0.70964 
 C                    -1.62483  -0.37749  -0.14662 
 C                    -0.22316  -0.56976   0.23368 
 O                     0.11294  -0.89775   1.33653 
 O                     0.58033  -0.36996  -0.80294 
 C                     1.99426  -0.45445  -0.53184 
 C                     2.48544   0.8199    0.12516 
 H                     2.44303  -0.60464  -1.51198 
 H                     2.18057  -1.32872   0.09295 
 H                     3.56742   0.76969   0.26191 
 H                     2.25049   1.68228  -0.49994 
 H                     2.01861   0.95172   1.10159 
 

 GradGradGradGradGradGradGradGradGradGradGradGradGradGradGradGradGradGrad
 Berny optimization.
 Initialization pass.
 Trust Radius=3.00D-01 FncErr=1.00D-07 GrdErr=1.00D-07 EigMax=2.50D+02 EigMin=1.00D-04
 Number of steps in this run=      2 maximum allowed number of steps=      2.
 GradGradGradGradGradGradGradGradGradGradGradGradGradGradGradGradGradGrad

                          Input orientation:                          
 ---------------------------------------------------------------------
 Center     Atomic      Atomic             Coordinates (Angstroms)
 Number     Number       Type             X           Y           Z
 ---------------------------------------------------------------------
      1          8           0       -1.401452    1.729825    0.090239
      2          1           0       -2.034055    1.819805    0.821214
      3          6           0       -2.788929   -0.491430   -0.438179
      4          1           0       -3.817321   -0.547619   -0.709644
      5          6           0       -1.624829   -0.377492   -0.146624
      6          6           0       -0.223159   -0.569764    0.233682
      7          8           0        0.112940   -0.897754    1.336533
      8          8           0        0.580329   -0.369963   -0.802936
      9          6           0        1.994262   -0.454445   -0.531835
     10          6           0        2.485440    0.819903    0.125157
     11          1           0        2.443031   -0.604642   -1.511980
     12          1           0        2.180574   -1.328718    0.092949
     13          1           0        3.567417    0.769689    0.261913
     14          1           0        2.250489    1.682277   -0.499939
     15          1           0        2.018614    0.951717    1.101585
 ---------------------------------------------------------------------
                    Distance matrix (angstroms):
                    1          2          3          4          5
     1  O    0.000000
     2  H    0.970880   0.000000
     3  C    2.671758   2.738195   0.000000
     4  H    3.415112   3.335905   1.065101   0.000000
     5  C    2.132319   2.435629   1.205452   2.270012   0.000000
     6  C    2.587868   3.055254   2.653433   3.715959   1.465019
     7  O    3.278842   3.501467   3.425718   4.444816   2.343132
     8  O    3.022305   3.777294   3.391121   4.402226   2.300766
     9  C    4.085203   4.819781   4.784251   5.815049   3.640347
    10  C    3.992131   4.680826   5.464056   6.503215   4.289747
    11  H    4.774609   5.600539   5.342216   6.311814   4.296892
    12  H    4.710160   5.310995   5.067456   6.101558   3.929799
    13  H    5.063694   5.726434   6.517951   7.563966   5.333137
    14  H    3.699628   4.485719   5.488584   6.467977   4.402905
    15  H    3.650359   4.154072   5.250335   6.291796   4.074248
                    6          7          8          9         10
     6  C    0.000000
     7  O    1.198674   0.000000
     8  O    1.326684   2.252630   0.000000
     9  C    2.348674   2.688251   1.442165   0.000000
    10  C    3.046221   3.169627   2.430347   1.515539   0.000000
    11  H    3.187024   3.691783   2.006857   1.088410   2.170563
    12  H    2.524629   2.450988   2.069446   1.090606   2.170381
    13  H    4.020373   3.983539   3.369778   2.145543   1.091741
    14  H    3.424737   3.820773   2.663256   2.152266   1.090704
    15  H    2.844944   2.665959   2.728132   2.155446   1.090281
                   11         12         13         14         15
    11  H    0.000000
    12  H    1.780159   0.000000
    13  H    2.509925   2.520951   0.000000
    14  H    2.508246   3.069608   1.774129   0.000000
    15  H    3.071336   2.498792   1.771150   1.775490   0.000000
 Stoichiometry    C5H7O3(2)
 Framework group  C1[X(C5H7O3)]
 Deg. of freedom    39
 Full point group                 C1      NOp   1
 Largest Abelian subgroup         C1      NOp   1
 Largest concise Abelian subgroup C1      NOp   1
                         Standard orientation:                         
 ---------------------------------------------------------------------
 Center     Atomic      Atomic             Coordinates (Angstroms)
 Number     Number       Type             X           Y           Z
 ---------------------------------------------------------------------
      1          8           0       -1.401452    1.729825    0.090239
      2          1           0       -2.034055    1.819805    0.821214
      3          6           0       -2.788929   -0.491430   -0.438179
      4          1           0       -3.817321   -0.547619   -0.709644
      5          6           0       -1.624829   -0.377492   -0.146624
      6          6           0       -0.223159   -0.569764    0.233682
      7          8           0        0.112940   -0.897754    1.336533
      8          8           0        0.580329   -0.369963   -0.802936
      9          6           0        1.994262   -0.454445   -0.531835
     10          6           0        2.485440    0.819903    0.125157
     11          1           0        2.443031   -0.604642   -1.511980
     12          1           0        2.180574   -1.328718    0.092949
     13          1           0        3.567417    0.769689    0.261913
     14          1           0        2.250489    1.682277   -0.499939
     15          1           0        2.018614    0.951717    1.101585
 ---------------------------------------------------------------------
 Rotational constants (GHZ):           3.5364997           1.3077040           1.1805098
 Standard basis: 6-311++G(d,p) (5D, 7F)
 There are   233 symmetry adapted cartesian basis functions of A   symmetry.
 There are   225 symmetry adapted basis functions of A   symmetry.
   225 basis functions,   351 primitive gaussians,   233 cartesian basis functions
    31 alpha electrons       30 beta electrons
       nuclear repulsion energy       361.1707635176 Hartrees.
 NAtoms=   15 NActive=   15 NUniq=   15 SFac= 1.00D+00 NAtFMM=   60 NAOKFM=F Big=F
 Integral buffers will be    131072 words long.
 Raffenetti 2 integral format.
 Two-electron integral symmetry is turned on.
 One-electron integrals computed using PRISM.
 NBasis=   225 RedAO= T EigKep=  1.44D-06  NBF=   225
 NBsUse=   225 1.00D-06 EigRej= -1.00D+00 NBFU=   225
 ExpMin= 3.60D-02 ExpMax= 8.59D+03 ExpMxC= 1.30D+03 IAcc=3 IRadAn=         5 AccDes= 0.00D+00
 Harris functional with IExCor= 1009 and IRadAn=       5 diagonalized for initial guess.
 HarFok:  IExCor= 1009 AccDes= 0.00D+00 IRadAn=         5 IDoV= 1 UseB2=F ITyADJ=14
 ICtDFT=  3500011 ScaDFX=  1.000000  1.000000  1.000000  1.000000
 FoFCou: FMM=F IPFlag=           0 FMFlag=      100000 FMFlg1=           0
         NFxFlg=           0 DoJE=T BraDBF=F KetDBF=T FulRan=T
         wScrn=  0.000000 ICntrl=       500 IOpCl=  0 I1Cent=   200000004 NGrid=           0
         NMat0=    1 NMatS0=      1 NMatT0=    0 NMatD0=    1 NMtDS0=    0 NMtDT0=    0
 Petite list used in FoFCou.
 Initial guess <Sx>= 0.0000 <Sy>= 0.0000 <Sz>= 0.5000 <S**2>= 0.7500 S= 0.5000
 Requested convergence on RMS density matrix=1.00D-08 within 128 cycles.
 Requested convergence on MAX density matrix=1.00D-06.
 Requested convergence on             energy=1.00D-06.
 No special actions if energy rises.
 Restarting incremental Fock formation.
 SCF Done:  E(UM062X) =  -420.204202174     A.U. after   24 cycles
            NFock= 24  Conv=0.54D-08     -V/T= 2.0032
 <Sx>= 0.0000 <Sy>= 0.0000 <Sz>= 0.5000 <S**2>= 0.7635 S= 0.5067
 <L.S>=  0.00000000000    
 Annihilation of the first spin contaminant:
 S**2 before annihilation     0.7635,   after     0.7501
 DoSCS=F DFT=T ScalE2(SS,OS)=  1.000000  1.000000
 Range of M.O.s used for correlation:     1   225
 NBasis=   225 NAE=    31 NBE=    30 NFC=     0 NFV=     0
 NROrb=    225 NOA=    31 NOB=    30 NVA=   194 NVB=   195

 **** Warning!!: The largest alpha MO coefficient is  0.29304919D+03


 **** Warning!!: The largest beta MO coefficient is  0.24212811D+03

 Symmetrizing basis deriv contribution to polar:
 IMax=3 JMax=2 DiffMx= 0.00D+00
 G2DrvN: will do    16 centers at a time, making    1 passes.
 Calling FoFCou, ICntrl=  3107 FMM=F I1Cent=   0 AccDes= 0.00D+00.
 End of G2Drv F.D. properties file   721 does not exist.
 End of G2Drv F.D. properties file   722 does not exist.
 End of G2Drv F.D. properties file   788 does not exist.
          IDoAtm=111111111111111
          Differentiating once with respect to electric field.
                with respect to dipole field.
          Differentiating once with respect to nuclear coordinates.
 Keep R1 and R2 ints in memory in canonical form, NReq=671901991.
          There are    48 degrees of freedom in the 1st order CPHF.  IDoFFX=6 NUNeed=     3.
     45 vectors produced by pass  0 Test12= 2.47D-14 2.08D-09 XBig12= 9.42D+01 3.30D+00.
 AX will form    45 AO Fock derivatives at one time.
     45 vectors produced by pass  1 Test12= 2.47D-14 2.08D-09 XBig12= 2.04D+01 5.10D-01.
     45 vectors produced by pass  2 Test12= 2.47D-14 2.08D-09 XBig12= 7.16D-01 1.47D-01.
     45 vectors produced by pass  3 Test12= 2.47D-14 2.08D-09 XBig12= 1.05D-02 1.42D-02.
     45 vectors produced by pass  4 Test12= 2.47D-14 2.08D-09 XBig12= 9.80D-05 1.33D-03.
     45 vectors produced by pass  5 Test12= 2.47D-14 2.08D-09 XBig12= 7.67D-07 8.10D-05.
     39 vectors produced by pass  6 Test12= 2.47D-14 2.08D-09 XBig12= 7.20D-09 1.27D-05.
     20 vectors produced by pass  7 Test12= 2.47D-14 2.08D-09 XBig12= 5.11D-11 6.18D-07.
      4 vectors produced by pass  8 Test12= 2.47D-14 2.08D-09 XBig12= 4.43D-13 5.52D-08.
      3 vectors produced by pass  9 Test12= 2.47D-14 2.08D-09 XBig12= 6.94D-15 1.54D-08.
      2 vectors produced by pass 10 Test12= 2.47D-14 2.08D-09 XBig12= 9.43D-16 5.69D-09.
 InvSVY:  IOpt=1 It=  1 EMax= 1.24D-14
 Solved reduced A of dimension   338 with    48 vectors.
 Isotropic polarizability for W=    0.000000       73.20 Bohr**3.
 End of Minotr F.D. properties file   721 does not exist.
 End of Minotr F.D. properties file   722 does not exist.
 End of Minotr F.D. properties file   788 does not exist.

 **********************************************************************

            Population analysis using the SCF density.

 **********************************************************************

 Orbital symmetries:
 Alpha Orbitals:
       Occupied  (A) (A) (A) (A) (A) (A) (A) (A) (A) (A) (A) (A)
                 (A) (A) (A) (A) (A) (A) (A) (A) (A) (A) (A) (A)
                 (A) (A) (A) (A) (A) (A) (A)
       Virtual   (A) (A) (A) (A) (A) (A) (A) (A) (A) (A) (A) (A)
                 (A) (A) (A) (A) (A) (A) (A) (A) (A) (A) (A) (A)
                 (A) (A) (A) (A) (A) (A) (A) (A) (A) (A) (A) (A)
                 (A) (A) (A) (A) (A) (A) (A) (A) (A) (A) (A) (A)
                 (A) (A) (A) (A) (A) (A) (A) (A) (A) (A) (A) (A)
                 (A) (A) (A) (A) (A) (A) (A) (A) (A) (A) (A) (A)
                 (A) (A) (A) (A) (A) (A) (A) (A) (A) (A) (A) (A)
                 (A) (A) (A) (A) (A) (A) (A) (A) (A) (A) (A) (A)
                 (A) (A) (A) (A) (A) (A) (A) (A) (A) (A) (A) (A)
                 (A) (A) (A) (A) (A) (A) (A) (A) (A) (A) (A) (A)
                 (A) (A) (A) (A) (A) (A) (A) (A) (A) (A) (A) (A)
                 (A) (A) (A) (A) (A) (A) (A) (A) (A) (A) (A) (A)
                 (A) (A) (A) (A) (A) (A) (A) (A) (A) (A) (A) (A)
                 (A) (A) (A) (A) (A) (A) (A) (A) (A) (A) (A) (A)
                 (A) (A) (A) (A) (A) (A) (A) (A) (A) (A) (A) (A)
                 (A) (A) (A) (A) (A) (A) (A) (A) (A) (A) (A) (A)
                 (A) (A)
 Beta  Orbitals:
       Occupied  (A) (A) (A) (A) (A) (A) (A) (A) (A) (A) (A) (A)
                 (A) (A) (A) (A) (A) (A) (A) (A) (A) (A) (A) (A)
                 (A) (A) (A) (A) (A) (A)
       Virtual   (A) (A) (A) (A) (A) (A) (A) (A) (A) (A) (A) (A)
                 (A) (A) (A) (A) (A) (A) (A) (A) (A) (A) (A) (A)
                 (A) (A) (A) (A) (A) (A) (A) (A) (A) (A) (A) (A)
                 (A) (A) (A) (A) (A) (A) (A) (A) (A) (A) (A) (A)
                 (A) (A) (A) (A) (A) (A) (A) (A) (A) (A) (A) (A)
                 (A) (A) (A) (A) (A) (A) (A) (A) (A) (A) (A) (A)
                 (A) (A) (A) (A) (A) (A) (A) (A) (A) (A) (A) (A)
                 (A) (A) (A) (A) (A) (A) (A) (A) (A) (A) (A) (A)
                 (A) (A) (A) (A) (A) (A) (A) (A) (A) (A) (A) (A)
                 (A) (A) (A) (A) (A) (A) (A) (A) (A) (A) (A) (A)
                 (A) (A) (A) (A) (A) (A) (A) (A) (A) (A) (A) (A)
                 (A) (A) (A) (A) (A) (A) (A) (A) (A) (A) (A) (A)
                 (A) (A) (A) (A) (A) (A) (A) (A) (A) (A) (A) (A)
                 (A) (A) (A) (A) (A) (A) (A) (A) (A) (A) (A) (A)
                 (A) (A) (A) (A) (A) (A) (A) (A) (A) (A) (A) (A)
                 (A) (A) (A) (A) (A) (A) (A) (A) (A) (A) (A) (A)
                 (A) (A) (A)
 The electronic state is 2-A.
 Alpha  occ. eigenvalues --  -19.68024 -19.66826 -19.62927 -10.70543 -10.60315
 Alpha  occ. eigenvalues --  -10.58338 -10.57882 -10.53363  -1.25551  -1.16251
 Alpha  occ. eigenvalues --   -1.12769  -0.90762  -0.87269  -0.78004  -0.70546
 Alpha  occ. eigenvalues --   -0.64357  -0.61822  -0.58445  -0.57122  -0.54330
 Alpha  occ. eigenvalues --   -0.53235  -0.50417  -0.48548  -0.46133  -0.45045
 Alpha  occ. eigenvalues --   -0.41843  -0.41708  -0.39521  -0.38265  -0.36493
 Alpha  occ. eigenvalues --   -0.35174
 Alpha virt. eigenvalues --   -0.00842  -0.00205   0.00511   0.01472   0.02528
 Alpha virt. eigenvalues --    0.02791   0.03620   0.04382   0.05642   0.06191
 Alpha virt. eigenvalues --    0.07144   0.07649   0.08464   0.09820   0.10722
 Alpha virt. eigenvalues --    0.11000   0.11530   0.12664   0.12821   0.13717
 Alpha virt. eigenvalues --    0.14339   0.14779   0.15522   0.15705   0.15896
 Alpha virt. eigenvalues --    0.16903   0.17539   0.18564   0.18999   0.20731
 Alpha virt. eigenvalues --    0.21246   0.21726   0.23447   0.24174   0.24424
 Alpha virt. eigenvalues --    0.25589   0.26132   0.28342   0.29385   0.30511
 Alpha virt. eigenvalues --    0.31263   0.32192   0.32258   0.33746   0.34508
 Alpha virt. eigenvalues --    0.34630   0.35588   0.37035   0.38762   0.40483
 Alpha virt. eigenvalues --    0.40999   0.43341   0.45140   0.46813   0.49513
 Alpha virt. eigenvalues --    0.50213   0.53531   0.55314   0.56160   0.58785
 Alpha virt. eigenvalues --    0.59533   0.60897   0.63342   0.66514   0.67195
 Alpha virt. eigenvalues --    0.70072   0.70572   0.70731   0.72316   0.72921
 Alpha virt. eigenvalues --    0.74158   0.75715   0.77365   0.78129   0.80018
 Alpha virt. eigenvalues --    0.84480   0.87501   0.91241   0.94615   0.98762
 Alpha virt. eigenvalues --    1.02210   1.05316   1.06533   1.09291   1.10001
 Alpha virt. eigenvalues --    1.14602   1.17651   1.18926   1.20248   1.23417
 Alpha virt. eigenvalues --    1.24712   1.26039   1.29614   1.32304   1.35285
 Alpha virt. eigenvalues --    1.35416   1.36903   1.37888   1.41008   1.44873
 Alpha virt. eigenvalues --    1.46069   1.49104   1.51595   1.52999   1.55417
 Alpha virt. eigenvalues --    1.58559   1.59856   1.61784   1.62594   1.65411
 Alpha virt. eigenvalues --    1.66666   1.67848   1.70590   1.73219   1.75017
 Alpha virt. eigenvalues --    1.78836   1.81453   1.83760   1.87040   1.89222
 Alpha virt. eigenvalues --    1.91057   1.95490   1.99481   2.03534   2.05312
 Alpha virt. eigenvalues --    2.09711   2.10196   2.14326   2.21364   2.31877
 Alpha virt. eigenvalues --    2.35870   2.39972   2.46861   2.51998   2.52678
 Alpha virt. eigenvalues --    2.54546   2.56104   2.62165   2.62462   2.63594
 Alpha virt. eigenvalues --    2.65471   2.66543   2.71959   2.73678   2.75949
 Alpha virt. eigenvalues --    2.81098   2.83015   2.84534   2.90442   2.93257
 Alpha virt. eigenvalues --    2.94647   2.96089   2.99246   3.02644   3.06461
 Alpha virt. eigenvalues --    3.08297   3.12282   3.15813   3.17267   3.18216
 Alpha virt. eigenvalues --    3.25314   3.27105   3.31999   3.36598   3.38580
 Alpha virt. eigenvalues --    3.45052   3.51886   3.66078   3.77207   3.85616
 Alpha virt. eigenvalues --    3.86322   3.88628   3.91215   4.03600   4.13538
 Alpha virt. eigenvalues --    4.19682   4.28582   5.10333   5.13213   5.16578
 Alpha virt. eigenvalues --    5.20369   5.32834   5.47550   5.58248   5.73906
 Alpha virt. eigenvalues --    5.95057  23.62037  23.93373  23.94501  24.06218
 Alpha virt. eigenvalues --   25.09814  49.95055  50.01295  50.11611
  Beta  occ. eigenvalues --  -19.68029 -19.65315 -19.62944 -10.70524 -10.60315
  Beta  occ. eigenvalues --  -10.58351 -10.57727 -10.53363  -1.25557  -1.16287
  Beta  occ. eigenvalues --   -1.05977  -0.90353  -0.86926  -0.77838  -0.70376
  Beta  occ. eigenvalues --   -0.64287  -0.61459  -0.58394  -0.56637  -0.53210
  Beta  occ. eigenvalues --   -0.51811  -0.49012  -0.46532  -0.45093  -0.41702
  Beta  occ. eigenvalues --   -0.39441  -0.39036  -0.38387  -0.38069  -0.36003
  Beta virt. eigenvalues --   -0.09288  -0.00257   0.00184   0.00574   0.01764
  Beta virt. eigenvalues --    0.02640   0.02824   0.03638   0.04465   0.05713
  Beta virt. eigenvalues --    0.06191   0.07240   0.07628   0.08498   0.09907
  Beta virt. eigenvalues --    0.10814   0.11214   0.11727   0.12717   0.12900
  Beta virt. eigenvalues --    0.13744   0.14396   0.14984   0.15580   0.15740
  Beta virt. eigenvalues --    0.16174   0.16922   0.17694   0.18635   0.19100
  Beta virt. eigenvalues --    0.20861   0.21420   0.21879   0.23340   0.24165
  Beta virt. eigenvalues --    0.24520   0.25658   0.26227   0.28553   0.29230
  Beta virt. eigenvalues --    0.30560   0.31222   0.32239   0.32323   0.33793
  Beta virt. eigenvalues --    0.34536   0.34619   0.35694   0.37046   0.38828
  Beta virt. eigenvalues --    0.40461   0.41116   0.43285   0.45149   0.46833
  Beta virt. eigenvalues --    0.49627   0.50236   0.53551   0.55414   0.56521
  Beta virt. eigenvalues --    0.59269   0.59738   0.61253   0.63379   0.66666
  Beta virt. eigenvalues --    0.67212   0.70077   0.70565   0.70825   0.72258
  Beta virt. eigenvalues --    0.72963   0.74173   0.75706   0.77365   0.78212
  Beta virt. eigenvalues --    0.80044   0.84597   0.87545   0.91417   0.94889
  Beta virt. eigenvalues --    0.98820   1.02348   1.05669   1.07264   1.09427
  Beta virt. eigenvalues --    1.11720   1.15232   1.17871   1.19537   1.20604
  Beta virt. eigenvalues --    1.23864   1.25117   1.26189   1.29793   1.33251
  Beta virt. eigenvalues --    1.35443   1.35813   1.37039   1.38625   1.41521
  Beta virt. eigenvalues --    1.45375   1.46578   1.49250   1.51840   1.53597
  Beta virt. eigenvalues --    1.55832   1.58572   1.59867   1.61874   1.62606
  Beta virt. eigenvalues --    1.65422   1.66680   1.67868   1.70663   1.73507
  Beta virt. eigenvalues --    1.75127   1.79244   1.81484   1.84032   1.87131
  Beta virt. eigenvalues --    1.89495   1.91146   1.95967   1.99496   2.03633
  Beta virt. eigenvalues --    2.05391   2.10035   2.11238   2.14338   2.21376
  Beta virt. eigenvalues --    2.31890   2.35878   2.40297   2.46919   2.51999
  Beta virt. eigenvalues --    2.52650   2.54560   2.56178   2.62244   2.62854
  Beta virt. eigenvalues --    2.64071   2.65612   2.66655   2.72166   2.73762
  Beta virt. eigenvalues --    2.76295   2.81856   2.83136   2.86843   2.90919
  Beta virt. eigenvalues --    2.94774   2.96648   2.97633   2.99718   3.03769
  Beta virt. eigenvalues --    3.07162   3.10533   3.12793   3.16368   3.19222
  Beta virt. eigenvalues --    3.20016   3.26599   3.27271   3.32082   3.37035
  Beta virt. eigenvalues --    3.38536   3.45007   3.52371   3.66067   3.77260
  Beta virt. eigenvalues --    3.85674   3.86392   3.91210   3.91851   4.03593
  Beta virt. eigenvalues --    4.13494   4.19635   4.28578   5.12100   5.16071
  Beta virt. eigenvalues --    5.20571   5.21819   5.32904   5.47568   5.60559
  Beta virt. eigenvalues --    5.73891   5.95047  23.62087  23.93378  23.94506
  Beta virt. eigenvalues --   24.06218  25.10093  49.94597  50.01264  50.11634
          Condensed to atoms (all electrons):
               1          2          3          4          5          6
     1  O    8.075271   0.238920  -0.180937  -0.001776   0.489732  -0.378786
     2  H    0.238920   0.508600  -0.141002  -0.002584   0.089367   0.073339
     3  C   -0.180937  -0.141002  38.009220   0.705618 -13.617110 -17.298025
     4  H   -0.001776  -0.002584   0.705618   0.433515  -0.232748  -0.082586
     5  C    0.489732   0.089367 -13.617110  -0.232748  20.191621  -1.757548
     6  C   -0.378786   0.073339 -17.298025  -0.082586  -1.757548  25.093641
     7  O   -0.009898  -0.000587   0.003535  -0.001452   0.174991   0.232781
     8  O   -0.001121  -0.000650  -0.046506  -0.003237  -0.183981   0.074789
     9  C   -0.027144   0.004575  -0.322911  -0.001140  -0.498358   0.698844
    10  C    0.020698  -0.004561   0.115798   0.000126   0.132293  -0.370104
    11  H    0.000228   0.000125  -0.024444  -0.000016  -0.029849   0.062492
    12  H   -0.000797   0.000178  -0.031120  -0.000248  -0.053813   0.068652
    13  H    0.000617   0.000108  -0.008851  -0.000032  -0.011622   0.024138
    14  H   -0.001525  -0.000219   0.003750   0.000050   0.012140  -0.016083
    15  H    0.002153  -0.000175   0.036887  -0.000111   0.021739  -0.074693
               7          8          9         10         11         12
     1  O   -0.009898  -0.001121  -0.027144   0.020698   0.000228  -0.000797
     2  H   -0.000587  -0.000650   0.004575  -0.004561   0.000125   0.000178
     3  C    0.003535  -0.046506  -0.322911   0.115798  -0.024444  -0.031120
     4  H   -0.001452  -0.003237  -0.001140   0.000126  -0.000016  -0.000248
     5  C    0.174991  -0.183981  -0.498358   0.132293  -0.029849  -0.053813
     6  C    0.232781   0.074789   0.698844  -0.370104   0.062492   0.068652
     7  O    7.982979  -0.146093   0.044460  -0.069007   0.004026  -0.017315
     8  O   -0.146093   8.256922   0.123035  -0.024716  -0.093895  -0.006502
     9  C    0.044460   0.123035   5.467470   0.005970   0.451775   0.415830
    10  C   -0.069007  -0.024716   0.005970   5.503230  -0.058513  -0.036228
    11  H    0.004026  -0.093895   0.451775  -0.058513   0.532731  -0.037941
    12  H   -0.017315  -0.006502   0.415830  -0.036228  -0.037941   0.519970
    13  H   -0.002142   0.015107  -0.043475   0.396728   0.000284  -0.004140
    14  H    0.001585  -0.001536  -0.037178   0.417941  -0.010917   0.004833
    15  H    0.001442  -0.021436  -0.009035   0.386297   0.009069  -0.010189
              13         14         15
     1  O    0.000617  -0.001525   0.002153
     2  H    0.000108  -0.000219  -0.000175
     3  C   -0.008851   0.003750   0.036887
     4  H   -0.000032   0.000050  -0.000111
     5  C   -0.011622   0.012140   0.021739
     6  C    0.024138  -0.016083  -0.074693
     7  O   -0.002142   0.001585   0.001442
     8  O    0.015107  -0.001536  -0.021436
     9  C   -0.043475  -0.037178  -0.009035
    10  C    0.396728   0.417941   0.386297
    11  H    0.000284  -0.010917   0.009069
    12  H   -0.004140   0.004833  -0.010189
    13  H    0.531123  -0.030431  -0.037490
    14  H   -0.030431   0.529784  -0.043605
    15  H   -0.037490  -0.043605   0.550092
          Atomic-Atomic Spin Densities.
               1          2          3          4          5          6
     1  O    0.959061   0.012536  -0.319907  -0.003745  -0.010098   0.217942
     2  H    0.012536  -0.032762   0.017687   0.000235  -0.006208  -0.011135
     3  C   -0.319907   0.017687   1.560647   0.051195  -0.481846  -0.569537
     4  H   -0.003745   0.000235   0.051195  -0.007319  -0.031134  -0.020683
     5  C   -0.010098  -0.006208  -0.481846  -0.031134   0.313091   0.112127
     6  C    0.217942  -0.011135  -0.569537  -0.020683   0.112127   0.284776
     7  O    0.001862  -0.000194   0.006972  -0.000000   0.002420  -0.007354
     8  O    0.001682   0.000340  -0.017808  -0.000214   0.002932   0.020935
     9  C    0.005474  -0.000579  -0.022719  -0.000099  -0.026980   0.043926
    10  C   -0.003800   0.000712   0.022729   0.000087   0.030663  -0.045706
    11  H    0.000302  -0.000019  -0.002236  -0.000027  -0.001759   0.003653
    12  H    0.000383  -0.000045  -0.000212  -0.000031  -0.000585  -0.000248
    13  H   -0.000077   0.000034   0.001332   0.000009   0.002077  -0.002938
    14  H   -0.000023  -0.000056  -0.000145  -0.000000  -0.001107   0.001057
    15  H   -0.000040  -0.000204  -0.008031   0.000000  -0.013794   0.022416
               7          8          9         10         11         12
     1  O    0.001862   0.001682   0.005474  -0.003800   0.000302   0.000383
     2  H   -0.000194   0.000340  -0.000579   0.000712  -0.000019  -0.000045
     3  C    0.006972  -0.017808  -0.022719   0.022729  -0.002236  -0.000212
     4  H   -0.000000  -0.000214  -0.000099   0.000087  -0.000027  -0.000031
     5  C    0.002420   0.002932  -0.026980   0.030663  -0.001759  -0.000585
     6  C   -0.007354   0.020935   0.043926  -0.045706   0.003653  -0.000248
     7  O   -0.012133   0.000185  -0.000005   0.000771   0.000049  -0.000340
     8  O    0.000185  -0.005243  -0.002238   0.000645   0.000017   0.000122
     9  C   -0.000005  -0.002238   0.008386  -0.007708   0.000619   0.001342
    10  C    0.000771   0.000645  -0.007708   0.005182  -0.000985  -0.001157
    11  H    0.000049   0.000017   0.000619  -0.000985   0.000025   0.000291
    12  H   -0.000340   0.000122   0.001342  -0.001157   0.000291   0.000091
    13  H    0.000018   0.000089  -0.001402   0.001496  -0.000095  -0.000222
    14  H   -0.000051  -0.000044   0.000411  -0.000474   0.000028   0.000070
    15  H   -0.000306  -0.000963   0.001045  -0.000495   0.000254   0.000538
              13         14         15
     1  O   -0.000077  -0.000023  -0.000040
     2  H    0.000034  -0.000056  -0.000204
     3  C    0.001332  -0.000145  -0.008031
     4  H    0.000009  -0.000000   0.000000
     5  C    0.002077  -0.001107  -0.013794
     6  C   -0.002938   0.001057   0.022416
     7  O    0.000018  -0.000051  -0.000306
     8  O    0.000089  -0.000044  -0.000963
     9  C   -0.001402   0.000411   0.001045
    10  C    0.001496  -0.000474  -0.000495
    11  H   -0.000095   0.000028   0.000254
    12  H   -0.000222   0.000070   0.000538
    13  H    0.000514  -0.000297  -0.000464
    14  H   -0.000297   0.000356   0.000008
    15  H   -0.000464   0.000008  -0.000971
 Mulliken charges and spin densities:
               1          2
     1  O   -0.225635   0.861552
     2  H    0.234566  -0.019658
     3  C   -1.203903   0.238121
     4  H    0.186623  -0.011726
     5  C    1.273144  -0.110201
     6  C   -0.350852   0.049230
     7  O   -0.199307  -0.008105
     8  O    0.059819   0.000437
     9  C   -0.272719  -0.000527
    10  C   -0.415952   0.001961
    11  H    0.194845   0.000117
    12  H    0.188828  -0.000003
    13  H    0.170077   0.000075
    14  H    0.171411  -0.000267
    15  H    0.189054  -0.001008
 Sum of Mulliken charges =  -0.00000   1.00000
 Mulliken charges and spin densities with hydrogens summed into heavy atoms:
               1          2
     1  O    0.008930   0.841895
     3  C   -1.017279   0.226395
     5  C    1.273144  -0.110201
     6  C   -0.350852   0.049230
     7  O   -0.199307  -0.008105
     8  O    0.059819   0.000437
     9  C    0.110954  -0.000412
    10  C    0.114590   0.000761
 APT charges:
               1
     1  O   -0.172059
     2  H    0.256502
     3  C   -0.179027
     4  H    0.235230
     5  C   -0.412237
     6  C    1.471527
     7  O   -0.778186
     8  O   -0.940598
     9  C    0.533633
    10  C   -0.041955
    11  H   -0.013614
    12  H   -0.011583
    13  H    0.009129
    14  H    0.015242
    15  H    0.027997
 Sum of APT charges =   0.00000
 APT charges with hydrogens summed into heavy atoms:
               1
     1  O    0.084443
     3  C    0.056203
     5  C   -0.412237
     6  C    1.471527
     7  O   -0.778186
     8  O   -0.940598
     9  C    0.508435
    10  C    0.010412
 Electronic spatial extent (au):  <R**2>=           1069.9949
 Charge=             -0.0000 electrons
 Dipole moment (field-independent basis, Debye):
    X=             -0.6483    Y=              0.0836    Z=             -0.6584  Tot=              0.9278
 Quadrupole moment (field-independent basis, Debye-Ang):
   XX=            -30.1806   YY=            -48.7245   ZZ=            -51.2262
   XY=             -0.2403   XZ=             -1.8184   YZ=              5.1070
 Traceless Quadrupole moment (field-independent basis, Debye-Ang):
   XX=             13.1965   YY=             -5.3474   ZZ=             -7.8491
   XY=             -0.2403   XZ=             -1.8184   YZ=              5.1070
 Octapole moment (field-independent basis, Debye-Ang**2):
  XXX=            -34.9356  YYY=              3.6994  ZZZ=             -1.6388  XYY=              0.8105
  XXY=             -1.2345  XXZ=             -5.7261  XZZ=              0.0287  YZZ=              7.0681
  YYZ=              3.8043  XYZ=             -6.7735
 Hexadecapole moment (field-independent basis, Debye-Ang**3):
 XXXX=           -744.0615 YYYY=           -269.3959 ZZZZ=           -175.1519 XXXY=             -4.6159
 XXXZ=             20.2673 YYYX=            -20.5727 YYYZ=             10.2147 ZZZX=            -10.6373
 ZZZY=              7.6955 XXYY=           -202.0881 XXZZ=           -181.6358 YYZZ=            -73.4758
 XXYZ=             19.9717 YYXZ=            -13.4127 ZZXY=             -8.8589
 N-N= 3.611707635176D+02 E-N=-1.707235844017D+03  KE= 4.188744569861D+02
  Exact polarizability:  91.451   6.176  68.703   4.490   1.955  59.443
 Approx polarizability:  98.914   5.983  72.856   7.493  -1.205  76.745
                          Isotropic Fermi Contact Couplings
        Atom                 a.u.       MegaHertz       Gauss      10(-4) cm-1
     1  O(17)              0.13008     -78.85463     -28.13729     -26.30307
     2  H(1)              -0.01440     -64.35784     -22.96448     -21.46747
     3  C(13)              0.03615      40.64049      14.50154      13.55621
     4  H(1)              -0.00398     -17.80177      -6.35211      -5.93803
     5  C(13)              0.01647      18.51998       6.60839       6.17760
     6  C(13)              0.01143      12.84834       4.58461       4.28575
     7  O(17)             -0.00302       1.82834       0.65240       0.60987
     8  O(17)             -0.00064       0.38719       0.13816       0.12915
     9  C(13)             -0.00002      -0.02050      -0.00731      -0.00684
    10  C(13)             -0.00044      -0.49116      -0.17526      -0.16383
    11  H(1)               0.00002       0.06955       0.02482       0.02320
    12  H(1)              -0.00005      -0.20247      -0.07224      -0.06754
    13  H(1)              -0.00000      -0.00843      -0.00301      -0.00281
    14  H(1)               0.00001       0.04376       0.01561       0.01460
    15  H(1)               0.00001       0.04469       0.01595       0.01491
 --------------------------------------------------------
       Center         ----  Spin Dipole Couplings  ----
                      3XX-RR        3YY-RR        3ZZ-RR
 --------------------------------------------------------
     1   Atom       -1.027988      2.537362     -1.509374
     2   Atom        0.005555     -0.051401      0.045846
     3   Atom       -0.151978      0.261953     -0.109975
     4   Atom        0.020336     -0.003476     -0.016860
     5   Atom        0.037803     -0.000238     -0.037564
     6   Atom        0.003598      0.012097     -0.015695
     7   Atom        0.023064     -0.033870      0.010806
     8   Atom        0.007074     -0.009522      0.002448
     9   Atom        0.002454     -0.000512     -0.001942
    10   Atom        0.003575     -0.001644     -0.001932
    11   Atom        0.001238     -0.000409     -0.000829
    12   Atom        0.001082      0.000209     -0.001291
    13   Atom        0.001831     -0.000848     -0.000983
    14   Atom        0.004708     -0.002399     -0.002309
    15   Atom        0.004065     -0.002047     -0.002018
 --------------------------------------------------------
                        XY            XZ            YZ
 --------------------------------------------------------
     1   Atom        1.670991      0.370632      0.914223
     2   Atom        0.004982     -0.129870      0.039226
     3   Atom        0.004541     -0.010360      0.032501
     4   Atom        0.005848      0.010910      0.002890
     5   Atom       -0.003458      0.019696      0.005847
     6   Atom       -0.017330      0.003394     -0.001728
     7   Atom       -0.031239     -0.005254     -0.019517
     8   Atom       -0.009043     -0.005557      0.003293
     9   Atom       -0.002626     -0.000559      0.000391
    10   Atom       -0.001535      0.000073      0.000008
    11   Atom       -0.001269     -0.000895      0.000534
    12   Atom       -0.001660      0.000103     -0.000030
    13   Atom       -0.000525      0.000122     -0.000003
    14   Atom       -0.000209     -0.001160      0.000109
    15   Atom       -0.001594      0.002018     -0.000438
 --------------------------------------------------------


 ---------------------------------------------------------------------------------
              Anisotropic Spin Dipole Couplings in Principal Axis System
 ---------------------------------------------------------------------------------

       Atom             a.u.   MegaHertz   Gauss  10(-4) cm-1        Axes

              Baa    -1.7109   123.797    44.174    41.294 -0.3952 -0.0420  0.9176
     1 O(17)  Bbb    -1.6856   121.966    43.521    40.684  0.8448 -0.4090  0.3451
              Bcc     3.3964  -245.763   -87.694   -81.978  0.3608  0.9116  0.1971
 
              Baa    -0.1189   -63.460   -22.644   -21.168  0.6660 -0.4108  0.6227
     2 H(1)   Bbb    -0.0416   -22.175    -7.913    -7.397  0.3917  0.9030  0.1767
              Bcc     0.1605    85.635    30.557    28.565 -0.6348  0.1262  0.7623
 
              Baa    -0.1547   -20.765    -7.410    -6.927  0.9689 -0.0297  0.2458
     3 C(13)  Bbb    -0.1101   -14.769    -5.270    -4.926 -0.2474 -0.0813  0.9655
              Bcc     0.2648    35.534    12.679    11.853  0.0087  0.9962  0.0862
 
              Baa    -0.0199   -10.631    -3.793    -3.546 -0.2498 -0.0808  0.9649
     4 H(1)   Bbb    -0.0048    -2.576    -0.919    -0.859 -0.2348  0.9718  0.0206
              Bcc     0.0248    13.207     4.713     4.405  0.9394  0.2214  0.2617
 
              Baa    -0.0434    -5.821    -2.077    -1.942 -0.2391 -0.1492  0.9595
     5 C(13)  Bbb     0.0007     0.087     0.031     0.029  0.0093  0.9877  0.1559
              Bcc     0.0427     5.734     2.046     1.913  0.9709 -0.0462  0.2348
 
              Baa    -0.0164    -2.198    -0.784    -0.733 -0.2400 -0.0874  0.9668
     6 C(13)  Bbb    -0.0096    -1.288    -0.459    -0.430  0.7487  0.6173  0.2417
              Bcc     0.0260     3.486     1.244     1.163 -0.6180  0.7818 -0.0827
 
              Baa    -0.0538     3.896     1.390     1.300  0.3768  0.8779  0.2956
     7 O(17)  Bbb     0.0166    -1.198    -0.427    -0.400 -0.2498 -0.2110  0.9450
              Bcc     0.0373    -2.699    -0.963    -0.900  0.8920 -0.4299  0.1398
 
              Baa    -0.0135     0.980     0.350     0.327  0.3888  0.9197 -0.0543
     8 O(17)  Bbb    -0.0009     0.068     0.024     0.023  0.4532 -0.1396  0.8804
              Bcc     0.0145    -1.047    -0.374    -0.349  0.8021 -0.3669 -0.4711
 
              Baa    -0.0021    -0.280    -0.100    -0.094  0.3355  0.7119 -0.6170
     9 C(13)  Bbb    -0.0020    -0.265    -0.095    -0.088  0.3898  0.4914  0.7789
              Bcc     0.0041     0.545     0.195     0.182  0.8576 -0.5018 -0.1126
 
              Baa    -0.0021    -0.277    -0.099    -0.093  0.2598  0.9456 -0.1960
    10 C(13)  Bbb    -0.0019    -0.259    -0.092    -0.086  0.0406  0.1921  0.9805
              Bcc     0.0040     0.536     0.191     0.179  0.9648 -0.2627  0.0115
 
              Baa    -0.0012    -0.637    -0.227    -0.213  0.0739 -0.4760  0.8763
    11 H(1)   Bbb    -0.0011    -0.577    -0.206    -0.193  0.5511  0.7519  0.3620
              Bcc     0.0023     1.215     0.433     0.405  0.8312 -0.4562 -0.3179
 
              Baa    -0.0013    -0.694    -0.248    -0.232 -0.1238 -0.1164  0.9855
    12 H(1)   Bbb    -0.0011    -0.568    -0.203    -0.189  0.5980  0.7837  0.1677
              Bcc     0.0024     1.262     0.450     0.421  0.7919 -0.6101  0.0274
 
              Baa    -0.0010    -0.532    -0.190    -0.177 -0.1069 -0.3609  0.9265
    13 H(1)   Bbb    -0.0009    -0.501    -0.179    -0.167  0.1568  0.9140  0.3741
              Bcc     0.0019     1.032     0.368     0.344  0.9818 -0.1853  0.0411
 
              Baa    -0.0025    -1.354    -0.483    -0.452  0.1238 -0.4920  0.8618
    14 H(1)   Bbb    -0.0024    -1.261    -0.450    -0.421  0.1047  0.8701  0.4817
              Bcc     0.0049     2.615     0.933     0.872  0.9868 -0.0306 -0.1592
 
              Baa    -0.0026    -1.405    -0.501    -0.469 -0.3238 -0.1867  0.9275
    15 H(1)   Bbb    -0.0024    -1.293    -0.462    -0.431  0.1579  0.9559  0.2475
              Bcc     0.0051     2.699     0.963     0.900  0.9329 -0.2266  0.2801
 

 ---------------------------------------------------------------------------------

 Calling FoFJK, ICntrl=    100127 FMM=F ISym2X=0 I1Cent= 0 IOpClX= 1 NMat=1 NMatS=1 NMatT=0.
 Full mass-weighted force constant matrix:
 Low frequencies --- -186.6843  -63.2068  -40.4010   -9.5070   -0.0012   -0.0007
 Low frequencies ---   -0.0002   30.9227   51.0000
 ******    2 imaginary frequencies (negative Signs) ****** 
 Diagonal vibrational polarizability:
      114.7834778     314.8156111      41.2735718
 Harmonic frequencies (cm**-1), IR intensities (KM/Mole), Raman scattering
 activities (A**4/AMU), depolarization ratios for plane and unpolarized
 incident light, reduced masses (AMU), force constants (mDyne/A),
 and normal coordinates:
                      1                      2                      3
                      A                      A                      A
 Frequencies --   -186.6835               -24.5989                45.9804
 Red. masses --     11.6253                 4.8928                 4.0033
 Frc consts  --      0.2387                 0.0017                 0.0050
 IR Inten    --     22.5496                 7.6443                 1.0530
  Atom  AN      X      Y      Z        X      Y      Z        X      Y      Z
     1   8    -0.08  -0.55  -0.09    -0.23  -0.01   0.27     0.25  -0.10   0.13
     2   1    -0.11  -0.10  -0.18    -0.08  -0.28   0.44     0.23  -0.05   0.11
     3   6     0.06   0.02   0.04     0.06  -0.01  -0.18    -0.00   0.08  -0.09
     4   1     0.08  -0.29   0.01     0.08  -0.04  -0.26     0.00   0.15  -0.12
     5   6     0.03   0.69   0.11     0.03   0.03  -0.09    -0.01   0.02  -0.04
     6   6     0.02   0.14   0.02     0.01   0.07  -0.01    -0.03  -0.06  -0.00
     7   8    -0.03  -0.06  -0.03    -0.03   0.21   0.05    -0.07  -0.02   0.02
     8   8     0.01   0.04   0.00     0.05  -0.07  -0.01     0.00  -0.14   0.00
     9   6     0.01  -0.02  -0.01     0.04  -0.12   0.04    -0.00   0.02   0.08
    10   6     0.03  -0.03   0.00     0.11  -0.06  -0.15    -0.18   0.20  -0.14
    11   1    -0.00  -0.02  -0.01     0.05  -0.30   0.07     0.06  -0.11   0.13
    12   1    -0.02  -0.03  -0.02    -0.03  -0.04   0.17     0.05   0.16   0.25
    13   1     0.02  -0.05   0.01     0.11  -0.12  -0.11    -0.18   0.33  -0.02
    14   1     0.04  -0.03   0.00     0.19  -0.14  -0.28    -0.20   0.05  -0.33
    15   1     0.02  -0.03  -0.00     0.09   0.12  -0.18    -0.28   0.35  -0.21
                      4                      5                      6
                      A                      A                      A
 Frequencies --    115.3838               134.4398               160.2877
 Red. masses --      3.8538                 4.8843                 2.5627
 Frc consts  --      0.0302                 0.0520                 0.0388
 IR Inten    --      1.7060                11.5272                10.2305
  Atom  AN      X      Y      Z        X      Y      Z        X      Y      Z
     1   8     0.09  -0.06   0.05     0.27  -0.07   0.09     0.01  -0.01   0.01
     2   1     0.20  -0.09   0.15    -0.20   0.16  -0.35     0.14  -0.08   0.13
     3   6    -0.01  -0.05   0.03    -0.05  -0.26  -0.11    -0.09  -0.06   0.21
     4   1    -0.02  -0.09   0.08    -0.02  -0.46  -0.17    -0.15  -0.11   0.46
     5   6     0.00  -0.00  -0.03    -0.09  -0.06  -0.02    -0.02  -0.00  -0.11
     6   6     0.02   0.06  -0.06    -0.08   0.10   0.04    -0.01   0.03  -0.13
     7   8     0.06   0.27  -0.01    -0.08   0.09   0.03    -0.08   0.03  -0.10
     8   8    -0.02  -0.12  -0.12    -0.09   0.21   0.05     0.07   0.03  -0.06
     9   6    -0.01  -0.00  -0.09    -0.09   0.03  -0.03     0.05  -0.02   0.11
    10   6    -0.16  -0.09   0.20     0.15  -0.06  -0.05     0.04   0.02   0.03
    11   1     0.03   0.25  -0.11    -0.16  -0.03  -0.05     0.15  -0.16   0.18
    12   1     0.07  -0.12  -0.27    -0.17  -0.00  -0.04    -0.08   0.04   0.23
    13   1    -0.14   0.02   0.11     0.15  -0.25  -0.09    -0.01  -0.13   0.36
    14   1    -0.31   0.02   0.41     0.28  -0.01  -0.04     0.36  -0.05  -0.18
    15   1    -0.11  -0.39   0.26     0.21   0.03  -0.03    -0.23   0.25  -0.13
                      7                      8                      9
                      A                      A                      A
 Frequencies --    209.4575               226.3254               255.9075
 Red. masses --      1.5959                 1.4132                 1.9106
 Frc consts  --      0.0413                 0.0427                 0.0737
 IR Inten    --     36.1895                 2.2261                32.8355
  Atom  AN      X      Y      Z        X      Y      Z        X      Y      Z
     1   8     0.00  -0.10  -0.06    -0.01  -0.05  -0.03     0.01   0.13  -0.03
     2   1     0.58  -0.29   0.46     0.24  -0.11   0.19     0.66  -0.10   0.56
     3   6    -0.05   0.07   0.01     0.01   0.05  -0.05     0.05  -0.17  -0.03
     4   1    -0.06   0.21   0.04     0.03   0.15  -0.13     0.08  -0.37  -0.08
     5   6    -0.02  -0.08  -0.04    -0.00  -0.06   0.06     0.01   0.12   0.03
     6   6    -0.02  -0.01   0.00     0.01  -0.01   0.03    -0.01   0.03   0.01
     7   8    -0.05   0.03   0.02     0.08   0.02   0.02    -0.02  -0.06  -0.01
     8   8    -0.00   0.05   0.03    -0.05   0.04  -0.00    -0.02   0.00   0.01
     9   6     0.00   0.04   0.01    -0.04   0.02  -0.03    -0.02  -0.02   0.00
    10   6     0.08   0.01  -0.01    -0.02  -0.02   0.02    -0.05  -0.01  -0.01
    11   1    -0.03   0.03  -0.01    -0.05   0.04  -0.04    -0.02  -0.03   0.00
    12   1     0.01   0.03  -0.01    -0.05  -0.00  -0.06    -0.03  -0.02   0.01
    13   1     0.12   0.06  -0.30    -0.09  -0.28   0.50    -0.05   0.03   0.01
    14   1    -0.12   0.05   0.12     0.47  -0.02  -0.17    -0.07  -0.02  -0.02
    15   1     0.33  -0.09   0.12    -0.40   0.19  -0.19    -0.07  -0.01  -0.02
                     10                     11                     12
                      A                      A                      A
 Frequencies --    336.1966               427.7052               558.8422
 Red. masses --      2.9076                 3.7602                 3.5429
 Frc consts  --      0.1936                 0.4053                 0.6519
 IR Inten    --      9.7737                 3.5678                 9.5738
  Atom  AN      X      Y      Z        X      Y      Z        X      Y      Z
     1   8     0.00  -0.03  -0.01     0.00  -0.03  -0.01    -0.01  -0.02   0.00
     2   1     0.02   0.02   0.00    -0.06  -0.18  -0.04     0.14   0.44   0.08
     3   6     0.00   0.02  -0.04     0.09   0.03   0.06    -0.17  -0.01  -0.07
     4   1     0.02   0.06  -0.11     0.05   0.10   0.20    -0.11  -0.01  -0.31
     5   6    -0.02  -0.04   0.08     0.13  -0.07  -0.13    -0.21  -0.04   0.21
     6   6     0.01   0.04  -0.05     0.06   0.07   0.04    -0.02   0.06  -0.03
     7   8     0.20   0.01  -0.11    -0.09  -0.01   0.07    -0.01   0.01  -0.05
     8   8    -0.03   0.12  -0.06     0.06   0.22   0.09     0.14   0.04   0.04
     9   6    -0.09  -0.11   0.19     0.03  -0.13  -0.09     0.24  -0.08  -0.05
    10   6    -0.07  -0.03   0.01    -0.20  -0.10  -0.07    -0.00  -0.01  -0.02
    11   1     0.07  -0.39   0.31    -0.04  -0.13  -0.12     0.14   0.02  -0.11
    12   1    -0.37   0.00   0.42    -0.05  -0.17  -0.12     0.28  -0.13  -0.12
    13   1    -0.03   0.14  -0.26    -0.21   0.26   0.11    -0.01   0.35   0.18
    14   1    -0.35  -0.12  -0.02    -0.41  -0.20  -0.13    -0.20  -0.11  -0.08
    15   1     0.14  -0.00   0.10    -0.43  -0.22  -0.17    -0.24  -0.13  -0.12
                     13                     14                     15
                      A                      A                      A
 Frequencies --    607.5354               640.7398               719.7975
 Red. masses --      6.1098                 1.1529                 1.3303
 Frc consts  --      1.3287                 0.2789                 0.4061
 IR Inten    --     14.2954                76.9893                34.3854
  Atom  AN      X      Y      Z        X      Y      Z        X      Y      Z
     1   8     0.01   0.04  -0.00    -0.03  -0.04   0.02     0.00   0.01   0.00
     2   1    -0.05  -0.36  -0.01     0.23   0.95   0.13    -0.00   0.02  -0.00
     3   6    -0.26  -0.00  -0.05     0.01  -0.01  -0.01    -0.03  -0.11   0.10
     4   1    -0.35  -0.25   0.32    -0.02   0.02   0.12     0.13   0.72  -0.66
     5   6    -0.14   0.13  -0.36     0.03  -0.01  -0.07     0.01   0.05  -0.06
     6   6    -0.04  -0.01   0.12     0.00  -0.03   0.01    -0.01  -0.02  -0.00
     7   8     0.32  -0.03   0.01     0.02   0.00   0.01     0.01   0.01  -0.00
     8   8     0.00  -0.03   0.21    -0.01   0.00   0.01     0.00   0.00   0.01
     9   6     0.04  -0.03   0.01    -0.03   0.01   0.00    -0.00  -0.00   0.00
    10   6    -0.01  -0.01  -0.01    -0.01  -0.00  -0.00    -0.00  -0.00  -0.00
    11   1    -0.16   0.15  -0.11    -0.03   0.01   0.00    -0.01   0.01  -0.00
    12   1     0.22  -0.10  -0.15    -0.02   0.01   0.00     0.01  -0.01  -0.01
    13   1    -0.01   0.08   0.05    -0.00  -0.03  -0.02    -0.00   0.00  -0.00
    14   1    -0.04  -0.06  -0.08     0.01   0.00   0.00    -0.00  -0.01  -0.01
    15   1    -0.07   0.03  -0.05     0.01   0.01   0.01    -0.00   0.01  -0.00
                     16                     17                     18
                      A                      A                      A
 Frequencies --    743.5958               774.3199               803.0780
 Red. masses --      1.3250                 7.7239                 1.2065
 Frc consts  --      0.4317                 2.7285                 0.4584
 IR Inten    --     21.4037                58.4794                 5.2392
  Atom  AN      X      Y      Z        X      Y      Z        X      Y      Z
     1   8     0.00   0.01  -0.00    -0.00  -0.04  -0.00     0.00  -0.00   0.00
     2   1    -0.03  -0.06  -0.02     0.04   0.12   0.02    -0.01  -0.00  -0.00
     3   6     0.03  -0.10  -0.10     0.01  -0.03  -0.01     0.03   0.01   0.01
     4   1    -0.22   0.67   0.68    -0.06   0.45   0.16     0.04  -0.03  -0.01
     5   6    -0.02   0.04   0.05     0.02  -0.17  -0.05     0.02  -0.00   0.02
     6   6    -0.00  -0.03  -0.01     0.03   0.67   0.16    -0.02  -0.03  -0.04
     7   8    -0.00   0.01   0.00    -0.01  -0.18  -0.08    -0.01   0.02  -0.04
     8   8    -0.00   0.01   0.00    -0.00  -0.18  -0.02     0.01   0.01   0.03
     9   6     0.01  -0.00   0.00    -0.04  -0.00   0.03    -0.03  -0.02   0.07
    10   6     0.00   0.00   0.00    -0.02   0.01   0.01    -0.01  -0.02   0.03
    11   1     0.00  -0.00  -0.00    -0.05   0.22  -0.01    -0.08   0.52  -0.04
    12   1     0.00  -0.01  -0.00     0.12  -0.07  -0.11     0.12  -0.31  -0.38
    13   1     0.00   0.02   0.01    -0.01  -0.13  -0.10     0.02   0.03  -0.19
    14   1    -0.01  -0.01  -0.00     0.08  -0.02  -0.07    -0.05  -0.29  -0.34
    15   1    -0.01  -0.00  -0.00     0.12   0.19   0.05     0.11   0.44   0.02
                     19                     20                     21
                      A                      A                      A
 Frequencies --    897.5797               929.2792              1075.9945
 Red. masses --      3.2319                 2.7539                 4.1337
 Frc consts  --      1.5341                 1.4012                 2.8198
 IR Inten    --     15.7913                 5.8873                23.1062
  Atom  AN      X      Y      Z        X      Y      Z        X      Y      Z
     1   8     0.00  -0.00   0.00     0.00  -0.01  -0.00     0.00  -0.00  -0.00
     2   1    -0.01  -0.02  -0.01    -0.00   0.01  -0.01     0.00   0.01   0.00
     3   6     0.05   0.01   0.01     0.11   0.01   0.03     0.07   0.01   0.02
     4   1     0.06  -0.00  -0.02     0.12   0.00   0.03     0.07   0.01   0.04
     5   6     0.01  -0.02   0.07     0.07  -0.02   0.00     0.04  -0.01  -0.03
     6   6    -0.04   0.01  -0.11    -0.15   0.02  -0.05    -0.15   0.01   0.03
     7   8    -0.00   0.05  -0.16     0.01   0.03  -0.13     0.02   0.00  -0.02
     8   8     0.13  -0.04   0.24    -0.14  -0.04   0.11    -0.22   0.02  -0.04
     9   6    -0.09   0.09   0.02     0.03  -0.10  -0.02     0.31   0.16   0.14
    10   6    -0.12  -0.06  -0.10     0.15   0.10   0.04    -0.06  -0.17  -0.09
    11   1    -0.23  -0.02  -0.03    -0.34  -0.21  -0.17     0.33   0.28   0.14
    12   1     0.25   0.27   0.17     0.04  -0.11  -0.04     0.40   0.25   0.21
    13   1    -0.13  -0.58  -0.12     0.12   0.60   0.38    -0.06  -0.26  -0.12
    14   1     0.18   0.23   0.21    -0.15   0.08   0.12    -0.05  -0.22  -0.15
    15   1     0.04  -0.33   0.01    -0.22  -0.15  -0.10    -0.07  -0.29  -0.09
                     22                     23                     24
                      A                      A                      A
 Frequencies --   1129.7633              1204.5193              1291.5904
 Red. masses --      2.0924                 1.7712                 3.6196
 Frc consts  --      1.5735                 1.5141                 3.5576
 IR Inten    --     22.6405                 5.6018               536.3900
  Atom  AN      X      Y      Z        X      Y      Z        X      Y      Z
     1   8    -0.00   0.00   0.00    -0.00   0.00   0.00    -0.00   0.01   0.00
     2   1    -0.00  -0.00  -0.00     0.00   0.00   0.00     0.01   0.02   0.00
     3   6    -0.02  -0.00  -0.00    -0.02  -0.00  -0.00    -0.08  -0.01  -0.02
     4   1    -0.02  -0.00  -0.01    -0.02  -0.00  -0.01    -0.08  -0.01  -0.05
     5   6    -0.01   0.00   0.01    -0.01   0.00  -0.00    -0.01   0.01   0.01
     6   6     0.03   0.00  -0.00     0.06  -0.00  -0.01     0.37   0.01  -0.14
     7   8    -0.00  -0.00   0.00    -0.01  -0.01   0.04    -0.05   0.00  -0.01
     8   8     0.06  -0.05  -0.01    -0.00   0.02  -0.07    -0.18  -0.02   0.08
     9   6    -0.12   0.19   0.04    -0.04  -0.06   0.18     0.10   0.04   0.03
    10   6     0.11  -0.15  -0.03     0.03   0.05  -0.13    -0.02  -0.02   0.06
    11   1    -0.09   0.10   0.08    -0.33   0.37  -0.02    -0.69  -0.28  -0.27
    12   1    -0.22   0.17   0.03     0.30  -0.26  -0.21     0.05   0.13   0.15
    13   1     0.09   0.46   0.20    -0.03  -0.07   0.28     0.00  -0.03  -0.13
    14   1    -0.40  -0.37  -0.15    -0.02   0.32   0.28     0.01  -0.19  -0.18
    15   1    -0.36  -0.20  -0.25    -0.07  -0.45  -0.10     0.01   0.09   0.05
                     25                     26                     27
                      A                      A                      A
 Frequencies --   1346.4982              1402.0756              1431.3814
 Red. masses --      1.2578                 1.2855                 1.3842
 Frc consts  --      1.3436                 1.4889                 1.6710
 IR Inten    --    102.9720                28.2214                12.8658
  Atom  AN      X      Y      Z        X      Y      Z        X      Y      Z
     1   8     0.00  -0.00  -0.00    -0.00   0.00   0.00    -0.00   0.00   0.00
     2   1    -0.00  -0.00   0.00     0.00   0.00   0.00     0.00   0.00   0.00
     3   6     0.01   0.00   0.00    -0.01  -0.00  -0.00    -0.01  -0.00  -0.00
     4   1     0.01   0.00   0.01    -0.01  -0.00  -0.01    -0.01  -0.00  -0.01
     5   6     0.00  -0.00  -0.00    -0.00   0.00   0.00    -0.00   0.00   0.00
     6   6    -0.07  -0.00   0.03     0.06  -0.00  -0.01     0.06   0.00  -0.01
     7   8     0.01  -0.01   0.02    -0.01   0.00  -0.01    -0.01   0.00  -0.01
     8   8     0.05   0.03  -0.08    -0.04   0.01   0.03    -0.04   0.01   0.02
     9   6    -0.04  -0.01  -0.00    -0.04  -0.04  -0.02    -0.08  -0.08  -0.05
    10   6    -0.00  -0.03   0.05    -0.02  -0.11  -0.05     0.07   0.07   0.04
    11   1    -0.50  -0.21  -0.18     0.32   0.25   0.11     0.44   0.28   0.14
    12   1     0.69   0.28   0.21     0.24   0.18   0.19     0.41   0.23   0.24
    13   1     0.01   0.07  -0.04    -0.02   0.48   0.21     0.07  -0.32  -0.10
    14   1    -0.02  -0.11  -0.05     0.18   0.25   0.34    -0.32  -0.17  -0.14
    15   1     0.02   0.19   0.03     0.22   0.39   0.00    -0.29  -0.18  -0.10
                     28                     29                     30
                      A                      A                      A
 Frequencies --   1491.1527              1502.4777              1515.0873
 Red. masses --      1.0401                 1.0550                 1.0932
 Frc consts  --      1.3625                 1.4032                 1.4785
 IR Inten    --     10.8675                 1.1044                21.3581
  Atom  AN      X      Y      Z        X      Y      Z        X      Y      Z
     1   8    -0.00  -0.00   0.00     0.00  -0.00   0.00    -0.00  -0.00  -0.00
     2   1     0.00   0.00  -0.00    -0.00  -0.00  -0.00     0.00  -0.00   0.00
     3   6    -0.00  -0.00  -0.00     0.00   0.00   0.00     0.00   0.00   0.00
     4   1    -0.00  -0.00   0.00     0.00   0.00   0.00     0.01   0.00   0.00
     5   6     0.00  -0.00   0.00    -0.00   0.00  -0.00    -0.00  -0.00  -0.00
     6   6     0.00  -0.00   0.00    -0.01   0.00  -0.00    -0.03   0.00  -0.00
     7   8    -0.00   0.00  -0.01     0.00  -0.00   0.01     0.01  -0.00   0.01
     8   8    -0.00  -0.00   0.00     0.01  -0.00  -0.00     0.02  -0.00  -0.01
     9   6     0.01   0.02  -0.02     0.00  -0.04  -0.03     0.05  -0.05  -0.01
    10   6     0.01   0.01  -0.04    -0.03   0.03  -0.01     0.02  -0.02   0.00
    11   1    -0.00  -0.12  -0.01    -0.13   0.39  -0.14    -0.29   0.42  -0.23
    12   1    -0.00  -0.00  -0.04    -0.20   0.20   0.35    -0.38   0.14   0.36
    13   1    -0.08  -0.36   0.56    -0.04   0.14   0.28     0.03  -0.18  -0.17
    14   1    -0.55  -0.09   0.05     0.17  -0.19  -0.37    -0.20   0.14   0.29
    15   1     0.36   0.28   0.10     0.37  -0.35   0.23    -0.25   0.30  -0.17
                     31                     32                     33
                      A                      A                      A
 Frequencies --   1844.1787              2208.3609              3075.8108
 Red. masses --     11.9972                 5.9844                 1.0353
 Frc consts  --     24.0402                17.1954                 5.7706
 IR Inten    --    340.7491                73.9525                 9.5426
  Atom  AN      X      Y      Z        X      Y      Z        X      Y      Z
     1   8    -0.00   0.01  -0.00     0.00   0.01   0.00    -0.00   0.00  -0.00
     2   1     0.03  -0.00   0.02    -0.00   0.00  -0.00    -0.00  -0.00   0.00
     3   6    -0.07  -0.00  -0.02    -0.37  -0.03  -0.09     0.00   0.00   0.00
     4   1    -0.11  -0.02  -0.00    -0.71  -0.06  -0.19    -0.00  -0.00  -0.00
     5   6     0.05   0.00  -0.00     0.52   0.01   0.13    -0.00   0.00   0.00
     6   6     0.21  -0.21   0.73    -0.10   0.02  -0.04     0.00   0.00  -0.00
     7   8    -0.15   0.14  -0.47     0.00  -0.00   0.01     0.00   0.00   0.00
     8   8     0.02   0.02  -0.07    -0.00  -0.00   0.00    -0.00  -0.00   0.00
     9   6     0.03  -0.01   0.02     0.00   0.00  -0.00    -0.00   0.00   0.00
    10   6    -0.01   0.01   0.00    -0.00  -0.00  -0.00    -0.02  -0.04  -0.02
    11   1    -0.18   0.08  -0.09     0.01  -0.00  -0.00     0.00  -0.00  -0.01
    12   1    -0.14  -0.02   0.09     0.00  -0.00  -0.00     0.00  -0.02   0.01
    13   1     0.00  -0.04  -0.06     0.00   0.00   0.00     0.62  -0.03   0.08
    14   1     0.04   0.01  -0.01     0.00   0.00  -0.00    -0.13   0.45  -0.34
    15   1    -0.04  -0.05  -0.00     0.00   0.00   0.00    -0.23   0.05   0.47
                     34                     35                     36
                      A                      A                      A
 Frequencies --   3107.3658              3152.4990              3154.2692
 Red. masses --      1.0607                 1.1020                 1.1044
 Frc consts  --      6.0345                 6.4528                 6.4740
 IR Inten    --     19.8615                13.0312                 4.1624
  Atom  AN      X      Y      Z        X      Y      Z        X      Y      Z
     1   8     0.00  -0.00   0.00    -0.00   0.00   0.00     0.00  -0.00  -0.00
     2   1     0.00   0.00  -0.00     0.00   0.00  -0.00    -0.00  -0.00  -0.00
     3   6    -0.00   0.00  -0.00     0.00   0.00   0.00    -0.00   0.00  -0.00
     4   1     0.00   0.00   0.00    -0.00   0.00  -0.00    -0.00   0.00  -0.00
     5   6     0.00  -0.00  -0.00    -0.00  -0.00  -0.00     0.00  -0.00  -0.00
     6   6    -0.00  -0.00   0.00     0.00   0.00  -0.00     0.00  -0.00   0.00
     7   8    -0.00   0.00  -0.00    -0.00   0.00   0.00    -0.00   0.00  -0.00
     8   8     0.00   0.00  -0.00     0.00  -0.00   0.00    -0.00  -0.00  -0.00
     9   6     0.03  -0.06  -0.00    -0.01  -0.00   0.03    -0.01  -0.02   0.05
    10   6    -0.01   0.01  -0.00    -0.06   0.05  -0.04     0.06  -0.00  -0.05
    11   1    -0.23   0.06   0.50     0.15  -0.05  -0.33     0.16  -0.05  -0.36
    12   1    -0.13   0.65  -0.48    -0.02   0.07  -0.05    -0.06   0.28  -0.20
    13   1     0.12  -0.01   0.01     0.58  -0.02   0.07    -0.48   0.02  -0.07
    14   1     0.01  -0.05   0.04     0.14  -0.56   0.41     0.03  -0.06   0.04
    15   1     0.01  -0.00  -0.03    -0.04   0.02   0.06    -0.29   0.08   0.62
                     37                     38                     39
                      A                      A                      A
 Frequencies --   3175.0763              3484.4846              3806.1319
 Red. masses --      1.1073                 1.1617                 1.0673
 Frc consts  --      6.5772                 8.3101                 9.1101
 IR Inten    --     14.8639                68.6972                41.5044
  Atom  AN      X      Y      Z        X      Y      Z        X      Y      Z
     1   8    -0.00  -0.00   0.00     0.00   0.00   0.00     0.04  -0.01  -0.05
     2   1     0.00   0.00  -0.00     0.00  -0.00  -0.00    -0.65   0.09   0.75
     3   6    -0.00  -0.00  -0.00    -0.11  -0.01  -0.03    -0.00   0.00  -0.00
     4   1     0.00   0.00   0.00     0.96   0.05   0.25    -0.00   0.00   0.00
     5   6     0.00  -0.00   0.00     0.03   0.00   0.01     0.00   0.00   0.00
     6   6    -0.00   0.00  -0.00    -0.00   0.00  -0.00     0.00  -0.00  -0.00
     7   8     0.00  -0.00   0.00     0.00   0.00  -0.00    -0.00   0.00  -0.00
     8   8     0.00  -0.00   0.00     0.00  -0.00  -0.00    -0.00  -0.00   0.00
     9   6     0.02   0.02  -0.07    -0.00   0.00   0.00     0.00  -0.00   0.00
    10   6     0.02   0.02  -0.05     0.00  -0.00   0.00    -0.00   0.00  -0.00
    11   1    -0.26   0.09   0.58     0.00  -0.00  -0.00    -0.00   0.00   0.00
    12   1     0.07  -0.34   0.24     0.00   0.00   0.00    -0.00  -0.00  -0.00
    13   1    -0.06   0.01  -0.02     0.00   0.00   0.00    -0.00  -0.00   0.00
    14   1     0.09  -0.31   0.22    -0.00   0.00  -0.00    -0.00  -0.00   0.00
    15   1    -0.21   0.06   0.45    -0.00  -0.00  -0.00     0.00   0.00   0.00

 -------------------
 - Thermochemistry -
 -------------------
 Temperature   298.150 Kelvin.  Pressure   1.00000 Atm.
 Atom     1 has atomic number  8 and mass  15.99491
 Atom     2 has atomic number  1 and mass   1.00783
 Atom     3 has atomic number  6 and mass  12.00000
 Atom     4 has atomic number  1 and mass   1.00783
 Atom     5 has atomic number  6 and mass  12.00000
 Atom     6 has atomic number  6 and mass  12.00000
 Atom     7 has atomic number  8 and mass  15.99491
 Atom     8 has atomic number  8 and mass  15.99491
 Atom     9 has atomic number  6 and mass  12.00000
 Atom    10 has atomic number  6 and mass  12.00000
 Atom    11 has atomic number  1 and mass   1.00783
 Atom    12 has atomic number  1 and mass   1.00783
 Atom    13 has atomic number  1 and mass   1.00783
 Atom    14 has atomic number  1 and mass   1.00783
 Atom    15 has atomic number  1 and mass   1.00783
 Molecular mass:   115.03952 amu.
 Principal axes and moments of inertia in atomic units:
                           1         2         3
     Eigenvalues --   510.318491380.083871528.78122
           X            0.99994   0.01074  -0.00089
           Y           -0.01064   0.99726   0.07321
           Z            0.00167  -0.07319   0.99732
 This molecule is an asymmetric top.
 Rotational symmetry number  1.
 Warning -- assumption of classical behavior for rotation
           may cause significant error
 Rotational temperatures (Kelvin)      0.16973     0.06276     0.05666
 Rotational constants (GHZ):           3.53650     1.30770     1.18051
    2 imaginary frequencies ignored.
 Zero-point vibrational energy     292996.4 (Joules/Mol)
                                   70.02781 (Kcal/Mol)
 Warning -- explicit consideration of  11 degrees of freedom as
           vibrations may cause significant error
 Vibrational temperatures:     66.16   166.01   193.43   230.62   301.36
          (Kelvin)            325.63   368.19   483.71   615.37   804.05
                              874.11   921.88  1035.63  1069.87  1114.07
                             1155.45  1291.42  1337.03  1548.12  1625.48
                             1733.03  1858.31  1937.31  2017.27  2059.44
                             2145.44  2161.73  2179.87  2653.36  3177.34
                             4425.41  4470.81  4535.74  4538.29  4568.23
                             5013.40  5476.17
 
 Zero-point correction=                           0.111596 (Hartree/Particle)
 Thermal correction to Energy=                    0.120543
 Thermal correction to Enthalpy=                  0.121487
 Thermal correction to Gibbs Free Energy=         0.076736
 Sum of electronic and zero-point Energies=           -420.092606
 Sum of electronic and thermal Energies=              -420.083659
 Sum of electronic and thermal Enthalpies=            -420.082715
 Sum of electronic and thermal Free Energies=         -420.127466
 
                     E (Thermal)             CV                S
                      KCal/Mol        Cal/Mol-Kelvin    Cal/Mol-Kelvin
 Total                   75.642             30.495             94.185
 Electronic               0.000              0.000              1.377
 Translational            0.889              2.981             40.136
 Rotational               0.889              2.981             28.467
 Vibrational             73.864             24.534             24.205
 Vibration     1          0.595              1.979              4.983
 Vibration     2          0.608              1.937              3.176
 Vibration     3          0.613              1.919              2.882
 Vibration     4          0.622              1.891              2.546
 Vibration     5          0.642              1.826              2.048
 Vibration     6          0.650              1.801              1.908
 Vibration     7          0.666              1.753              1.690
 Vibration     8          0.717              1.603              1.230
 Vibration     9          0.789              1.410              0.866
 Vibration    10          0.914              1.120              0.526
 Vibration    11          0.966              1.016              0.437
                       Q            Log10(Q)             Ln(Q)
 Total Bot       0.505548D-35        -35.296237        -81.272590
 Total V=0       0.108271D+17         16.034510         36.920824
 Vib (Bot)       0.140319D-48        -48.852883       -112.487921
 Vib (Bot)    1  0.449757D+01          0.652978          1.503537
 Vib (Bot)    2  0.177297D+01          0.248701          0.572655
 Vib (Bot)    3  0.151469D+01          0.180324          0.415211
 Vib (Bot)    4  0.126115D+01          0.100768          0.232027
 Vib (Bot)    5  0.948446D+00         -0.022987         -0.052930
 Vib (Bot)    6  0.871632D+00         -0.059667         -0.137388
 Vib (Bot)    7  0.760509D+00         -0.118896         -0.273768
 Vib (Bot)    8  0.553632D+00         -0.256778         -0.591254
 Vib (Bot)    9  0.408108D+00         -0.389225         -0.896223
 Vib (Bot)   10  0.278428D+00         -0.555287         -1.278596
 Vib (Bot)   11  0.243872D+00         -0.612838         -1.411111
 Vib (V=0)       0.300514D+03          2.477864          5.705493
 Vib (V=0)    1  0.502528D+01          0.701160          1.614481
 Vib (V=0)    2  0.234212D+01          0.369610          0.851058
 Vib (V=0)    3  0.209508D+01          0.321201          0.739593
 Vib (V=0)    4  0.185665D+01          0.268731          0.618776
 Vib (V=0)    5  0.157217D+01          0.196500          0.452457
 Vib (V=0)    6  0.150486D+01          0.177496          0.408700
 Vib (V=0)    7  0.141015D+01          0.149265          0.343696
 Vib (V=0)    8  0.124600D+01          0.095516          0.219935
 Vib (V=0)    9  0.114541D+01          0.058960          0.135761
 Vib (V=0)   10  0.107230D+01          0.030314          0.069802
 Vib (V=0)   11  0.105630D+01          0.023789          0.054776
 Electronic      0.200000D+01          0.301030          0.693147
 Translational   0.484981D+08          7.685724         17.697035
 Rotational      0.371443D+06          5.569892         12.825150
 ***** Axes restored to original set *****
 -------------------------------------------------------------------
 Center     Atomic                   Forces (Hartrees/Bohr)
 Number     Number              X              Y              Z
 -------------------------------------------------------------------
      1        8           0.001049206    0.010903722    0.001441716
      2        1           0.000105825    0.000142850   -0.000005960
      3        6          -0.001219813    0.000082256   -0.000386799
      4        1          -0.000077904    0.000406161    0.000040167
      5        6          -0.000344872   -0.011230039   -0.001493566
      6        6          -0.000192698   -0.001933996   -0.000289233
      7        8           0.000708799    0.000990425    0.000414529
      8        8          -0.000070742    0.000196225    0.000089672
      9        6          -0.000090239    0.000253629    0.000092828
     10        6           0.000110657    0.000128400    0.000068464
     11        1          -0.000008141    0.000013450    0.000004492
     12        1          -0.000014663    0.000017813    0.000014298
     13        1           0.000011555    0.000003952   -0.000003293
     14        1           0.000015445    0.000013446    0.000007050
     15        1           0.000017584    0.000011706    0.000005635
 -------------------------------------------------------------------
 Cartesian Forces:  Max     0.011230039 RMS     0.002394749

 GradGradGradGradGradGradGradGradGradGradGradGradGradGradGradGradGradGrad
 Berny optimization.
 Search for a local minimum.
 Step number   1 out of a maximum of    2
 All quantities printed in internal units (Hartrees-Bohrs-Radians)
 Second derivative matrix not updated -- analytic derivatives used.
 ITU=  0
     Eigenvalues ---   -0.01696  -0.00019   0.00026   0.00165   0.00225
     Eigenvalues ---    0.00431   0.00462   0.00572   0.01095   0.02054
     Eigenvalues ---    0.02374   0.03225   0.03533   0.05258   0.06335
     Eigenvalues ---    0.07594   0.07772   0.08718   0.09504   0.10205
     Eigenvalues ---    0.11508   0.14137   0.17047   0.17365   0.19907
     Eigenvalues ---    0.28744   0.29482   0.43718   0.49440   0.62806
     Eigenvalues ---    0.70905   0.76567   0.79237   0.86801   0.89917
     Eigenvalues ---    0.92996   0.97849   1.73385   2.60247
 Eigenvalue     1 is  -1.70D-02 should be greater than     0.000000 Eigenvector:
                          Y5        Y1        Y6        Y4        Z5
   1                    0.70970  -0.63065   0.12583  -0.11165   0.10897
                          Z1        X1        Y2        Z2        Y7
   1                   -0.09496  -0.09293  -0.09006  -0.08263  -0.08007
 Eigenvalue     2 is  -1.94D-04 should be greater than     0.000000 Eigenvector:
                          Z2        Z1        Z14       Y2        Y11
   1                    0.45094   0.31484  -0.27556  -0.27180  -0.26602
                          Z4        X1        Y7        Z3        Z12
   1                   -0.26380  -0.25415   0.20961  -0.19225   0.18879
 Quadratic step=2.867D+00 exceeds max=3.000D-01 adjusted using Lamda=-3.616D-02.
 Angle between NR and scaled steps=  67.17 degrees.
 Angle between quadratic step and forces=   6.06 degrees.
 Linear search not attempted -- first point.
 B after Tr=     0.001397    0.001691   -0.000292
         Rot=    1.000000    0.000266    0.000039    0.000073 Ang=   0.03 deg.
 Variable       Old X    -DE/DX   Delta X   Delta X   Delta X     New X
                                 (Linear)    (Quad)   (Total)
    X1       -2.64836   0.00105   0.00000   0.02459   0.02648  -2.62188
    Y1        3.26890   0.01090   0.00000   0.20208   0.20425   3.47315
    Z1        0.17053   0.00144   0.00000   0.01913   0.01678   0.18731
    X2       -3.84381   0.00011   0.00000  -0.01103  -0.00925  -3.85305
    Y2        3.43893   0.00014   0.00000   0.00617   0.00925   3.44819
    Z2        1.55187  -0.00001   0.00000   0.01183   0.00940   1.56127
    X3       -5.27031  -0.00122   0.00000  -0.01419  -0.01286  -5.28318
    Y3       -0.92867   0.00008   0.00000  -0.01384  -0.01182  -0.94049
    Z3       -0.82804  -0.00039   0.00000  -0.00630  -0.00650  -0.83454
    X4       -7.21369  -0.00008   0.00000  -0.01443  -0.01308  -7.22677
    Y4       -1.03485   0.00041   0.00000   0.01025   0.01229  -1.02256
    Z4       -1.34103   0.00004   0.00000   0.00097   0.00066  -1.34037
    X5       -3.07048  -0.00034   0.00000  -0.00806  -0.00677  -3.07726
    Y5       -0.71336  -0.01123   0.00000  -0.21078  -0.20880  -0.92215
    Z5       -0.27708  -0.00149   0.00000  -0.02870  -0.02874  -0.30582
    X6       -0.42171  -0.00019   0.00000  -0.00446  -0.00326  -0.42497
    Y6       -1.07670  -0.00193   0.00000  -0.03683  -0.03484  -1.11154
    Z6        0.44159  -0.00029   0.00000  -0.00535  -0.00508   0.43651
    X7        0.21343   0.00071   0.00000   0.01240   0.01335   0.22678
    Y7       -1.69651   0.00099   0.00000   0.01254   0.01555  -1.68096
    Z7        2.52568   0.00041   0.00000   0.00663   0.00725   2.53293
    X8        1.09666  -0.00007   0.00000  -0.00242  -0.00101   1.09565
    Y8       -0.69913   0.00020   0.00000   0.00226   0.00299  -0.69614
    Z8       -1.51733   0.00009   0.00000   0.00113   0.00129  -1.51604
    X9        3.76861  -0.00009   0.00000  -0.00320  -0.00185   3.76676
    Y9       -0.85878   0.00025   0.00000   0.00356   0.00416  -0.85462
    Z9       -1.00502   0.00009   0.00000   0.00032   0.00078  -1.00425
   X10        4.69680   0.00011   0.00000   0.00124   0.00284   4.69964
   Y10        1.54939   0.00013   0.00000   0.00032   0.00145   1.55084
   Z10        0.23651   0.00007   0.00000   0.00221   0.00146   0.23797
   X11        4.61666  -0.00001   0.00000  -0.00305  -0.00160   4.61506
   Y11       -1.14261   0.00001   0.00000   0.00233   0.00182  -1.14078
   Z11       -2.85723   0.00000   0.00000   0.00005   0.00072  -2.85650
   X12        4.12069  -0.00001   0.00000  -0.00370  -0.00268   4.11800
   Y12       -2.51091   0.00002   0.00000   0.00136   0.00254  -2.50838
   Z12        0.17565   0.00001   0.00000  -0.00153  -0.00016   0.17548
   X13        6.74144   0.00001   0.00000   0.00128   0.00285   6.74429
   Y13        1.45450   0.00000   0.00000  -0.00185  -0.00089   1.45362
   Z13        0.49494  -0.00000   0.00000   0.00087   0.00033   0.49527
   X14        4.25281   0.00002   0.00000   0.00211   0.00405   4.25685
   Y14        3.17904   0.00001   0.00000   0.00065   0.00121   3.18026
   Z14       -0.94475   0.00001   0.00000   0.00238   0.00073  -0.94402
   X15        3.81463   0.00002   0.00000   0.00131   0.00281   3.81744
   Y15        1.79848   0.00001   0.00000  -0.00141   0.00083   1.79932
   Z15        2.08169   0.00001   0.00000   0.00204   0.00109   2.08278
         Item               Value     Threshold  Converged?
 Maximum Force            0.011230     0.000450     NO 
 RMS     Force            0.002395     0.000300     NO 
 Maximum Displacement     0.208798     0.001800     NO 
 RMS     Displacement     0.044703     0.001200     NO 
 Predicted change in Energy=-5.516363D-03
 GradGradGradGradGradGradGradGradGradGradGradGradGradGradGradGradGradGrad


 ----------------------------------------------------------------------

 Electric dipole moment (input orientation):
 (Debye = 10**-18 statcoulomb cm , SI units = C m)
                  (au)            (Debye)         (10**-30 SI)
   Tot        0.365017D+00      0.927780D+00      0.309474D+01
   x         -0.255050D+00     -0.648272D+00     -0.216240D+01
   y          0.328989D-01      0.836207D-01      0.278929D+00
   z         -0.259045D+00     -0.658427D+00     -0.219628D+01

 Dipole polarizability, Alpha (input orientation).
 (esu units = cm**3 , SI units = C**2 m**2 J**-1)
 Alpha(0;0):
               (au)            (10**-24 esu)      (10**-40 SI)
   iso        0.731992D+02      0.108470D+02      0.120689D+02
   aniso      0.316270D+02      0.468664D+01      0.521459D+01
   xx         0.914514D+02      0.135517D+02      0.150783D+02
   yx         0.617620D+01      0.915218D+00      0.101832D+01
   yy         0.687030D+02      0.101807D+02      0.113276D+02
   zx         0.448998D+01      0.665346D+00      0.740297D+00
   zy         0.195535D+01      0.289754D+00      0.322394D+00
   zz         0.594432D+02      0.880857D+01      0.980085D+01

 ----------------------------------------------------------------------

 Dipole orientation:
     8         -1.89081382         -3.17117943          2.02410830
     1         -3.70380754         -3.42087451          1.89442291
     6         -3.22090539          1.19302140          4.18649362
     1         -4.25478069          1.41652028          5.89889277
     6         -2.02632079          0.84804299          2.27779631
     6         -0.64950113          1.04731502         -0.11577073
     8         -1.67479607          1.45294716         -2.09446002
     8          1.81794889          0.79216755          0.24752893
     6          3.36302399          0.80646011         -1.99741658
     6          3.24735559         -1.73635631         -3.31002133
     1          5.25264404          1.22464353         -1.30108754
     1          2.72872668          2.33136384         -3.23023173
     1          4.52404051         -1.74052428         -4.93063937
     1          3.81557006         -3.23544217         -2.01459059
     1          1.33698552         -2.11807594         -3.98065371

 Electric dipole moment (dipole orientation):
 (Debye = 10**-18 statcoulomb cm , SI units = C m)
                  (au)            (Debye)         (10**-30 SI)
   Tot        0.365017D+00      0.927780D+00      0.309474D+01
   x          0.000000D+00      0.000000D+00      0.000000D+00
   y          0.000000D+00      0.000000D+00      0.000000D+00
   z          0.365017D+00      0.927780D+00      0.309474D+01

 Dipole polarizability, Alpha (dipole orientation).
 (esu units = cm**3 , SI units = C**2 m**2 J**-1)
 Alpha(0;0):
               (au)            (10**-24 esu)      (10**-40 SI)
   iso        0.731992D+02      0.108470D+02      0.120689D+02
   aniso      0.316270D+02      0.468664D+01      0.521459D+01
   xx         0.715348D+02      0.106004D+02      0.117945D+02
   yx        -0.440196D+01     -0.652303D+00     -0.725785D+00
   yy         0.694921D+02      0.102977D+02      0.114577D+02
   zx        -0.159676D+02     -0.236615D+01     -0.263270D+01
   zy         0.603307D+01      0.894008D+00      0.994718D+00
   zz         0.785707D+02      0.116430D+02      0.129546D+02

 ----------------------------------------------------------------------
 1\1\GINC-AJ\Freq\UM062X\6-311++G(d,p)\C5H7O3(2)\AAYUSH\23-Jun-2025\0\\
 # freq 6-311++g(d,p) m062x\\Title Card Required\\0,2\O,-1.401452,1.729
 825,0.090239\H,-2.034055,1.819805,0.821214\C,-2.788929,-0.49143,-0.438
 179\H,-3.817321,-0.547619,-0.709644\C,-1.624829,-0.377492,-0.146624\C,
 -0.223159,-0.569764,0.233682\O,0.11294,-0.897754,1.336533\O,0.580329,-
 0.369963,-0.802936\C,1.994262,-0.454445,-0.531835\C,2.48544,0.819903,0
 .125157\H,2.443031,-0.604642,-1.51198\H,2.180574,-1.328718,0.092949\H,
 3.567417,0.769689,0.261913\H,2.250489,1.682277,-0.499939\H,2.018614,0.
 951717,1.101585\\Version=ES64L-G16RevA.03\State=2-A\HF=-420.2042022\S2
 =0.763471\S2-1=0.\S2A=0.750087\RMSD=5.450e-09\RMSF=2.395e-03\ZeroPoint
 =0.1115964\Thermal=0.1205427\Dipole=-0.2550499,0.0328989,-0.259045\Dip
 oleDeriv=-0.3177243,0.1835253,-0.0512124,0.0936394,0.056121,0.1020987,
 -0.084645,-0.0033908,-0.2545723,0.2102072,-0.0649508,0.0534443,-0.0068
 343,0.3297027,0.0104378,0.0806266,0.0670676,0.2295958,-0.2796759,0.319
 2244,0.022905,0.0351892,-0.1325728,0.0093375,0.0172685,0.0775389,-0.12
 48321,0.2770119,0.025244,0.0185615,0.016891,0.2029386,-0.0026234,0.010
 4271,-0.0008631,0.2257389,-0.4985998,-0.3476589,-0.1398474,-0.0708799,
 -0.5880898,-0.1064273,-0.1128234,-0.1073078,-0.1500202,2.1497842,-0.25
 19415,-0.1020653,0.0029289,0.597331,-0.3317672,-0.476934,-0.4559917,1.
 6674665,-0.8198841,0.1434259,-0.2071618,0.023046,-0.4526361,0.2265998,
 0.0094116,0.308144,-1.0620377,-1.6337425,-0.0822563,0.3784125,-0.08498
 53,-0.3382427,0.0669147,0.5112736,0.1054514,-0.8498093,0.9913017,0.081
 8266,-0.0705769,0.0235631,0.3203283,0.0723713,0.0683981,0.0265906,0.28
 92684,-0.0622123,-0.0220059,0.0364825,-0.0465475,-0.055274,-0.0792817,
 -0.0265026,-0.0499246,-0.0083796,-0.0248935,-0.0029445,0.0307145,-0.00
 7948,0.0550538,-0.0309067,0.0705549,-0.0558306,-0.0710033,-0.0172769,-
 0.0348391,0.0201069,0.0222657,-0.0558418,0.0262435,-0.0664269,0.063693
 9,0.0383685,-0.1320124,-0.0074768,-0.0231886,0.0051843,0.0644254,0.001
 5673,-0.0249604,-0.0115332,0.0949745,0.0833376,0.0425696,-0.0387525,-0
 .0019615,-0.0432571,0.0397096,-0.0304563,0.0691969,0.0056444,0.0743793
 ,0.018258,0.0721779,-0.0035511,0.0400133,-0.0042737,0.054788,-0.032841
 6,-0.0304024\Polar=91.4514017,6.1761977,68.7030163,4.4899759,1.955355,
 59.4431591\Quadrupole=9.8112943,-3.9756737,-5.8356206,-0.17865,-1.3519
 535,3.7969144\PG=C01 [X(C5H7O3)]\NImag=2\\0.22777607,-0.02945958,0.015
 02878,-0.25663447,0.03444716,0.29643005,-0.22377953,0.03046468,0.25576
 747,0.22415716,0.02278750,-0.01297479,-0.03053527,-0.02681689,0.017567
 52,0.25398187,-0.03786066,-0.29498190,-0.25402203,0.03589329,0.2943333
 0,-0.00501222,-0.03189306,-0.00253905,0.00116908,0.00053396,-0.0013038
 8,1.41305212,-0.00369462,-0.01393811,-0.00254450,-0.00103112,-0.000703
 03,-0.00011061,0.09976021,0.06703268,-0.00113739,-0.00852891,0.0000721
 0,-0.00047949,-0.00060060,-0.00031674,0.34635465,0.02741429,0.14304923
 ,0.00011411,0.00036620,0.00009122,0.00004790,-0.00027635,-0.00015354,-
 0.39685604,-0.02144625,-0.09755369,0.38727222,0.00021441,-0.00010124,0
 .00014067,-0.00040116,0.00008776,-0.00024871,-0.01578629,-0.02730714,-
 0.00506499,0.02048929,0.01721692,-0.00015937,0.00004357,-0.00000563,-0
 .00012330,-0.00010751,-0.00009096,-0.09801778,-0.00645578,-0.05184245,
 0.09787734,0.00599639,0.04201782,0.00253475,0.02492323,0.00373911,-0.0
 0128515,0.00277733,0.00036698,-1.01548235,-0.07816457,-0.24601390,0.00
 915264,-0.00462714,0.00215378,1.33060576,0.00567790,0.02633082,-0.0010
 2953,-0.00279791,-0.00311919,0.00276071,-0.04158473,-0.02694697,-0.010
 00689,0.00119306,0.00672144,0.00111637,0.01259578,0.02784321,0.0048250
 4,0.01093213,-0.00116108,-0.00222765,-0.00445272,0.00023340,-0.2449077
 6,-0.01894372,-0.09558554,0.00104384,-0.00054446,0.00476072,0.29907927
 ,-0.00950775,0.18436894,-0.00219993,0.00899134,-0.00162696,-0.00063662
 ,0.00252876,0.00316928,0.01566219,0.00465011,0.00114113,-0.00072634,0.
 00014516,-0.00201256,-0.25311775,0.00770021,-0.04739196,0.66119587,0.0
 0194217,-0.01494735,0.00054172,0.00030414,-0.00043249,-0.00081815,-0.0
 1425947,0.00064060,-0.00373214,-0.00054690,0.00457993,-0.00018199,0.03
 014839,-0.05810547,0.00540274,-0.05865593,0.27222365,-0.00243581,0.002
 54362,-0.00361054,0.00280449,-0.00126344,0.00216509,0.00007465,0.00117
 935,0.00287842,-0.00122804,0.00020858,0.00519746,-0.03346088,-0.002582
 57,-0.06747182,0.11114319,-0.20222575,0.92671418,0.00037048,-0.0011002
 4,0.00081544,-0.00013340,-0.00076939,-0.00097861,-0.00536526,-0.000188
 55,-0.00026458,0.00020453,-0.00028003,0.00152982,-0.01927588,0.0176596
 9,-0.04652281,-0.17025371,0.05933880,-0.18831823,0.16682729,0.00106514
 ,0.00041937,0.00055198,-0.00026090,0.00017658,0.00014941,0.00199809,0.
 00065185,0.00015910,0.00016437,-0.00066350,-0.00049327,0.01187761,0.01
 313844,0.01627105,0.05466201,-0.13092386,0.17167555,-0.06487791,0.0990
 5751,0.00076645,-0.00213432,0.00288257,-0.00111153,0.00054697,-0.00167
 919,-0.00120626,-0.00055290,0.00116624,0.00001035,-0.00034096,0.000364
 63,-0.03811228,0.01800700,-0.02789005,-0.17808817,0.17067082,-0.652315
 20,0.19828780,-0.21698777,0.77812535,-0.00073529,-0.00189062,0.0007374
 9,0.00045666,-0.00099624,-0.00127365,-0.00826469,0.00015437,-0.0022694
 4,0.00100681,0.00022339,-0.00115812,-0.05344692,0.00108738,0.03399941,
 -0.19626187,-0.01893929,0.10126878,0.02666941,-0.00604372,0.03083920,0
 .50391551,0.00169344,-0.00083660,-0.00157619,0.00056402,-0.00060191,0.
 00024306,0.00047497,0.00071010,0.00020955,0.00001357,-0.00035723,0.000
 06497,0.00104673,0.00973073,-0.00033777,-0.01391282,-0.07481734,0.0342
 6046,-0.00793231,0.02351414,0.03077469,0.00989967,0.10379531,0.0009768
 0,0.00012798,0.00051317,-0.00063798,0.00046429,0.00023560,0.00049829,0
 .00003910,-0.00002900,-0.00006389,-0.00009608,-0.00060724,0.00889051,-
 0.00020080,0.00591987,0.07813154,0.03439095,-0.22267425,0.03050522,0.0
 3036103,-0.09849043,-0.09534073,-0.07289132,0.40545964,0.00063889,-0.0
 0012413,-0.00063797,0.00010246,0.00040723,0.00044834,0.00239602,-0.000
 14054,0.00054594,-0.00036381,0.00001887,0.00000036,0.00199263,-0.00241
 911,0.00017739,-0.05499864,-0.00437486,0.03444536,-0.00051659,0.005642
 07,-0.01970604,-0.17729225,0.01230532,-0.01989524,0.45351375,-0.000241
 16,0.00115410,-0.00004189,-0.00002712,0.00000313,0.00001992,0.00087602
 ,-0.00011334,0.00015684,0.00004393,-0.00017477,0.00002978,-0.00037544,
 0.00442047,0.00118805,-0.00489023,0.00246850,-0.00833988,0.00240972,-0
 .00565795,0.00073065,0.01558068,-0.06894835,0.01164936,-0.02331691,0.5
 6072572,-0.00028484,0.00048882,-0.00007461,-0.00001218,0.00011963,0.00
 008913,0.00117075,0.00003244,0.00067888,-0.00003376,-0.00004443,0.0002
 4267,0.00427450,0.00107461,-0.00363191,0.03438447,-0.00543310,0.012833
 82,0.00112951,-0.00053588,-0.00405001,-0.04214104,0.01116395,-0.097446
 41,-0.06052530,-0.03867750,0.63230513,0.00001664,0.00012360,0.00000031
 ,-0.00004099,-0.00011259,-0.00008355,-0.00025948,-0.00001736,-0.000021
 00,0.00009045,-0.00004747,-0.00002220,-0.00053460,0.00154463,0.0007111
 3,0.00193791,-0.00114986,-0.00911469,0.00079945,-0.00158472,0.00269113
 ,-0.03754103,-0.03513011,-0.01731079,-0.07989968,-0.02177982,-0.007953
 94,0.57788830,0.00002180,-0.00011486,0.00008448,-0.00006250,0.00004988
 ,0.00002232,0.00019565,-0.00006189,0.00006109,-0.00001195,0.00000588,-
 0.00001313,-0.00028990,-0.00025758,-0.00019872,-0.00066238,-0.00039167
 ,0.00359592,-0.00109462,-0.00024816,-0.00182457,-0.00143305,0.00590558
 ,-0.00110677,-0.03321837,-0.18576809,-0.05041309,-0.02945555,0.5211811
 2,-0.00008883,0.00001275,-0.00024558,0.00015036,-0.00008833,0.00005675
 ,0.00002394,-0.00001927,-0.00004278,0.00001089,-0.00001796,0.00000475,
 -0.00036791,0.00037790,0.00010090,0.00144667,0.00100719,0.00229302,-0.
 00121709,-0.00160215,-0.00051029,-0.00801622,-0.00449327,-0.00142714,-
 0.01273423,-0.04902998,-0.10984490,-0.01495990,-0.03437583,0.57109940,
 -0.00001934,-0.00009859,0.00003251,-0.00000206,-0.00007136,-0.00006607
 ,-0.00066217,0.00004126,-0.00024964,0.00004820,0.00002391,-0.00004962,
 -0.00115203,-0.00037211,0.00111990,-0.00371042,0.00343568,-0.00559516,
 0.00152151,-0.00055331,0.00133275,-0.03419225,0.00234140,0.03409426,-0
 .08577880,0.01466434,0.09200281,0.00684371,-0.00098026,-0.01114984,0.1
 1254715,0.00003314,0.00003477,0.00003494,-0.00001704,-0.00002426,-0.00
 000817,-0.00003087,-0.00000518,0.00001994,0.00000829,-0.00000904,0.000
 00075,0.00016289,0.00017999,-0.00004367,-0.00003537,-0.00065188,0.0024
 9962,-0.00163443,0.00064768,-0.00040513,0.00297849,0.00064959,-0.00254
 499,0.01462589,-0.05751045,-0.02947554,0.01140890,-0.00390316,-0.02754
 475,-0.01449919,0.05748491,0.00005567,-0.00008464,0.00003781,-0.000023
 88,0.00000979,-0.00001837,-0.00007230,0.00002295,-0.00006177,-0.000014
 76,0.00000336,-0.00002542,-0.00021282,-0.00024684,0.00027167,-0.002501
 25,0.00064922,-0.00103270,0.00142971,-0.00045992,0.00096195,-0.0062945
 5,0.00181808,0.00947928,0.10576802,-0.03076168,-0.28225952,0.00409675,
 -0.00127991,-0.01091553,-0.10705160,0.03601372,0.29615781,-0.00008692,
 -0.00017024,0.00013468,-0.00003119,0.00001856,-0.00005229,-0.00026239,
 0.00008956,-0.00002209,0.00003048,0.00003765,-0.00002239,-0.00012122,-
 0.00070659,0.00005939,0.00275301,0.00332906,-0.00876707,0.00042508,-0.
 00100019,0.00395989,-0.02713360,0.02966910,-0.02063870,-0.05463980,0.0
 2618037,-0.01648298,0.00383056,-0.00945602,0.00732816,0.00420379,-0.01
 114245,0.00648881,0.07102029,-0.00000765,-0.00001611,-0.00002753,0.000
 01216,-0.00002671,-0.00001435,-0.00015229,0.00001788,-0.00002154,-0.00
 000393,0.00001042,0.00001664,0.00013585,-0.00012350,-0.00022729,-0.000
 46382,-0.00003821,0.00359711,-0.00221370,0.00054853,-0.00098536,0.0048
 6057,0.00220323,-0.00088998,0.03458873,-0.22529932,0.12398893,0.003193
 86,-0.02185973,0.01578448,-0.00206195,0.00570821,-0.00329472,-0.035884
 20,0.24065800,-0.00000098,0.00009697,0.00001604,0.00000256,-0.00005332
 ,-0.00001403,-0.00009196,-0.00006832,0.00000135,0.00002535,-0.00000540
 ,0.00000233,-0.00027834,0.00055281,-0.00004352,0.00269650,-0.00032042,
 -0.00029335,0.00158674,-0.00078550,-0.00071355,-0.00756045,0.00254833,
 -0.00264396,-0.02483904,0.12695297,-0.14296415,0.00325968,-0.01402396,
 0.01036181,-0.00436287,0.02250413,-0.01399345,0.02991286,-0.13526004,0
 .15018977,-0.00013696,0.00006364,-0.00001592,0.00002207,-0.00002165,-0
 .00001051,-0.00006977,0.00001144,0.00000283,0.00003532,0.00000418,0.00
 000838,-0.00012606,0.00014032,-0.00001582,0.00147016,0.00048612,-0.001
 30074,-0.00007839,-0.00042226,0.00041491,-0.00059197,-0.00275145,-0.00
 030885,-0.01011050,0.00315820,0.00027881,-0.31400785,0.01274302,-0.033
 71461,0.00028346,-0.00018216,-0.00034290,0.00019336,-0.00041970,0.0001
 5043,0.34024787,0.00007745,0.00002835,0.00003860,0.00000629,-0.0000656
 6,-0.00005210,-0.00023439,0.00001125,-0.00005429,0.00001793,-0.0000103
 7,-0.00000727,-0.00004607,0.00050719,0.00028607,0.00105214,-0.00003087
 ,-0.00292972,0.00022244,-0.00036604,0.00105624,-0.00638642,-0.00556258
 ,-0.00228468,-0.02637183,0.00488048,-0.00063987,0.01459107,-0.04859420
 ,0.00109884,0.00064941,0.00104693,-0.00015541,0.00061375,0.00046633,0.
 00107727,-0.01343505,0.04905104,0.00005944,-0.00001429,0.00008610,-0.0
 0004428,-0.00000692,-0.00002457,-0.00007702,0.00001762,0.00000567,0.00
 000768,-0.00000053,-0.00000522,-0.00005667,0.00004835,0.00008814,0.000
 43252,-0.00003323,-0.00278209,0.00054688,0.00031114,0.00112058,-0.0039
 2104,-0.00364023,0.00021666,-0.01302582,0.00375913,-0.00250324,-0.0325
 7626,0.00063940,-0.05027087,0.00040803,0.00059736,-0.00006493,0.000203
 17,0.00009768,0.00041741,0.03744523,0.00006786,0.05051802,0.00013024,-
 0.00002384,-0.00003803,0.00003008,-0.00003489,-0.00001381,-0.00010390,
 0.00001106,-0.00002382,-0.00002510,-0.00000965,0.00000036,0.00016762,0
 .00016484,0.00000148,-0.00028611,-0.00046799,0.00152047,-0.00051605,-0
 .00001463,-0.00071082,0.00209256,0.00056363,0.00044230,0.00055975,-0.0
 1043066,0.00639189,-0.06014800,0.04842090,-0.03405035,0.00010144,0.000
 79783,0.00002145,-0.00019884,-0.00223718,-0.00103048,-0.00504579,0.025
 73100,-0.01849080,0.06014807,-0.00001227,-0.00001957,-0.00002062,0.000
 02793,-0.00001591,-0.00002294,-0.00009669,0.00002163,-0.00003142,-0.00
 000212,-0.00000326,0.00000420,0.00000603,0.00004833,0.00002646,-0.0000
 9235,-0.00039649,0.00074344,-0.00015746,0.00022584,-0.00038907,0.00105
 157,0.00299734,0.00012457,0.00695527,-0.02559646,0.01729946,0.04599008
 ,-0.21483136,0.12383460,0.00025763,0.00104707,-0.00007962,-0.00213242,
 -0.00337821,-0.00358682,0.00002073,0.00014734,-0.00086358,-0.04995089,
 0.23578705,-0.00008422,-0.00000190,-0.00003883,0.00000231,0.00008503,0
 .00003541,0.00014415,-0.00001696,0.00002920,0.00000450,0.00000621,0.00
 000126,-0.00008114,-0.00030325,-0.00001996,-0.00044958,0.00048774,-0.0
 0050062,0.00054311,0.00031375,0.00043304,0.00159109,0.00098056,0.00033
 267,0.00382253,-0.01491947,0.01000221,-0.03446782,0.12625902,-0.141782
 18,0.00056715,0.00057339,0.00091301,-0.00176847,-0.00300301,-0.0009802
 1,-0.00002907,0.00135720,-0.00277713,0.03833647,-0.13416124,0.14912114
 ,0.00038901,-0.00017238,0.00017416,-0.00007648,0.00004600,-0.00000853,
 0.00005885,-0.00003499,-0.00000952,-0.00003136,-0.00000512,-0.00000472
 ,0.00008854,0.00011665,0.00004915,-0.00082774,-0.00059006,-0.00103634,
 -0.00067849,-0.00065166,0.00063262,0.00131892,0.00115483,0.00065725,0.
 00439656,-0.00185193,-0.01219871,-0.09897540,0.01528325,0.10733895,-0.
 00003221,-0.00247392,-0.00134635,0.00001738,0.00065326,0.00053000,-0.0
 1208493,0.00351228,0.02908894,0.00309401,-0.00186503,-0.00813100,0.103
 34334,-0.00009766,-0.00004757,-0.00006404,0.00003542,0.00007908,0.0000
 4698,0.00019890,-0.00001033,0.00001997,-0.00000914,0.00000419,-0.00001
 373,-0.00017072,-0.00036792,0.00014959,-0.00101683,0.00082296,-0.00296
 229,0.00061800,-0.00052043,0.00183373,-0.00014679,0.00161797,0.0028573
 5,0.01542237,-0.00458368,-0.02894841,0.01242535,-0.05111178,-0.0249442
 3,-0.00277687,-0.00469520,-0.00215438,0.00055405,0.00112918,0.00037131
 ,0.00060463,-0.00150919,-0.00097975,-0.01251954,0.00396667,0.02234291,
 -0.01312117,0.05522603,0.00016063,-0.00006827,0.00008034,-0.00004486,-
 0.00001090,-0.00002290,-0.00005043,0.00000632,-0.00000282,-0.00002349,
 0.00000830,-0.00001470,0.00007977,-0.00006012,0.00006025,-0.00047482,-
 0.00040560,-0.00140141,0.00092710,0.00107147,0.00059436,-0.00046073,0.
 00087512,0.00116156,0.00615571,-0.00271630,-0.01337708,0.10575114,-0.0
 2742624,-0.26887736,-0.00103263,-0.00222160,0.00055018,-0.00033298,0.0
 0023898,0.00065753,-0.00256219,0.00114124,0.00597549,0.00764368,-0.002
 87741,-0.01476900,-0.11573589,0.03244502,0.28938558\\-0.00104921,-0.01
 090372,-0.00144172,-0.00010583,-0.00014285,0.00000596,0.00121981,-0.00
 008226,0.00038680,0.00007790,-0.00040616,-0.00004017,0.00034487,0.0112
 3004,0.00149357,0.00019270,0.00193400,0.00028923,-0.00070880,-0.000990
 43,-0.00041453,0.00007074,-0.00019622,-0.00008967,0.00009024,-0.000253
 63,-0.00009283,-0.00011066,-0.00012840,-0.00006846,0.00000814,-0.00001
 345,-0.00000449,0.00001466,-0.00001781,-0.00001430,-0.00001155,-0.0000
 0395,0.00000329,-0.00001545,-0.00001345,-0.00000705,-0.00001758,-0.000
 01171,-0.00000563\\\@


 THERE IS NO CURE FOR BIRTH AND DEATH SAVE TO ENJOY THE INTERVAL.

                               -- GEORGE SANTAYANA
 Job cpu time:       0 days  1 hours  1 minutes  4.9 seconds.
 Elapsed time:       0 days  0 hours  2 minutes 32.8 seconds.
 File lengths (MBytes):  RWF=    153 Int=      0 D2E=      0 Chk=      9 Scr=      1
 Normal termination of Gaussian 16 at Mon Jun 23 04:04:51 2025.
