 Entering Gaussian System, Link 0=g16
 Initial command:
 /opt/g16/l1.exe "/home/aayush/scratches/g16/Gau-52151.inp" -scrdir="/home/aayush/scratches/g16/"
 Entering Link 1 = /opt/g16/l1.exe PID=     52154.
  
 Copyright (c) 1988,1990,1992,1993,1995,1998,2003,2009,2016,
            Gaussian, Inc.  All Rights Reserved.
  
 This is part of the Gaussian(R) 16 program.  It is based on
 the Gaussian(R) 09 system (copyright 2009, Gaussian, Inc.),
 the Gaussian(R) 03 system (copyright 2003, Gaussian, Inc.),
 the Gaussian(R) 98 system (copyright 1998, Gaussian, Inc.),
 the Gaussian(R) 94 system (copyright 1995, Gaussian, Inc.),
 the Gaussian 92(TM) system (copyright 1992, Gaussian, Inc.),
 the Gaussian 90(TM) system (copyright 1990, Gaussian, Inc.),
 the Gaussian 88(TM) system (copyright 1988, Gaussian, Inc.),
 the Gaussian 86(TM) system (copyright 1986, Carnegie Mellon
 University), and the Gaussian 82(TM) system (copyright 1983,
 Carnegie Mellon University). Gaussian is a federally registered
 trademark of Gaussian, Inc.
  
 This software contains proprietary and confidential information,
 including trade secrets, belonging to Gaussian, Inc.
  
 This software is provided under written license and may be
 used, copied, transmitted, or stored only in accord with that
 written license.
  
 The following legend is applicable only to US Government
 contracts under FAR:
  
                    RESTRICTED RIGHTS LEGEND
  
 Use, reproduction and disclosure by the US Government is
 subject to restrictions as set forth in subparagraphs (a)
 and (c) of the Commercial Computer Software - Restricted
 Rights clause in FAR 52.227-19.
  
 Gaussian, Inc.
 340 Quinnipiac St., Bldg. 40, Wallingford CT 06492
  
  
 ---------------------------------------------------------------
 Warning -- This program may not be used in any manner that
 competes with the business of Gaussian, Inc. or will provide
 assistance to any competitor of Gaussian, Inc.  The licensee
 of this program is prohibited from giving any competitor of
 Gaussian, Inc. access to this program.  By using this program,
 the user acknowledges that Gaussian, Inc. is engaged in the
 business of creating and licensing software in the field of
 computational chemistry and represents and warrants to the
 licensee that it is not a competitor of Gaussian, Inc. and that
 it will not use this program in any manner prohibited above.
 ---------------------------------------------------------------
  

 Cite this work as:
 Gaussian 16, Revision A.03,
 M. J. Frisch, G. W. Trucks, H. B. Schlegel, G. E. Scuseria, 
 M. A. Robb, J. R. Cheeseman, G. Scalmani, V. Barone, 
 G. A. Petersson, H. Nakatsuji, X. Li, M. Caricato, A. V. Marenich, 
 J. Bloino, B. G. Janesko, R. Gomperts, B. Mennucci, H. P. Hratchian, 
 J. V. Ortiz, A. F. Izmaylov, J. L. Sonnenberg, D. Williams-Young, 
 F. Ding, F. Lipparini, F. Egidi, J. Goings, B. Peng, A. Petrone, 
 T. Henderson, D. Ranasinghe, V. G. Zakrzewski, J. Gao, N. Rega, 
 G. Zheng, W. Liang, M. Hada, M. Ehara, K. Toyota, R. Fukuda, 
 J. Hasegawa, M. Ishida, T. Nakajima, Y. Honda, O. Kitao, H. Nakai, 
 T. Vreven, K. Throssell, J. A. Montgomery, Jr., J. E. Peralta, 
 F. Ogliaro, M. J. Bearpark, J. J. Heyd, E. N. Brothers, K. N. Kudin, 
 V. N. Staroverov, T. A. Keith, R. Kobayashi, J. Normand, 
 K. Raghavachari, A. P. Rendell, J. C. Burant, S. S. Iyengar, 
 J. Tomasi, M. Cossi, J. M. Millam, M. Klene, C. Adamo, R. Cammi, 
 J. W. Ochterski, R. L. Martin, K. Morokuma, O. Farkas, 
 J. B. Foresman, and D. J. Fox, Gaussian, Inc., Wallingford CT, 2016.
 
 ******************************************
 Gaussian 16:  ES64L-G16RevA.03 25-Dec-2016
                20-Jun-2025 
 ******************************************
 %nprocshared=24
 Will use up to   24 processors via shared memory.
 %mem=12GB
 %chk=ethyl_propiolate_ts1.chk
 -------------------
 # freq 6-31+g m062x
 -------------------
 1/10=4,30=1,38=1/1,3;
 2/12=2,17=6,18=5,40=1/2;
 3/5=1,6=6,7=10,11=2,25=1,30=1,71=2,74=-55,140=1/1,2,3;
 4//1;
 5/5=2,38=5,98=1/2;
 8/6=4,10=90,11=11/1;
 11/6=1,8=1,9=11,15=111,16=1/1,2,10;
 10/6=1/2;
 6/7=2,8=2,9=2,10=2,28=1/1;
 7/8=1,10=1,25=1/1,2,3,16;
 1/10=4,30=1/3;
 99//99;
 -------------------
 Title Card Required
 -------------------
 Symbolic Z-matrix:
 Charge =  0 Multiplicity = 2
 O                    -1.35841   1.61778   0.08733 
 H                    -1.97447   1.78147   0.81428 
 C                    -2.7181   -0.48189  -0.44678 
 H                    -3.74422  -0.55956  -0.72598 
 C                    -1.55856  -0.14524  -0.12671 
 C                    -0.16416  -0.53582   0.22592 
 O                     0.16365  -0.89636   1.31937 
 O                     0.63768  -0.34033  -0.81059 
 C                     2.05316  -0.42533  -0.53972 
 C                     2.5404    0.84337   0.13167 
 H                     2.50221  -0.56354  -1.52135 
 H                     2.24053  -1.3063    0.07499 
 H                     3.62225   0.79244   0.26925 
 H                     2.30426   1.7121   -0.48382 
 H                     2.07223   0.96476   1.10885 
 

 GradGradGradGradGradGradGradGradGradGradGradGradGradGradGradGradGradGrad
 Berny optimization.
 Initialization pass.
 Trust Radius=3.00D-01 FncErr=1.00D-07 GrdErr=1.00D-07 EigMax=2.50D+02 EigMin=1.00D-04
 Number of steps in this run=      2 maximum allowed number of steps=      2.
 GradGradGradGradGradGradGradGradGradGradGradGradGradGradGradGradGradGrad

                          Input orientation:                          
 ---------------------------------------------------------------------
 Center     Atomic      Atomic             Coordinates (Angstroms)
 Number     Number       Type             X           Y           Z
 ---------------------------------------------------------------------
      1          8           0       -1.358412    1.617783    0.087325
      2          1           0       -1.974473    1.781465    0.814283
      3          6           0       -2.718102   -0.481888   -0.446781
      4          1           0       -3.744217   -0.559558   -0.725984
      5          6           0       -1.558555   -0.145243   -0.126705
      6          6           0       -0.164163   -0.535819    0.225920
      7          8           0        0.163650   -0.896364    1.319372
      8          8           0        0.637678   -0.340333   -0.810589
      9          6           0        2.053157   -0.425330   -0.539719
     10          6           0        2.540396    0.843365    0.131674
     11          1           0        2.502206   -0.563536   -1.521348
     12          1           0        2.240535   -1.306297    0.074994
     13          1           0        3.622246    0.792439    0.269245
     14          1           0        2.304262    1.712104   -0.483818
     15          1           0        2.072226    0.964758    1.108851
 ---------------------------------------------------------------------
                    Distance matrix (angstroms):
                    1          2          3          4          5
     1  O    0.000000
     2  H    0.966846   0.000000
     3  C    2.557859   2.695558   0.000000
     4  H    3.330818   3.314333   1.066255   0.000000
     5  C    1.787212   2.184182   1.249131   2.303890   0.000000
     6  C    2.466463   2.998866   2.641598   3.704520   1.490377
     7  O    3.186777   3.463734   3.405229   4.423612   2.370931
     8  O    2.936808   3.737053   3.378410   4.388191   2.308505
     9  C    4.025705   4.788013   4.772499   5.801918   3.646024
    10  C    3.975222   4.661548   5.453687   6.496163   4.224394
    11  H    4.717028   5.567302   5.330382   6.296858   4.313905
    12  H    4.637113   5.277037   5.053710   6.084114   3.977664
    13  H    5.051855   5.709510   6.506659   7.555339   5.279841
    14  H    3.708137   4.471851   5.480795   6.465539   4.301003
    15  H    3.638576   4.138786   5.240231   6.286586   3.992652
                    6          7          8          9         10
     6  C    0.000000
     7  O    1.197118   0.000000
     8  O    1.324958   2.251801   0.000000
     9  C    2.348386   2.692272   1.443667   0.000000
    10  C    3.037379   3.175879   2.430913   1.515836   0.000000
    11  H    3.187983   3.694497   2.007850   1.088275   2.171016
    12  H    2.529622   2.455600   2.070385   1.090452   2.171215
    13  H    4.012859   3.989575   3.369994   2.144627   1.091750
    14  H    3.413211   3.825940   2.663978   2.152859   1.090549
    15  H    2.834208   2.674090   2.728633   2.156500   1.090318
                   11         12         13         14         15
    11  H    0.000000
    12  H    1.780021   0.000000
    13  H    2.509857   2.520228   0.000000
    14  H    2.508822   3.070354   1.774815   0.000000
    15  H    3.072216   2.500976   1.771213   1.774531   0.000000
 Stoichiometry    C5H7O3(2)
 Framework group  C1[X(C5H7O3)]
 Deg. of freedom    39
 Full point group                 C1      NOp   1
 Largest Abelian subgroup         C1      NOp   1
 Largest concise Abelian subgroup C1      NOp   1
                         Standard orientation:                         
 ---------------------------------------------------------------------
 Center     Atomic      Atomic             Coordinates (Angstroms)
 Number     Number       Type             X           Y           Z
 ---------------------------------------------------------------------
      1          8           0       -1.417248    1.591542    0.117497
      2          1           0       -2.033950    1.742075    0.846749
      3          6           0       -2.774371   -0.500074   -0.453472
      4          1           0       -3.800223   -0.574014   -0.734647
      5          6           0       -1.615387   -0.167759   -0.126897
      6          6           0       -0.220810   -0.562871    0.219895
      7          8           0        0.106680   -0.941789    1.307214
      8          8           0        0.581491   -0.348781   -0.812574
      9          6           0        1.996885   -0.436934   -0.542266
     10          6           0        2.482348    0.820559    0.151128
     11          1           0        2.446712   -0.557798   -1.525825
     12          1           0        2.184799   -1.328126    0.057359
     13          1           0        3.564163    0.768412    0.288521
     14          1           0        2.245692    1.699488   -0.449517
     15          1           0        2.013421    0.924670    1.129935
 ---------------------------------------------------------------------
 Rotational constants (GHZ):           3.7641629           1.3125629           1.2056397
 Standard basis: 6-31+G (6D, 7F)
 There are   118 symmetry adapted cartesian basis functions of A   symmetry.
 There are   118 symmetry adapted basis functions of A   symmetry.
   118 basis functions,   236 primitive gaussians,   118 cartesian basis functions
    31 alpha electrons       30 beta electrons
       nuclear repulsion energy       364.7023664873 Hartrees.
 NAtoms=   15 NActive=   15 NUniq=   15 SFac= 1.00D+00 NAtFMM=   60 NAOKFM=F Big=F
 Integral buffers will be    131072 words long.
 Raffenetti 2 integral format.
 Two-electron integral symmetry is turned on.
 One-electron integrals computed using PRISM.
 NBasis=   118 RedAO= T EigKep=  9.94D-06  NBF=   118
 NBsUse=   118 1.00D-06 EigRej= -1.00D+00 NBFU=   118
 ExpMin= 4.38D-02 ExpMax= 5.48D+03 ExpMxC= 8.25D+02 IAcc=3 IRadAn=         5 AccDes= 0.00D+00
 Harris functional with IExCor= 1009 and IRadAn=       5 diagonalized for initial guess.
 HarFok:  IExCor= 1009 AccDes= 0.00D+00 IRadAn=         5 IDoV= 1 UseB2=F ITyADJ=14
 ICtDFT=  3500011 ScaDFX=  1.000000  1.000000  1.000000  1.000000
 FoFCou: FMM=F IPFlag=           0 FMFlag=      100000 FMFlg1=           0
         NFxFlg=           0 DoJE=T BraDBF=F KetDBF=T FulRan=T
         wScrn=  0.000000 ICntrl=       500 IOpCl=  0 I1Cent=   200000004 NGrid=           0
         NMat0=    1 NMatS0=      1 NMatT0=    0 NMatD0=    1 NMtDS0=    0 NMtDT0=    0
 Petite list used in FoFCou.
 Initial guess <Sx>= 0.0000 <Sy>= 0.0000 <Sz>= 0.5000 <S**2>= 0.7500 S= 0.5000
 Requested convergence on RMS density matrix=1.00D-08 within 128 cycles.
 Requested convergence on MAX density matrix=1.00D-06.
 Requested convergence on             energy=1.00D-06.
 No special actions if energy rises.
 SCF Done:  E(UM062X) =  -419.959661142     A.U. after   20 cycles
            NFock= 20  Conv=0.60D-08     -V/T= 2.0054
 <Sx>= 0.0000 <Sy>= 0.0000 <Sz>= 0.5000 <S**2>= 0.7838 S= 0.5167
 <L.S>=  0.00000000000    
 Annihilation of the first spin contaminant:
 S**2 before annihilation     0.7838,   after     0.7506
 DoSCS=F DFT=T ScalE2(SS,OS)=  1.000000  1.000000
 Range of M.O.s used for correlation:     1   118
 NBasis=   118 NAE=    31 NBE=    30 NFC=     0 NFV=     0
 NROrb=    118 NOA=    31 NOB=    30 NVA=    87 NVB=    88

 **** Warning!!: The largest alpha MO coefficient is  0.10179170D+03


 **** Warning!!: The largest beta MO coefficient is  0.95947238D+02

 Symmetrizing basis deriv contribution to polar:
 IMax=3 JMax=2 DiffMx= 0.00D+00
 G2DrvN: will do    16 centers at a time, making    1 passes.
 Calling FoFCou, ICntrl=  3107 FMM=F I1Cent=   0 AccDes= 0.00D+00.
 End of G2Drv F.D. properties file   721 does not exist.
 End of G2Drv F.D. properties file   722 does not exist.
 End of G2Drv F.D. properties file   788 does not exist.
          IDoAtm=111111111111111
          Differentiating once with respect to electric field.
                with respect to dipole field.
          Differentiating once with respect to nuclear coordinates.
 Keep R1 and R2 ints in memory in canonical form, NReq=71861349.
          There are    48 degrees of freedom in the 1st order CPHF.  IDoFFX=6 NUNeed=     3.
     45 vectors produced by pass  0 Test12= 1.11D-14 2.08D-09 XBig12= 8.14D+01 3.76D+00.
 AX will form    45 AO Fock derivatives at one time.
     45 vectors produced by pass  1 Test12= 1.11D-14 2.08D-09 XBig12= 1.12D+01 4.70D-01.
     45 vectors produced by pass  2 Test12= 1.11D-14 2.08D-09 XBig12= 3.31D-01 9.50D-02.
     45 vectors produced by pass  3 Test12= 1.11D-14 2.08D-09 XBig12= 2.64D-03 7.28D-03.
     45 vectors produced by pass  4 Test12= 1.11D-14 2.08D-09 XBig12= 2.45D-05 6.58D-04.
     45 vectors produced by pass  5 Test12= 1.11D-14 2.08D-09 XBig12= 2.29D-07 5.65D-05.
     33 vectors produced by pass  6 Test12= 1.11D-14 2.08D-09 XBig12= 1.76D-09 4.91D-06.
     12 vectors produced by pass  7 Test12= 1.11D-14 2.08D-09 XBig12= 1.31D-11 3.20D-07.
      3 vectors produced by pass  8 Test12= 1.11D-14 2.08D-09 XBig12= 8.05D-14 1.98D-08.
      1 vectors produced by pass  9 Test12= 1.11D-14 2.08D-09 XBig12= 7.12D-16 2.34D-09.
 InvSVY:  IOpt=1 It=  1 EMax= 5.33D-15
 Solved reduced A of dimension   319 with    48 vectors.
 Isotropic polarizability for W=    0.000000       69.48 Bohr**3.
 End of Minotr F.D. properties file   721 does not exist.
 End of Minotr F.D. properties file   722 does not exist.
 End of Minotr F.D. properties file   788 does not exist.

 **********************************************************************

            Population analysis using the SCF density.

 **********************************************************************

 Orbital symmetries:
 Alpha Orbitals:
       Occupied  (A) (A) (A) (A) (A) (A) (A) (A) (A) (A) (A) (A)
                 (A) (A) (A) (A) (A) (A) (A) (A) (A) (A) (A) (A)
                 (A) (A) (A) (A) (A) (A) (A)
       Virtual   (A) (A) (A) (A) (A) (A) (A) (A) (A) (A) (A) (A)
                 (A) (A) (A) (A) (A) (A) (A) (A) (A) (A) (A) (A)
                 (A) (A) (A) (A) (A) (A) (A) (A) (A) (A) (A) (A)
                 (A) (A) (A) (A) (A) (A) (A) (A) (A) (A) (A) (A)
                 (A) (A) (A) (A) (A) (A) (A) (A) (A) (A) (A) (A)
                 (A) (A) (A) (A) (A) (A) (A) (A) (A) (A) (A) (A)
                 (A) (A) (A) (A) (A) (A) (A) (A) (A) (A) (A) (A)
                 (A) (A) (A)
 Beta  Orbitals:
       Occupied  (A) (A) (A) (A) (A) (A) (A) (A) (A) (A) (A) (A)
                 (A) (A) (A) (A) (A) (A) (A) (A) (A) (A) (A) (A)
                 (A) (A) (A) (A) (A) (A)
       Virtual   (A) (A) (A) (A) (A) (A) (A) (A) (A) (A) (A) (A)
                 (A) (A) (A) (A) (A) (A) (A) (A) (A) (A) (A) (A)
                 (A) (A) (A) (A) (A) (A) (A) (A) (A) (A) (A) (A)
                 (A) (A) (A) (A) (A) (A) (A) (A) (A) (A) (A) (A)
                 (A) (A) (A) (A) (A) (A) (A) (A) (A) (A) (A) (A)
                 (A) (A) (A) (A) (A) (A) (A) (A) (A) (A) (A) (A)
                 (A) (A) (A) (A) (A) (A) (A) (A) (A) (A) (A) (A)
                 (A) (A) (A) (A)
 The electronic state is 2-A.
 Alpha  occ. eigenvalues --  -19.70610 -19.67051 -19.66489 -10.72978 -10.64218
 Alpha  occ. eigenvalues --  -10.61417 -10.61277 -10.54169  -1.28235  -1.18882
 Alpha  occ. eigenvalues --   -1.12335  -0.92299  -0.88386  -0.78731  -0.71599
 Alpha  occ. eigenvalues --   -0.64853  -0.62931  -0.59216  -0.57720  -0.53764
 Alpha  occ. eigenvalues --   -0.53575  -0.49703  -0.48074  -0.46362  -0.45149
 Alpha  occ. eigenvalues --   -0.41819  -0.40486  -0.39663  -0.38186  -0.36706
 Alpha  occ. eigenvalues --   -0.31677
 Alpha virt. eigenvalues --   -0.00001   0.01733   0.02193   0.02761   0.03730
 Alpha virt. eigenvalues --    0.04282   0.05600   0.06077   0.07695   0.07887
 Alpha virt. eigenvalues --    0.08866   0.08928   0.09875   0.11524   0.12072
 Alpha virt. eigenvalues --    0.13430   0.13964   0.14631   0.15024   0.15987
 Alpha virt. eigenvalues --    0.16809   0.18807   0.19497   0.20020   0.22883
 Alpha virt. eigenvalues --    0.23278   0.24248   0.24955   0.26219   0.27018
 Alpha virt. eigenvalues --    0.28184   0.29739   0.30690   0.31387   0.32330
 Alpha virt. eigenvalues --    0.33101   0.33451   0.35478   0.36440   0.36931
 Alpha virt. eigenvalues --    0.38470   0.40311   0.41249   0.42179   0.45298
 Alpha virt. eigenvalues --    0.46465   0.55458   0.57874   0.68017   0.69888
 Alpha virt. eigenvalues --    0.70538   0.72250   0.73209   0.74494   0.76624
 Alpha virt. eigenvalues --    0.79971   0.81913   0.82943   0.87742   0.89209
 Alpha virt. eigenvalues --    0.92489   0.97069   1.00039   1.06526   1.10714
 Alpha virt. eigenvalues --    1.12058   1.14181   1.16628   1.18054   1.20428
 Alpha virt. eigenvalues --    1.21746   1.24375   1.27971   1.29564   1.31074
 Alpha virt. eigenvalues --    1.36905   1.39175   1.40528   1.42763   1.45661
 Alpha virt. eigenvalues --    1.48695   1.51832   1.67202   1.70662   1.85560
 Alpha virt. eigenvalues --    2.00612   2.02696
  Beta  occ. eigenvalues --  -19.70607 -19.66505 -19.66209 -10.72915 -10.64394
  Beta  occ. eigenvalues --  -10.61416 -10.60715 -10.54170  -1.28210  -1.18889
  Beta  occ. eigenvalues --   -1.09517  -0.91178  -0.87639  -0.78242  -0.70959
  Beta  occ. eigenvalues --   -0.64633  -0.62015  -0.58939  -0.57452  -0.53632
  Beta  occ. eigenvalues --   -0.52201  -0.49073  -0.46857  -0.45324  -0.42163
  Beta  occ. eigenvalues --   -0.41728  -0.39382  -0.38604  -0.38215  -0.35291
  Beta virt. eigenvalues --   -0.09680   0.01138   0.01585   0.02250   0.02862
  Beta virt. eigenvalues --    0.03824   0.04290   0.05567   0.05914   0.07636
  Beta virt. eigenvalues --    0.07779   0.08703   0.08908   0.10068   0.11402
  Beta virt. eigenvalues --    0.12081   0.13470   0.14036   0.14800   0.15492
  Beta virt. eigenvalues --    0.16066   0.16773   0.18941   0.19701   0.20198
  Beta virt. eigenvalues --    0.23120   0.23299   0.24155   0.25187   0.26107
  Beta virt. eigenvalues --    0.27079   0.28134   0.29731   0.30726   0.31379
  Beta virt. eigenvalues --    0.32389   0.33094   0.33367   0.35375   0.36346
  Beta virt. eigenvalues --    0.36965   0.38468   0.40330   0.41153   0.42337
  Beta virt. eigenvalues --    0.45245   0.46404   0.55876   0.57879   0.68660
  Beta virt. eigenvalues --    0.70208   0.71533   0.72319   0.74001   0.75794
  Beta virt. eigenvalues --    0.77048   0.79947   0.81364   0.82798   0.87650
  Beta virt. eigenvalues --    0.89347   0.92346   0.97646   1.00297   1.06294
  Beta virt. eigenvalues --    1.10792   1.12088   1.14381   1.17146   1.18649
  Beta virt. eigenvalues --    1.20535   1.22689   1.24700   1.28133   1.30287
  Beta virt. eigenvalues --    1.31110   1.37011   1.39509   1.41317   1.43541
  Beta virt. eigenvalues --    1.45774   1.48975   1.52391   1.67322   1.70543
  Beta virt. eigenvalues --    1.86732   2.00552   2.02831
          Condensed to atoms (all electrons):
               1          2          3          4          5          6
     1  O    8.379780   0.154161  -0.385433  -0.001295   0.590794  -0.219621
     2  H    0.154161   0.422073   0.078995  -0.000267  -0.041795  -0.030273
     3  C   -0.385433   0.078995  11.609207   0.476632  -2.555126  -3.524274
     4  H   -0.001295  -0.000267   0.476632   0.383994  -0.147196  -0.009869
     5  C    0.590794  -0.041795  -2.555126  -0.147196  10.867957  -1.528781
     6  C   -0.219621  -0.030273  -3.524274  -0.009869  -1.528781  10.966163
     7  O   -0.011215   0.000612  -0.107608   0.000108  -0.003505   0.335579
     8  O    0.004356   0.000304  -0.021407   0.000116  -0.494772  -0.007837
     9  C   -0.019918   0.001375  -0.029593   0.000206  -0.335155   0.222235
    10  C    0.014817  -0.000408   0.050772  -0.000046   0.082168  -0.236885
    11  H    0.000053   0.000001  -0.002294  -0.000000  -0.014310   0.027422
    12  H    0.000064   0.000003  -0.003934   0.000000  -0.001716   0.002466
    13  H    0.000032   0.000000   0.000413   0.000000   0.003421   0.000545
    14  H   -0.000199   0.000004  -0.000122   0.000000   0.002446   0.001023
    15  H   -0.000427   0.000031  -0.000797  -0.000000  -0.007720   0.009260
               7          8          9         10         11         12
     1  O   -0.011215   0.004356  -0.019918   0.014817   0.000053   0.000064
     2  H    0.000612   0.000304   0.001375  -0.000408   0.000001   0.000003
     3  C   -0.107608  -0.021407  -0.029593   0.050772  -0.002294  -0.003934
     4  H    0.000108   0.000116   0.000206  -0.000046  -0.000000   0.000000
     5  C   -0.003505  -0.494772  -0.335155   0.082168  -0.014310  -0.001716
     6  C    0.335579  -0.007837   0.222235  -0.236885   0.027422   0.002466
     7  O    8.444745  -0.267383   0.012653  -0.060711  -0.000074   0.001864
     8  O   -0.267383   9.062932  -0.028643   0.029395  -0.071257  -0.033986
     9  C    0.012653  -0.028643   5.928850  -0.172557   0.426344   0.418888
    10  C   -0.060711   0.029395  -0.172557   5.781235  -0.053544  -0.076347
    11  H   -0.000074  -0.071257   0.426344  -0.053544   0.501077  -0.033330
    12  H    0.001864  -0.033986   0.418888  -0.076347  -0.033330   0.492743
    13  H   -0.000085   0.008302  -0.076253   0.403967  -0.000732  -0.000733
    14  H   -0.000377  -0.001283  -0.050355   0.394300  -0.004584   0.003722
    15  H    0.001726  -0.010524  -0.045113   0.401136   0.003585  -0.004736
              13         14         15
     1  O    0.000032  -0.000199  -0.000427
     2  H    0.000000   0.000004   0.000031
     3  C    0.000413  -0.000122  -0.000797
     4  H    0.000000   0.000000  -0.000000
     5  C    0.003421   0.002446  -0.007720
     6  C    0.000545   0.001023   0.009260
     7  O   -0.000085  -0.000377   0.001726
     8  O    0.008302  -0.001283  -0.010524
     9  C   -0.076253  -0.050355  -0.045113
    10  C    0.403967   0.394300   0.401136
    11  H   -0.000732  -0.004584   0.003585
    12  H   -0.000733   0.003722  -0.004736
    13  H    0.505923  -0.025527  -0.023814
    14  H   -0.025527   0.475805  -0.025702
    15  H   -0.023814  -0.025702   0.467822
          Atomic-Atomic Spin Densities.
               1          2          3          4          5          6
     1  O    0.562423  -0.000661  -0.245192  -0.000975   0.004679   0.094861
     2  H   -0.000661  -0.016700   0.020237   0.000071  -0.003811  -0.010616
     3  C   -0.245192   0.020237   1.294535   0.008618  -0.197911   0.018907
     4  H   -0.000975   0.000071   0.008618  -0.024525  -0.013520  -0.002337
     5  C    0.004679  -0.003811  -0.197911  -0.013520  -0.435418   0.275157
     6  C    0.094861  -0.010616   0.018907  -0.002337   0.275157  -0.270735
     7  O    0.001053  -0.000121   0.004848  -0.000013   0.017716  -0.020624
     8  O    0.004047  -0.000005  -0.003829  -0.000030   0.001215  -0.007094
     9  C    0.004894  -0.000303  -0.016984  -0.000053   0.003412   0.005254
    10  C   -0.003539   0.000289   0.016502   0.000038   0.007795  -0.015861
    11  H   -0.000001  -0.000000   0.000140   0.000000   0.000404  -0.000471
    12  H    0.000005  -0.000000  -0.000013  -0.000000  -0.000357   0.000260
    13  H   -0.000003   0.000000  -0.000022   0.000000  -0.000222   0.000284
    14  H   -0.000024  -0.000001  -0.000182  -0.000000  -0.000615   0.000707
    15  H   -0.000002  -0.000001  -0.000004  -0.000000  -0.000231   0.000374
               7          8          9         10         11         12
     1  O    0.001053   0.004047   0.004894  -0.003539  -0.000001   0.000005
     2  H   -0.000121  -0.000005  -0.000303   0.000289  -0.000000  -0.000000
     3  C    0.004848  -0.003829  -0.016984   0.016502   0.000140  -0.000013
     4  H   -0.000013  -0.000030  -0.000053   0.000038   0.000000  -0.000000
     5  C    0.017716   0.001215   0.003412   0.007795   0.000404  -0.000357
     6  C   -0.020624  -0.007094   0.005254  -0.015861  -0.000471   0.000260
     7  O   -0.009256   0.000559  -0.001806   0.001784  -0.000014  -0.000159
     8  O    0.000559   0.005629   0.003567  -0.003099   0.000121   0.000031
     9  C   -0.001806   0.003567   0.013149  -0.011200   0.000077   0.000561
    10  C    0.001784  -0.003099  -0.011200   0.009138  -0.000192  -0.000380
    11  H   -0.000014   0.000121   0.000077  -0.000192  -0.000095   0.000008
    12  H   -0.000159   0.000031   0.000561  -0.000380   0.000008  -0.000121
    13  H   -0.000005  -0.000033  -0.000164   0.000309   0.000003  -0.000005
    14  H   -0.000012  -0.000005   0.000518  -0.000441   0.000001  -0.000000
    15  H   -0.000040  -0.000025   0.000132  -0.000216  -0.000001   0.000004
              13         14         15
     1  O   -0.000003  -0.000024  -0.000002
     2  H    0.000000  -0.000001  -0.000001
     3  C   -0.000022  -0.000182  -0.000004
     4  H    0.000000  -0.000000  -0.000000
     5  C   -0.000222  -0.000615  -0.000231
     6  C    0.000284   0.000707   0.000374
     7  O   -0.000005  -0.000012  -0.000040
     8  O   -0.000033  -0.000005  -0.000025
     9  C   -0.000164   0.000518   0.000132
    10  C    0.000309  -0.000441  -0.000216
    11  H    0.000003   0.000001  -0.000001
    12  H   -0.000005  -0.000000   0.000004
    13  H   -0.000156  -0.000036  -0.000013
    14  H   -0.000036   0.000097   0.000008
    15  H   -0.000013   0.000008   0.000076
 Mulliken charges and spin densities:
               1          2
     1  O   -0.505950   0.421566
     2  H    0.415185  -0.011623
     3  C    0.414570   0.899651
     4  H    0.297616  -0.032725
     5  C   -0.416708  -0.341705
     6  C   -0.007153   0.068065
     7  O   -0.346330  -0.006090
     8  O   -0.168311   0.001050
     9  C   -0.252963   0.001054
    10  C   -0.557292   0.000928
    11  H    0.221643  -0.000018
    12  H    0.235031  -0.000166
    13  H    0.204541  -0.000064
    14  H    0.230849   0.000014
    15  H    0.235272   0.000063
 Sum of Mulliken charges =  -0.00000   1.00000
 Mulliken charges and spin densities with hydrogens summed into heavy atoms:
               1          2
     1  O   -0.090765   0.409943
     3  C    0.712186   0.866926
     5  C   -0.416708  -0.341705
     6  C   -0.007153   0.068065
     7  O   -0.346330  -0.006090
     8  O   -0.168311   0.001050
     9  C    0.203711   0.000870
    10  C    0.113370   0.000941
 APT charges:
               1
     1  O   -0.412630
     2  H    0.224223
     3  C   -0.199798
     4  H    0.253400
     5  C   -0.072459
     6  C    1.364579
     7  O   -0.744960
     8  O   -0.927463
     9  C    0.501389
    10  C   -0.059993
    11  H   -0.003021
    12  H   -0.005571
    13  H    0.016098
    14  H    0.029441
    15  H    0.036767
 Sum of APT charges =   0.00000
 APT charges with hydrogens summed into heavy atoms:
               1
     1  O   -0.188407
     3  C    0.053602
     5  C   -0.072459
     6  C    1.364579
     7  O   -0.744960
     8  O   -0.927463
     9  C    0.492796
    10  C    0.022313
 Electronic spatial extent (au):  <R**2>=           1053.8001
 Charge=             -0.0000 electrons
 Dipole moment (field-independent basis, Debye):
    X=             -0.8510    Y=             -0.6437    Z=             -0.5865  Tot=              1.2176
 Quadrupole moment (field-independent basis, Debye-Ang):
   XX=            -29.2411   YY=            -50.5735   ZZ=            -52.1002
   XY=              0.7621   XZ=             -1.8344   YZ=              5.5391
 Traceless Quadrupole moment (field-independent basis, Debye-Ang):
   XX=             14.7305   YY=             -6.6019   ZZ=             -8.1286
   XY=              0.7621   XZ=             -1.8344   YZ=              5.5391
 Octapole moment (field-independent basis, Debye-Ang**2):
  XXX=            -34.3052  YYY=             -0.1031  ZZZ=             -1.7666  XYY=              1.9515
  XXY=             -2.3747  XXZ=             -6.1273  XZZ=             -0.4050  YZZ=              7.3841
  YYZ=              2.8583  XYZ=             -6.8004
 Hexadecapole moment (field-independent basis, Debye-Ang**3):
 XXXX=           -748.8973 YYYY=           -261.2658 ZZZZ=           -176.9772 XXXY=             -1.9504
 XXXZ=             19.0494 YYYX=            -15.5406 YYYZ=             10.1374 ZZZX=            -10.4622
 ZZZY=              8.2134 XXYY=           -199.5259 XXZZ=           -180.9138 YYZZ=            -72.2302
 XXYZ=             20.5187 YYXZ=            -13.0645 ZZXY=             -7.9765
 N-N= 3.647023664873D+02 E-N=-1.711968320982D+03  KE= 4.177111380005D+02
  Exact polarizability:  84.765   6.860  66.726   3.457   1.944  56.960
 Approx polarizability:  86.452  10.334  74.454   6.364  -0.502  71.526
                          Isotropic Fermi Contact Couplings
        Atom                 a.u.       MegaHertz       Gauss      10(-4) cm-1
     1  O(17)              0.06307     -38.23084     -13.64172     -12.75244
     2  H(1)              -0.00741     -33.14402     -11.82661     -11.05565
     3  C(13)              0.10651     119.74024      42.72630      39.94105
     4  H(1)              -0.01380     -61.67523     -22.00725     -20.57264
     5  C(13)             -0.02920     -32.82322     -11.71214     -10.94865
     6  C(13)              0.03535      39.73860      14.17972      13.25537
     7  O(17)             -0.00222       1.34559       0.48014       0.44884
     8  O(17)              0.00464      -2.81168      -1.00328      -0.93787
     9  C(13)              0.00016       0.17429       0.06219       0.05814
    10  C(13)             -0.00049      -0.55441      -0.19783      -0.18493
    11  H(1)               0.00004       0.19008       0.06783       0.06340
    12  H(1)              -0.00002      -0.07473      -0.02666      -0.02493
    13  H(1)              -0.00000      -0.00690      -0.00246      -0.00230
    14  H(1)               0.00002       0.10363       0.03698       0.03457
    15  H(1)               0.00002       0.09509       0.03393       0.03172
 --------------------------------------------------------
       Center         ----  Spin Dipole Couplings  ----
                      3XX-RR        3YY-RR        3ZZ-RR
 --------------------------------------------------------
     1   Atom       -0.448336      1.212241     -0.763905
     2   Atom       -0.000076     -0.025418      0.025494
     3   Atom       -0.414900      0.713490     -0.298590
     4   Atom        0.059599     -0.014509     -0.045090
     5   Atom        0.130595     -0.062152     -0.068444
     6   Atom        0.023850     -0.000595     -0.023255
     7   Atom        0.026744     -0.032691      0.005946
     8   Atom        0.004427     -0.008049      0.003621
     9   Atom        0.003851     -0.001468     -0.002383
    10   Atom        0.002279     -0.001037     -0.001242
    11   Atom        0.001462     -0.000793     -0.000669
    12   Atom        0.001602     -0.000403     -0.001199
    13   Atom        0.001315     -0.000609     -0.000706
    14   Atom        0.002787     -0.001286     -0.001502
    15   Atom        0.002547     -0.001276     -0.001271
 --------------------------------------------------------
                        XY            XZ            YZ
 --------------------------------------------------------
     1   Atom        0.861919      0.147242      0.330425
     2   Atom       -0.000133     -0.063247      0.026502
     3   Atom       -0.180974     -0.053362      0.068434
     4   Atom        0.005340      0.030648      0.006186
     5   Atom       -0.004377      0.053145      0.006530
     6   Atom       -0.016561      0.013381     -0.001211
     7   Atom       -0.063386     -0.014490     -0.017141
     8   Atom       -0.014540     -0.010467      0.010250
     9   Atom       -0.002363      0.000073     -0.000005
    10   Atom       -0.000646      0.000104      0.000160
    11   Atom       -0.000540     -0.000729      0.000226
    12   Atom       -0.000906      0.000166     -0.000171
    13   Atom       -0.000030      0.000177      0.000036
    14   Atom        0.000431     -0.000508      0.000052
    15   Atom       -0.000358      0.001378     -0.000048
 --------------------------------------------------------


 ---------------------------------------------------------------------------------
              Anisotropic Spin Dipole Couplings in Principal Axis System
 ---------------------------------------------------------------------------------

       Atom             a.u.   MegaHertz   Gauss  10(-4) cm-1        Axes

              Baa    -0.8231    59.556    21.251    19.866 -0.5969  0.1241  0.7926
     1 O(17)  Bbb    -0.8103    58.629    20.920    19.557  0.7026 -0.3960  0.5912
              Bcc     1.6333  -118.185   -42.171   -39.422  0.3873  0.9098  0.1492
 
              Baa    -0.0605   -32.284   -11.520   -10.769  0.6411 -0.4610  0.6136
     2 H(1)   Bbb    -0.0208   -11.089    -3.957    -3.699  0.4755  0.8661  0.1539
              Bcc     0.0813    43.373    15.476    14.468 -0.6024  0.1931  0.7745
 
              Baa    -0.4549   -61.048   -21.783   -20.363  0.9543  0.1321  0.2679
     3 C(13)  Bbb    -0.2924   -39.235   -14.000   -13.087 -0.2543 -0.1111  0.9607
              Bcc     0.7473   100.282    35.783    33.451 -0.1567  0.9850  0.0724
 
              Baa    -0.0539   -28.779   -10.269    -9.600 -0.2537 -0.1163  0.9603
     4 H(1)   Bbb    -0.0145    -7.751    -2.766    -2.585 -0.1090  0.9899  0.0911
              Bcc     0.0685    36.530    13.035    12.185  0.9611  0.0815  0.2638
 
              Baa    -0.0842   -11.302    -4.033    -3.770 -0.2338 -0.3181  0.9188
     5 C(13)  Bbb    -0.0597    -8.012    -2.859    -2.672 -0.0652  0.9480  0.3116
              Bcc     0.1439    19.314     6.892     6.443  0.9701 -0.0129  0.2424
 
              Baa    -0.0272    -3.653    -1.303    -1.218 -0.2930 -0.1392  0.9459
     6 C(13)  Bbb    -0.0077    -1.033    -0.369    -0.345  0.3668  0.8973  0.2456
              Bcc     0.0349     4.686     1.672     1.563  0.8830 -0.4190  0.2118
 
              Baa    -0.0788     5.703     2.035     1.902  0.5233  0.8134  0.2539
     7 O(17)  Bbb     0.0116    -0.841    -0.300    -0.281 -0.0916 -0.2426  0.9658
              Bcc     0.0672    -4.862    -1.735    -1.622  0.8472 -0.5286 -0.0525
 
              Baa    -0.0181     1.313     0.468     0.438  0.4728  0.8628 -0.1790
     8 O(17)  Bbb    -0.0060     0.436     0.156     0.145  0.5836 -0.1544  0.7973
              Bcc     0.0242    -1.749    -0.624    -0.583  0.6602 -0.4814 -0.5765
 
              Baa    -0.0024    -0.322    -0.115    -0.107 -0.2057 -0.5181  0.8302
     9 C(13)  Bbb    -0.0024    -0.316    -0.113    -0.105  0.2898  0.7781  0.5573
              Bcc     0.0047     0.637     0.227     0.213  0.9347 -0.3552  0.0099
 
              Baa    -0.0014    -0.186    -0.066    -0.062 -0.1291 -0.6050  0.7857
    10 C(13)  Bbb    -0.0010    -0.137    -0.049    -0.046  0.1322  0.7748  0.6182
              Bcc     0.0024     0.322     0.115     0.107  0.9828 -0.1836  0.0201
 
              Baa    -0.0010    -0.515    -0.184    -0.172 -0.0191  0.7722 -0.6351
    11 H(1)   Bbb    -0.0009    -0.455    -0.162    -0.152  0.3644  0.5969  0.7148
              Bcc     0.0018     0.970     0.346     0.324  0.9310 -0.2178 -0.2928
 
              Baa    -0.0012    -0.659    -0.235    -0.220  0.0109  0.2131  0.9770
    12 H(1)   Bbb    -0.0007    -0.390    -0.139    -0.130  0.3669  0.9080 -0.2022
              Bcc     0.0020     1.048     0.374     0.350  0.9302 -0.3607  0.0683
 
              Baa    -0.0007    -0.391    -0.140    -0.131 -0.0865 -0.2973  0.9509
    13 H(1)   Bbb    -0.0006    -0.319    -0.114    -0.106 -0.0125  0.9547  0.2974
              Bcc     0.0013     0.710     0.253     0.237  0.9962 -0.0139  0.0863
 
              Baa    -0.0016    -0.853    -0.304    -0.285  0.1416 -0.3496  0.9261
    14 H(1)   Bbb    -0.0013    -0.688    -0.246    -0.230 -0.0537  0.9315  0.3598
              Bcc     0.0029     1.542     0.550     0.514  0.9885  0.1007 -0.1131
 
              Baa    -0.0017    -0.921    -0.329    -0.307 -0.3147 -0.1494  0.9374
    15 H(1)   Bbb    -0.0013    -0.691    -0.247    -0.231  0.0316  0.9853  0.1677
              Bcc     0.0030     1.612     0.575     0.538  0.9487 -0.0824  0.3054
 

 ---------------------------------------------------------------------------------

 Calling FoFJK, ICntrl=    100127 FMM=F ISym2X=0 I1Cent= 0 IOpClX= 1 NMat=1 NMatS=1 NMatT=0.
 Full mass-weighted force constant matrix:
 Low frequencies --- -628.6394 -465.4684 -133.3727  -82.6056  -52.8853   -0.0009
 Low frequencies ---    0.0003    0.0006   33.4652
 ******    3 imaginary frequencies (negative Signs) ****** 
 Diagonal vibrational polarizability:
       31.8871297     109.1742279      71.7537807
 Harmonic frequencies (cm**-1), IR intensities (KM/Mole), Raman scattering
 activities (A**4/AMU), depolarization ratios for plane and unpolarized
 incident light, reduced masses (AMU), force constants (mDyne/A),
 and normal coordinates:
                      1                      2                      3
                      A                      A                      A
 Frequencies --   -628.6167              -464.5362               -69.2941
 Red. masses --     10.4294                 1.0734                 6.3383
 Frc consts  --      2.4282                 0.1365                 0.0179
 IR Inten    --     12.6099               113.4681                 4.9725
  Atom  AN      X      Y      Z        X      Y      Z        X      Y      Z
     1   8    -0.05  -0.43  -0.06    -0.05   0.01  -0.04    -0.06  -0.05   0.26
     2   1     0.04   0.07  -0.11     0.72  -0.20   0.66    -0.18  -0.18   0.18
     3   6     0.09  -0.17   0.00     0.00  -0.00  -0.01     0.09   0.01  -0.30
     4   1     0.03   0.44   0.04    -0.00   0.07  -0.01     0.13   0.08  -0.47
     5   6     0.03   0.74   0.12     0.00   0.00  -0.00     0.01  -0.01   0.01
     6   6    -0.02   0.01  -0.00    -0.00  -0.00  -0.01     0.02   0.03   0.02
     7   8    -0.02  -0.02  -0.02    -0.00   0.01   0.00     0.11   0.35   0.10
     8   8    -0.00  -0.01  -0.00     0.00  -0.01   0.00    -0.04  -0.18  -0.07
     9   6    -0.00  -0.01  -0.00     0.00  -0.00   0.01    -0.02  -0.06  -0.10
    10   6    -0.00  -0.01  -0.00    -0.00   0.00   0.00    -0.09  -0.10   0.02
    11   1     0.00  -0.00  -0.00     0.01  -0.00   0.01    -0.04   0.08  -0.13
    12   1     0.00  -0.01  -0.01     0.00   0.00   0.01     0.07  -0.11  -0.20
    13   1    -0.00  -0.01   0.00    -0.00   0.01   0.00    -0.07  -0.01  -0.10
    14   1    -0.00  -0.00   0.00    -0.00  -0.00   0.00    -0.23  -0.04   0.16
    15   1    -0.00  -0.01   0.00    -0.00   0.00   0.00     0.00  -0.28   0.08
                      4                      5                      6
                      A                      A                      A
 Frequencies --     29.4194                51.4042               137.4645
 Red. masses --      2.6548                 3.6675                 1.9652
 Frc consts  --      0.0014                 0.0057                 0.0219
 IR Inten    --      1.6206                 6.8054                 5.4081
  Atom  AN      X      Y      Z        X      Y      Z        X      Y      Z
     1   8    -0.04   0.01  -0.12    -0.20   0.03   0.06    -0.03  -0.01   0.07
     2   1    -0.01   0.05  -0.10    -0.21  -0.10   0.07    -0.08  -0.09   0.06
     3   6    -0.03  -0.08   0.13     0.03  -0.11  -0.09    -0.04  -0.02   0.12
     4   1    -0.04  -0.16   0.21     0.06  -0.24  -0.16    -0.08  -0.07   0.27
     5   6    -0.01  -0.01  -0.00    -0.03  -0.00  -0.00     0.00   0.01  -0.06
     6   6     0.01   0.05  -0.02    -0.01   0.09   0.03     0.01   0.03  -0.11
     7   8     0.06   0.09  -0.02    -0.03   0.01   0.01    -0.01   0.10  -0.07
     8   8    -0.02   0.06  -0.04     0.00   0.18   0.07     0.06  -0.03  -0.09
     9   6    -0.01   0.02  -0.09    -0.00  -0.07   0.02     0.04  -0.05   0.06
    10   6     0.03  -0.15   0.20     0.27  -0.11  -0.11    -0.02  -0.01   0.04
    11   1    -0.04   0.26  -0.13    -0.06  -0.23   0.01     0.14  -0.12   0.12
    12   1     0.01  -0.13  -0.31    -0.15  -0.06   0.08    -0.06  -0.01   0.15
    13   1     0.05  -0.15   0.02     0.25  -0.33  -0.09    -0.09  -0.19   0.51
    14   1    -0.08   0.01   0.48     0.46  -0.11  -0.19     0.39  -0.07  -0.19
    15   1     0.17  -0.45   0.30     0.28   0.09  -0.12    -0.41   0.23  -0.17
                      7                      8                      9
                      A                      A                      A
 Frequencies --    191.2518               224.2399               271.1335
 Red. masses --      1.7472                 6.6442                 1.7798
 Frc consts  --      0.0377                 0.1968                 0.0771
 IR Inten    --      2.4571                 2.0067                19.3109
  Atom  AN      X      Y      Z        X      Y      Z        X      Y      Z
     1   8     0.06  -0.02  -0.06    -0.28   0.33  -0.04    -0.14  -0.04  -0.05
     2   1     0.11   0.10  -0.04    -0.29   0.14  -0.01    -0.20  -0.07  -0.09
     3   6     0.03  -0.00  -0.07     0.20  -0.03   0.01    -0.05   0.12   0.01
     4   1     0.06   0.02  -0.20     0.26  -0.36  -0.11    -0.12   0.92   0.04
     5   6    -0.01  -0.03   0.08     0.10   0.18   0.11     0.01  -0.06   0.01
     6   6    -0.00  -0.01   0.07     0.08   0.04   0.05     0.03  -0.06   0.01
     7   8     0.10  -0.02   0.03     0.11  -0.20  -0.04     0.07  -0.01   0.01
     8   8    -0.08   0.05   0.02     0.03  -0.15  -0.03     0.03  -0.03   0.01
     9   6    -0.07   0.04  -0.06     0.03  -0.10  -0.02     0.04   0.02  -0.00
    10   6    -0.04  -0.02   0.02    -0.18  -0.04   0.01     0.04   0.01   0.01
    11   1    -0.11   0.10  -0.09     0.07  -0.04  -0.01     0.03   0.04  -0.01
    12   1    -0.05  -0.01  -0.13     0.08  -0.09  -0.03     0.07   0.01  -0.02
    13   1    -0.11  -0.30   0.50    -0.19   0.12   0.16     0.04  -0.03   0.04
    14   1     0.45  -0.00  -0.14    -0.22  -0.09  -0.04     0.09   0.02   0.01
    15   1    -0.43   0.17  -0.18    -0.32  -0.08  -0.05     0.02   0.02  -0.00
                     10                     11                     12
                      A                      A                      A
 Frequencies --    310.0685               367.4320               432.8088
 Red. masses --      3.0391                 2.2871                 3.6672
 Frc consts  --      0.1721                 0.1819                 0.4047
 IR Inten    --     15.3050                21.0416                11.2901
  Atom  AN      X      Y      Z        X      Y      Z        X      Y      Z
     1   8     0.02  -0.03  -0.02     0.08   0.11   0.04    -0.03  -0.10  -0.01
     2   1     0.05   0.07  -0.02     0.01   0.05  -0.00    -0.05  -0.23   0.00
     3   6    -0.01   0.01  -0.03     0.08  -0.26   0.00     0.03   0.12   0.03
     4   1     0.00   0.08  -0.11    -0.04   0.92   0.09     0.02  -0.05   0.12
     5   6    -0.03  -0.03   0.07     0.03  -0.02  -0.03     0.10  -0.04  -0.09
     6   6    -0.00   0.03  -0.03    -0.01   0.02  -0.01     0.08   0.06   0.04
     7   8     0.22   0.01  -0.11    -0.06   0.01   0.00    -0.06   0.01   0.07
     8   8    -0.05   0.12  -0.06    -0.01   0.05   0.00     0.09   0.21   0.10
     9   6    -0.09  -0.11   0.19    -0.03  -0.02  -0.01     0.07  -0.14  -0.09
    10   6    -0.08  -0.02   0.01    -0.05  -0.02  -0.01    -0.19  -0.10  -0.07
    11   1     0.07  -0.39   0.30    -0.02  -0.04  -0.01     0.00  -0.12  -0.13
    12   1    -0.38  -0.00   0.43    -0.06  -0.03  -0.00    -0.00  -0.18  -0.13
    13   1    -0.04   0.15  -0.24    -0.05   0.03  -0.00    -0.20   0.29   0.14
    14   1    -0.34  -0.11  -0.01    -0.09  -0.03  -0.02    -0.41  -0.20  -0.14
    15   1     0.13  -0.00   0.11    -0.07  -0.03  -0.02    -0.43  -0.21  -0.17
                     13                     14                     15
                      A                      A                      A
 Frequencies --    570.7025               622.4323               718.5515
 Red. masses --      3.6241                 5.9928                 1.5622
 Frc consts  --      0.6955                 1.3679                 0.4752
 IR Inten    --     12.8360                16.5864                63.2598
  Atom  AN      X      Y      Z        X      Y      Z        X      Y      Z
     1   8    -0.02  -0.01  -0.01    -0.04  -0.09  -0.04    -0.00  -0.03  -0.00
     2   1    -0.15  -0.52  -0.01     0.03   0.22  -0.05     0.04   0.14   0.00
     3   6     0.18   0.08   0.07     0.21   0.10   0.07     0.04   0.02  -0.13
     4   1     0.12  -0.04   0.33     0.37   0.13  -0.48    -0.25  -0.02   0.93
     5   6     0.24   0.01  -0.21     0.13  -0.16   0.39    -0.01  -0.04   0.05
     6   6     0.02  -0.08   0.02     0.07   0.04  -0.10     0.02   0.14   0.04
     7   8     0.00  -0.00   0.06    -0.28   0.04  -0.01    -0.01  -0.03  -0.01
     8   8    -0.13  -0.00  -0.04    -0.00   0.04  -0.21    -0.01  -0.03  -0.02
     9   6    -0.22   0.07   0.04    -0.02   0.02  -0.01    -0.01   0.00   0.00
    10   6    -0.01   0.00   0.01     0.01   0.00   0.02    -0.00   0.00   0.00
    11   1    -0.12  -0.05   0.10     0.17  -0.15   0.10     0.00  -0.00   0.01
    12   1    -0.29   0.11   0.13    -0.22   0.08   0.14    -0.01   0.01   0.01
    13   1     0.00  -0.30  -0.17     0.01  -0.07  -0.02    -0.00  -0.03  -0.01
    14   1     0.16   0.09   0.07     0.04   0.05   0.09     0.02   0.02   0.02
    15   1     0.19   0.10   0.09     0.06  -0.04   0.05     0.02   0.01   0.01
                     16                     17                     18
                      A                      A                      A
 Frequencies --    721.2867               816.1036               893.1171
 Red. masses --      4.5561                 1.3193                 2.9873
 Frc consts  --      1.3965                 0.5177                 1.4039
 IR Inten    --     21.9567                 8.0929                20.6937
  Atom  AN      X      Y      Z        X      Y      Z        X      Y      Z
     1   8     0.02  -0.08   0.01    -0.00  -0.01  -0.00    -0.02  -0.02   0.01
     2   1    -0.01  -0.25   0.01    -0.01  -0.02  -0.01     0.05   0.27   0.00
     3   6    -0.06  -0.01   0.11     0.05   0.01   0.01     0.07   0.02   0.02
     4   1     0.16   0.20  -0.73     0.05   0.01   0.01     0.09   0.02  -0.02
     5   6     0.01  -0.06  -0.12     0.03  -0.02   0.03     0.04  -0.04   0.03
     6   6     0.05   0.46   0.14    -0.04   0.01  -0.04    -0.09   0.03  -0.10
     7   8     0.00  -0.10  -0.05    -0.01   0.02  -0.07     0.01   0.05  -0.16
     8   8    -0.02  -0.12  -0.03     0.01  -0.01   0.06     0.08  -0.05   0.23
     9   6    -0.04   0.01   0.01    -0.04  -0.03   0.08    -0.08   0.06  -0.01
    10   6    -0.00   0.01   0.01    -0.01  -0.02   0.02    -0.07  -0.03  -0.08
    11   1    -0.03   0.05   0.01    -0.13   0.52  -0.04    -0.26  -0.20  -0.06
    12   1     0.03   0.01  -0.01     0.16  -0.29  -0.39     0.18   0.28   0.25
    13   1    -0.00  -0.10  -0.04     0.01   0.02  -0.18    -0.09  -0.37   0.00
    14   1     0.07   0.04   0.02    -0.04  -0.27  -0.34     0.14   0.27   0.29
    15   1     0.07   0.05   0.04     0.12   0.42   0.03    -0.04  -0.40  -0.03
                     19                     20                     21
                      A                      A                      A
 Frequencies --    903.3958               946.1850              1104.6326
 Red. masses --      1.3749                 2.1326                 4.1890
 Frc consts  --      0.6611                 1.1249                 3.0116
 IR Inten    --     41.8848                15.3599                14.1139
  Atom  AN      X      Y      Z        X      Y      Z        X      Y      Z
     1   8    -0.04  -0.03   0.03    -0.03  -0.03   0.02    -0.01  -0.02   0.00
     2   1     0.20   0.90   0.04     0.12   0.53   0.02     0.02   0.10   0.01
     3   6    -0.02  -0.00   0.01     0.08   0.02   0.03     0.06   0.01   0.02
     4   1    -0.00  -0.01  -0.07     0.09   0.02   0.01     0.07   0.02   0.04
     5   6     0.02  -0.01  -0.09     0.07  -0.03  -0.07     0.04  -0.02  -0.04
     6   6     0.07  -0.02   0.01    -0.10   0.01   0.00    -0.17   0.01   0.05
     7   8     0.00  -0.01   0.05     0.01   0.01  -0.05     0.02  -0.00  -0.01
     8   8     0.04   0.01  -0.03    -0.13  -0.02   0.03    -0.18   0.02  -0.06
     9   6    -0.04   0.03   0.01     0.04  -0.10  -0.03     0.29   0.19   0.16
    10   6    -0.05  -0.03  -0.01     0.14   0.09   0.05    -0.05  -0.21  -0.12
    11   1     0.07   0.09   0.05    -0.18  -0.18  -0.12     0.30   0.31   0.16
    12   1    -0.04   0.00  -0.02    -0.04  -0.13  -0.06     0.38   0.26   0.20
    13   1    -0.03  -0.18  -0.14     0.12   0.56   0.33    -0.05  -0.15  -0.07
    14   1     0.05  -0.04  -0.06    -0.15   0.01   0.04    -0.09  -0.24  -0.14
    15   1     0.09   0.10   0.04    -0.18  -0.06  -0.07    -0.11  -0.31  -0.15
                     22                     23                     24
                      A                      A                      A
 Frequencies --   1157.9676              1227.9901              1321.4262
 Red. masses --      2.0530                 1.7435                 2.1365
 Frc consts  --      1.6219                 1.5490                 2.1981
 IR Inten    --     18.1239                 6.4086               317.4934
  Atom  AN      X      Y      Z        X      Y      Z        X      Y      Z
     1   8     0.00   0.01  -0.00     0.00   0.00   0.00     0.00   0.01  -0.00
     2   1    -0.01  -0.02  -0.00    -0.00  -0.00  -0.00     0.00  -0.01  -0.00
     3   6    -0.02  -0.00  -0.01    -0.02  -0.00  -0.01    -0.04  -0.01  -0.01
     4   1    -0.02  -0.01  -0.01    -0.02  -0.01  -0.01    -0.05  -0.01  -0.03
     5   6    -0.01   0.01   0.01    -0.00   0.01   0.00    -0.00   0.01   0.01
     6   6     0.05   0.00  -0.01     0.08  -0.01  -0.02     0.23  -0.00  -0.08
     7   8    -0.00  -0.00   0.00    -0.01  -0.01   0.03    -0.03   0.01  -0.02
     8   8     0.07  -0.05   0.01    -0.01   0.02  -0.06    -0.13  -0.01   0.04
     9   6    -0.14   0.18   0.03    -0.05  -0.06   0.17     0.08   0.03   0.01
    10   6     0.11  -0.13  -0.02     0.03   0.04  -0.12    -0.02  -0.04   0.07
    11   1    -0.13   0.04   0.06    -0.42   0.32  -0.04    -0.67  -0.31  -0.28
    12   1    -0.29   0.13   0.01     0.32  -0.22  -0.19     0.27   0.21   0.22
    13   1     0.09   0.52   0.23    -0.03  -0.05   0.27     0.00   0.01  -0.12
    14   1    -0.37  -0.35  -0.16    -0.01   0.30   0.29     0.02  -0.18  -0.16
    15   1    -0.32  -0.13  -0.23    -0.09  -0.45  -0.11     0.04   0.18   0.07
                     25                     26                     27
                      A                      A                      A
 Frequencies --   1367.0869              1440.6088              1459.1070
 Red. masses --      1.6720                 1.3731                 1.2478
 Frc consts  --      1.8411                 1.6790                 1.5652
 IR Inten    --    233.0841                24.8205                19.9993
  Atom  AN      X      Y      Z        X      Y      Z        X      Y      Z
     1   8    -0.00  -0.00   0.00     0.00   0.00  -0.00     0.00  -0.00   0.00
     2   1     0.00   0.00   0.00    -0.00  -0.00  -0.00     0.00   0.00   0.00
     3   6     0.02   0.00   0.01    -0.01  -0.00  -0.00     0.00   0.00   0.00
     4   1     0.02   0.01   0.02    -0.02  -0.00  -0.01     0.00   0.00   0.00
     5   6    -0.00  -0.01  -0.01     0.00   0.00   0.00    -0.00  -0.00  -0.00
     6   6    -0.13  -0.00   0.06     0.08  -0.00  -0.02    -0.02  -0.00   0.01
     7   8     0.02  -0.01   0.03    -0.01   0.01  -0.02     0.00  -0.00   0.00
     8   8     0.10   0.04  -0.10    -0.06   0.01   0.04     0.01  -0.00  -0.01
     9   6    -0.07  -0.02  -0.02    -0.08  -0.08  -0.05     0.03   0.03   0.02
    10   6     0.01  -0.03   0.05     0.03  -0.04  -0.02    -0.06  -0.11  -0.06
    11   1    -0.41  -0.19  -0.16     0.53   0.36   0.19    -0.13  -0.11  -0.04
    12   1     0.72   0.30   0.22     0.48   0.28   0.30    -0.12  -0.08  -0.09
    13   1     0.02   0.07  -0.03     0.03   0.21   0.12    -0.05   0.51   0.20
    14   1    -0.05  -0.11  -0.06    -0.03   0.08   0.17     0.34   0.29   0.35
    15   1    -0.00   0.18   0.03     0.01   0.17  -0.04     0.34   0.41   0.09
                     28                     29                     30
                      A                      A                      A
 Frequencies --   1526.5934              1536.8113              1545.3215
 Red. masses --      1.0411                 1.0528                 1.0907
 Frc consts  --      1.4295                 1.4650                 1.5346
 IR Inten    --     15.0705                 2.4291                25.7304
  Atom  AN      X      Y      Z        X      Y      Z        X      Y      Z
     1   8    -0.00  -0.00   0.00     0.00  -0.00   0.00    -0.00  -0.00  -0.00
     2   1    -0.00   0.00  -0.00    -0.00   0.00  -0.00     0.00  -0.00   0.00
     3   6    -0.00  -0.00  -0.00     0.00   0.00   0.00     0.00   0.00   0.00
     4   1    -0.00  -0.00   0.00     0.00   0.00   0.00     0.01   0.00   0.00
     5   6     0.00  -0.00   0.00    -0.00  -0.00  -0.00    -0.00  -0.00  -0.00
     6   6     0.00  -0.00   0.00    -0.01   0.00  -0.00    -0.02   0.00  -0.00
     7   8    -0.00   0.00  -0.00     0.00  -0.00   0.01     0.00  -0.00   0.01
     8   8    -0.00  -0.00   0.00     0.01  -0.00  -0.00     0.02  -0.00  -0.01
     9   6     0.01   0.02  -0.01     0.00  -0.03  -0.02     0.05  -0.05  -0.01
    10   6     0.02   0.01  -0.04    -0.04   0.02  -0.01     0.02  -0.02  -0.00
    11   1     0.01  -0.10  -0.01    -0.12   0.36  -0.11    -0.27   0.47  -0.21
    12   1     0.01  -0.00  -0.04    -0.19   0.17   0.32    -0.38   0.15   0.39
    13   1    -0.08  -0.36   0.57    -0.05   0.17   0.29     0.03  -0.15  -0.14
    14   1    -0.55  -0.09   0.05     0.23  -0.17  -0.37    -0.20   0.13   0.28
    15   1     0.36   0.26   0.12     0.39  -0.36   0.23    -0.22   0.30  -0.15
                     31                     32                     33
                      A                      A                      A
 Frequencies --   1906.1159              1973.1337              3108.9447
 Red. masses --     10.5576                 7.5644                 1.0351
 Frc consts  --     22.6003                17.3515                 5.8946
 IR Inten    --    268.4937                69.9259                11.6568
  Atom  AN      X      Y      Z        X      Y      Z        X      Y      Z
     1   8    -0.00   0.02   0.00    -0.00   0.03   0.01     0.00   0.00  -0.00
     2   1     0.02   0.02   0.02    -0.00   0.04  -0.01    -0.00  -0.00   0.00
     3   6    -0.24  -0.06  -0.06    -0.37  -0.09  -0.10    -0.00  -0.00   0.00
     4   1    -0.38  -0.09  -0.08    -0.60  -0.14  -0.18    -0.00  -0.00  -0.00
     5   6     0.31   0.02   0.06     0.53   0.02   0.14     0.00   0.00   0.00
     6   6     0.10  -0.20   0.61    -0.16   0.11  -0.25     0.00   0.00  -0.00
     7   8    -0.13   0.14  -0.40     0.05  -0.05   0.15     0.00   0.00   0.00
     8   8     0.03   0.02  -0.06    -0.01  -0.00   0.02    -0.00  -0.00   0.00
     9   6     0.02  -0.01   0.01    -0.00   0.00  -0.00     0.00   0.00   0.00
    10   6    -0.01   0.01   0.00     0.00  -0.00  -0.00    -0.02  -0.04  -0.02
    11   1    -0.12   0.06  -0.07     0.05  -0.02   0.02    -0.00  -0.00  -0.00
    12   1    -0.11  -0.02   0.07     0.03   0.00  -0.02     0.00  -0.01   0.00
    13   1    -0.00  -0.03  -0.04     0.00   0.01   0.01     0.63  -0.04   0.08
    14   1     0.03   0.01  -0.01    -0.01  -0.00   0.00    -0.13   0.44  -0.32
    15   1    -0.03  -0.04   0.00     0.01   0.01  -0.00    -0.23   0.04   0.47
                     34                     35                     36
                      A                      A                      A
 Frequencies --   3139.8581              3190.7893              3191.3830
 Red. masses --      1.0602                 1.1036                 1.0992
 Frc consts  --      6.1582                 6.6201                 6.5962
 IR Inten    --     21.0878                 0.4078                18.9638
  Atom  AN      X      Y      Z        X      Y      Z        X      Y      Z
     1   8     0.00  -0.00  -0.00     0.00  -0.00  -0.00    -0.00   0.00   0.00
     2   1     0.00   0.00   0.00    -0.00   0.00   0.00     0.00  -0.00  -0.00
     3   6    -0.00  -0.00  -0.00    -0.00  -0.00  -0.00     0.00   0.00   0.00
     4   1     0.00   0.00   0.00    -0.00   0.00  -0.00    -0.00   0.00  -0.00
     5   6     0.00  -0.00  -0.00    -0.00   0.00  -0.00    -0.00   0.00  -0.00
     6   6    -0.00  -0.00   0.00     0.00  -0.00  -0.00     0.00   0.00  -0.00
     7   8    -0.00   0.00  -0.00    -0.00   0.00  -0.00    -0.00  -0.00   0.00
     8   8     0.00   0.00  -0.00    -0.00  -0.00   0.00     0.00  -0.00   0.00
     9   6     0.03  -0.06  -0.01    -0.01  -0.02   0.06    -0.01   0.00   0.01
    10   6    -0.01   0.01  -0.00     0.03   0.02  -0.06    -0.08   0.04  -0.02
    11   1    -0.23   0.04   0.50     0.24  -0.06  -0.52     0.08  -0.02  -0.19
    12   1    -0.13   0.66  -0.46    -0.07   0.33  -0.22     0.00  -0.02   0.02
    13   1     0.11  -0.01   0.01    -0.20   0.01  -0.04     0.72  -0.03   0.09
    14   1     0.01  -0.06   0.04     0.08  -0.26   0.17     0.11  -0.48   0.34
    15   1     0.01   0.00  -0.03    -0.26   0.06   0.54     0.09  -0.01  -0.24
                     37                     38                     39
                      A                      A                      A
 Frequencies --   3213.1517              3495.5643              3863.3324
 Red. masses --      1.1054                 1.1324                 1.0673
 Frc consts  --      6.7240                 8.1524                 9.3852
 IR Inten    --     16.4727                68.4266                32.7107
  Atom  AN      X      Y      Z        X      Y      Z        X      Y      Z
     1   8    -0.00  -0.00   0.00     0.00   0.00   0.00     0.04  -0.01  -0.05
     2   1     0.00  -0.00  -0.00     0.00  -0.00  -0.00    -0.64   0.16   0.75
     3   6    -0.00  -0.00  -0.00    -0.10  -0.01  -0.03    -0.00  -0.00  -0.00
     4   1     0.00   0.00   0.00     0.96   0.07   0.26     0.00   0.00   0.00
     5   6     0.00  -0.00   0.00     0.02   0.00   0.01     0.00   0.00   0.00
     6   6    -0.00   0.00  -0.00    -0.00   0.00  -0.00     0.00   0.00  -0.00
     7   8     0.00  -0.00   0.00     0.00  -0.00  -0.00    -0.00  -0.00  -0.00
     8   8    -0.00   0.00  -0.00     0.00  -0.00  -0.00    -0.00  -0.00   0.00
     9   6     0.01   0.02  -0.06    -0.00  -0.00   0.00     0.00   0.00   0.00
    10   6     0.01   0.03  -0.06    -0.00  -0.00   0.00    -0.00   0.00   0.00
    11   1    -0.23   0.07   0.52     0.00  -0.00  -0.00    -0.00   0.00   0.00
    12   1     0.06  -0.32   0.21     0.00  -0.00   0.00    -0.00  -0.00   0.00
    13   1    -0.05   0.01  -0.02     0.00   0.00   0.00    -0.00  -0.00   0.00
    14   1     0.11  -0.37   0.25    -0.00   0.00  -0.00    -0.00  -0.00   0.00
    15   1    -0.24   0.06   0.49    -0.00  -0.00  -0.00     0.00   0.00  -0.00

 -------------------
 - Thermochemistry -
 -------------------
 Temperature   298.150 Kelvin.  Pressure   1.00000 Atm.
 Atom     1 has atomic number  8 and mass  15.99491
 Atom     2 has atomic number  1 and mass   1.00783
 Atom     3 has atomic number  6 and mass  12.00000
 Atom     4 has atomic number  1 and mass   1.00783
 Atom     5 has atomic number  6 and mass  12.00000
 Atom     6 has atomic number  6 and mass  12.00000
 Atom     7 has atomic number  8 and mass  15.99491
 Atom     8 has atomic number  8 and mass  15.99491
 Atom     9 has atomic number  6 and mass  12.00000
 Atom    10 has atomic number  6 and mass  12.00000
 Atom    11 has atomic number  1 and mass   1.00783
 Atom    12 has atomic number  1 and mass   1.00783
 Atom    13 has atomic number  1 and mass   1.00783
 Atom    14 has atomic number  1 and mass   1.00783
 Atom    15 has atomic number  1 and mass   1.00783
 Molecular mass:   115.03952 amu.
 Principal axes and moments of inertia in atomic units:
                           1         2         3
     Eigenvalues --   479.453531374.975001496.91593
           X            0.99993   0.01164   0.00001
           Y           -0.01159   0.99568   0.09216
           Z            0.00107  -0.09216   0.99574
 This molecule is an asymmetric top.
 Rotational symmetry number  1.
 Warning -- assumption of classical behavior for rotation
           may cause significant error
 Rotational temperatures (Kelvin)      0.18065     0.06299     0.05786
 Rotational constants (GHZ):           3.76416     1.31256     1.20564
    3 imaginary frequencies ignored.
 Zero-point vibrational energy     292946.4 (Joules/Mol)
                                   70.01587 (Kcal/Mol)
 Warning -- explicit consideration of  10 degrees of freedom as
           vibrations may cause significant error
 Vibrational temperatures:     42.33    73.96   197.78   275.17   322.63
          (Kelvin)            390.10   446.12   528.65   622.72   821.11
                              895.54  1033.84  1037.77  1174.19  1285.00
                             1299.79  1361.35  1589.32  1666.06  1766.80
                             1901.24  1966.93  2072.71  2099.33  2196.43
                             2211.13  2223.37  2742.48  2838.90  4473.08
                             4517.56  4590.83  4591.69  4623.01  5029.34
                             5558.47
 
 Zero-point correction=                           0.111577 (Hartree/Particle)
 Thermal correction to Energy=                    0.120238
 Thermal correction to Enthalpy=                  0.121182
 Thermal correction to Gibbs Free Energy=         0.076175
 Sum of electronic and zero-point Energies=           -419.848084
 Sum of electronic and thermal Energies=              -419.839423
 Sum of electronic and thermal Enthalpies=            -419.838479
 Sum of electronic and thermal Free Energies=         -419.883486
 
                     E (Thermal)             CV                S
                      KCal/Mol        Cal/Mol-Kelvin    Cal/Mol-Kelvin
 Total                   75.450             28.906             94.724
 Electronic               0.000              0.000              1.377
 Translational            0.889              2.981             40.136
 Rotational               0.889              2.981             28.380
 Vibrational             73.673             22.944             24.831
 Vibration     1          0.593              1.984              5.868
 Vibration     2          0.596              1.977              4.763
 Vibration     3          0.614              1.916              2.839
 Vibration     4          0.634              1.852              2.216
 Vibration     5          0.649              1.804              1.925
 Vibration     6          0.675              1.726              1.589
 Vibration     7          0.699              1.655              1.362
 Vibration     8          0.740              1.539              1.090
 Vibration     9          0.794              1.399              0.850
 Vibration    10          0.927              1.095              0.503
                       Q            Log10(Q)             Ln(Q)
 Total Bot       0.915904D-35        -35.038150        -80.678322
 Total V=0       0.192240D+17         16.283843         37.494935
 Vib (Bot)       0.265540D-48        -48.575870       -111.850073
 Vib (Bot)    1  0.703791D+01          0.847444          1.951311
 Vib (Bot)    2  0.402096D+01          0.604330          1.391520
 Vib (Bot)    3  0.148019D+01          0.170317          0.392169
 Vib (Bot)    4  0.104600D+01          0.019530          0.044970
 Vib (Bot)    5  0.880526D+00         -0.055258         -0.127236
 Vib (Bot)    6  0.712378D+00         -0.147290         -0.339147
 Vib (Bot)    7  0.609817D+00         -0.214800         -0.494596
 Vib (Bot)    8  0.496356D+00         -0.304206         -0.700461
 Vib (Bot)    9  0.401692D+00         -0.396106         -0.912069
 Vib (Bot)   10  0.269489D+00         -0.569458         -1.311226
 Vib (V=0)       0.557345D+03          2.746124          6.323184
 Vib (V=0)    1  0.755565D+01          0.878272          2.022295
 Vib (V=0)    2  0.455193D+01          0.658195          1.515550
 Vib (V=0)    3  0.206236D+01          0.314364          0.723849
 Vib (V=0)    4  0.165936D+01          0.219940          0.506430
 Vib (V=0)    5  0.151258D+01          0.179719          0.413819
 Vib (V=0)    6  0.137033D+01          0.136827          0.315055
 Vib (V=0)    7  0.128859D+01          0.110115          0.253550
 Vib (V=0)    8  0.120454D+01          0.080819          0.186094
 Vib (V=0)    9  0.114137D+01          0.057427          0.132230
 Vib (V=0)   10  0.106800D+01          0.028571          0.065788
 Electronic      0.200000D+01          0.301030          0.693147
 Translational   0.484981D+08          7.685724         17.697035
 Rotational      0.355603D+06          5.550965         12.781569
 ***** Axes restored to original set *****
 -------------------------------------------------------------------
 Center     Atomic                   Forces (Hartrees/Bohr)
 Number     Number              X              Y              Z
 -------------------------------------------------------------------
      1        8           0.007398451   -0.036563641   -0.014800298
      2        1          -0.010636039    0.005711990    0.012352556
      3        6          -0.010808206   -0.010328923   -0.003595357
      4        1          -0.000524688    0.000174729   -0.000330726
      5        6           0.019761814    0.041214248    0.009075418
      6        6          -0.041937651    0.016548943   -0.030181749
      7        8           0.014609169   -0.017355617    0.044302085
      8        8           0.002330396    0.001379581   -0.015332320
      9        6           0.017845856   -0.001597615   -0.003536430
     10        6           0.000185236    0.000089633   -0.000005338
     11        1           0.000443404   -0.000155264   -0.000590457
     12        1           0.000669599   -0.001213977    0.001036494
     13        1           0.001348647    0.000337381    0.000526131
     14        1          -0.000383242    0.000995745   -0.000466673
     15        1          -0.000302746    0.000762789    0.001546665
 -------------------------------------------------------------------
 Cartesian Forces:  Max     0.044302085 RMS     0.015147024

 GradGradGradGradGradGradGradGradGradGradGradGradGradGradGradGradGradGrad
 Berny optimization.
 Search for a local minimum.
 Step number   1 out of a maximum of    2
 All quantities printed in internal units (Hartrees-Bohrs-Radians)
 Second derivative matrix not updated -- analytic derivatives used.
 ITU=  0
     Eigenvalues ---   -0.19001  -0.01126  -0.00327   0.00025   0.00057
     Eigenvalues ---    0.00126   0.00463   0.00589   0.01672   0.01820
     Eigenvalues ---    0.03245   0.03389   0.03870   0.04719   0.06117
     Eigenvalues ---    0.06771   0.07717   0.08803   0.10547   0.11422
     Eigenvalues ---    0.12799   0.14919   0.17651   0.18333   0.21451
     Eigenvalues ---    0.25026   0.29761   0.42674   0.49796   0.63660
     Eigenvalues ---    0.71096   0.77818   0.80511   0.88775   0.94801
     Eigenvalues ---    0.96134   1.02025   1.87318   2.11211
 Eigenvalue     1 is  -1.90D-01 should be greater than     0.000000 Eigenvector:
                          Y5        Y1        Y3        Z5        X1
   1                    0.79807  -0.54217  -0.16851   0.10511  -0.08517
                          X3        Y4        Z2        X2        Z1
   1                    0.08198   0.06543  -0.05440   0.04833  -0.03714
 Eigenvalue     2 is  -1.13D-02 should be greater than     0.000000 Eigenvector:
                          X2        Z2        X1        Y2        Z1
   1                    0.65101   0.62308  -0.23974  -0.21609  -0.19757
                          Y7        Y3        Z5        Y1        Z14
   1                    0.13647  -0.07145  -0.05116   0.04842   0.04305
 Eigenvalue     3 is  -3.27D-03 should be greater than     0.000000 Eigenvector:
                          Y7        Y15       Z4        Y8        Z1
   1                    0.57209  -0.26345  -0.25904  -0.25876   0.23947
                          X2        Z12       Z3        Z14       X7
   1                   -0.22022  -0.21800  -0.18222   0.16443   0.16375
 Quadratic step=7.057D-01 exceeds max=3.000D-01 adjusted using Lamda=-2.585D-02.
 Angle between NR and scaled steps=  48.90 degrees.
 Angle between quadratic step and forces=  47.97 degrees.
 Linear search not attempted -- first point.
 B after Tr=    -0.002063   -0.002957    0.001451
         Rot=    1.000000   -0.000556   -0.000185    0.000288 Ang=  -0.07 deg.
 Variable       Old X    -DE/DX   Delta X   Delta X   Delta X     New X
                                 (Linear)    (Quad)   (Total)
    X1       -2.56703   0.00740   0.00000   0.00473   0.00439  -2.56263
    Y1        3.05717  -0.03656   0.00000  -0.17706  -0.17874   2.87843
    Z1        0.16502  -0.01480   0.00000   0.00715   0.01275   0.17777
    X2       -3.73121  -0.01064   0.00000  -0.00068  -0.00020  -3.73142
    Y2        3.36648   0.00571   0.00000   0.04840   0.04588   3.41236
    Z2        1.53877   0.01235   0.00000  -0.00175   0.00487   1.54364
    X3       -5.13647  -0.01081   0.00000  -0.02466  -0.02756  -5.16403
    Y3       -0.91064  -0.01033   0.00000   0.00726   0.00822  -0.90241
    Z3       -0.84429  -0.00360   0.00000  -0.01229  -0.00993  -0.85423
    X4       -7.07554  -0.00052   0.00000  -0.02770  -0.03092  -7.10646
    Y4       -1.05741   0.00017   0.00000  -0.05266  -0.04999  -1.10740
    Z4       -1.37191  -0.00033   0.00000  -0.01988  -0.01703  -1.38895
    X5       -2.94524   0.01976   0.00000  -0.00974  -0.01192  -2.95716
    Y5       -0.27447   0.04121   0.00000   0.20057   0.19955  -0.07492
    Z5       -0.23944   0.00908   0.00000   0.02801   0.03047  -0.20896
    X6       -0.31022  -0.04194   0.00000  -0.05041  -0.05290  -0.36312
    Y6       -1.01255   0.01655   0.00000   0.00755   0.00433  -1.00822
    Z6        0.42693  -0.03018   0.00000  -0.00688  -0.00642   0.42051
    X7        0.30925   0.01461   0.00000  -0.00284  -0.00495   0.30430
    Y7       -1.69388  -0.01736   0.00000  -0.00660  -0.01254  -1.70642
    Z7        2.49325   0.04430   0.00000   0.03022   0.02966   2.52292
    X8        1.20504   0.00233   0.00000   0.00098  -0.00203   1.20300
    Y8       -0.64314   0.00138   0.00000  -0.01715  -0.01907  -0.66221
    Z8       -1.53179  -0.01533   0.00000  -0.02255  -0.02227  -1.55407
    X9        3.87990   0.01785   0.00000   0.04765   0.04475   3.92465
    Y9       -0.80376  -0.00160   0.00000  -0.00537  -0.00945  -0.81320
    Z9       -1.01992  -0.00354   0.00000  -0.00899  -0.00989  -1.02981
   X10        4.80065   0.00019   0.00000   0.01374   0.01269   4.81334
   Y10        1.59373   0.00009   0.00000   0.00864   0.00264   1.59637
   Z10        0.24883  -0.00001   0.00000  -0.00313  -0.00168   0.24714
   X11        4.72848   0.00044   0.00000   0.02783   0.02408   4.75256
   Y11       -1.06493  -0.00016   0.00000  -0.00180  -0.00428  -1.06921
   Z11       -2.87493  -0.00059   0.00000  -0.01671  -0.01820  -2.89313
   X12        4.23400   0.00067   0.00000   0.03106   0.02763   4.26163
   Y12       -2.46854  -0.00121   0.00000  -0.00326  -0.00883  -2.47737
   Z12        0.14172   0.00104   0.00000   0.00271  -0.00016   0.14156
   X13        6.84505   0.00135   0.00000   0.01620   0.01521   6.86026
   Y13        1.49749   0.00034   0.00000   0.02894   0.02145   1.51895
   Z13        0.50880   0.00053   0.00000   0.00945   0.01006   0.51886
   X14        4.35442  -0.00038   0.00000   0.00027  -0.00026   4.35416
   Y14        3.23541   0.00100   0.00000   0.00773   0.00329   3.23870
   Z14       -0.91428  -0.00047   0.00000  -0.00479  -0.00135  -0.91563
   X15        3.91594  -0.00030   0.00000   0.00224   0.00201   3.91794
   Y15        1.82313   0.00076   0.00000   0.00506  -0.00248   1.82064
   Z15        2.09542   0.00155   0.00000  -0.00292  -0.00089   2.09454
         Item               Value     Threshold  Converged?
 Maximum Force            0.044302     0.000450     NO 
 RMS     Force            0.015147     0.000300     NO 
 Maximum Displacement     0.199549     0.001800     NO 
 RMS     Displacement     0.044609     0.001200     NO 
 Predicted change in Energy=-2.343999D-02
 GradGradGradGradGradGradGradGradGradGradGradGradGradGradGradGradGradGrad


 ----------------------------------------------------------------------

 Electric dipole moment (input orientation):
 (Debye = 10**-18 statcoulomb cm , SI units = C m)
                  (au)            (Debye)         (10**-30 SI)
   Tot        0.479056D+00      0.121764D+01      0.406161D+01
   x         -0.335231D+00     -0.852071D+00     -0.284220D+01
   y         -0.256832D+00     -0.652802D+00     -0.217751D+01
   z         -0.226169D+00     -0.574864D+00     -0.191754D+01

 Dipole polarizability, Alpha (input orientation).
 (esu units = cm**3 , SI units = C**2 m**2 J**-1)
 Alpha(0;0):
               (au)            (10**-24 esu)      (10**-40 SI)
   iso        0.694835D+02      0.102964D+02      0.114563D+02
   aniso      0.280233D+02      0.415262D+01      0.462042D+01
   xx         0.847836D+02      0.125636D+02      0.139789D+02
   yx         0.690010D+01      0.102249D+01      0.113767D+01
   yy         0.667753D+02      0.989508D+01      0.110098D+02
   zx         0.332306D+01      0.492427D+00      0.547898D+00
   zy         0.176711D+01      0.261858D+00      0.291357D+00
   zz         0.568916D+02      0.843047D+01      0.938016D+01

 ----------------------------------------------------------------------

 Dipole orientation:
     8         -2.60771921         -3.02599076          0.07941532
     1         -4.42479403         -2.83510369          0.07968481
     6         -2.60499208         -1.02881885          4.48117682
     1         -3.49243859         -1.68773532          6.16587489
     6         -1.72804005         -0.65807286          2.32119208
     6         -0.24773748          0.96467867          0.55837805
     8         -1.10664633          2.77865448         -0.48537929
     8          2.04000202          0.00343920          0.22472647
     6          3.50784524          1.08880515         -1.80262256
     6          2.62348896          0.07427471         -4.33127489
     1          5.43879902          0.52073081         -1.38064037
     1          3.35553460          3.14156567         -1.70630569
     1          3.83044639          0.81210599         -5.83303305
     1          2.72123100         -1.98415957         -4.35003436
     1          0.68240535          0.65419872         -4.70696631

 Electric dipole moment (dipole orientation):
 (Debye = 10**-18 statcoulomb cm , SI units = C m)
                  (au)            (Debye)         (10**-30 SI)
   Tot        0.479056D+00      0.121764D+01      0.406161D+01
   x          0.000000D+00      0.000000D+00      0.000000D+00
   y          0.000000D+00      0.000000D+00      0.000000D+00
   z          0.479056D+00      0.121764D+01      0.406161D+01

 Dipole polarizability, Alpha (dipole orientation).
 (esu units = cm**3 , SI units = C**2 m**2 J**-1)
 Alpha(0;0):
               (au)            (10**-24 esu)      (10**-40 SI)
   iso        0.694835D+02      0.102964D+02      0.114563D+02
   aniso      0.280233D+02      0.415262D+01      0.462042D+01
   xx         0.651353D+02      0.965205D+01      0.107394D+02
   yx         0.396687D+01      0.587829D+00      0.654048D+00
   yy         0.616570D+02      0.913663D+01      0.101659D+02
   zx        -0.114576D+02     -0.169784D+01     -0.188911D+01
   zy         0.750123D+00      0.111157D+00      0.123679D+00
   zz         0.816582D+02      0.121005D+02      0.134636D+02

 ----------------------------------------------------------------------
 1\1\GINC-AJ\Freq\UM062X\6-31+G\C5H7O3(2)\AAYUSH\20-Jun-2025\0\\# freq 
 6-31+g m062x\\Title Card Required\\0,2\O,-1.358412,1.617783,0.087325\H
 ,-1.974473,1.781465,0.814283\C,-2.718102,-0.481888,-0.446781\H,-3.7442
 17,-0.559558,-0.725984\C,-1.558555,-0.145243,-0.126705\C,-0.164163,-0.
 535819,0.22592\O,0.16365,-0.896364,1.319372\O,0.637678,-0.340333,-0.81
 0589\C,2.053157,-0.42533,-0.539719\C,2.540396,0.843365,0.131674\H,2.50
 2206,-0.563536,-1.521348\H,2.240535,-1.306297,0.074994\H,3.622246,0.79
 2439,0.269245\H,2.304262,1.712104,-0.483818\H,2.072226,0.964758,1.1088
 51\\Version=ES64L-G16RevA.03\State=2-A\HF=-419.9596611\S2=0.78375\S2-1
 =0.\S2A=0.750571\RMSD=5.961e-09\RMSF=1.515e-02\ZeroPoint=0.1115774\The
 rmal=0.1202377\Dipole=-0.3352306,-0.2568322,-0.226169\DipoleDeriv=-0.4
 525862,0.1722395,-0.1730408,0.0345442,-0.4566355,-0.0204675,-0.172405,
 -0.0895888,-0.3286681,0.174442,-0.0923384,0.117464,-0.0153776,0.293559
 2,0.0136939,0.1409118,0.052862,0.2046683,-0.2830782,0.1803245,-0.00567
 98,-0.0083837,-0.1468745,-0.0012443,0.0331717,0.0565271,-0.1694416,0.2
 584136,0.0113691,0.0028109,0.055725,0.2415347,0.0097109,-0.0048209,-0.
 006815,0.260253,-0.1635035,-0.17334,-0.0043866,0.0987362,-0.012831,0.0
 541609,-0.0533862,0.0317598,-0.0410436,1.9477117,-0.2439024,-0.1566684
 ,-0.1414452,0.5693469,-0.3668559,-0.5218262,-0.4555439,1.5766771,-0.77
 68065,0.1436573,-0.1640504,0.0459776,-0.4631246,0.2310036,0.062875,0.3
 021229,-0.9949503,-1.5516615,-0.0708431,0.37486,-0.068263,-0.3858912,0
 .0412397,0.4926699,0.0939668,-0.8448363,0.8993459,0.0750783,-0.0981294
 ,0.0136648,0.3184725,0.0717833,0.0341988,0.0126126,0.2863476,-0.086609
 7,-0.0254852,0.0359324,-0.0500693,-0.0760888,-0.0841049,-0.0315374,-0.
 0536078,-0.0172796,-0.0110473,-0.0023823,0.0316813,-0.0063168,0.073929
 5,-0.0303571,0.0757237,-0.0559828,-0.0719451,-0.0099723,-0.035832,0.01
 99663,0.0259763,-0.0567553,0.0329801,-0.0668715,0.0739773,0.0500131,-0
 .1451376,-0.009311,-0.0271035,0.0183896,0.0826293,0.002731,-0.026775,-
 0.0116497,0.1108014,0.110251,0.0499935,-0.0411157,0.0026735,-0.0381072
 ,0.0443496,-0.0293611,0.0815612,0.0161792,0.0902386,0.020772,0.0874597
 ,-0.0058316,0.056836,0.0013768,0.0674322,-0.0322017,-0.036775\Polar=84
 .7836079,6.9001041,66.7753164,3.3230594,1.7671074,56.8916237\Quadrupol
 e=10.951149,-4.7684577,-6.1826913,0.5291201,-1.3800868,4.0973963\PG=C0
 1 [X(C5H7O3)]\NImag=3\\0.25004279,-0.05765236,0.00858030,-0.26488921,0
 .06557082,0.31815635,-0.21592571,0.06144706,0.26294046,0.21550187,0.03
 945638,-0.02930233,-0.05625700,-0.05302007,0.04191771,0.25848317,-0.07
 865657,-0.29754686,-0.25968824,0.07210250,0.29738387,-0.01174277,-0.08
 093131,-0.00904194,0.00259954,-0.00101859,-0.00332142,1.16668876,-0.02
 105377,-0.06426621,-0.01133074,-0.00002728,-0.00111465,-0.00123073,0.2
 1019457,0.06822601,-0.00707200,-0.02877135,0.00329498,0.00046785,0.000
 52900,0.00033837,0.30567466,0.05597562,0.13136235,0.00043126,0.0011869
 5,0.00023339,0.00002667,-0.00020677,-0.00000827,-0.40002751,-0.0366368
 8,-0.10252831,0.39032704,0.00127052,0.00359895,0.00073728,-0.00071004,
 -0.00007396,-0.00032182,-0.01954541,-0.00329425,-0.00379240,0.03140906
 ,0.00601832,-0.00021737,0.00117746,-0.00040132,0.00006598,-0.00025277,
 -0.00020396,-0.10134651,-0.00805635,-0.05306489,0.10231066,0.00791545,
 0.04353373,-0.02225241,0.06656384,0.01311875,-0.00142741,0.01514416,0.
 00369139,-0.75340885,-0.15974853,-0.19503292,0.00907938,-0.01355464,0.
 00085131,1.04943137,0.02584877,0.11727345,0.00486838,-0.00837403,-0.00
 776183,0.00829168,-0.08305355,0.00604513,-0.01666228,0.00449189,-0.008
 81095,0.00005344,0.01649403,-0.08506613,0.01628381,0.04292809,-0.02798
 224,-0.00526568,-0.01666728,-0.00101775,-0.18911449,-0.03614751,-0.084
 15104,0.00143345,-0.00438826,0.00476233,0.21845420,-0.02002557,0.19945
 846,-0.00199413,0.00458171,-0.00557986,-0.00152503,0.00001081,0.003343
 20,0.00184067,0.00521791,-0.00144039,-0.00056982,0.00096212,-0.0017719
 1,-0.20930797,0.03273859,-0.03121023,0.64212599,0.01114989,-0.04164848
 ,-0.00219593,-0.00011412,-0.00399428,-0.00039771,-0.03222884,-0.008200
 95,-0.00874655,-0.00036698,0.00369626,-0.00046750,0.05431603,-0.037463
 70,0.01447354,-0.08744272,0.27845367,-0.00437937,-0.00447575,-0.000323
 13,0.00382341,-0.00118545,0.00209375,-0.00611410,-0.00069268,0.0004743
 4,-0.00131370,0.00035323,0.00565253,-0.02104118,0.00766777,-0.06665652
 ,0.09086270,-0.25130631,0.98769995,-0.00005756,0.00292628,0.00311496,-
 0.00008087,0.00031949,-0.00099918,-0.00164356,0.00085580,0.00029553,0.
 00003412,-0.00019861,0.00150535,-0.01966956,0.01590886,-0.04747145,-0.
 15449121,0.07410070,-0.20620289,0.14974977,0.00041522,0.00318934,-0.00
 023081,-0.00015159,0.00029073,0.00010100,0.00342717,0.00123271,0.00131
 889,0.00016532,-0.00064189,-0.00064920,0.01417929,0.00650566,0.0196720
 0,0.06747585,-0.12790921,0.21496997,-0.08185219,0.10010061,0.00077634,
 0.00166379,0.00450969,-0.00150524,0.00125194,-0.00167006,0.00095695,0.
 00120602,0.00127548,-0.00011019,-0.00018918,0.00011531,-0.02758552,0.0
 1291487,-0.02397623,-0.19773176,0.21553793,-0.69970131,0.21054620,-0.2
 6427839,0.81900146,0.00028718,0.00254213,0.00035903,0.00073218,-0.0009
 4296,-0.00150823,-0.00503592,0.00091065,-0.00057259,0.00087828,0.00034
 137,-0.00134383,-0.05404422,-0.00108035,0.03491870,-0.21515805,-0.0223
 0826,0.13949875,0.02433050,-0.00534464,0.02481983,0.54529789,0.0014751
 2,0.00077680,-0.00133143,0.00108041,-0.00012742,0.00008141,0.00157342,
 0.00086518,-0.00025704,-0.00005140,-0.00036847,0.00016044,0.00612632,0
 .00597945,-0.00060918,-0.01640839,-0.06629624,0.03828667,-0.01033897,0
 .02211281,0.03155033,0.00804518,0.09547968,0.00155335,0.00047253,0.000
 32509,-0.00085445,0.00033436,0.00051129,0.00151678,0.00046417,0.000108
 93,-0.00002031,-0.00028960,-0.00061198,0.00382968,0.00071327,0.0023431
 1,0.10159252,0.03646143,-0.23154381,0.03412514,0.03125161,-0.09905685,
 -0.12510812,-0.07666039,0.40860872,0.00091547,-0.00106704,-0.00062113,
 0.00008105,0.00029896,0.00028387,0.00144345,0.00006036,0.00034749,-0.0
 0029971,-0.00001589,0.00006161,0.00283247,-0.00283402,0.00011594,-0.06
 089551,-0.00218286,0.02797465,-0.00008829,0.00567032,-0.01766121,-0.19
 755085,0.01231218,-0.01117712,0.48454838,-0.00111046,0.00192780,0.0001
 0122,-0.00014497,0.00014213,0.00007481,0.00149668,0.00054802,0.0004144
 9,0.00001442,-0.00011627,0.00011176,0.00099068,0.00342957,0.00089474,-
 0.00595157,0.00453822,-0.00911947,0.00256397,-0.00535189,0.00131228,0.
 01583941,-0.06579056,0.01178462,-0.02369497,0.56572683,-0.00070178,-0.
 00001463,0.00002277,-0.00003331,0.00021421,0.00011387,0.00075144,-0.00
 025364,0.00036393,-0.00002141,-0.00001348,0.00025157,0.00448038,0.0022
 0934,-0.00322893,0.04201551,-0.00491075,0.00473761,0.00174678,-0.00084
 274,-0.00217425,-0.04573379,0.01080816,-0.08605552,-0.06633730,-0.0389
 7768,0.63635293,-0.00025992,0.00065221,0.00000255,-0.00001509,-0.00006
 962,-0.00008068,0.00013959,0.00012491,0.00006735,0.00008313,-0.0000047
 3,0.00000025,-0.00021281,0.00101182,0.00069108,0.00212965,-0.00123242,
 -0.00954128,0.00073244,-0.00146208,0.00278198,-0.03870190,-0.03603548,
 -0.01855332,-0.08294816,-0.02017378,-0.00700976,0.59111328,0.00011910,
 -0.00015126,0.00010055,-0.00010999,-0.00003887,0.00002201,0.00019342,-
 0.00005838,0.00005947,-0.00000583,-0.00000506,-0.00001143,-0.00045417,
 -0.00005486,-0.00015916,-0.00034049,-0.00062000,0.00407490,-0.00122486
 ,-0.00023216,-0.00165761,-0.00016894,0.00524840,-0.00245335,-0.0321528
 8,-0.18539956,-0.04927607,-0.03045486,0.53413962,-0.00015068,0.0001224
 2,-0.00037378,0.00019142,-0.00010287,0.00006280,0.00011738,0.00006822,
 0.00002264,0.00001350,-0.00002079,0.00000314,-0.00043268,0.00028143,0.
 00010217,0.00158361,0.00101294,0.00235309,-0.00122147,-0.00156221,-0.0
 0046577,-0.00818342,-0.00534676,-0.00102533,-0.01209866,-0.04812342,-0
 .11414106,-0.01559823,-0.03639723,0.58356923,0.00008057,0.00010869,-0.
 00001130,0.00001022,-0.00006163,-0.00006275,-0.00050154,0.00005468,-0.
 00013973,0.00003497,0.00003721,-0.00006389,-0.00116211,-0.00064685,0.0
 0101815,-0.00458843,0.00353219,-0.00476724,0.00158096,-0.00044301,0.00
 088247,-0.03521757,0.00184721,0.03442505,-0.08726508,0.01416029,0.0947
 4859,0.00697980,-0.00214608,-0.01151332,0.11514343,0.00002051,0.000063
 04,0.00006101,-0.00002620,-0.00001272,-0.00000276,0.00001471,0.0000160
 3,0.00001913,0.00000572,0.00000457,0.00000839,0.00021518,0.00004578,-0
 .00012255,0.00000115,-0.00045919,0.00252496,-0.00156367,0.00055253,-0.
 00035649,0.00297278,0.00091126,-0.00289535,0.01384229,-0.05780038,-0.0
 2704909,0.01117077,-0.00499845,-0.02939397,-0.01333384,0.05927747,0.00
 014758,-0.00007451,0.00004733,-0.00002245,0.00000211,-0.00002339,-0.00
 002029,0.00003289,-0.00002035,-0.00000519,0.00000029,-0.00003378,-0.00
 013028,-0.00039709,0.00025047,-0.00334297,0.00064353,-0.00031599,0.001
 32122,-0.00039173,0.00077684,-0.00818474,0.00192053,0.00799547,0.10956
 663,-0.02843994,-0.28681722,0.00460480,-0.00118570,-0.01168532,-0.1098
 9687,0.03367126,0.30339285,0.,-0.00034833,0.00008697,-0.00002591,-0.00
 000951,-0.00003904,-0.00033006,0.00001698,-0.00003417,0.00003009,0.000
 03461,-0.00005449,0.00002770,-0.00058110,0.00019345,0.00247622,0.00349
 347,-0.00840963,0.00063297,-0.00116601,0.00370157,-0.02901068,0.031124
 32,-0.02193254,-0.05553141,0.02822448,-0.01656592,0.00422123,-0.010465
 50,0.00674200,0.00463030,-0.01164501,0.00744660,0.07296165,0.00001899,
 -0.00000930,0.00000041,0.00003671,-0.00000283,-0.00002550,-0.00010770,
 -0.00004670,-0.00005015,-0.00000551,0.00000671,0.00002279,-0.00002129,
 -0.00002593,-0.00024925,-0.00015981,-0.00034533,0.00351075,-0.00253017
 ,0.00061733,-0.00100701,0.00339820,0.00191367,0.00013003,0.03728609,-0
 .23102091,0.12457506,0.00300230,-0.02342932,0.01603271,-0.00130800,0.0
 0476057,-0.00372526,-0.03782714,0.24909034,-0.00007666,0.00022538,0.00
 003180,-0.00001379,-0.00003348,-0.00000495,-0.00005291,0.00000379,0.00
 001865,0.00002600,0.00001010,0.00000742,-0.00012059,0.00038893,-0.0000
 4754,0.00267645,-0.00006413,-0.00018616,0.00135520,-0.00086743,-0.0006
 5025,-0.00689241,0.00297718,-0.00263133,-0.02544704,0.12779224,-0.1424
 3688,0.00278437,-0.01615906,0.00984012,-0.00457964,0.02462885,-0.01497
 276,0.03073337,-0.13682181,0.15103177,-0.00024181,0.00010125,-0.000050
 66,0.00001118,-0.00002919,0.00001054,-0.00006870,0.00000605,0.00000397
 ,0.00002915,0.00001822,0.00000602,0.00001945,0.00016224,0.00001449,0.0
 0161855,0.00059232,-0.00126199,-0.00008483,-0.00042677,0.00041887,-0.0
 0032111,-0.00283063,-0.00029140,-0.01109971,0.00400934,0.00029474,-0.3
 1837870,0.01275719,-0.03427756,0.00029217,-0.00009379,-0.00038791,0.00
 015788,-0.00046253,0.00021094,0.34808061,0.00009329,0.00020155,0.00010
 694,0.00003015,0.00001412,-0.00007230,-0.00010365,0.00004097,-0.000014
 47,0.00001051,-0.00001033,-0.00000737,0.00001717,0.00024157,0.00022679
 ,0.00080236,-0.00016522,-0.00283014,0.00030660,-0.00034473,0.00095587,
 -0.00583250,-0.00551972,-0.00234690,-0.02897985,0.00286338,-0.00238569
 ,0.01526514,-0.05008720,0.00146846,0.00060667,0.00117598,-0.00002929,0
 .00058033,0.00048197,0.00113290,-0.01385546,0.05172758,0.00007169,0.00
 004128,0.00014947,-0.00005193,0.00000806,-0.00003441,-0.00004945,-0.00
 000344,-0.00000895,0.00000619,0.00000281,-0.00000022,-0.00003594,-0.00
 000278,0.00006699,0.00032528,-0.00007326,-0.00252208,0.00046773,0.0002
 6481,0.00102161,-0.00350933,-0.00363366,-0.00021941,-0.01502494,0.0025
 4635,-0.00217093,-0.03290216,0.00087302,-0.05213590,0.00038731,0.00061
 093,-0.00017099,0.00023391,0.00028318,0.00045410,0.03848828,0.00028542
 ,0.05298764,0.00022541,0.00002109,0.00002843,0.00010232,0.00004043,-0.
 00005995,-0.00006077,-0.00000031,-0.00002284,-0.00002835,-0.00001861,-
 0.00000070,0.00012249,0.00002713,-0.00004426,-0.00050769,-0.00068382,0
 .00162701,-0.00045721,0.00001900,-0.00074685,0.00203946,0.00083773,0.0
 0045195,0.00117585,-0.01236780,0.00546783,-0.06289081,0.05011369,-0.03
 410567,0.00006378,0.00084726,0.00021346,-0.00024554,-0.00215853,-0.001
 08373,-0.00633281,0.02757663,-0.01960592,0.06331909,0.00003951,0.00000
 748,-0.00000865,0.00005152,0.00002072,-0.00004826,-0.00007231,-0.00000
 411,-0.00002490,-0.00000507,-0.00000555,0.00000346,-0.00004149,-0.0000
 0975,0.00001395,-0.00008404,-0.00055398,0.00079193,-0.00018976,0.00023
 800,-0.00048747,0.00134633,0.00323754,0.00031842,0.00671152,-0.0279121
 5,0.01746104,0.04703314,-0.22180451,0.12471666,0.00021914,0.00111384,-
 0.00000513,-0.00194825,-0.00315512,-0.00357216,-0.00077298,-0.00003000
 ,0.00000027,-0.05164368,0.24544514,-0.00014659,-0.00013176,-0.00015607
 ,-0.00001739,0.00003197,0.00007172,0.00013163,-0.00000953,0.00001860,0
 .00000220,0.00001095,0.00000588,-0.00009890,-0.00019528,0.00003085,-0.
 00054292,0.00049568,-0.00028363,0.00056022,0.00034934,0.00028843,0.002
 09949,0.00112995,0.00018130,0.00251424,-0.01758907,0.00968539,-0.03444
 707,0.12767592,-0.14232042,0.00057675,0.00050595,0.00094600,-0.0017061
 8,-0.00303269,-0.00112315,0.00045263,0.00235494,-0.00261697,0.03890489
 ,-0.13596900,0.15116960,0.00049163,-0.00013217,0.00030957,-0.00006501,
 0.00008812,-0.00004441,0.00010766,0.00002487,-0.00001391,-0.00002871,-
 0.00002520,-0.00000250,-0.00002753,-0.00011343,-0.00001716,-0.00115324
 ,-0.00062459,-0.00075515,-0.00048770,-0.00050590,0.00045656,0.00147481
 ,0.00124298,0.00044279,0.00468204,-0.00385572,-0.01310201,-0.10199174,
 0.01434019,0.10893380,-0.00008147,-0.00242785,-0.00130958,0.00000554,0
 .00083840,0.00048043,-0.01368132,0.00348261,0.03119928,0.00347474,-0.0
 0064358,-0.00828300,0.10728027,-0.00009072,-0.00024112,-0.00019205,0.0
 0003245,0.00004346,0.00008226,0.00016140,0.00001118,0.00000254,-0.0000
 0544,0.00000192,-0.00000859,-0.00022659,-0.00032747,0.00015966,-0.0014
 0350,0.00096843,-0.00257039,0.00091653,-0.00035984,0.00158312,0.000281
 59,0.00157762,0.00271515,0.01474580,-0.00578424,-0.03154405,0.01117267
 ,-0.05250840,-0.02275559,-0.00262667,-0.00465035,-0.00202196,0.0005166
 6,0.00116484,0.00035869,0.00082474,-0.00058991,-0.00120300,-0.01261020
 ,0.00341244,0.02437264,-0.01168873,0.05728143,0.00031771,-0.00007720,0
 .00024593,-0.00003664,0.00002469,-0.00007430,-0.00008773,-0.00002608,-
 0.00003303,-0.00001801,-0.00001458,-0.00001577,0.00005228,-0.00010612,
 0.00004586,-0.00077923,-0.00046292,-0.00147864,0.00085666,0.00089488,0
 .00070589,-0.00065934,0.00092379,0.00107034,0.00750296,-0.00278294,-0.
 01450330,0.10720012,-0.02550625,-0.27380561,-0.00100359,-0.00221027,0.
 00063084,-0.00039589,0.00035674,0.00066916,-0.00363094,0.00115483,0.00
 520004,0.00897634,-0.00319016,-0.01589752,-0.11829470,0.03102158,0.297
 24011\\-0.00739845,0.03656364,0.01480030,0.01063604,-0.00571199,-0.012
 35256,0.01080821,0.01032892,0.00359536,0.00052469,-0.00017473,0.000330
 73,-0.01976181,-0.04121425,-0.00907542,0.04193765,-0.01654894,0.030181
 75,-0.01460917,0.01735562,-0.04430209,-0.00233040,-0.00137958,0.015332
 32,-0.01784586,0.00159761,0.00353643,-0.00018524,-0.00008963,0.0000053
 4,-0.00044340,0.00015526,0.00059046,-0.00066960,0.00121398,-0.00103649
 ,-0.00134865,-0.00033738,-0.00052613,0.00038324,-0.00099574,0.00046667
 ,0.00030275,-0.00076279,-0.00154666\\\@


 THERE IS NO CURE FOR BIRTH AND DEATH SAVE TO ENJOY THE INTERVAL.

                               -- GEORGE SANTAYANA
 Job cpu time:       0 days  0 hours 18 minutes 54.7 seconds.
 Elapsed time:       0 days  0 hours  0 minutes 47.3 seconds.
 File lengths (MBytes):  RWF=     59 Int=      0 D2E=      0 Chk=      8 Scr=      1
 Normal termination of Gaussian 16 at Fri Jun 20 13:31:18 2025.
