 Entering Gaussian System, Link 0=g16
 Initial command:
 /opt/g16/l1.exe "/home/aayush/scratches/g16/Gau-3108.inp" -scrdir="/home/aayush/scratches/g16/"
 Entering Link 1 = /opt/g16/l1.exe PID=      3111.
  
 Copyright (c) 1988,1990,1992,1993,1995,1998,2003,2009,2016,
            Gaussian, Inc.  All Rights Reserved.
  
 This is part of the Gaussian(R) 16 program.  It is based on
 the Gaussian(R) 09 system (copyright 2009, Gaussian, Inc.),
 the Gaussian(R) 03 system (copyright 2003, Gaussian, Inc.),
 the Gaussian(R) 98 system (copyright 1998, Gaussian, Inc.),
 the Gaussian(R) 94 system (copyright 1995, Gaussian, Inc.),
 the Gaussian 92(TM) system (copyright 1992, Gaussian, Inc.),
 the Gaussian 90(TM) system (copyright 1990, Gaussian, Inc.),
 the Gaussian 88(TM) system (copyright 1988, Gaussian, Inc.),
 the Gaussian 86(TM) system (copyright 1986, Carnegie Mellon
 University), and the Gaussian 82(TM) system (copyright 1983,
 Carnegie Mellon University). Gaussian is a federally registered
 trademark of Gaussian, Inc.
  
 This software contains proprietary and confidential information,
 including trade secrets, belonging to Gaussian, Inc.
  
 This software is provided under written license and may be
 used, copied, transmitted, or stored only in accord with that
 written license.
  
 The following legend is applicable only to US Government
 contracts under FAR:
  
                    RESTRICTED RIGHTS LEGEND
  
 Use, reproduction and disclosure by the US Government is
 subject to restrictions as set forth in subparagraphs (a)
 and (c) of the Commercial Computer Software - Restricted
 Rights clause in FAR 52.227-19.
  
 Gaussian, Inc.
 340 Quinnipiac St., Bldg. 40, Wallingford CT 06492
  
  
 ---------------------------------------------------------------
 Warning -- This program may not be used in any manner that
 competes with the business of Gaussian, Inc. or will provide
 assistance to any competitor of Gaussian, Inc.  The licensee
 of this program is prohibited from giving any competitor of
 Gaussian, Inc. access to this program.  By using this program,
 the user acknowledges that Gaussian, Inc. is engaged in the
 business of creating and licensing software in the field of
 computational chemistry and represents and warrants to the
 licensee that it is not a competitor of Gaussian, Inc. and that
 it will not use this program in any manner prohibited above.
 ---------------------------------------------------------------
  

 Cite this work as:
 Gaussian 16, Revision A.03,
 M. J. Frisch, G. W. Trucks, H. B. Schlegel, G. E. Scuseria, 
 M. A. Robb, J. R. Cheeseman, G. Scalmani, V. Barone, 
 G. A. Petersson, H. Nakatsuji, X. Li, M. Caricato, A. V. Marenich, 
 J. Bloino, B. G. Janesko, R. Gomperts, B. Mennucci, H. P. Hratchian, 
 J. V. Ortiz, A. F. Izmaylov, J. L. Sonnenberg, D. Williams-Young, 
 F. Ding, F. Lipparini, F. Egidi, J. Goings, B. Peng, A. Petrone, 
 T. Henderson, D. Ranasinghe, V. G. Zakrzewski, J. Gao, N. Rega, 
 G. Zheng, W. Liang, M. Hada, M. Ehara, K. Toyota, R. Fukuda, 
 J. Hasegawa, M. Ishida, T. Nakajima, Y. Honda, O. Kitao, H. Nakai, 
 T. Vreven, K. Throssell, J. A. Montgomery, Jr., J. E. Peralta, 
 F. Ogliaro, M. J. Bearpark, J. J. Heyd, E. N. Brothers, K. N. Kudin, 
 V. N. Staroverov, T. A. Keith, R. Kobayashi, J. Normand, 
 K. Raghavachari, A. P. Rendell, J. C. Burant, S. S. Iyengar, 
 J. Tomasi, M. Cossi, J. M. Millam, M. Klene, C. Adamo, R. Cammi, 
 J. W. Ochterski, R. L. Martin, K. Morokuma, O. Farkas, 
 J. B. Foresman, and D. J. Fox, Gaussian, Inc., Wallingford CT, 2016.
 
 ******************************************
 Gaussian 16:  ES64L-G16RevA.03 25-Dec-2016
                 3-Aug-2025 
 ******************************************
 %nprocshared=24
 Will use up to   24 processors via shared memory.
 %mem=12GB
 %chk=ethyl_propiolate_ts1.chk
 --------------------------
 # ccsd(t)/6-311++g(d,p) sp
 --------------------------
 1/38=1,172=1/1;
 2/12=2,17=6,18=5,40=1/2;
 3/5=4,6=6,7=1111,11=9,25=1,30=1/1,2,3;
 4//1;
 5/5=2,38=5/2;
 8/6=4,9=120000,10=2/1,4;
 9/5=7,14=2/13;
 6/7=2,8=2,9=2,10=2/1;
 99/5=1,9=1/99;
 -------------------
 Title Card Required
 -------------------
 Symbolic Z-matrix:
 Charge =  0 Multiplicity = 2
 O                    -1.40145   1.72983   0.09024 
 H                    -2.03405   1.81981   0.82121 
 C                    -2.78893  -0.49143  -0.43818 
 H                    -3.81732  -0.54762  -0.70964 
 C                    -1.62483  -0.37749  -0.14662 
 C                    -0.22316  -0.56976   0.23368 
 O                     0.11294  -0.89775   1.33653 
 O                     0.58033  -0.36996  -0.80294 
 C                     1.99426  -0.45445  -0.53184 
 C                     2.48544   0.8199    0.12516 
 H                     2.44303  -0.60464  -1.51198 
 H                     2.18057  -1.32872   0.09295 
 H                     3.56742   0.76969   0.26191 
 H                     2.25049   1.68228  -0.49994 
 H                     2.01861   0.95172   1.10159 
 
                          Input orientation:                          
 ---------------------------------------------------------------------
 Center     Atomic      Atomic             Coordinates (Angstroms)
 Number     Number       Type             X           Y           Z
 ---------------------------------------------------------------------
      1          8           0       -1.401452    1.729825    0.090239
      2          1           0       -2.034055    1.819805    0.821214
      3          6           0       -2.788929   -0.491430   -0.438179
      4          1           0       -3.817321   -0.547619   -0.709644
      5          6           0       -1.624829   -0.377492   -0.146624
      6          6           0       -0.223159   -0.569764    0.233682
      7          8           0        0.112940   -0.897754    1.336533
      8          8           0        0.580329   -0.369963   -0.802936
      9          6           0        1.994262   -0.454445   -0.531835
     10          6           0        2.485440    0.819903    0.125157
     11          1           0        2.443031   -0.604642   -1.511980
     12          1           0        2.180574   -1.328718    0.092949
     13          1           0        3.567417    0.769689    0.261913
     14          1           0        2.250489    1.682277   -0.499939
     15          1           0        2.018614    0.951717    1.101585
 ---------------------------------------------------------------------
                    Distance matrix (angstroms):
                    1          2          3          4          5
     1  O    0.000000
     2  H    0.970880   0.000000
     3  C    2.671758   2.738195   0.000000
     4  H    3.415112   3.335905   1.065101   0.000000
     5  C    2.132319   2.435629   1.205452   2.270012   0.000000
     6  C    2.587868   3.055254   2.653433   3.715959   1.465019
     7  O    3.278842   3.501467   3.425718   4.444816   2.343132
     8  O    3.022305   3.777294   3.391121   4.402226   2.300766
     9  C    4.085203   4.819781   4.784251   5.815049   3.640347
    10  C    3.992131   4.680826   5.464056   6.503215   4.289747
    11  H    4.774609   5.600539   5.342216   6.311814   4.296892
    12  H    4.710160   5.310995   5.067456   6.101558   3.929799
    13  H    5.063694   5.726434   6.517951   7.563966   5.333137
    14  H    3.699628   4.485719   5.488584   6.467977   4.402905
    15  H    3.650359   4.154072   5.250335   6.291796   4.074248
                    6          7          8          9         10
     6  C    0.000000
     7  O    1.198674   0.000000
     8  O    1.326684   2.252630   0.000000
     9  C    2.348674   2.688251   1.442165   0.000000
    10  C    3.046221   3.169627   2.430347   1.515539   0.000000
    11  H    3.187024   3.691783   2.006857   1.088410   2.170563
    12  H    2.524629   2.450988   2.069446   1.090606   2.170381
    13  H    4.020373   3.983539   3.369778   2.145543   1.091741
    14  H    3.424737   3.820773   2.663256   2.152266   1.090704
    15  H    2.844944   2.665959   2.728132   2.155446   1.090281
                   11         12         13         14         15
    11  H    0.000000
    12  H    1.780159   0.000000
    13  H    2.509925   2.520951   0.000000
    14  H    2.508246   3.069608   1.774129   0.000000
    15  H    3.071336   2.498792   1.771150   1.775490   0.000000
 Stoichiometry    C5H7O3(2)
 Framework group  C1[X(C5H7O3)]
 Deg. of freedom    39
 Full point group                 C1      NOp   1
 Largest Abelian subgroup         C1      NOp   1
 Largest concise Abelian subgroup C1      NOp   1
                         Standard orientation:                         
 ---------------------------------------------------------------------
 Center     Atomic      Atomic             Coordinates (Angstroms)
 Number     Number       Type             X           Y           Z
 ---------------------------------------------------------------------
      1          8           0       -1.401452    1.729825    0.090239
      2          1           0       -2.034055    1.819805    0.821214
      3          6           0       -2.788929   -0.491430   -0.438179
      4          1           0       -3.817321   -0.547619   -0.709644
      5          6           0       -1.624829   -0.377492   -0.146624
      6          6           0       -0.223159   -0.569764    0.233682
      7          8           0        0.112940   -0.897754    1.336533
      8          8           0        0.580329   -0.369963   -0.802936
      9          6           0        1.994262   -0.454445   -0.531835
     10          6           0        2.485440    0.819903    0.125157
     11          1           0        2.443031   -0.604642   -1.511980
     12          1           0        2.180574   -1.328718    0.092949
     13          1           0        3.567417    0.769689    0.261913
     14          1           0        2.250489    1.682277   -0.499939
     15          1           0        2.018614    0.951717    1.101585
 ---------------------------------------------------------------------
 Rotational constants (GHZ):           3.5364997           1.3077040           1.1805098
 Standard basis: 6-311++G(d,p) (5D, 7F)
 There are   233 symmetry adapted cartesian basis functions of A   symmetry.
 There are   225 symmetry adapted basis functions of A   symmetry.
   225 basis functions,   351 primitive gaussians,   233 cartesian basis functions
    31 alpha electrons       30 beta electrons
       nuclear repulsion energy       361.1707635176 Hartrees.
 NAtoms=   15 NActive=   15 NUniq=   15 SFac= 1.00D+00 NAtFMM=   60 NAOKFM=F Big=F
 Integral buffers will be    131072 words long.
 Raffenetti 2 integral format.
 Two-electron integral symmetry is turned on.
 One-electron integrals computed using PRISM.
 NBasis=   225 RedAO= T EigKep=  1.44D-06  NBF=   225
 NBsUse=   225 1.00D-06 EigRej= -1.00D+00 NBFU=   225
 ExpMin= 3.60D-02 ExpMax= 8.59D+03 ExpMxC= 1.30D+03 IAcc=3 IRadAn=         5 AccDes= 0.00D+00
 Harris functional with IExCor=  205 and IRadAn=       5 diagonalized for initial guess.
 HarFok:  IExCor=  205 AccDes= 0.00D+00 IRadAn=         5 IDoV= 1 UseB2=F ITyADJ=14
 ICtDFT=  3500011 ScaDFX=  1.000000  1.000000  1.000000  1.000000
 FoFCou: FMM=F IPFlag=           0 FMFlag=      100000 FMFlg1=           0
         NFxFlg=           0 DoJE=T BraDBF=F KetDBF=T FulRan=T
         wScrn=  0.000000 ICntrl=       500 IOpCl=  0 I1Cent=   200000004 NGrid=           0
         NMat0=    1 NMatS0=      1 NMatT0=    0 NMatD0=    1 NMtDS0=    0 NMtDT0=    0
 Petite list used in FoFCou.
 Initial guess <Sx>= 0.0000 <Sy>= 0.0000 <Sz>= 0.5000 <S**2>= 0.7500 S= 0.5000
 Requested convergence on RMS density matrix=1.00D-08 within 128 cycles.
 Requested convergence on MAX density matrix=1.00D-06.
 Requested convergence on             energy=1.00D-06.
 No special actions if energy rises.
 Restarting incremental Fock formation.
 Initial convergence to 1.0D-05 achieved.  Increase integral accuracy.
 SCF Done:  E(UHF) =  -417.984799828     A.U. after   39 cycles
            NFock= 39  Conv=0.95D-08     -V/T= 2.0006
 <Sx>= 0.0000 <Sy>= 0.0000 <Sz>= 0.5000 <S**2>= 0.9170 S= 0.5803
 <L.S>=  0.00000000000    
 Annihilation of the first spin contaminant:
 S**2 before annihilation     0.9170,   after     0.7661
 ExpMin= 3.60D-02 ExpMax= 8.59D+03 ExpMxC= 1.30D+03 IAcc=3 IRadAn=         5 AccDes= 0.00D+00
 HarFok:  IExCor=  205 AccDes= 0.00D+00 IRadAn=         5 IDoV=-2 UseB2=F ITyADJ=14
 ICtDFT= 12500011 ScaDFX=  1.000000  1.000000  1.000000  1.000000
 Range of M.O.s used for correlation:     9   225
 NBasis=   225 NAE=    31 NBE=    30 NFC=     8 NFV=     0
 NROrb=    217 NOA=    23 NOB=    22 NVA=   194 NVB=   195

 **** Warning!!: The largest alpha MO coefficient is  0.20591939D+03


 **** Warning!!: The largest beta MO coefficient is  0.24386281D+03

 Semi-Direct transformation.
 ModeAB=           4 MOrb=            23 LenV=    1609174424
 LASXX=    109339976 LTotXX=   109339976 LenRXX=   221407890
 LTotAB=   112067914 MaxLAS=   130085424 LenRXY=           0
 NonZer=   330747866 LenScr=   498067456 LnRSAI=   130085424
 LnScr1=   195894272 LExtra=           0 Total=   1045455042
 MaxDsk=          -1 SrtSym=           T ITran=            4
 JobTyp=1 Pass  1:  I=   1 to  23.
 (rs|ai) integrals will be sorted in core.
 ModeAB=           4 MOrb=            22 LenV=    1609174424
 LASXX=    104936601 LTotXX=   104936601 LenRXX=   190867446
 LTotAB=    85930845 MaxLAS=   124429536 LenRXY=           0
 NonZer=   295804047 LenScr=   445446144 LnRSAI=   124429536
 LnScr1=   187407360 LExtra=           0 Total=    948150486
 MaxDsk=          -1 SrtSym=           T ITran=            4
 JobTyp=2 Pass  1:  I=   1 to  22.
 (rs|ai) integrals will be sorted in core.
 SymMOI:  orbitals are not symmetric.
 Spin components of T(2) and E(2):
     alpha-alpha T2 =       0.5236031825D-01 E2=     -0.1699367312D+00
     alpha-beta  T2 =       0.2837128550D+00 E2=     -0.9327044609D+00
     beta-beta   T2 =       0.4966559202D-01 E2=     -0.1561358164D+00
 ANorm=    0.1177174059D+01
 E2 =    -0.1258777008D+01 EUMP2 =    -0.41924357683662D+03
 (S**2,0)=  0.91701D+00           (S**2,1)=  0.87002D+00
 E(PUHF)=      -0.41799870293D+03        E(PMP2)=      -0.41925562899D+03
 Keep R2 and R3 ints in memory in canonical form, NReq=652884060.
 CIDS: In Core Option IDoMem=           1.
 Iterations=  50 Convergence= 0.100D-06
 Produce multiple copies of IABC intergrals
 Iteration Nr.   1
 **********************
 DD1Dir will call FoFMem   1 times, MxPair=      1496
 NAB=   506 NAA=   253 NBB=   231.
 E(PMP3)=      -0.41928121080D+03
 MP4(R+Q)=  0.24787515D-01
 E3=       -0.28799105D-01        EUMP3=      -0.41927237594D+03
 E4(DQ)=   -0.57108783D-02        UMP4(DQ)=   -0.41927808682D+03
 E4(SDQ)=  -0.25823301D-01        UMP4(SDQ)=  -0.41929819924D+03
 DE(Corr)=  -1.2623575     E(Corr)=     -419.24715731    
 NORM(A)=   0.11854748D+01
 Iteration Nr.   2
 **********************
 DD1Dir will call FoFMem   1 times, MxPair=      1496
 NAB=   506 NAA=   253 NBB=   231.
 DE(Corr)=  -1.3051644     E(CORR)=     -419.28996427     Delta=-4.28D-02
 NORM(A)=   0.12056151D+01
 Iteration Nr.   3
 **********************
 DD1Dir will call FoFMem   1 times, MxPair=      1496
 NAB=   506 NAA=   253 NBB=   231.
 DE(Corr)=  -1.3077793     E(CORR)=     -419.29257909     Delta=-2.61D-03
 NORM(A)=   0.12157960D+01
 Iteration Nr.   4
 **********************
 DD1Dir will call FoFMem   1 times, MxPair=      1496
 NAB=   506 NAA=   253 NBB=   231.
 DE(Corr)=  -1.3142718     E(CORR)=     -419.29907165     Delta=-6.49D-03
 NORM(A)=   0.12220533D+01
 Iteration Nr.   5
 **********************
 DD1Dir will call FoFMem   1 times, MxPair=      1496
 NAB=   506 NAA=   253 NBB=   231.
 DE(Corr)=  -1.3159644     E(CORR)=     -419.30076418     Delta=-1.69D-03
 NORM(A)=   0.12252646D+01
 Iteration Nr.   6
 **********************
 DD1Dir will call FoFMem   1 times, MxPair=      1496
 NAB=   506 NAA=   253 NBB=   231.
 DE(Corr)=  -1.3164787     E(CORR)=     -419.30127848     Delta=-5.14D-04
 NORM(A)=   0.12258051D+01
 Iteration Nr.   7
 **********************
 DD1Dir will call FoFMem   1 times, MxPair=      1496
 NAB=   506 NAA=   253 NBB=   231.
 DE(Corr)=  -1.3165539     E(CORR)=     -419.30135377     Delta=-7.53D-05
 NORM(A)=   0.12259020D+01
 Iteration Nr.   8
 **********************
 DD1Dir will call FoFMem   1 times, MxPair=      1496
 NAB=   506 NAA=   253 NBB=   231.
 DE(Corr)=  -1.3165348     E(CORR)=     -419.30133466     Delta= 1.91D-05
 NORM(A)=   0.12259248D+01
 Iteration Nr.   9
 **********************
 DD1Dir will call FoFMem   1 times, MxPair=      1496
 NAB=   506 NAA=   253 NBB=   231.
 DE(Corr)=  -1.3165464     E(CORR)=     -419.30134618     Delta=-1.15D-05
 NORM(A)=   0.12259095D+01
 Iteration Nr.  10
 **********************
 DD1Dir will call FoFMem   1 times, MxPair=      1496
 NAB=   506 NAA=   253 NBB=   231.
 DE(Corr)=  -1.3165386     E(CORR)=     -419.30133843     Delta= 7.75D-06
 NORM(A)=   0.12258948D+01
 Iteration Nr.  11
 **********************
 DD1Dir will call FoFMem   1 times, MxPair=      1496
 NAB=   506 NAA=   253 NBB=   231.
 DE(Corr)=  -1.3165507     E(CORR)=     -419.30135054     Delta=-1.21D-05
 NORM(A)=   0.12258995D+01
 Iteration Nr.  12
 **********************
 DD1Dir will call FoFMem   1 times, MxPair=      1496
 NAB=   506 NAA=   253 NBB=   231.
 DE(Corr)=  -1.3165468     E(CORR)=     -419.30134665     Delta= 3.89D-06
 NORM(A)=   0.12259301D+01
 Iteration Nr.  13
 **********************
 DD1Dir will call FoFMem   1 times, MxPair=      1496
 NAB=   506 NAA=   253 NBB=   231.
 DE(Corr)=  -1.3165557     E(CORR)=     -419.30135555     Delta=-8.89D-06
 NORM(A)=   0.12259867D+01
 Iteration Nr.  14
 **********************
 DD1Dir will call FoFMem   1 times, MxPair=      1496
 NAB=   506 NAA=   253 NBB=   231.
 DE(Corr)=  -1.3165642     E(CORR)=     -419.30136406     Delta=-8.51D-06
 NORM(A)=   0.12260443D+01
 Iteration Nr.  15
 **********************
 DD1Dir will call FoFMem   1 times, MxPair=      1496
 NAB=   506 NAA=   253 NBB=   231.
 DE(Corr)=  -1.3165698     E(CORR)=     -419.30136964     Delta=-5.58D-06
 NORM(A)=   0.12260805D+01
 Iteration Nr.  16
 **********************
 DD1Dir will call FoFMem   1 times, MxPair=      1496
 NAB=   506 NAA=   253 NBB=   231.
 DE(Corr)=  -1.3165775     E(CORR)=     -419.30137737     Delta=-7.74D-06
 NORM(A)=   0.12260906D+01
 Iteration Nr.  17
 **********************
 DD1Dir will call FoFMem   1 times, MxPair=      1496
 NAB=   506 NAA=   253 NBB=   231.
 DE(Corr)=  -1.3165762     E(CORR)=     -419.30137603     Delta= 1.34D-06
 NORM(A)=   0.12260890D+01
 Iteration Nr.  18
 **********************
 DD1Dir will call FoFMem   1 times, MxPair=      1496
 NAB=   506 NAA=   253 NBB=   231.
 DE(Corr)=  -1.3165762     E(CORR)=     -419.30137600     Delta= 2.79D-08
 NORM(A)=   0.12260840D+01
 Wavefunction amplitudes converged. E(Corr)=     -419.30137600    
 Largest amplitude= 5.74D-02
 Time for triples=    38026.57 seconds.
 T4(CCSD)= -0.57143757D-01
 T5(CCSD)=  0.38138649D-02
 CCSD(T)= -0.41935470590D+03

 S**2, projected HF & approx projected MPn energies after annihilation of
 unwanted spin states (see manual for definitions):

 spins       (S**2,0) (S**2,1)    PUHF        PMP2        PMP3        PMP4
 annihilated
 s+1         0.74053  0.74665 -417.998703 -419.255629 -419.281211
 s+1,s+2     0.75012  0.74997 -417.997980 -419.254951 -419.280591
 s+1 to s+3  0.75000  0.75000 -417.997991 -419.254959 -419.280594
 s+1 to s+4  0.75000  0.75000 -417.997991 -419.254959 -419.280595
 s+1 to s+5  0.75000  0.75000 -417.997991
 s+1 to s+6  0.75000  0.75000 -417.997991

 Discarding MO integrals.

 **********************************************************************

            Population analysis using the SCF density.

 **********************************************************************

 Orbital symmetries:
 Alpha Orbitals:
       Occupied  (A) (A) (A) (A) (A) (A) (A) (A) (A) (A) (A) (A)
                 (A) (A) (A) (A) (A) (A) (A) (A) (A) (A) (A) (A)
                 (A) (A) (A) (A) (A) (A) (A)
       Virtual   (A) (A) (A) (A) (A) (A) (A) (A) (A) (A) (A) (A)
                 (A) (A) (A) (A) (A) (A) (A) (A) (A) (A) (A) (A)
                 (A) (A) (A) (A) (A) (A) (A) (A) (A) (A) (A) (A)
                 (A) (A) (A) (A) (A) (A) (A) (A) (A) (A) (A) (A)
                 (A) (A) (A) (A) (A) (A) (A) (A) (A) (A) (A) (A)
                 (A) (A) (A) (A) (A) (A) (A) (A) (A) (A) (A) (A)
                 (A) (A) (A) (A) (A) (A) (A) (A) (A) (A) (A) (A)
                 (A) (A) (A) (A) (A) (A) (A) (A) (A) (A) (A) (A)
                 (A) (A) (A) (A) (A) (A) (A) (A) (A) (A) (A) (A)
                 (A) (A) (A) (A) (A) (A) (A) (A) (A) (A) (A) (A)
                 (A) (A) (A) (A) (A) (A) (A) (A) (A) (A) (A) (A)
                 (A) (A) (A) (A) (A) (A) (A) (A) (A) (A) (A) (A)
                 (A) (A) (A) (A) (A) (A) (A) (A) (A) (A) (A) (A)
                 (A) (A) (A) (A) (A) (A) (A) (A) (A) (A) (A) (A)
                 (A) (A) (A) (A) (A) (A) (A) (A) (A) (A) (A) (A)
                 (A) (A) (A) (A) (A) (A) (A) (A) (A) (A) (A) (A)
                 (A) (A)
 Beta  Orbitals:
       Occupied  (A) (A) (A) (A) (A) (A) (A) (A) (A) (A) (A) (A)
                 (A) (A) (A) (A) (A) (A) (A) (A) (A) (A) (A) (A)
                 (A) (A) (A) (A) (A) (A)
       Virtual   (A) (A) (A) (A) (A) (A) (A) (A) (A) (A) (A) (A)
                 (A) (A) (A) (A) (A) (A) (A) (A) (A) (A) (A) (A)
                 (A) (A) (A) (A) (A) (A) (A) (A) (A) (A) (A) (A)
                 (A) (A) (A) (A) (A) (A) (A) (A) (A) (A) (A) (A)
                 (A) (A) (A) (A) (A) (A) (A) (A) (A) (A) (A) (A)
                 (A) (A) (A) (A) (A) (A) (A) (A) (A) (A) (A) (A)
                 (A) (A) (A) (A) (A) (A) (A) (A) (A) (A) (A) (A)
                 (A) (A) (A) (A) (A) (A) (A) (A) (A) (A) (A) (A)
                 (A) (A) (A) (A) (A) (A) (A) (A) (A) (A) (A) (A)
                 (A) (A) (A) (A) (A) (A) (A) (A) (A) (A) (A) (A)
                 (A) (A) (A) (A) (A) (A) (A) (A) (A) (A) (A) (A)
                 (A) (A) (A) (A) (A) (A) (A) (A) (A) (A) (A) (A)
                 (A) (A) (A) (A) (A) (A) (A) (A) (A) (A) (A) (A)
                 (A) (A) (A) (A) (A) (A) (A) (A) (A) (A) (A) (A)
                 (A) (A) (A) (A) (A) (A) (A) (A) (A) (A) (A) (A)
                 (A) (A) (A) (A) (A) (A) (A) (A) (A) (A) (A) (A)
                 (A) (A) (A)
 The electronic state is 2-A.
 Alpha  occ. eigenvalues --  -20.62811 -20.60967 -20.55526 -11.41380 -11.29419
 Alpha  occ. eigenvalues --  -11.26786 -11.25892 -11.22188  -1.47997  -1.38544
 Alpha  occ. eigenvalues --   -1.37659  -1.07777  -1.04100  -0.92508  -0.83612
 Alpha  occ. eigenvalues --   -0.76272  -0.73037  -0.69261  -0.68769  -0.66511
 Alpha  occ. eigenvalues --   -0.64690  -0.62814  -0.57835  -0.56033  -0.53832
 Alpha  occ. eigenvalues --   -0.53314  -0.50189  -0.47690  -0.45829  -0.42910
 Alpha  occ. eigenvalues --   -0.42217
 Alpha virt. eigenvalues --    0.03701   0.04605   0.05628   0.06819   0.07003
 Alpha virt. eigenvalues --    0.08760   0.09600   0.10207   0.10974   0.11546
 Alpha virt. eigenvalues --    0.13357   0.13885   0.14756   0.15585   0.16806
 Alpha virt. eigenvalues --    0.17059   0.17835   0.18141   0.19037   0.19260
 Alpha virt. eigenvalues --    0.20656   0.21387   0.22009   0.22538   0.23108
 Alpha virt. eigenvalues --    0.24100   0.25180   0.27281   0.28202   0.28983
 Alpha virt. eigenvalues --    0.30002   0.30140   0.32263   0.33081   0.34078
 Alpha virt. eigenvalues --    0.35084   0.35871   0.37585   0.39002   0.39748
 Alpha virt. eigenvalues --    0.40367   0.41375   0.42403   0.42865   0.43666
 Alpha virt. eigenvalues --    0.45016   0.47200   0.48053   0.48557   0.50666
 Alpha virt. eigenvalues --    0.51036   0.54525   0.58030   0.60173   0.61040
 Alpha virt. eigenvalues --    0.63183   0.66013   0.68856   0.69039   0.72299
 Alpha virt. eigenvalues --    0.74003   0.75059   0.78927   0.82663   0.83362
 Alpha virt. eigenvalues --    0.85038   0.87140   0.87658   0.88774   0.89762
 Alpha virt. eigenvalues --    0.90581   0.92209   0.92801   0.94753   0.97356
 Alpha virt. eigenvalues --    1.00721   1.05349   1.08722   1.11196   1.15825
 Alpha virt. eigenvalues --    1.20973   1.23924   1.24619   1.27664   1.30044
 Alpha virt. eigenvalues --    1.32874   1.37299   1.38534   1.39890   1.42525
 Alpha virt. eigenvalues --    1.44510   1.45727   1.49459   1.52191   1.55138
 Alpha virt. eigenvalues --    1.55494   1.57514   1.58228   1.61001   1.65569
 Alpha virt. eigenvalues --    1.66364   1.70547   1.73156   1.74325   1.76163
 Alpha virt. eigenvalues --    1.80886   1.81884   1.84467   1.85971   1.88812
 Alpha virt. eigenvalues --    1.90896   1.91496   1.94987   1.96998   1.98896
 Alpha virt. eigenvalues --    2.03205   2.05960   2.08868   2.12651   2.14709
 Alpha virt. eigenvalues --    2.17288   2.21462   2.25316   2.30928   2.32994
 Alpha virt. eigenvalues --    2.34322   2.38018   2.42625   2.49136   2.60828
 Alpha virt. eigenvalues --    2.64479   2.70029   2.77053   2.81554   2.83252
 Alpha virt. eigenvalues --    2.84876   2.85693   2.90560   2.92816   2.94280
 Alpha virt. eigenvalues --    2.96225   2.97916   3.02418   3.04838   3.06693
 Alpha virt. eigenvalues --    3.13117   3.13485   3.16115   3.20097   3.23808
 Alpha virt. eigenvalues --    3.26034   3.28146   3.31457   3.35138   3.39270
 Alpha virt. eigenvalues --    3.40672   3.45047   3.47744   3.48704   3.50948
 Alpha virt. eigenvalues --    3.59517   3.61296   3.66156   3.71664   3.73456
 Alpha virt. eigenvalues --    3.80224   3.88856   4.01837   4.14367   4.21943
 Alpha virt. eigenvalues --    4.22618   4.24067   4.28004   4.41010   4.51422
 Alpha virt. eigenvalues --    4.58318   4.67662   5.53306   5.55218   5.61156
 Alpha virt. eigenvalues --    5.66223   5.77690   5.93383   6.03198   6.22212
 Alpha virt. eigenvalues --    6.43505  24.69826  25.00573  25.02261  25.14939
 Alpha virt. eigenvalues --   26.22488  51.51501  51.61246  51.72173
  Beta  occ. eigenvalues --  -20.60973 -20.58825 -20.55885 -11.41090 -11.29420
  Beta  occ. eigenvalues --  -11.27321 -11.25110 -11.22190  -1.48143  -1.38238
  Beta  occ. eigenvalues --   -1.23936  -1.07788  -1.03492  -0.91772  -0.83250
  Beta  occ. eigenvalues --   -0.76137  -0.72223  -0.69510  -0.67121  -0.63247
  Beta  occ. eigenvalues --   -0.62902  -0.58164  -0.55406  -0.53885  -0.50283
  Beta  occ. eigenvalues --   -0.50243  -0.48376  -0.46865  -0.43432  -0.42286
  Beta virt. eigenvalues --    0.03760   0.04507   0.04859   0.06677   0.07003
  Beta virt. eigenvalues --    0.08328   0.08909   0.09754   0.10721   0.11382
  Beta virt. eigenvalues --    0.12073   0.13528   0.14344   0.15225   0.15836
  Beta virt. eigenvalues --    0.17058   0.17173   0.18027   0.18581   0.19215
  Beta virt. eigenvalues --    0.19696   0.21033   0.21654   0.22095   0.22756
  Beta virt. eigenvalues --    0.23236   0.24106   0.25360   0.27110   0.28253
  Beta virt. eigenvalues --    0.29432   0.30159   0.30812   0.32836   0.33903
  Beta virt. eigenvalues --    0.34255   0.35567   0.36077   0.37896   0.39349
  Beta virt. eigenvalues --    0.39897   0.40671   0.41468   0.42899   0.43258
  Beta virt. eigenvalues --    0.43674   0.44918   0.47249   0.48145   0.48771
  Beta virt. eigenvalues --    0.50881   0.51147   0.54444   0.58068   0.60273
  Beta virt. eigenvalues --    0.61186   0.63376   0.66080   0.69196   0.69429
  Beta virt. eigenvalues --    0.73622   0.75935   0.76211   0.79765   0.82750
  Beta virt. eigenvalues --    0.83587   0.86210   0.87019   0.87615   0.88609
  Beta virt. eigenvalues --    0.89753   0.89921   0.91912   0.93035   0.94367
  Beta virt. eigenvalues --    0.97197   1.01069   1.05244   1.08859   1.11899
  Beta virt. eigenvalues --    1.16023   1.21220   1.24643   1.25169   1.30405
  Beta virt. eigenvalues --    1.31657   1.34223   1.37617   1.40232   1.40828
  Beta virt. eigenvalues --    1.43681   1.44628   1.46090   1.49707   1.54001
  Beta virt. eigenvalues --    1.55502   1.56044   1.58315   1.60020   1.62285
  Beta virt. eigenvalues --    1.66438   1.67446   1.71075   1.73659   1.75149
  Beta virt. eigenvalues --    1.77559   1.80931   1.81903   1.84557   1.85803
  Beta virt. eigenvalues --    1.88660   1.90643   1.91380   1.94926   1.96948
  Beta virt. eigenvalues --    1.98955   2.03439   2.05932   2.08979   2.12650
  Beta virt. eigenvalues --    2.15045   2.17376   2.21913   2.25347   2.31174
  Beta virt. eigenvalues --    2.33263   2.35750   2.38166   2.42636   2.49155
  Beta virt. eigenvalues --    2.60842   2.64489   2.70215   2.77042   2.81383
  Beta virt. eigenvalues --    2.83255   2.84896   2.85784   2.91082   2.92842
  Beta virt. eigenvalues --    2.94423   2.96252   2.98003   3.02688   3.05089
  Beta virt. eigenvalues --    3.07326   3.13183   3.15994   3.19922   3.23063
  Beta virt. eigenvalues --    3.27261   3.28829   3.29312   3.31914   3.37263
  Beta virt. eigenvalues --    3.40559   3.44181   3.46293   3.49078   3.50558
  Beta virt. eigenvalues --    3.53626   3.60534   3.61799   3.66187   3.72106
  Beta virt. eigenvalues --    3.73265   3.79725   3.89640   4.01729   4.14195
  Beta virt. eigenvalues --    4.22077   4.22748   4.27130   4.27956   4.40982
  Beta virt. eigenvalues --    4.51300   4.58291   4.67657   5.55775   5.60836
  Beta virt. eigenvalues --    5.65600   5.67428   5.77619   5.93394   6.05711
  Beta virt. eigenvalues --    6.22133   6.43428  24.69779  25.00769  25.02292
  Beta virt. eigenvalues --   25.14938  26.22667  51.53685  51.61326  51.71981
          Condensed to atoms (all electrons):
               1          2          3          4          5          6
     1  O    8.026785   0.259661  -0.043360   0.000033   0.348005  -0.414322
     2  H    0.259661   0.478102  -0.124477  -0.002561   0.072347   0.078757
     3  C   -0.043360  -0.124477  38.008549   0.780326 -14.360916 -16.458357
     4  H    0.000033  -0.002561   0.780326   0.409094  -0.294405  -0.087647
     5  C    0.348005   0.072347 -14.360916  -0.294405  20.680945  -1.825863
     6  C   -0.414322   0.078757 -16.458357  -0.087647  -1.825863  24.499980
     7  O   -0.007346  -0.001137   0.033259  -0.001850   0.236159   0.149786
     8  O   -0.000785  -0.000025  -0.044214  -0.003392  -0.137019   0.066156
     9  C   -0.024949   0.004242  -0.292882  -0.000962  -0.473697   0.625393
    10  C    0.024384  -0.004173   0.144500   0.000153   0.169975  -0.416028
    11  H    0.000216   0.000129  -0.011294   0.000018  -0.011845   0.021715
    12  H   -0.001309   0.000139  -0.033457  -0.000295  -0.072612   0.091511
    13  H    0.001142   0.000029  -0.006100  -0.000037  -0.007807   0.014084
    14  H   -0.001719  -0.000100  -0.006272   0.000002  -0.003375   0.004684
    15  H    0.000216  -0.000276   0.040802   0.000022   0.037517  -0.093391
               7          8          9         10         11         12
     1  O   -0.007346  -0.000785  -0.024949   0.024384   0.000216  -0.001309
     2  H   -0.001137  -0.000025   0.004242  -0.004173   0.000129   0.000139
     3  C    0.033259  -0.044214  -0.292882   0.144500  -0.011294  -0.033457
     4  H   -0.001850  -0.003392  -0.000962   0.000153   0.000018  -0.000295
     5  C    0.236159  -0.137019  -0.473697   0.169975  -0.011845  -0.072612
     6  C    0.149786   0.066156   0.625393  -0.416028   0.021715   0.091511
     7  O    8.033722  -0.116524   0.026456  -0.053572   0.003402  -0.022731
     8  O   -0.116524   8.268404   0.156042  -0.064207  -0.081664  -0.015774
     9  C    0.026456   0.156042   5.427981  -0.081453   0.446679   0.454192
    10  C   -0.053572  -0.064207  -0.081453   5.537810  -0.051526  -0.049377
    11  H    0.003402  -0.081664   0.446679  -0.051526   0.552209  -0.036318
    12  H   -0.022731  -0.015774   0.454192  -0.049377  -0.036318   0.519143
    13  H   -0.001567   0.014879  -0.042719   0.401698   0.001614  -0.003482
    14  H    0.002567  -0.004237  -0.023717   0.410786  -0.006045   0.000315
    15  H   -0.004086  -0.012925  -0.047008   0.417724   0.006391  -0.002839
              13         14         15
     1  O    0.001142  -0.001719   0.000216
     2  H    0.000029  -0.000100  -0.000276
     3  C   -0.006100  -0.006272   0.040802
     4  H   -0.000037   0.000002   0.000022
     5  C   -0.007807  -0.003375   0.037517
     6  C    0.014084   0.004684  -0.093391
     7  O   -0.001567   0.002567  -0.004086
     8  O    0.014879  -0.004237  -0.012925
     9  C   -0.042719  -0.023717  -0.047008
    10  C    0.401698   0.410786   0.417724
    11  H    0.001614  -0.006045   0.006391
    12  H   -0.003482   0.000315  -0.002839
    13  H    0.556841  -0.030415  -0.038138
    14  H   -0.030415   0.552070  -0.043474
    15  H   -0.038138  -0.043474   0.560258
          Atomic-Atomic Spin Densities.
               1          2          3          4          5          6
     1  O    0.991870   0.014906  -0.326692  -0.003721   0.027297   0.242368
     2  H    0.014906  -0.048349   0.043722   0.000731  -0.024028  -0.023362
     3  C   -0.326692   0.043722  -2.067527  -0.069612   1.163080   2.021624
     4  H   -0.003721   0.000731  -0.069612  -0.053374   0.045440   0.021347
     5  C    0.027297  -0.024028   1.163080   0.045440  -1.814071  -0.215349
     6  C    0.242368  -0.023362   2.021624   0.021347  -0.215349  -1.796074
     7  O    0.001300  -0.000123   0.000973  -0.000007   0.015428   0.004167
     8  O   -0.000077   0.000559  -0.011249  -0.000381   0.026098  -0.020415
     9  C    0.004885  -0.000467   0.030312   0.000321   0.009343  -0.038747
    10  C   -0.003082   0.000543  -0.012583  -0.000325   0.011756   0.001160
    11  H    0.000265  -0.000029   0.001741  -0.000006   0.001953  -0.003063
    12  H    0.000496  -0.000064   0.006603   0.000050   0.004592  -0.010798
    13  H   -0.000074   0.000030  -0.000102  -0.000013   0.001440  -0.001234
    14  H   -0.000227  -0.000041  -0.000432   0.000024  -0.002113   0.002188
    15  H    0.000237  -0.000097  -0.004002   0.000012  -0.008133   0.012696
               7          8          9         10         11         12
     1  O    0.001300  -0.000077   0.004885  -0.003082   0.000265   0.000496
     2  H   -0.000123   0.000559  -0.000467   0.000543  -0.000029  -0.000064
     3  C    0.000973  -0.011249   0.030312  -0.012583   0.001741   0.006603
     4  H   -0.000007  -0.000381   0.000321  -0.000325  -0.000006   0.000050
     5  C    0.015428   0.026098   0.009343   0.011756   0.001953   0.004592
     6  C    0.004167  -0.020415  -0.038747   0.001160  -0.003063  -0.010798
     7  O   -0.098221   0.000399   0.001713   0.001129   0.000180  -0.000298
     8  O    0.000399   0.007642  -0.003587   0.002592   0.000611   0.000293
     9  C    0.001713  -0.003587   0.004728  -0.004384  -0.000789  -0.000834
    10  C    0.001129   0.002592  -0.004384   0.002420  -0.000168   0.000048
    11  H    0.000180   0.000611  -0.000789  -0.000168  -0.000592  -0.000085
    12  H   -0.000298   0.000293  -0.000834   0.000048  -0.000085   0.000030
    13  H    0.000097   0.000274  -0.001919   0.001792  -0.000155  -0.000002
    14  H   -0.000138  -0.000240   0.001010  -0.000354   0.000089  -0.000009
    15  H   -0.000315  -0.000718   0.000687   0.000275   0.000131   0.000132
              13         14         15
     1  O   -0.000074  -0.000227   0.000237
     2  H    0.000030  -0.000041  -0.000097
     3  C   -0.000102  -0.000432  -0.004002
     4  H   -0.000013   0.000024   0.000012
     5  C    0.001440  -0.002113  -0.008133
     6  C   -0.001234   0.002188   0.012696
     7  O    0.000097  -0.000138  -0.000315
     8  O    0.000274  -0.000240  -0.000718
     9  C   -0.001919   0.001010   0.000687
    10  C    0.001792  -0.000354   0.000275
    11  H   -0.000155   0.000089   0.000131
    12  H   -0.000002  -0.000009   0.000132
    13  H    0.000079  -0.000069  -0.000257
    14  H   -0.000069  -0.000081  -0.000107
    15  H   -0.000257  -0.000107  -0.000614
 Mulliken charges and spin densities:
               1          2
     1  O   -0.166652   0.949750
     2  H    0.239341  -0.036069
     3  C   -1.626108   0.775857
     4  H    0.201501  -0.059513
     5  C    1.642591  -0.757267
     6  C   -0.256456   0.196508
     7  O   -0.276538  -0.073715
     8  O   -0.024714   0.001801
     9  C   -0.153598   0.002274
    10  C   -0.386696   0.000819
    11  H    0.166318   0.000084
    12  H    0.172895   0.000157
    13  H    0.139977  -0.000112
    14  H    0.148931  -0.000500
    15  H    0.179208  -0.000073
 Sum of Mulliken charges =  -0.00000   1.00000
 Mulliken charges and spin densities with hydrogens summed into heavy atoms:
               1          2
     1  O    0.072689   0.913681
     3  C   -1.424607   0.716344
     5  C    1.642591  -0.757267
     6  C   -0.256456   0.196508
     7  O   -0.276538  -0.073715
     8  O   -0.024714   0.001801
     9  C    0.185616   0.002514
    10  C    0.081420   0.000134
 Electronic spatial extent (au):  <R**2>=           1070.0482
 Charge=             -0.0000 electrons
 Dipole moment (field-independent basis, Debye):
    X=             -0.7669    Y=              0.6325    Z=             -0.6731  Tot=              1.2005
 Quadrupole moment (field-independent basis, Debye-Ang):
   XX=            -30.4382   YY=            -48.0037   ZZ=            -51.7611
   XY=             -1.3151   XZ=             -2.1250   YZ=              5.4846
 Traceless Quadrupole moment (field-independent basis, Debye-Ang):
   XX=             12.9628   YY=             -4.6027   ZZ=             -8.3601
   XY=             -1.3151   XZ=             -2.1250   YZ=              5.4846
 Octapole moment (field-independent basis, Debye-Ang**2):
  XXX=            -34.5095  YYY=              7.0457  ZZZ=             -1.8041  XYY=             -0.5525
  XXY=              0.4148  XXZ=             -5.1819  XZZ=              0.0063  YZZ=              8.1359
  YYZ=              3.9105  XYZ=             -7.0948
 Hexadecapole moment (field-independent basis, Debye-Ang**3):
 XXXX=           -748.0582 YYYY=           -260.1197 ZZZZ=           -174.8308 XXXY=            -12.3691
 XXXZ=             18.2830 YYYX=            -26.8782 YYYZ=             11.4353 ZZZX=            -11.4105
 ZZZY=              8.3619 XXYY=           -199.7255 XXZZ=           -181.3209 YYZZ=            -72.6948
 XXYZ=             20.4206 YYXZ=            -14.0712 ZZXY=             -9.9732
 N-N= 3.611707635176D+02 E-N=-1.705593639619D+03  KE= 4.177413310576D+02
 1\1\GINC-AJ\SP\UCCSD(T)-FC\6-311++G(d,p)\C5H7O3(2)\AAYUSH\03-Aug-2025\
 0\\# ccsd(t)/6-311++g(d,p) sp\\Title Card Required\\0,2\O,0,-1.401452,
 1.729825,0.090239\H,0,-2.034055,1.819805,0.821214\C,0,-2.788929,-0.491
 43,-0.438179\H,0,-3.817321,-0.547619,-0.709644\C,0,-1.624829,-0.377492
 ,-0.146624\C,0,-0.223159,-0.569764,0.233682\O,0,0.11294,-0.897754,1.33
 6533\O,0,0.580329,-0.369963,-0.802936\C,0,1.994262,-0.454445,-0.531835
 \C,0,2.48544,0.819903,0.125157\H,0,2.443031,-0.604642,-1.51198\H,0,2.1
 80574,-1.328718,0.092949\H,0,3.567417,0.769689,0.261913\H,0,2.250489,1
 .682277,-0.499939\H,0,2.018614,0.951717,1.101585\\Version=ES64L-G16Rev
 A.03\State=2-A\HF=-417.9847998\MP2=-419.2435768\MP3=-419.2723759\MP4D=
 -419.3028743\MP4DQ=-419.2780868\PUHF=-417.9987029\PMP2-0=-419.255629\P
 MP3-0=-419.2812108\MP4SDQ=-419.2981992\CCSD=-419.301376\CCSD(T)=-419.3
 547059\S2=0.917013\S2-1=0.870022\S2A=0.766056\RMSD=9.478e-09\PG=C01 [X
 (C5H7O3)]\\@


 HEAVEN'S NET CASTS WIDE.
 THOUGH ITS MESHES ARE COARSE, NOTHING SLIPS THROUGH.

                                          -- LAO-TSU
 Job cpu time:       0 days 17 hours 36 minutes 47.1 seconds.
 Elapsed time:       0 days  1 hours  8 minutes 42.3 seconds.
 File lengths (MBytes):  RWF=  44733 Int=      0 D2E=      0 Chk=      6 Scr=      1
 Normal termination of Gaussian 16 at Sun Aug  3 01:36:30 2025.
