 Entering Gaussian System, Link 0=g16
 Initial command:
 /opt/g16/l1.exe "/home/aayush/scratches/g16/Gau-53295.inp" -scrdir="/home/aayush/scratches/g16/"
 Entering Link 1 = /opt/g16/l1.exe PID=     53298.
  
 Copyright (c) 1988,1990,1992,1993,1995,1998,2003,2009,2016,
            Gaussian, Inc.  All Rights Reserved.
  
 This is part of the Gaussian(R) 16 program.  It is based on
 the Gaussian(R) 09 system (copyright 2009, Gaussian, Inc.),
 the Gaussian(R) 03 system (copyright 2003, Gaussian, Inc.),
 the Gaussian(R) 98 system (copyright 1998, Gaussian, Inc.),
 the Gaussian(R) 94 system (copyright 1995, Gaussian, Inc.),
 the Gaussian 92(TM) system (copyright 1992, Gaussian, Inc.),
 the Gaussian 90(TM) system (copyright 1990, Gaussian, Inc.),
 the Gaussian 88(TM) system (copyright 1988, Gaussian, Inc.),
 the Gaussian 86(TM) system (copyright 1986, Carnegie Mellon
 University), and the Gaussian 82(TM) system (copyright 1983,
 Carnegie Mellon University). Gaussian is a federally registered
 trademark of Gaussian, Inc.
  
 This software contains proprietary and confidential information,
 including trade secrets, belonging to Gaussian, Inc.
  
 This software is provided under written license and may be
 used, copied, transmitted, or stored only in accord with that
 written license.
  
 The following legend is applicable only to US Government
 contracts under FAR:
  
                    RESTRICTED RIGHTS LEGEND
  
 Use, reproduction and disclosure by the US Government is
 subject to restrictions as set forth in subparagraphs (a)
 and (c) of the Commercial Computer Software - Restricted
 Rights clause in FAR 52.227-19.
  
 Gaussian, Inc.
 340 Quinnipiac St., Bldg. 40, Wallingford CT 06492
  
  
 ---------------------------------------------------------------
 Warning -- This program may not be used in any manner that
 competes with the business of Gaussian, Inc. or will provide
 assistance to any competitor of Gaussian, Inc.  The licensee
 of this program is prohibited from giving any competitor of
 Gaussian, Inc. access to this program.  By using this program,
 the user acknowledges that Gaussian, Inc. is engaged in the
 business of creating and licensing software in the field of
 computational chemistry and represents and warrants to the
 licensee that it is not a competitor of Gaussian, Inc. and that
 it will not use this program in any manner prohibited above.
 ---------------------------------------------------------------
  

 Cite this work as:
 Gaussian 16, Revision A.03,
 M. J. Frisch, G. W. Trucks, H. B. Schlegel, G. E. Scuseria, 
 M. A. Robb, J. R. Cheeseman, G. Scalmani, V. Barone, 
 G. A. Petersson, H. Nakatsuji, X. Li, M. Caricato, A. V. Marenich, 
 J. Bloino, B. G. Janesko, R. Gomperts, B. Mennucci, H. P. Hratchian, 
 J. V. Ortiz, A. F. Izmaylov, J. L. Sonnenberg, D. Williams-Young, 
 F. Ding, F. Lipparini, F. Egidi, J. Goings, B. Peng, A. Petrone, 
 T. Henderson, D. Ranasinghe, V. G. Zakrzewski, J. Gao, N. Rega, 
 G. Zheng, W. Liang, M. Hada, M. Ehara, K. Toyota, R. Fukuda, 
 J. Hasegawa, M. Ishida, T. Nakajima, Y. Honda, O. Kitao, H. Nakai, 
 T. Vreven, K. Throssell, J. A. Montgomery, Jr., J. E. Peralta, 
 F. Ogliaro, M. J. Bearpark, J. J. Heyd, E. N. Brothers, K. N. Kudin, 
 V. N. Staroverov, T. A. Keith, R. Kobayashi, J. Normand, 
 K. Raghavachari, A. P. Rendell, J. C. Burant, S. S. Iyengar, 
 J. Tomasi, M. Cossi, J. M. Millam, M. Klene, C. Adamo, R. Cammi, 
 J. W. Ochterski, R. L. Martin, K. Morokuma, O. Farkas, 
 J. B. Foresman, and D. J. Fox, Gaussian, Inc., Wallingford CT, 2016.
 
 ******************************************
 Gaussian 16:  ES64L-G16RevA.03 25-Dec-2016
                23-Jun-2025 
 ******************************************
 %nprocshared=24
 Will use up to   24 processors via shared memory.
 %mem=12GB
 %chk=ethyl_propiolate_ts1.chk
 --------------------------
 # freq 6-311++g(d,p) m062x
 --------------------------
 1/10=4,30=1,38=1/1,3;
 2/12=2,17=6,18=5,40=1/2;
 3/5=4,6=6,7=1111,11=2,25=1,30=1,71=2,74=-55,140=1/1,2,3;
 4//1;
 5/5=2,38=5,98=1/2;
 8/6=4,10=90,11=11/1;
 11/6=1,8=1,9=11,15=111,16=1/1,2,10;
 10/6=1/2;
 6/7=2,8=2,9=2,10=2,28=1/1;
 7/8=1,10=1,25=1/1,2,3,16;
 1/10=4,30=1/3;
 99//99;
 -------------------
 Title Card Required
 -------------------
 Symbolic Z-matrix:
 Charge =  0 Multiplicity = 2
 O                    -1.40686   1.68663   0.09824 
 H                    -2.03517   1.79929   0.82869 
 C                    -2.78351  -0.49136  -0.44228 
 H                    -3.80986  -0.56595  -0.71799 
 C                    -1.62209  -0.31649  -0.14208 
 C                    -0.22174  -0.56411   0.23032 
 O                     0.11022  -0.91145   1.32775 
 O                     0.58088  -0.36367  -0.80579 
 C                     1.99525  -0.44946  -0.53471 
 C                     2.48428   0.82027   0.13301 
 H                     2.44435  -0.59097  -1.51594 
 H                     2.18208  -1.32879   0.08268 
 H                     3.56618   0.76975   0.27025 
 H                     2.24874   1.68746  -0.48508 
 H                     2.01658   0.94396   1.11012 
 

 GradGradGradGradGradGradGradGradGradGradGradGradGradGradGradGradGradGrad
 Berny optimization.
 Initialization pass.
 Trust Radius=3.00D-01 FncErr=1.00D-07 GrdErr=1.00D-07 EigMax=2.50D+02 EigMin=1.00D-04
 Number of steps in this run=      2 maximum allowed number of steps=      2.
 GradGradGradGradGradGradGradGradGradGradGradGradGradGradGradGradGradGrad

                          Input orientation:                          
 ---------------------------------------------------------------------
 Center     Atomic      Atomic             Coordinates (Angstroms)
 Number     Number       Type             X           Y           Z
 ---------------------------------------------------------------------
      1          8           0       -1.406856    1.686632    0.098244
      2          1           0       -2.035169    1.799293    0.828691
      3          6           0       -2.783513   -0.491356   -0.442275
      4          1           0       -3.809864   -0.565947   -0.717986
      5          6           0       -1.622093   -0.316488   -0.142075
      6          6           0       -0.221743   -0.564111    0.230322
      7          8           0        0.110224   -0.911451    1.327749
      8          8           0        0.580882   -0.363667   -0.805785
      9          6           0        1.995253   -0.449461   -0.534713
     10          6           0        2.484280    0.820272    0.133009
     11          1           0        2.444354   -0.590967   -1.515941
     12          1           0        2.182076   -1.328785    0.082676
     13          1           0        3.566182    0.769746    0.270248
     14          1           0        2.248737    1.687456   -0.485080
     15          1           0        2.016582    0.943957    1.110120
 ---------------------------------------------------------------------
                    Distance matrix (angstroms):
                    1          2          3          4          5
     1  O    0.000000
     2  H    0.970063   0.000000
     3  C    2.632675   2.724417   0.000000
     4  H    3.393345   3.337081   1.065353   0.000000
     5  C    2.028933   2.364222   1.212269   2.276015   0.000000
     6  C    2.547112   3.038460   2.649593   3.711321   1.470026
     7  O    3.250115   3.492836   3.418066   4.435256   2.348465
     8  O    2.995346   3.767444   3.386384   4.396280   2.301268
     9  C    4.066678   4.812491   4.779844   5.809177   3.641022
    10  C    3.986568   4.676310   5.459026   6.500926   4.269683
    11  H    4.756561   5.592564   5.337909   6.304966   4.301028
    12  H    4.687581   5.303448   5.062997   6.093138   3.942963
    13  H    5.059780   5.722496   6.512810   7.560869   5.316776
    14  H    3.701841   4.482226   5.483848   6.468285   4.372273
    15  H    3.646284   4.150601   5.245090   6.290410   4.049280
                    6          7          8          9         10
     6  C    0.000000
     7  O    1.197995   0.000000
     8  O    1.325859   2.252455   0.000000
     9  C    2.348083   2.689895   1.442666   0.000000
    10  C    3.041142   3.172130   2.430220   1.515659   0.000000
    11  H    3.187198   3.692891   2.007116   1.088358   2.170766
    12  H    2.526830   2.452946   2.069937   1.090542   2.170785
    13  H    4.016111   3.986023   3.369642   2.145285   1.091741
    14  H    3.418278   3.822814   2.663024   2.152471   1.090652
    15  H    2.838734   2.669101   2.727968   2.155816   1.090314
                   11         12         13         14         15
    11  H    0.000000
    12  H    1.780096   0.000000
    13  H    2.510081   2.520866   0.000000
    14  H    2.508416   3.069935   1.774366   0.000000
    15  H    3.071673   2.499677   1.771156   1.775204   0.000000
 Stoichiometry    C5H7O3(2)
 Framework group  C1[X(C5H7O3)]
 Deg. of freedom    39
 Full point group                 C1      NOp   1
 Largest Abelian subgroup         C1      NOp   1
 Largest concise Abelian subgroup C1      NOp   1
                         Standard orientation:                         
 ---------------------------------------------------------------------
 Center     Atomic      Atomic             Coordinates (Angstroms)
 Number     Number       Type             X           Y           Z
 ---------------------------------------------------------------------
      1          8           0       -1.406856    1.686632    0.098244
      2          1           0       -2.035169    1.799293    0.828691
      3          6           0       -2.783513   -0.491356   -0.442275
      4          1           0       -3.809864   -0.565948   -0.717986
      5          6           0       -1.622093   -0.316488   -0.142075
      6          6           0       -0.221743   -0.564111    0.230322
      7          8           0        0.110224   -0.911451    1.327749
      8          8           0        0.580882   -0.363667   -0.805785
      9          6           0        1.995253   -0.449461   -0.534713
     10          6           0        2.484280    0.820272    0.133009
     11          1           0        2.444354   -0.590967   -1.515941
     12          1           0        2.182076   -1.328785    0.082676
     13          1           0        3.566182    0.769746    0.270248
     14          1           0        2.248737    1.687456   -0.485080
     15          1           0        2.016582    0.943957    1.110120
 ---------------------------------------------------------------------
 Rotational constants (GHZ):           3.6098163           1.3094036           1.1889420
 Standard basis: 6-311++G(d,p) (5D, 7F)
 There are   233 symmetry adapted cartesian basis functions of A   symmetry.
 There are   225 symmetry adapted basis functions of A   symmetry.
   225 basis functions,   351 primitive gaussians,   233 cartesian basis functions
    31 alpha electrons       30 beta electrons
       nuclear repulsion energy       362.3178762194 Hartrees.
 NAtoms=   15 NActive=   15 NUniq=   15 SFac= 1.00D+00 NAtFMM=   60 NAOKFM=F Big=F
 Integral buffers will be    131072 words long.
 Raffenetti 2 integral format.
 Two-electron integral symmetry is turned on.
 One-electron integrals computed using PRISM.
 NBasis=   225 RedAO= T EigKep=  2.21D-06  NBF=   225
 NBsUse=   225 1.00D-06 EigRej= -1.00D+00 NBFU=   225
 ExpMin= 3.60D-02 ExpMax= 8.59D+03 ExpMxC= 1.30D+03 IAcc=3 IRadAn=         5 AccDes= 0.00D+00
 Harris functional with IExCor= 1009 and IRadAn=       5 diagonalized for initial guess.
 HarFok:  IExCor= 1009 AccDes= 0.00D+00 IRadAn=         5 IDoV= 1 UseB2=F ITyADJ=14
 ICtDFT=  3500011 ScaDFX=  1.000000  1.000000  1.000000  1.000000
 FoFCou: FMM=F IPFlag=           0 FMFlag=      100000 FMFlg1=           0
         NFxFlg=           0 DoJE=T BraDBF=F KetDBF=T FulRan=T
         wScrn=  0.000000 ICntrl=       500 IOpCl=  0 I1Cent=   200000004 NGrid=           0
         NMat0=    1 NMatS0=      1 NMatT0=    0 NMatD0=    1 NMtDS0=    0 NMtDT0=    0
 Petite list used in FoFCou.
 Initial guess <Sx>= 0.0000 <Sy>= 0.0000 <Sz>= 0.5000 <S**2>= 0.7500 S= 0.5000
 Requested convergence on RMS density matrix=1.00D-08 within 128 cycles.
 Requested convergence on MAX density matrix=1.00D-06.
 Requested convergence on             energy=1.00D-06.
 No special actions if energy rises.
 Restarting incremental Fock formation.
 SCF Done:  E(UM062X) =  -420.202401334     A.U. after   23 cycles
            NFock= 23  Conv=0.72D-08     -V/T= 2.0033
 <Sx>= 0.0000 <Sy>= 0.0000 <Sz>= 0.5000 <S**2>= 0.7722 S= 0.5110
 <L.S>=  0.00000000000    
 Annihilation of the first spin contaminant:
 S**2 before annihilation     0.7722,   after     0.7502
 DoSCS=F DFT=T ScalE2(SS,OS)=  1.000000  1.000000
 Range of M.O.s used for correlation:     1   225
 NBasis=   225 NAE=    31 NBE=    30 NFC=     0 NFV=     0
 NROrb=    225 NOA=    31 NOB=    30 NVA=   194 NVB=   195

 **** Warning!!: The largest alpha MO coefficient is  0.20641501D+03


 **** Warning!!: The largest beta MO coefficient is  0.17323065D+03

 Symmetrizing basis deriv contribution to polar:
 IMax=3 JMax=2 DiffMx= 0.00D+00
 G2DrvN: will do    16 centers at a time, making    1 passes.
 Calling FoFCou, ICntrl=  3107 FMM=F I1Cent=   0 AccDes= 0.00D+00.
 End of G2Drv F.D. properties file   721 does not exist.
 End of G2Drv F.D. properties file   722 does not exist.
 End of G2Drv F.D. properties file   788 does not exist.
          IDoAtm=111111111111111
          Differentiating once with respect to electric field.
                with respect to dipole field.
          Differentiating once with respect to nuclear coordinates.
 Keep R1 and R2 ints in memory in canonical form, NReq=671901991.
          There are    48 degrees of freedom in the 1st order CPHF.  IDoFFX=6 NUNeed=     3.
     45 vectors produced by pass  0 Test12= 2.47D-14 2.08D-09 XBig12= 9.33D+01 3.06D+00.
 AX will form    45 AO Fock derivatives at one time.
     45 vectors produced by pass  1 Test12= 2.47D-14 2.08D-09 XBig12= 1.93D+01 5.52D-01.
     45 vectors produced by pass  2 Test12= 2.47D-14 2.08D-09 XBig12= 7.36D-01 1.38D-01.
     45 vectors produced by pass  3 Test12= 2.47D-14 2.08D-09 XBig12= 1.14D-02 1.65D-02.
     45 vectors produced by pass  4 Test12= 2.47D-14 2.08D-09 XBig12= 1.11D-04 1.33D-03.
     45 vectors produced by pass  5 Test12= 2.47D-14 2.08D-09 XBig12= 9.54D-07 9.39D-05.
     39 vectors produced by pass  6 Test12= 2.47D-14 2.08D-09 XBig12= 9.30D-09 1.03D-05.
     22 vectors produced by pass  7 Test12= 2.47D-14 2.08D-09 XBig12= 6.97D-11 6.97D-07.
      4 vectors produced by pass  8 Test12= 2.47D-14 2.08D-09 XBig12= 5.99D-13 6.47D-08.
      3 vectors produced by pass  9 Test12= 2.47D-14 2.08D-09 XBig12= 7.46D-15 8.46D-09.
      2 vectors produced by pass 10 Test12= 2.47D-14 2.08D-09 XBig12= 5.27D-16 3.59D-09.
      1 vectors produced by pass 11 Test12= 2.47D-14 2.08D-09 XBig12= 1.56D-16 2.77D-09.
 InvSVY:  IOpt=1 It=  1 EMax= 7.11D-15
 Solved reduced A of dimension   341 with    48 vectors.
 Isotropic polarizability for W=    0.000000       74.83 Bohr**3.
 End of Minotr F.D. properties file   721 does not exist.
 End of Minotr F.D. properties file   722 does not exist.
 End of Minotr F.D. properties file   788 does not exist.

 **********************************************************************

            Population analysis using the SCF density.

 **********************************************************************

 Orbital symmetries:
 Alpha Orbitals:
       Occupied  (A) (A) (A) (A) (A) (A) (A) (A) (A) (A) (A) (A)
                 (A) (A) (A) (A) (A) (A) (A) (A) (A) (A) (A) (A)
                 (A) (A) (A) (A) (A) (A) (A)
       Virtual   (A) (A) (A) (A) (A) (A) (A) (A) (A) (A) (A) (A)
                 (A) (A) (A) (A) (A) (A) (A) (A) (A) (A) (A) (A)
                 (A) (A) (A) (A) (A) (A) (A) (A) (A) (A) (A) (A)
                 (A) (A) (A) (A) (A) (A) (A) (A) (A) (A) (A) (A)
                 (A) (A) (A) (A) (A) (A) (A) (A) (A) (A) (A) (A)
                 (A) (A) (A) (A) (A) (A) (A) (A) (A) (A) (A) (A)
                 (A) (A) (A) (A) (A) (A) (A) (A) (A) (A) (A) (A)
                 (A) (A) (A) (A) (A) (A) (A) (A) (A) (A) (A) (A)
                 (A) (A) (A) (A) (A) (A) (A) (A) (A) (A) (A) (A)
                 (A) (A) (A) (A) (A) (A) (A) (A) (A) (A) (A) (A)
                 (A) (A) (A) (A) (A) (A) (A) (A) (A) (A) (A) (A)
                 (A) (A) (A) (A) (A) (A) (A) (A) (A) (A) (A) (A)
                 (A) (A) (A) (A) (A) (A) (A) (A) (A) (A) (A) (A)
                 (A) (A) (A) (A) (A) (A) (A) (A) (A) (A) (A) (A)
                 (A) (A) (A) (A) (A) (A) (A) (A) (A) (A) (A) (A)
                 (A) (A) (A) (A) (A) (A) (A) (A) (A) (A) (A) (A)
                 (A) (A)
 Beta  Orbitals:
       Occupied  (A) (A) (A) (A) (A) (A) (A) (A) (A) (A) (A) (A)
                 (A) (A) (A) (A) (A) (A) (A) (A) (A) (A) (A) (A)
                 (A) (A) (A) (A) (A) (A)
       Virtual   (A) (A) (A) (A) (A) (A) (A) (A) (A) (A) (A) (A)
                 (A) (A) (A) (A) (A) (A) (A) (A) (A) (A) (A) (A)
                 (A) (A) (A) (A) (A) (A) (A) (A) (A) (A) (A) (A)
                 (A) (A) (A) (A) (A) (A) (A) (A) (A) (A) (A) (A)
                 (A) (A) (A) (A) (A) (A) (A) (A) (A) (A) (A) (A)
                 (A) (A) (A) (A) (A) (A) (A) (A) (A) (A) (A) (A)
                 (A) (A) (A) (A) (A) (A) (A) (A) (A) (A) (A) (A)
                 (A) (A) (A) (A) (A) (A) (A) (A) (A) (A) (A) (A)
                 (A) (A) (A) (A) (A) (A) (A) (A) (A) (A) (A) (A)
                 (A) (A) (A) (A) (A) (A) (A) (A) (A) (A) (A) (A)
                 (A) (A) (A) (A) (A) (A) (A) (A) (A) (A) (A) (A)
                 (A) (A) (A) (A) (A) (A) (A) (A) (A) (A) (A) (A)
                 (A) (A) (A) (A) (A) (A) (A) (A) (A) (A) (A) (A)
                 (A) (A) (A) (A) (A) (A) (A) (A) (A) (A) (A) (A)
                 (A) (A) (A) (A) (A) (A) (A) (A) (A) (A) (A) (A)
                 (A) (A) (A) (A) (A) (A) (A) (A) (A) (A) (A) (A)
                 (A) (A) (A)
 The electronic state is 2-A.
 Alpha  occ. eigenvalues --  -19.68096 -19.65938 -19.63025 -10.70624 -10.60357
 Alpha  occ. eigenvalues --  -10.59307 -10.58485 -10.53372  -1.25652  -1.16356
 Alpha  occ. eigenvalues --   -1.12008  -0.91053  -0.87457  -0.78111  -0.70675
 Alpha  occ. eigenvalues --   -0.64476  -0.62125  -0.58565  -0.57243  -0.53768
 Alpha  occ. eigenvalues --   -0.53237  -0.50224  -0.48439  -0.46057  -0.45074
 Alpha  occ. eigenvalues --   -0.41734  -0.41136  -0.39684  -0.38318  -0.36660
 Alpha  occ. eigenvalues --   -0.34299
 Alpha virt. eigenvalues --   -0.00644  -0.00224   0.00498   0.01478   0.02535
 Alpha virt. eigenvalues --    0.02778   0.03434   0.04326   0.05672   0.06178
 Alpha virt. eigenvalues --    0.07108   0.07613   0.08428   0.09839   0.10659
 Alpha virt. eigenvalues --    0.11016   0.11415   0.12459   0.12839   0.13700
 Alpha virt. eigenvalues --    0.14283   0.14655   0.15220   0.15646   0.15809
 Alpha virt. eigenvalues --    0.16978   0.17402   0.18357   0.19079   0.20640
 Alpha virt. eigenvalues --    0.21271   0.21649   0.23557   0.24296   0.24467
 Alpha virt. eigenvalues --    0.25347   0.26594   0.27721   0.29612   0.30748
 Alpha virt. eigenvalues --    0.31242   0.32043   0.32485   0.33976   0.34554
 Alpha virt. eigenvalues --    0.34751   0.35852   0.36972   0.38808   0.40518
 Alpha virt. eigenvalues --    0.41092   0.43319   0.44913   0.46781   0.48859
 Alpha virt. eigenvalues --    0.50063   0.53619   0.55156   0.56056   0.58503
 Alpha virt. eigenvalues --    0.59230   0.60577   0.63239   0.66148   0.67080
 Alpha virt. eigenvalues --    0.69588   0.70030   0.70393   0.72207   0.72234
 Alpha virt. eigenvalues --    0.73838   0.75516   0.77338   0.78673   0.79767
 Alpha virt. eigenvalues --    0.84026   0.86695   0.91510   0.93769   0.98300
 Alpha virt. eigenvalues --    1.01357   1.04833   1.06551   1.08675   1.11106
 Alpha virt. eigenvalues --    1.15501   1.17987   1.19243   1.20348   1.23648
 Alpha virt. eigenvalues --    1.25054   1.26329   1.29504   1.32760   1.35317
 Alpha virt. eigenvalues --    1.35658   1.36710   1.38323   1.41611   1.45605
 Alpha virt. eigenvalues --    1.47424   1.49133   1.51493   1.53278   1.56697
 Alpha virt. eigenvalues --    1.58546   1.59820   1.62005   1.62661   1.65477
 Alpha virt. eigenvalues --    1.66477   1.67919   1.70653   1.73446   1.74782
 Alpha virt. eigenvalues --    1.78991   1.81219   1.83901   1.86928   1.89249
 Alpha virt. eigenvalues --    1.90477   1.94904   1.99378   2.03818   2.05129
 Alpha virt. eigenvalues --    2.09978   2.11023   2.14286   2.21165   2.31813
 Alpha virt. eigenvalues --    2.35686   2.37289   2.45528   2.52027   2.53383
 Alpha virt. eigenvalues --    2.54502   2.55755   2.61033   2.62173   2.63478
 Alpha virt. eigenvalues --    2.65696   2.66547   2.72053   2.73749   2.75911
 Alpha virt. eigenvalues --    2.80294   2.82997   2.84710   2.89925   2.91709
 Alpha virt. eigenvalues --    2.94586   2.96870   2.99301   3.02566   3.05548
 Alpha virt. eigenvalues --    3.11254   3.14586   3.16209   3.18529   3.20442
 Alpha virt. eigenvalues --    3.26272   3.27242   3.31742   3.36694   3.37899
 Alpha virt. eigenvalues --    3.45367   3.49377   3.65613   3.76733   3.85661
 Alpha virt. eigenvalues --    3.86322   3.89515   3.91033   4.03208   4.12639
 Alpha virt. eigenvalues --    4.19287   4.28472   5.12322   5.14152   5.16978
 Alpha virt. eigenvalues --    5.20456   5.32600   5.47578   5.59909   5.73757
 Alpha virt. eigenvalues --    5.94914  23.60868  23.92971  23.94432  24.06127
 Alpha virt. eigenvalues --   25.03403  49.96438  50.01466  50.11321
  Beta  occ. eigenvalues --  -19.68100 -19.64531 -19.63045 -10.70597 -10.60357
  Beta  occ. eigenvalues --  -10.59361 -10.58246 -10.53372  -1.25654  -1.16396
  Beta  occ. eigenvalues --   -1.06187  -0.90439  -0.86996  -0.77865  -0.70410
  Beta  occ. eigenvalues --   -0.64364  -0.61633  -0.58502  -0.56809  -0.53204
  Beta  occ. eigenvalues --   -0.51476  -0.48982  -0.46601  -0.45140  -0.41719
  Beta  occ. eigenvalues --   -0.39540  -0.39341  -0.38426  -0.37928  -0.35863
  Beta virt. eigenvalues --   -0.09831  -0.00189   0.00427   0.00695   0.01774
  Beta virt. eigenvalues --    0.02642   0.02816   0.03457   0.04392   0.05737
  Beta virt. eigenvalues --    0.06150   0.07210   0.07538   0.08481   0.09916
  Beta virt. eigenvalues --    0.10786   0.11249   0.11648   0.12558   0.12804
  Beta virt. eigenvalues --    0.13701   0.14370   0.14967   0.15475   0.15701
  Beta virt. eigenvalues --    0.16107   0.16983   0.17402   0.18369   0.19171
  Beta virt. eigenvalues --    0.20868   0.21587   0.21758   0.23623   0.24158
  Beta virt. eigenvalues --    0.24571   0.25396   0.26751   0.27821   0.29536
  Beta virt. eigenvalues --    0.30761   0.31221   0.32037   0.32544   0.34050
  Beta virt. eigenvalues --    0.34539   0.34752   0.35956   0.36992   0.38875
  Beta virt. eigenvalues --    0.40497   0.41238   0.43260   0.44918   0.46806
  Beta virt. eigenvalues --    0.48999   0.50084   0.53627   0.55227   0.56346
  Beta virt. eigenvalues --    0.58997   0.59555   0.60833   0.63320   0.66350
  Beta virt. eigenvalues --    0.67042   0.69794   0.70091   0.70351   0.72072
  Beta virt. eigenvalues --    0.72252   0.73846   0.75498   0.77256   0.78654
  Beta virt. eigenvalues --    0.79766   0.84082   0.86751   0.91535   0.94131
  Beta virt. eigenvalues --    0.98305   1.01417   1.05113   1.07068   1.08730
  Beta virt. eigenvalues --    1.12744   1.16164   1.18376   1.19869   1.21036
  Beta virt. eigenvalues --    1.23886   1.25541   1.26601   1.29742   1.33675
  Beta virt. eigenvalues --    1.35546   1.36322   1.36903   1.38978   1.42286
  Beta virt. eigenvalues --    1.46230   1.47734   1.49408   1.51850   1.53793
  Beta virt. eigenvalues --    1.57084   1.58600   1.59833   1.62095   1.62699
  Beta virt. eigenvalues --    1.65488   1.66481   1.67928   1.70689   1.73632
  Beta virt. eigenvalues --    1.74879   1.79219   1.81271   1.84217   1.87051
  Beta virt. eigenvalues --    1.89404   1.90718   1.95451   1.99402   2.03948
  Beta virt. eigenvalues --    2.05254   2.10133   2.12089   2.14309   2.21186
  Beta virt. eigenvalues --    2.31831   2.35710   2.37500   2.45613   2.52031
  Beta virt. eigenvalues --    2.53470   2.54514   2.55859   2.61638   2.62339
  Beta virt. eigenvalues --    2.63782   2.65941   2.66705   2.72387   2.73788
  Beta virt. eigenvalues --    2.76177   2.81029   2.83133   2.87245   2.90798
  Beta virt. eigenvalues --    2.93764   2.94673   2.97478   2.99688   3.03724
  Beta virt. eigenvalues --    3.07309   3.11669   3.16362   3.18350   3.20080
  Beta virt. eigenvalues --    3.21586   3.27206   3.28236   3.31828   3.37212
  Beta virt. eigenvalues --    3.37829   3.45318   3.50066   3.65596   3.76779
  Beta virt. eigenvalues --    3.85693   3.86362   3.90998   3.92568   4.03198
  Beta virt. eigenvalues --    4.12560   4.19198   4.28468   5.13768   5.16337
  Beta virt. eigenvalues --    5.20853   5.22634   5.32694   5.47573   5.62350
  Beta virt. eigenvalues --    5.73742   5.94901  23.60938  23.92977  23.94437
  Beta virt. eigenvalues --   24.06127  25.03814  49.95961  50.01397  50.11348
          Condensed to atoms (all electrons):
               1          2          3          4          5          6
     1  O    8.107981   0.234532  -0.276683  -0.003067   0.489799  -0.304408
     2  H    0.234532   0.510959  -0.106014  -0.002596   0.080437   0.050574
     3  C   -0.276683  -0.106014  26.849978   0.588883  -8.943530 -11.199136
     4  H   -0.003067  -0.002596   0.588883   0.428426  -0.154715  -0.048804
     5  C    0.489799   0.080437  -8.943530  -0.154715  15.957903  -1.870419
     6  C   -0.304408   0.050574 -11.199136  -0.048804  -1.870419  19.139348
     7  O   -0.009216  -0.000131  -0.057466  -0.001451   0.103574   0.372686
     8  O    0.003595  -0.001044  -0.054130  -0.002688  -0.200351   0.108250
     9  C   -0.021643   0.003713  -0.201811  -0.000934  -0.380658   0.469989
    10  C    0.017333  -0.004136   0.080224   0.000193   0.105454  -0.304020
    11  H    0.000667   0.000048  -0.014504  -0.000018  -0.021705   0.044922
    12  H   -0.001068   0.000224  -0.032099  -0.000210  -0.054081   0.073159
    13  H    0.000467   0.000175  -0.008096  -0.000021  -0.008693   0.022126
    14  H   -0.001839  -0.000214   0.002098   0.000042   0.008239  -0.011333
    15  H    0.002775  -0.000223   0.031017  -0.000174   0.019617  -0.064874
               7          8          9         10         11         12
     1  O   -0.009216   0.003595  -0.021643   0.017333   0.000667  -0.001068
     2  H   -0.000131  -0.001044   0.003713  -0.004136   0.000048   0.000224
     3  C   -0.057466  -0.054130  -0.201811   0.080224  -0.014504  -0.032099
     4  H   -0.001451  -0.002688  -0.000934   0.000193  -0.000018  -0.000210
     5  C    0.103574  -0.200351  -0.380658   0.105454  -0.021705  -0.054081
     6  C    0.372686   0.108250   0.469989  -0.304020   0.044922   0.073159
     7  O    7.975629  -0.149939   0.049244  -0.071024   0.004394  -0.016261
     8  O   -0.149939   8.256599   0.120533  -0.027209  -0.093352  -0.008088
     9  C    0.049244   0.120533   5.445726   0.022076   0.447827   0.415325
    10  C   -0.071024  -0.027209   0.022076   5.491347  -0.055566  -0.039673
    11  H    0.004394  -0.093352   0.447827  -0.055566   0.532222  -0.038045
    12  H   -0.016261  -0.008088   0.415325  -0.039673  -0.038045   0.522029
    13  H   -0.002215   0.015125  -0.047182   0.399552  -0.000235  -0.004312
    14  H    0.001638  -0.001331  -0.035296   0.415454  -0.010774   0.005142
    15  H    0.001437  -0.022536  -0.009044   0.385529   0.009053  -0.010202
              13         14         15
     1  O    0.000467  -0.001839   0.002775
     2  H    0.000175  -0.000214  -0.000223
     3  C   -0.008096   0.002098   0.031017
     4  H   -0.000021   0.000042  -0.000174
     5  C   -0.008693   0.008239   0.019617
     6  C    0.022126  -0.011333  -0.064874
     7  O   -0.002215   0.001638   0.001437
     8  O    0.015125  -0.001331  -0.022536
     9  C   -0.047182  -0.035296  -0.009044
    10  C    0.399552   0.415454   0.385529
    11  H   -0.000235  -0.010774   0.009053
    12  H   -0.004312   0.005142  -0.010202
    13  H    0.534752  -0.031522  -0.038966
    14  H   -0.031522   0.529588  -0.042396
    15  H   -0.038966  -0.042396   0.549969
          Atomic-Atomic Spin Densities.
               1          2          3          4          5          6
     1  O    0.899394   0.010927  -0.336714  -0.004232  -0.018366   0.218228
     2  H    0.010927  -0.031186   0.026215   0.000445  -0.007295  -0.016924
     3  C   -0.336714   0.026215   1.709736   0.059485  -0.534151  -0.492148
     4  H   -0.004232   0.000445   0.059485  -0.010105  -0.038108  -0.023537
     5  C   -0.018366  -0.007295  -0.534151  -0.038108   0.250938   0.179509
     6  C    0.218228  -0.016924  -0.492148  -0.023537   0.179509   0.129653
     7  O    0.002150  -0.000221   0.004242  -0.000028   0.003277  -0.005360
     8  O    0.002784   0.000271  -0.019768  -0.000272   0.002768   0.021072
     9  C    0.004949  -0.000596  -0.031643  -0.000190  -0.035340   0.059850
    10  C   -0.003140   0.000712   0.033272   0.000218   0.039504  -0.063030
    11  H    0.000261  -0.000023  -0.001832  -0.000023  -0.001875   0.003061
    12  H    0.000574  -0.000063  -0.000625  -0.000057   0.000533  -0.001482
    13  H   -0.000054   0.000030   0.001618   0.000015   0.002000  -0.003012
    14  H   -0.000059  -0.000058  -0.001533  -0.000014  -0.002645   0.003744
    15  H    0.000096  -0.000273  -0.010163  -0.000031  -0.016704   0.025931
               7          8          9         10         11         12
     1  O    0.002150   0.002784   0.004949  -0.003140   0.000261   0.000574
     2  H   -0.000221   0.000271  -0.000596   0.000712  -0.000023  -0.000063
     3  C    0.004242  -0.019768  -0.031643   0.033272  -0.001832  -0.000625
     4  H   -0.000028  -0.000272  -0.000190   0.000218  -0.000023  -0.000057
     5  C    0.003277   0.002768  -0.035340   0.039504  -0.001875   0.000533
     6  C   -0.005360   0.021072   0.059850  -0.063030   0.003061  -0.001482
     7  O   -0.014209   0.000433   0.000023   0.000625   0.000043  -0.000370
     8  O    0.000433  -0.004495  -0.002724   0.001286   0.000049   0.000192
     9  C    0.000023  -0.002724   0.012575  -0.012084   0.000732   0.002161
    10  C    0.000625   0.001286  -0.012084   0.009883  -0.001030  -0.001911
    11  H    0.000043   0.000049   0.000732  -0.001030   0.000170   0.000286
    12  H   -0.000370   0.000192   0.002161  -0.001911   0.000286   0.000091
    13  H   -0.000034   0.000135  -0.001791   0.002056  -0.000063  -0.000205
    14  H   -0.000048  -0.000115   0.001077  -0.001275   0.000040   0.000159
    15  H   -0.000212  -0.000940   0.002212  -0.001641   0.000365   0.000692
              13         14         15
     1  O   -0.000054  -0.000059   0.000096
     2  H    0.000030  -0.000058  -0.000273
     3  C    0.001618  -0.001533  -0.010163
     4  H    0.000015  -0.000014  -0.000031
     5  C    0.002000  -0.002645  -0.016704
     6  C   -0.003012   0.003744   0.025931
     7  O   -0.000034  -0.000048  -0.000212
     8  O    0.000135  -0.000115  -0.000940
     9  C   -0.001791   0.001077   0.002212
    10  C    0.002056  -0.001275  -0.001641
    11  H   -0.000063   0.000040   0.000365
    12  H   -0.000205   0.000159   0.000692
    13  H    0.000332  -0.000407  -0.000564
    14  H   -0.000407   0.000540   0.000129
    15  H   -0.000564   0.000129  -0.000186
 Mulliken charges and spin densities:
               1          2
     1  O   -0.239226   0.776797
     2  H    0.233696  -0.018039
     3  C   -0.658733   0.405991
     4  H    0.197134  -0.016434
     5  C    0.869130  -0.175955
     6  C   -0.478062   0.035556
     7  O   -0.200897  -0.009689
     8  O    0.056567   0.000677
     9  C   -0.277866  -0.000789
    10  C   -0.415533   0.003444
    11  H    0.195065   0.000161
    12  H    0.188158  -0.000024
    13  H    0.169047   0.000055
    14  H    0.172503  -0.000464
    15  H    0.189018  -0.001287
 Sum of Mulliken charges =  -0.00000   1.00000
 Mulliken charges and spin densities with hydrogens summed into heavy atoms:
               1          2
     1  O   -0.005530   0.758759
     3  C   -0.461599   0.389556
     5  C    0.869130  -0.175955
     6  C   -0.478062   0.035556
     7  O   -0.200897  -0.009689
     8  O    0.056567   0.000677
     9  C    0.105358  -0.000652
    10  C    0.115034   0.001748
 APT charges:
               1
     1  O   -0.135052
     2  H    0.250947
     3  C   -0.133925
     4  H    0.238723
     5  C   -0.494064
     6  C    1.466637
     7  O   -0.775332
     8  O   -0.936976
     9  C    0.531989
    10  C   -0.042635
    11  H   -0.013288
    12  H   -0.011131
    13  H    0.010168
    14  H    0.016369
    15  H    0.027572
 Sum of APT charges =  -0.00000
 APT charges with hydrogens summed into heavy atoms:
               1
     1  O    0.115895
     3  C    0.104797
     5  C   -0.494064
     6  C    1.466637
     7  O   -0.775332
     8  O   -0.936976
     9  C    0.507570
    10  C    0.011473
 Electronic spatial extent (au):  <R**2>=           1064.0887
 Charge=              0.0000 electrons
 Dipole moment (field-independent basis, Debye):
    X=             -0.6829    Y=             -0.1825    Z=             -0.7276  Tot=              1.0144
 Quadrupole moment (field-independent basis, Debye-Ang):
   XX=            -29.8934   YY=            -49.1176   ZZ=            -51.1240
   XY=              0.3433   XZ=             -1.6421   YZ=              5.0803
 Traceless Quadrupole moment (field-independent basis, Debye-Ang):
   XX=             13.4849   YY=             -5.7393   ZZ=             -7.7457
   XY=              0.3433   XZ=             -1.6421   YZ=              5.0803
 Octapole moment (field-independent basis, Debye-Ang**2):
  XXX=            -35.4948  YYY=              2.3354  ZZZ=             -1.5822  XYY=              1.1042
  XXY=             -2.4962  XXZ=             -6.1015  XZZ=             -0.0485  YZZ=              6.8293
  YYZ=              3.3550  XYZ=             -6.7607
 Hexadecapole moment (field-independent basis, Debye-Ang**3):
 XXXX=           -741.2405 YYYY=           -265.6879 ZZZZ=           -174.5151 XXXY=             -0.8715
 XXXZ=             21.1321 YYYX=            -18.3306 YYYZ=              9.6120 ZZZX=            -10.5195
 ZZZY=              7.5937 XXYY=           -200.9008 XXZZ=           -180.9119 YYZZ=            -72.6718
 XXYZ=             20.1410 YYXZ=            -12.7812 ZZXY=             -8.4060
 N-N= 3.623178762194D+02 E-N=-1.709475750720D+03  KE= 4.188399142423D+02
  Exact polarizability:  91.224   7.674  73.639   4.698   3.164  59.640
 Approx polarizability:  98.102   8.333  77.880   7.550  -0.105  76.899
                          Isotropic Fermi Contact Couplings
        Atom                 a.u.       MegaHertz       Gauss      10(-4) cm-1
     1  O(17)              0.13189     -79.94881     -28.52772     -26.66805
     2  H(1)              -0.01334     -59.60625     -21.26899     -19.88250
     3  C(13)              0.05023      56.46473      20.14802      18.83461
     4  H(1)              -0.00606     -27.07680      -9.66167      -9.03185
     5  C(13)              0.01180      13.27038       4.73520       4.42652
     6  C(13)              0.01664      18.70317       6.67375       6.23870
     7  O(17)             -0.00362       2.19430       0.78298       0.73194
     8  O(17)              0.00017      -0.10106      -0.03606      -0.03371
     9  C(13)             -0.00002      -0.02000      -0.00714      -0.00667
    10  C(13)             -0.00057      -0.63589      -0.22690      -0.21211
    11  H(1)               0.00003       0.12952       0.04622       0.04320
    12  H(1)              -0.00005      -0.20352      -0.07262      -0.06789
    13  H(1)              -0.00001      -0.03426      -0.01222      -0.01143
    14  H(1)               0.00002       0.06795       0.02425       0.02267
    15  H(1)               0.00001       0.06051       0.02159       0.02018
 --------------------------------------------------------
       Center         ----  Spin Dipole Couplings  ----
                      3XX-RR        3YY-RR        3ZZ-RR
 --------------------------------------------------------
     1   Atom       -0.915297      2.326373     -1.411076
     2   Atom        0.003560     -0.045847      0.042288
     3   Atom       -0.224676      0.382831     -0.158156
     4   Atom        0.028735     -0.005278     -0.023456
     5   Atom        0.069830     -0.027225     -0.042605
     6   Atom        0.006670      0.011526     -0.018196
     7   Atom        0.027870     -0.040039      0.012168
     8   Atom        0.007679     -0.011625      0.003946
     9   Atom        0.002693     -0.000686     -0.002007
    10   Atom        0.003303     -0.001539     -0.001764
    11   Atom        0.001272     -0.000485     -0.000787
    12   Atom        0.001159      0.000095     -0.001253
    13   Atom        0.001717     -0.000799     -0.000918
    14   Atom        0.004326     -0.002192     -0.002134
    15   Atom        0.003766     -0.001907     -0.001859
 --------------------------------------------------------
                        XY            XZ            YZ
 --------------------------------------------------------
     1   Atom        1.553984      0.312488      0.749549
     2   Atom        0.001145     -0.118368      0.040080
     3   Atom       -0.030050     -0.020387      0.044702
     4   Atom        0.006350      0.015383      0.003863
     5   Atom       -0.004699      0.029389      0.004738
     6   Atom       -0.019303      0.004684     -0.001848
     7   Atom       -0.046506     -0.009848     -0.023106
     8   Atom       -0.011944     -0.007480      0.005319
     9   Atom       -0.002664     -0.000460      0.000316
    10   Atom       -0.001426      0.000070      0.000038
    11   Atom       -0.001122     -0.000845      0.000466
    12   Atom       -0.001493      0.000115     -0.000056
    13   Atom       -0.000425      0.000133      0.000006
    14   Atom       -0.000059     -0.001018      0.000095
    15   Atom       -0.001353      0.001893     -0.000366
 --------------------------------------------------------


 ---------------------------------------------------------------------------------
              Anisotropic Spin Dipole Couplings in Principal Axis System
 ---------------------------------------------------------------------------------

       Atom             a.u.   MegaHertz   Gauss  10(-4) cm-1        Axes

              Baa    -1.5621   113.030    40.332    37.703 -0.4492  0.0073  0.8934
     1 O(17)  Bbb    -1.5352   111.083    39.637    37.053  0.8144 -0.4079  0.4128
              Bcc     3.0972  -224.113   -79.969   -74.756  0.3674  0.9130  0.1773
 
              Baa    -0.1091   -58.196   -20.766   -19.412  0.6629 -0.4094  0.6268
     2 H(1)   Bbb    -0.0385   -20.519    -7.322    -6.844  0.4096  0.8992  0.1541
              Bcc     0.1475    78.715    28.087    26.256 -0.6267  0.1546  0.7638
 
              Baa    -0.2309   -30.986   -11.057   -10.336  0.9670  0.0289  0.2532
     3 C(13)  Bbb    -0.1572   -21.098    -7.528    -7.037 -0.2496 -0.0937  0.9638
              Bcc     0.3881    52.084    18.585    17.373 -0.0516  0.9952  0.0834
 
              Baa    -0.0278   -14.858    -5.302    -4.956 -0.2513 -0.0942  0.9633
     4 H(1)   Bbb    -0.0064    -3.403    -1.214    -1.135 -0.1966  0.9795  0.0445
              Bcc     0.0342    18.261     6.516     6.091  0.9477  0.1782  0.2647
 
              Baa    -0.0512    -6.870    -2.451    -2.292 -0.2380 -0.2331  0.9429
     5 C(13)  Bbb    -0.0260    -3.484    -1.243    -1.162 -0.0241  0.9719  0.2341
              Bcc     0.0772    10.354     3.695     3.454  0.9710 -0.0330  0.2370
 
              Baa    -0.0192    -2.578    -0.920    -0.860 -0.2470 -0.0971  0.9641
     6 C(13)  Bbb    -0.0098    -1.311    -0.468    -0.437  0.7070  0.6623  0.2478
              Bcc     0.0290     3.889     1.388     1.297 -0.6627  0.7429 -0.0949
 
              Baa    -0.0712     5.152     1.838     1.719  0.4302  0.8556  0.2879
     7 O(17)  Bbb     0.0196    -1.420    -0.507    -0.474 -0.1754 -0.2336  0.9564
              Bcc     0.0516    -3.732    -1.332    -1.245  0.8855 -0.4620  0.0496
 
              Baa    -0.0175     1.264     0.451     0.421  0.4072  0.9095 -0.0837
     8 O(17)  Bbb    -0.0014     0.103     0.037     0.034  0.5050 -0.1478  0.8504
              Bcc     0.0189    -1.366    -0.488    -0.456  0.7610 -0.3885 -0.5195
 
              Baa    -0.0022    -0.292    -0.104    -0.097  0.4054  0.8132 -0.4175
     9 C(13)  Bbb    -0.0020    -0.273    -0.097    -0.091  0.2731  0.3282  0.9043
              Bcc     0.0042     0.565     0.201     0.188  0.8724 -0.4806 -0.0890
 
              Baa    -0.0019    -0.261    -0.093    -0.087  0.2543  0.9215 -0.2934
    10 C(13)  Bbb    -0.0017    -0.235    -0.084    -0.078  0.0674  0.2858  0.9559
              Bcc     0.0037     0.495     0.177     0.165  0.9648 -0.2629  0.0105
 
              Baa    -0.0011    -0.602    -0.215    -0.201  0.0611 -0.5140  0.8556
    11 H(1)   Bbb    -0.0010    -0.538    -0.192    -0.180  0.5206  0.7478  0.4121
              Bcc     0.0021     1.140     0.407     0.380  0.8516 -0.4202 -0.3133
 
              Baa    -0.0013    -0.672    -0.240    -0.224 -0.0692 -0.0352  0.9970
    12 H(1)   Bbb    -0.0010    -0.510    -0.182    -0.170  0.5727  0.8169  0.0686
              Bcc     0.0022     1.182     0.422     0.394  0.8168 -0.5758  0.0363
 
              Baa    -0.0009    -0.499    -0.178    -0.167 -0.1049 -0.3656  0.9248
    13 H(1)   Bbb    -0.0009    -0.458    -0.163    -0.153  0.1317  0.9167  0.3773
              Bcc     0.0018     0.957     0.341     0.319  0.9857 -0.1614  0.0480
 
              Baa    -0.0023    -1.248    -0.445    -0.416  0.1264 -0.5003  0.8566
    14 H(1)   Bbb    -0.0021    -1.144    -0.408    -0.382  0.0855  0.8658  0.4931
              Bcc     0.0045     2.392     0.854     0.798  0.9883 -0.0110 -0.1522
 
              Baa    -0.0024    -1.305    -0.466    -0.435 -0.3222 -0.1785  0.9297
    15 H(1)   Bbb    -0.0022    -1.173    -0.419    -0.391  0.1437  0.9615  0.2344
              Bcc     0.0046     2.478     0.884     0.826  0.9357 -0.2092  0.2842
 

 ---------------------------------------------------------------------------------

 Calling FoFJK, ICntrl=    100127 FMM=F ISym2X=0 I1Cent= 0 IOpClX= 1 NMat=1 NMatS=1 NMatT=0.
 Full mass-weighted force constant matrix:
 Low frequencies --- -489.4706  -36.2113  -20.3478   -5.6350   -0.0000    0.0008
 Low frequencies ---    0.0009   39.0520   56.4397
 ******    1 imaginary frequencies (negative Signs) ****** 
 Diagonal vibrational polarizability:
       72.3517110     140.2993740      40.2417417
 Harmonic frequencies (cm**-1), IR intensities (KM/Mole), Raman scattering
 activities (A**4/AMU), depolarization ratios for plane and unpolarized
 incident light, reduced masses (AMU), force constants (mDyne/A),
 and normal coordinates:
                      1                      2                      3
                      A                      A                      A
 Frequencies --   -489.4704                35.8384                56.0328
 Red. masses --     11.9493                 4.7100                 3.7497
 Frc consts  --      1.6867                 0.0036                 0.0069
 IR Inten    --     66.7178                 6.4497                 1.8256
  Atom  AN      X      Y      Z        X      Y      Z        X      Y      Z
     1   8    -0.05  -0.52  -0.07    -0.20  -0.01   0.28     0.22  -0.05   0.10
     2   1     0.01  -0.18  -0.08    -0.07  -0.27   0.42     0.24  -0.03   0.11
     3   6     0.05  -0.04   0.01     0.06  -0.02  -0.21    -0.00   0.11  -0.07
     4   1     0.07  -0.24  -0.02     0.09  -0.04  -0.31    -0.00   0.20  -0.11
     5   6     0.03   0.77   0.11     0.02   0.01  -0.08     0.00  -0.00  -0.03
     6   6     0.02   0.07   0.01     0.01   0.06   0.00    -0.02  -0.08   0.00
     7   8    -0.03  -0.04  -0.02    -0.03   0.20   0.05    -0.05  -0.05   0.02
     8   8    -0.00  -0.01  -0.00     0.04  -0.07  -0.00     0.00  -0.15   0.00
     9   6     0.01  -0.01  -0.00     0.03  -0.12   0.03    -0.00   0.03   0.08
    10   6    -0.01  -0.00  -0.00     0.10  -0.04  -0.16    -0.18   0.21  -0.13
    11   1     0.00  -0.01  -0.01     0.04  -0.30   0.06     0.06  -0.10   0.12
    12   1     0.01  -0.01  -0.01    -0.04  -0.03   0.17     0.06   0.16   0.24
    13   1    -0.01  -0.00   0.00     0.09  -0.10  -0.12    -0.19   0.35  -0.02
    14   1    -0.01  -0.01  -0.00     0.18  -0.12  -0.30    -0.22   0.06  -0.31
    15   1    -0.01  -0.00  -0.00     0.08   0.14  -0.19    -0.29   0.34  -0.19
                      4                      5                      6
                      A                      A                      A
 Frequencies --    116.6063               154.5572               165.5235
 Red. masses --      3.5265                 4.6285                 2.8112
 Frc consts  --      0.0283                 0.0651                 0.0454
 IR Inten    --      1.5148                20.4329                 4.3997
  Atom  AN      X      Y      Z        X      Y      Z        X      Y      Z
     1   8     0.06  -0.03   0.04     0.29  -0.09   0.08     0.10  -0.05   0.05
     2   1     0.21  -0.10   0.19    -0.21   0.17  -0.39     0.10  -0.06   0.06
     3   6     0.00  -0.01   0.01    -0.00  -0.18  -0.19    -0.10  -0.11   0.17
     4   1    -0.01  -0.00   0.05     0.05  -0.32  -0.35    -0.15  -0.20   0.40
     5   6     0.02  -0.01  -0.02    -0.08  -0.06   0.02    -0.04  -0.02  -0.11
     6   6     0.03   0.03  -0.05    -0.07   0.07   0.08    -0.03   0.05  -0.12
     7   8     0.08   0.24   0.00    -0.03   0.09   0.08    -0.09   0.09  -0.09
     8   8    -0.01  -0.15  -0.11    -0.12   0.15   0.06     0.05   0.06  -0.06
     9   6    -0.01  -0.00  -0.09    -0.11   0.05  -0.08     0.02  -0.02   0.09
    10   6    -0.18  -0.08   0.18     0.07  -0.05  -0.03     0.05   0.00   0.03
    11   1     0.03   0.25  -0.11    -0.21   0.09  -0.14     0.12  -0.15   0.15
    12   1     0.10  -0.11  -0.26    -0.10  -0.01  -0.17    -0.12   0.03   0.20
    13   1    -0.16   0.07   0.09     0.09  -0.13  -0.22     0.00  -0.19   0.37
    14   1    -0.36   0.03   0.40     0.03   0.03   0.09     0.41  -0.05  -0.17
    15   1    -0.12  -0.38   0.24     0.24  -0.12   0.06    -0.22   0.24  -0.13
                      7                      8                      9
                      A                      A                      A
 Frequencies --    212.6067               228.8075               261.5720
 Red. masses --      1.5264                 1.4475                 2.0262
 Frc consts  --      0.0407                 0.0446                 0.0817
 IR Inten    --     35.0737                 4.8375                26.6595
  Atom  AN      X      Y      Z        X      Y      Z        X      Y      Z
     1   8    -0.00  -0.09  -0.05    -0.01  -0.05  -0.05     0.02   0.15  -0.03
     2   1     0.56  -0.26   0.46     0.32  -0.12   0.24     0.65  -0.05   0.55
     3   6    -0.05   0.06   0.01     0.01   0.06  -0.06     0.06  -0.18  -0.03
     4   1    -0.07   0.19   0.05     0.03   0.15  -0.14     0.09  -0.41  -0.07
     5   6    -0.02  -0.07  -0.04    -0.00  -0.05   0.06     0.01   0.10   0.03
     6   6    -0.02  -0.01  -0.00     0.01  -0.01   0.04    -0.01   0.03   0.01
     7   8    -0.05   0.02   0.02     0.08   0.01   0.02    -0.03  -0.06  -0.01
     8   8     0.01   0.04   0.03    -0.05   0.04   0.00    -0.02   0.01   0.00
     9   6     0.01   0.03   0.01    -0.04   0.02  -0.04    -0.03  -0.02   0.00
    10   6     0.08   0.02  -0.01    -0.01  -0.02   0.02    -0.05  -0.01  -0.01
    11   1    -0.02   0.03  -0.00    -0.06   0.05  -0.04    -0.02  -0.04   0.01
    12   1     0.02   0.03  -0.00    -0.05   0.00  -0.07    -0.04  -0.02   0.02
    13   1     0.13   0.09  -0.32    -0.08  -0.27   0.47    -0.05   0.03  -0.01
    14   1    -0.16   0.05   0.13     0.45  -0.02  -0.16    -0.09  -0.03  -0.02
    15   1     0.35  -0.10   0.13    -0.38   0.18  -0.18    -0.05  -0.02  -0.01
                     10                     11                     12
                      A                      A                      A
 Frequencies --    336.0208               429.3575               561.1151
 Red. masses --      2.9281                 3.7280                 3.8695
 Frc consts  --      0.1948                 0.4049                 0.7178
 IR Inten    --      9.8339                 3.7284                 5.2379
  Atom  AN      X      Y      Z        X      Y      Z        X      Y      Z
     1   8     0.00  -0.04  -0.01    -0.00  -0.05  -0.01    -0.00  -0.01   0.00
     2   1     0.02   0.02  -0.00    -0.05  -0.17  -0.03     0.12   0.34   0.05
     3   6     0.00   0.02  -0.04     0.08   0.03   0.06    -0.18  -0.02  -0.07
     4   1     0.02   0.06  -0.11     0.04   0.10   0.19    -0.11  -0.05  -0.35
     5   6    -0.02  -0.03   0.08     0.13  -0.05  -0.13    -0.23  -0.02   0.23
     6   6     0.01   0.04  -0.04     0.07   0.07   0.05    -0.02   0.06  -0.03
     7   8     0.20   0.01  -0.11    -0.09  -0.01   0.07    -0.00   0.01  -0.05
     8   8    -0.04   0.12  -0.06     0.07   0.22   0.10     0.14   0.03   0.04
     9   6    -0.09  -0.11   0.19     0.04  -0.13  -0.09     0.25  -0.08  -0.05
    10   6    -0.08  -0.03   0.01    -0.19  -0.10  -0.07     0.00  -0.01  -0.02
    11   1     0.07  -0.40   0.31    -0.03  -0.12  -0.13     0.15   0.02  -0.11
    12   1    -0.37  -0.00   0.42    -0.04  -0.18  -0.13     0.30  -0.13  -0.13
    13   1    -0.04   0.15  -0.26    -0.21   0.27   0.12    -0.01   0.36   0.19
    14   1    -0.36  -0.12  -0.02    -0.41  -0.20  -0.14    -0.20  -0.11  -0.08
    15   1     0.14  -0.01   0.10    -0.43  -0.22  -0.17    -0.25  -0.13  -0.12
                     13                     14                     15
                      A                      A                      A
 Frequencies --    607.0471               692.5487               722.0695
 Red. masses --      6.3627                 1.3298                 1.2111
 Frc consts  --      1.3815                 0.3758                 0.3720
 IR Inten    --     13.4049                29.4319                52.3228
  Atom  AN      X      Y      Z        X      Y      Z        X      Y      Z
     1   8    -0.01  -0.05  -0.01     0.00   0.02   0.01    -0.02  -0.02   0.01
     2   1     0.00   0.18  -0.03     0.00   0.08  -0.00     0.13   0.57   0.05
     3   6     0.25   0.01   0.05    -0.01  -0.15   0.04     0.04  -0.02  -0.11
     4   1     0.36   0.33  -0.38    -0.02   0.95  -0.24    -0.21   0.15   0.75
     5   6     0.13  -0.13   0.39    -0.00   0.05  -0.03     0.00   0.00   0.03
     6   6     0.04   0.03  -0.12    -0.01  -0.03  -0.00     0.00  -0.04  -0.01
     7   8    -0.33   0.04  -0.02     0.01   0.01  -0.00    -0.00   0.01   0.01
     8   8     0.00   0.03  -0.21     0.00   0.01   0.01     0.00   0.01   0.00
     9   6    -0.02   0.02  -0.01     0.00  -0.00   0.00    -0.00   0.00  -0.00
    10   6     0.01   0.01   0.01    -0.00  -0.00  -0.00    -0.00  -0.00  -0.00
    11   1     0.17  -0.15   0.10    -0.01   0.01  -0.01    -0.00  -0.01   0.00
    12   1    -0.21   0.09   0.14     0.01  -0.01  -0.01    -0.01   0.01   0.01
    13   1     0.01  -0.06  -0.04    -0.00   0.01   0.00    -0.00  -0.00  -0.00
    14   1     0.03   0.06   0.08    -0.01  -0.01  -0.01    -0.00   0.00   0.00
    15   1     0.07  -0.03   0.04    -0.01   0.00  -0.00    -0.00  -0.01  -0.00
                     16                     17                     18
                      A                      A                      A
 Frequencies --    742.6618               769.9726               802.9443
 Red. masses --      1.2458                 7.0705                 1.2056
 Frc consts  --      0.4048                 2.4697                 0.4580
 IR Inten    --     33.6265                72.6034                 5.0234
  Atom  AN      X      Y      Z        X      Y      Z        X      Y      Z
     1   8    -0.03  -0.04   0.02    -0.02  -0.09   0.01     0.00  -0.00  -0.00
     2   1     0.20   0.81   0.09     0.13   0.47   0.05    -0.01  -0.01  -0.00
     3   6    -0.01   0.03   0.08     0.01  -0.01   0.00     0.03   0.01   0.01
     4   1     0.15  -0.20  -0.46    -0.03   0.30   0.07     0.04  -0.02  -0.00
     5   6     0.03  -0.01  -0.08     0.02  -0.13  -0.07     0.02  -0.01   0.02
     6   6     0.00  -0.05  -0.01     0.04   0.63   0.16    -0.02  -0.02  -0.04
     7   8     0.01   0.01   0.01    -0.01  -0.17  -0.08    -0.01   0.02  -0.04
     8   8     0.00   0.01   0.01    -0.00  -0.18  -0.01     0.01   0.01   0.04
     9   6    -0.02   0.01  -0.00    -0.05   0.00   0.03    -0.03  -0.02   0.07
    10   6    -0.01  -0.00  -0.00    -0.02   0.01   0.01    -0.01  -0.02   0.03
    11   1    -0.01  -0.01   0.00    -0.05   0.19  -0.00    -0.09   0.52  -0.04
    12   1    -0.02   0.01   0.01     0.10  -0.05  -0.09     0.12  -0.31  -0.38
    13   1    -0.01  -0.02  -0.01    -0.01  -0.14  -0.09     0.02   0.03  -0.19
    14   1     0.01   0.00   0.01     0.09  -0.00  -0.05    -0.04  -0.29  -0.34
    15   1     0.00  -0.01   0.00     0.12   0.16   0.06     0.11   0.44   0.02
                     19                     20                     21
                      A                      A                      A
 Frequencies --    897.1012               927.4037              1074.0031
 Red. masses --      3.2549                 2.7371                 4.1160
 Frc consts  --      1.5434                 1.3870                 2.7973
 IR Inten    --     16.4291                 6.6113                25.0298
  Atom  AN      X      Y      Z        X      Y      Z        X      Y      Z
     1   8     0.00  -0.00  -0.00    -0.00  -0.01  -0.00    -0.00  -0.01  -0.00
     2   1    -0.02  -0.04  -0.01     0.00   0.03  -0.00     0.01   0.01   0.00
     3   6     0.05   0.01   0.01     0.11   0.01   0.03     0.07   0.01   0.02
     4   1     0.06   0.00  -0.02     0.12   0.01   0.04     0.07   0.01   0.04
     5   6     0.01  -0.02   0.07     0.07  -0.02  -0.00     0.04  -0.01  -0.03
     6   6    -0.05   0.01  -0.11    -0.15   0.02  -0.04    -0.15   0.01   0.04
     7   8     0.00   0.05  -0.16     0.01   0.03  -0.13     0.02  -0.00  -0.01
     8   8     0.12  -0.04   0.24    -0.14  -0.04   0.11    -0.21   0.02  -0.04
     9   6    -0.08   0.09   0.02     0.03  -0.10  -0.02     0.31   0.16   0.14
    10   6    -0.11  -0.06  -0.10     0.15   0.10   0.04    -0.06  -0.17  -0.09
    11   1    -0.24  -0.02  -0.04    -0.33  -0.22  -0.17     0.33   0.28   0.14
    12   1     0.25   0.27   0.18     0.04  -0.11  -0.04     0.40   0.24   0.21
    13   1    -0.13  -0.57  -0.12     0.12   0.60   0.39    -0.06  -0.27  -0.13
    14   1     0.18   0.23   0.22    -0.16   0.07   0.11    -0.04  -0.22  -0.15
    15   1     0.03  -0.34   0.00    -0.22  -0.15  -0.10    -0.06  -0.28  -0.09
                     22                     23                     24
                      A                      A                      A
 Frequencies --   1129.5163              1204.1944              1288.1110
 Red. masses --      2.0881                 1.7716                 3.7408
 Frc consts  --      1.5696                 1.5136                 3.6570
 IR Inten    --     22.2284                 6.5386               533.8388
  Atom  AN      X      Y      Z        X      Y      Z        X      Y      Z
     1   8    -0.00   0.00   0.00    -0.00   0.00   0.00    -0.00   0.01   0.00
     2   1    -0.00  -0.01  -0.00     0.00   0.00  -0.00     0.01   0.02   0.00
     3   6    -0.01  -0.00  -0.00    -0.02  -0.00  -0.00    -0.08  -0.01  -0.02
     4   1    -0.02  -0.00  -0.01    -0.02  -0.00  -0.01    -0.08  -0.01  -0.05
     5   6    -0.01   0.00   0.01    -0.00   0.00  -0.00    -0.01   0.01   0.01
     6   6     0.03   0.00  -0.00     0.07  -0.00  -0.01     0.38   0.01  -0.14
     7   8    -0.00  -0.00   0.00    -0.01  -0.01   0.03    -0.05   0.01  -0.01
     8   8     0.06  -0.05  -0.01    -0.01   0.02  -0.07    -0.19  -0.02   0.08
     9   6    -0.12   0.19   0.05    -0.04  -0.06   0.18     0.10   0.04   0.03
    10   6     0.11  -0.15  -0.03     0.03   0.05  -0.13    -0.02  -0.02   0.06
    11   1    -0.09   0.10   0.08    -0.33   0.37  -0.02    -0.68  -0.28  -0.27
    12   1    -0.22   0.17   0.03     0.30  -0.26  -0.21     0.04   0.13   0.15
    13   1     0.09   0.46   0.20    -0.03  -0.08   0.28     0.00  -0.03  -0.14
    14   1    -0.40  -0.37  -0.15    -0.02   0.31   0.28     0.01  -0.19  -0.18
    15   1    -0.36  -0.20  -0.25    -0.07  -0.45  -0.10     0.00   0.10   0.05
                     25                     26                     27
                      A                      A                      A
 Frequencies --   1345.6285              1402.0800              1431.0420
 Red. masses --      1.2483                 1.2837                 1.3785
 Frc consts  --      1.3318                 1.4868                 1.6633
 IR Inten    --     94.8263                25.4034                13.6944
  Atom  AN      X      Y      Z        X      Y      Z        X      Y      Z
     1   8     0.00  -0.00  -0.00    -0.00   0.00   0.00    -0.00   0.00   0.00
     2   1    -0.00  -0.00   0.00     0.00   0.00   0.00     0.00   0.00   0.00
     3   6     0.01   0.00   0.00    -0.01  -0.00  -0.00    -0.01  -0.00  -0.00
     4   1     0.01   0.00   0.01    -0.01  -0.00  -0.01    -0.01  -0.00  -0.01
     5   6     0.00   0.00  -0.00    -0.00   0.00   0.00     0.00   0.00   0.00
     6   6    -0.06  -0.00   0.03     0.06  -0.00  -0.01     0.05  -0.00  -0.01
     7   8     0.01  -0.01   0.02    -0.01   0.01  -0.01    -0.01   0.00  -0.01
     8   8     0.05   0.03  -0.08    -0.04   0.01   0.03    -0.04   0.01   0.02
     9   6    -0.03  -0.01  -0.00    -0.04  -0.04  -0.03    -0.08  -0.08  -0.05
    10   6    -0.00  -0.03   0.05    -0.02  -0.10  -0.05     0.07   0.07   0.04
    11   1    -0.50  -0.21  -0.18     0.33   0.25   0.11     0.43   0.27   0.14
    12   1     0.69   0.28   0.21     0.25   0.19   0.20     0.41   0.23   0.24
    13   1     0.01   0.07  -0.04    -0.01   0.47   0.21     0.07  -0.33  -0.11
    14   1    -0.02  -0.11  -0.06     0.17   0.24   0.34    -0.32  -0.17  -0.15
    15   1     0.02   0.19   0.03     0.21   0.38   0.00    -0.29  -0.19  -0.10
                     28                     29                     30
                      A                      A                      A
 Frequencies --   1491.2867              1502.3198              1515.0217
 Red. masses --      1.0400                 1.0543                 1.0935
 Frc consts  --      1.3627                 1.4020                 1.4789
 IR Inten    --     10.9591                 1.2225                21.3244
  Atom  AN      X      Y      Z        X      Y      Z        X      Y      Z
     1   8    -0.00   0.00   0.00     0.00  -0.00   0.00    -0.00  -0.00  -0.00
     2   1     0.00   0.00  -0.00    -0.00  -0.00  -0.00    -0.00  -0.00   0.00
     3   6    -0.00  -0.00  -0.00     0.00   0.00   0.00     0.00   0.00   0.00
     4   1    -0.00  -0.00   0.00     0.00   0.00   0.00     0.01   0.00   0.00
     5   6     0.00  -0.00   0.00    -0.00   0.00  -0.00    -0.00  -0.00  -0.00
     6   6     0.00  -0.00   0.00    -0.01   0.00  -0.00    -0.03   0.00  -0.00
     7   8    -0.00   0.00  -0.01     0.00  -0.00   0.01     0.01  -0.00   0.01
     8   8    -0.00  -0.00   0.00     0.01  -0.00  -0.00     0.02  -0.00  -0.01
     9   6     0.01   0.02  -0.02     0.00  -0.04  -0.03     0.05  -0.05  -0.01
    10   6     0.01   0.01  -0.04    -0.03   0.03  -0.01     0.02  -0.02   0.00
    11   1    -0.00  -0.12  -0.01    -0.12   0.38  -0.13    -0.29   0.43  -0.23
    12   1    -0.00  -0.00  -0.04    -0.19   0.19   0.34    -0.38   0.14   0.37
    13   1    -0.08  -0.36   0.56    -0.05   0.14   0.29     0.03  -0.17  -0.16
    14   1    -0.55  -0.09   0.05     0.18  -0.19  -0.37    -0.20   0.14   0.29
    15   1     0.36   0.29   0.10     0.37  -0.35   0.23    -0.24   0.30  -0.16
                     31                     32                     33
                      A                      A                      A
 Frequencies --   1846.5029              2148.6911              3076.1089
 Red. masses --     11.9776                 6.2313                 1.0353
 Frc consts  --     24.0614                16.9503                 5.7718
 IR Inten    --    346.3402                92.9987                 9.0936
  Atom  AN      X      Y      Z        X      Y      Z        X      Y      Z
     1   8    -0.00   0.01  -0.00     0.00   0.02   0.00    -0.00  -0.00  -0.00
     2   1     0.02  -0.00   0.02    -0.00   0.01  -0.01    -0.00  -0.00   0.00
     3   6    -0.08  -0.01  -0.02    -0.38  -0.05  -0.10    -0.00   0.00   0.00
     4   1    -0.13  -0.02  -0.01    -0.69  -0.09  -0.19    -0.00  -0.00  -0.00
     5   6     0.07   0.00   0.00     0.53   0.01   0.13    -0.00   0.00   0.00
     6   6     0.20  -0.22   0.72    -0.11   0.03  -0.05     0.00   0.00  -0.00
     7   8    -0.15   0.15  -0.47     0.01  -0.01   0.02     0.00   0.00   0.00
     8   8     0.02   0.02  -0.07    -0.00  -0.00   0.00    -0.00  -0.00   0.00
     9   6     0.03  -0.01   0.02     0.00   0.00  -0.00    -0.00   0.00   0.00
    10   6    -0.01   0.01   0.00    -0.00  -0.00  -0.00    -0.02  -0.04  -0.02
    11   1    -0.17   0.08  -0.09     0.01  -0.00  -0.00     0.00  -0.00  -0.01
    12   1    -0.14  -0.02   0.09     0.00  -0.00  -0.00     0.00  -0.02   0.01
    13   1     0.00  -0.04  -0.06     0.00   0.00   0.00     0.62  -0.03   0.08
    14   1     0.04   0.01  -0.01     0.00  -0.00  -0.00    -0.13   0.45  -0.33
    15   1    -0.04  -0.05  -0.00     0.00   0.00   0.00    -0.23   0.05   0.47
                     34                     35                     36
                      A                      A                      A
 Frequencies --   3108.2657              3153.1839              3154.5352
 Red. masses --      1.0608                 1.1016                 1.1047
 Frc consts  --      6.0381                 6.4533                 6.4770
 IR Inten    --     19.7434                14.3845                 2.5005
  Atom  AN      X      Y      Z        X      Y      Z        X      Y      Z
     1   8     0.00  -0.00   0.00    -0.00   0.00   0.00     0.00  -0.00  -0.00
     2   1     0.00   0.00  -0.00     0.00   0.00  -0.00    -0.00  -0.00  -0.00
     3   6    -0.00  -0.00  -0.00     0.00   0.00   0.00    -0.00  -0.00  -0.00
     4   1     0.00   0.00   0.00    -0.00   0.00  -0.00    -0.00   0.00  -0.00
     5   6     0.00  -0.00  -0.00    -0.00  -0.00  -0.00     0.00  -0.00  -0.00
     6   6    -0.00  -0.00   0.00     0.00   0.00  -0.00     0.00  -0.00   0.00
     7   8    -0.00   0.00  -0.00    -0.00  -0.00   0.00    -0.00   0.00  -0.00
     8   8     0.00   0.00  -0.00     0.00  -0.00   0.00    -0.00  -0.00  -0.00
     9   6     0.03  -0.06  -0.00    -0.01   0.00   0.03    -0.01  -0.02   0.05
    10   6    -0.01   0.01  -0.00    -0.06   0.05  -0.04     0.05   0.00  -0.06
    11   1    -0.23   0.06   0.50     0.13  -0.04  -0.28     0.18  -0.05  -0.39
    12   1    -0.13   0.66  -0.47    -0.01   0.04  -0.03    -0.06   0.29  -0.20
    13   1     0.12  -0.01   0.01     0.64  -0.02   0.07    -0.40   0.02  -0.06
    14   1     0.01  -0.05   0.04     0.14  -0.55   0.40     0.05  -0.14   0.10
    15   1     0.01  -0.00  -0.03    -0.00   0.01  -0.03    -0.30   0.08   0.63
                     37                     38                     39
                      A                      A                      A
 Frequencies --   3175.7413              3477.9554              3814.9722
 Red. masses --      1.1074                 1.1533                 1.0675
 Frc consts  --      6.5804                 8.2192                 9.1535
 IR Inten    --     14.6116                69.9297                47.6513
  Atom  AN      X      Y      Z        X      Y      Z        X      Y      Z
     1   8     0.00   0.00   0.00     0.00   0.00   0.00     0.04  -0.01  -0.05
     2   1     0.00   0.00  -0.00     0.00  -0.00  -0.00    -0.65   0.11   0.75
     3   6    -0.00  -0.00  -0.00    -0.11  -0.01  -0.03    -0.00   0.00  -0.00
     4   1     0.00   0.00   0.00     0.96   0.07   0.26     0.00   0.00   0.00
     5   6     0.00  -0.00   0.00     0.03   0.00   0.01     0.00   0.00   0.00
     6   6    -0.00   0.00  -0.00    -0.00   0.00  -0.00     0.00  -0.00  -0.00
     7   8     0.00  -0.00   0.00     0.00  -0.00  -0.00    -0.00   0.00  -0.00
     8   8     0.00  -0.00   0.00     0.00  -0.00  -0.00    -0.00  -0.00   0.00
     9   6     0.02   0.02  -0.07    -0.00  -0.00   0.00     0.00   0.00   0.00
    10   6     0.01   0.02  -0.05     0.00  -0.00   0.00    -0.00   0.00  -0.00
    11   1    -0.26   0.08   0.58     0.00  -0.00  -0.00    -0.00   0.00   0.00
    12   1     0.07  -0.35   0.24     0.00   0.00   0.00    -0.00  -0.00  -0.00
    13   1    -0.05   0.01  -0.02     0.00   0.00   0.00    -0.00  -0.00   0.00
    14   1     0.09  -0.31   0.22    -0.00   0.00  -0.00    -0.00  -0.00   0.00
    15   1    -0.21   0.06   0.43    -0.00  -0.00  -0.00     0.00   0.00  -0.00

 -------------------
 - Thermochemistry -
 -------------------
 Temperature   298.150 Kelvin.  Pressure   1.00000 Atm.
 Atom     1 has atomic number  8 and mass  15.99491
 Atom     2 has atomic number  1 and mass   1.00783
 Atom     3 has atomic number  6 and mass  12.00000
 Atom     4 has atomic number  1 and mass   1.00783
 Atom     5 has atomic number  6 and mass  12.00000
 Atom     6 has atomic number  6 and mass  12.00000
 Atom     7 has atomic number  8 and mass  15.99491
 Atom     8 has atomic number  8 and mass  15.99491
 Atom     9 has atomic number  6 and mass  12.00000
 Atom    10 has atomic number  6 and mass  12.00000
 Atom    11 has atomic number  1 and mass   1.00783
 Atom    12 has atomic number  1 and mass   1.00783
 Atom    13 has atomic number  1 and mass   1.00783
 Atom    14 has atomic number  1 and mass   1.00783
 Atom    15 has atomic number  1 and mass   1.00783
 Molecular mass:   115.03952 amu.
 Principal axes and moments of inertia in atomic units:
                           1         2         3
     Eigenvalues --   499.953761378.292531517.93883
           X            0.99994   0.01112  -0.00061
           Y           -0.01104   0.99682   0.07897
           Z            0.00148  -0.07896   0.99688
 This molecule is an asymmetric top.
 Rotational symmetry number  1.
 Warning -- assumption of classical behavior for rotation
           may cause significant error
 Rotational temperatures (Kelvin)      0.17324     0.06284     0.05706
 Rotational constants (GHZ):           3.60982     1.30940     1.18894
    1 imaginary frequencies ignored.
 Zero-point vibrational energy     293437.7 (Joules/Mol)
                                   70.13329 (Kcal/Mol)
 Warning -- explicit consideration of  12 degrees of freedom as
           vibrations may cause significant error
 Vibrational temperatures:     51.56    80.62   167.77   222.37   238.15
          (Kelvin)            305.89   329.20   376.34   483.46   617.75
                              807.32   873.41   996.42  1038.90  1068.52
                             1107.82  1155.26  1290.73  1334.33  1545.25
                             1625.12  1732.57  1853.30  1936.06  2017.28
                             2058.95  2145.63  2161.50  2179.78  2656.71
                             3091.49  4425.83  4472.10  4536.73  4538.67
                             4569.18  5004.00  5488.89
 
 Zero-point correction=                           0.111765 (Hartree/Particle)
 Thermal correction to Energy=                    0.121468
 Thermal correction to Enthalpy=                  0.122412
 Thermal correction to Gibbs Free Energy=         0.075499
 Sum of electronic and zero-point Energies=           -420.090637
 Sum of electronic and thermal Energies=              -420.080933
 Sum of electronic and thermal Enthalpies=            -420.079989
 Sum of electronic and thermal Free Energies=         -420.126902
 
                     E (Thermal)             CV                S
                      KCal/Mol        Cal/Mol-Kelvin    Cal/Mol-Kelvin
 Total                   76.222             32.330             98.737
 Electronic               0.000              0.000              1.377
 Translational            0.889              2.981             40.136
 Rotational               0.889              2.981             28.438
 Vibrational             74.445             26.369             28.786
 Vibration     1          0.594              1.982              5.477
 Vibration     2          0.596              1.975              4.592
 Vibration     3          0.608              1.936              3.156
 Vibration     4          0.620              1.898              2.615
 Vibration     5          0.624              1.885              2.486
 Vibration     6          0.644              1.822              2.021
 Vibration     7          0.651              1.797              1.888
 Vibration     8          0.669              1.743              1.651
 Vibration     9          0.717              1.604              1.231
 Vibration    10          0.791              1.406              0.861
 Vibration    11          0.917              1.115              0.522
 Vibration    12          0.966              1.017              0.438
                       Q            Log10(Q)             Ln(Q)
 Total Bot       0.187450D-34        -34.727114        -79.962134
 Total V=0       0.479672D+17         16.680944         38.409294
 Vib (Bot)       0.527866D-48        -48.277476       -111.162998
 Vib (Bot)    1  0.577500D+01          0.761552          1.753538
 Vib (Bot)    2  0.368703D+01          0.566677          1.304822
 Vib (Bot)    3  0.175390D+01          0.244005          0.561841
 Vib (Bot)    4  0.131018D+01          0.117332          0.270167
 Vib (Bot)    5  0.121926D+01          0.086097          0.198246
 Vib (Bot)    6  0.933213D+00         -0.030019         -0.069122
 Vib (Bot)    7  0.861251D+00         -0.064870         -0.149370
 Vib (Bot)    8  0.741979D+00         -0.129608         -0.298434
 Vib (Bot)    9  0.553983D+00         -0.256504         -0.590621
 Vib (Bot)   10  0.406015D+00         -0.391457         -0.901364
 Vib (Bot)   11  0.276687D+00         -0.558011         -1.284868
 Vib (Bot)   12  0.244192D+00         -0.612268         -1.409799
 Vib (V=0)       0.135077D+04          3.130582          7.208430
 Vib (V=0)    1  0.629660D+01          0.799106          1.840010
 Vib (V=0)    2  0.422078D+01          0.625393          1.440020
 Vib (V=0)    3  0.232378D+01          0.366194          0.843194
 Vib (V=0)    4  0.190235D+01          0.279290          0.643089
 Vib (V=0)    5  0.181780D+01          0.259546          0.597628
 Vib (V=0)    6  0.155872D+01          0.192768          0.443865
 Vib (V=0)    7  0.149587D+01          0.174893          0.402707
 Vib (V=0)    8  0.139473D+01          0.144489          0.332697
 Vib (V=0)    9  0.124626D+01          0.095607          0.220143
 Vib (V=0)   10  0.114409D+01          0.058459          0.134607
 Vib (V=0)   11  0.107145D+01          0.029972          0.069013
 Vib (V=0)   12  0.105644D+01          0.023846          0.054908
 Electronic      0.200000D+01          0.301030          0.693147
 Translational   0.484981D+08          7.685724         17.697035
 Rotational      0.366107D+06          5.563608         12.810682
 ***** Axes restored to original set *****
 -------------------------------------------------------------------
 Center     Atomic                   Forces (Hartrees/Bohr)
 Number     Number              X              Y              Z
 -------------------------------------------------------------------
      1        8           0.000390352    0.004539158    0.000619449
      2        1           0.000028974    0.000086986   -0.000007635
      3        6          -0.000586518    0.000210468   -0.000146194
      4        1          -0.000029563    0.000142601    0.000016254
      5        6           0.000033410   -0.005034713   -0.000628900
      6        6          -0.000131521   -0.000522491   -0.000104590
      7        8           0.000251284    0.000330727    0.000163461
      8        8           0.000033648    0.000143952    0.000029352
      9        6          -0.000036246    0.000065673    0.000023469
     10        6           0.000038281    0.000022483    0.000018732
     11        1           0.000000372    0.000002077    0.000003765
     12        1          -0.000006098    0.000004050    0.000008069
     13        1           0.000003556    0.000004524    0.000002530
     14        1           0.000005624    0.000003203    0.000000216
     15        1           0.000004445    0.000001303    0.000002022
 -------------------------------------------------------------------
 Cartesian Forces:  Max     0.005034713 RMS     0.001031251

 GradGradGradGradGradGradGradGradGradGradGradGradGradGradGradGradGradGrad
 Berny optimization.
 Search for a local minimum.
 Step number   1 out of a maximum of    2
 All quantities printed in internal units (Hartrees-Bohrs-Radians)
 Second derivative matrix not updated -- analytic derivatives used.
 ITU=  0
     Eigenvalues ---   -0.11859   0.00019   0.00052   0.00163   0.00239
     Eigenvalues ---    0.00427   0.00553   0.00730   0.01254   0.02095
     Eigenvalues ---    0.02788   0.03265   0.03634   0.05267   0.06324
     Eigenvalues ---    0.07442   0.07615   0.08638   0.09839   0.10211
     Eigenvalues ---    0.11550   0.14137   0.17019   0.17328   0.19966
     Eigenvalues ---    0.28480   0.29406   0.43488   0.49396   0.62695
     Eigenvalues ---    0.70444   0.76565   0.79229   0.86786   0.89643
     Eigenvalues ---    0.93177   0.98517   1.73936   2.47241
 Eigenvalue     1 is  -1.19D-01 should be greater than     0.000000 Eigenvector:
                          Y5        Y1        Z5        X1        Z1
   1                    0.76247  -0.61577   0.10570  -0.07383  -0.06411
                          Y6        Z2        Y2        X3        Y4
   1                    0.06238  -0.05656  -0.05096   0.03794  -0.03562
 Angle between quadratic step and forces=  19.22 degrees.
 Linear search not attempted -- first point.
 B after Tr=     0.000147    0.001466   -0.000006
         Rot=    1.000000    0.000088    0.000000    0.000089 Ang=   0.01 deg.
 Variable       Old X    -DE/DX   Delta X   Delta X   Delta X     New X
                                 (Linear)    (Quad)   (Total)
    X1       -2.65857   0.00039   0.00000   0.00355   0.00426  -2.65431
    Y1        3.18727   0.00454   0.00000   0.04118   0.04315   3.23042
    Z1        0.18565   0.00062   0.00000   0.00056  -0.00001   0.18564
    X2       -3.84591   0.00003   0.00000  -0.00709  -0.00634  -3.85226
    Y2        3.40017   0.00009   0.00000  -0.00273  -0.00031   3.39986
    Z2        1.56600  -0.00001   0.00000  -0.00318  -0.00378   1.56222
    X3       -5.26008  -0.00059   0.00000  -0.00223  -0.00225  -5.26233
    Y3       -0.92853   0.00021   0.00000  -0.00043   0.00182  -0.92671
    Z3       -0.83578  -0.00015   0.00000   0.00202   0.00217  -0.83361
    X4       -7.19960  -0.00003   0.00000  -0.00067  -0.00071  -7.20031
    Y4       -1.06948   0.00014   0.00000  -0.01030  -0.00780  -1.07728
    Z4       -1.35680   0.00002   0.00000   0.00273   0.00291  -1.35388
    X5       -3.06531   0.00003   0.00000  -0.00168  -0.00165  -3.06696
    Y5       -0.59808  -0.00503   0.00000  -0.04150  -0.03954  -0.63762
    Z5       -0.26848  -0.00063   0.00000  -0.00499  -0.00489  -0.27337
    X6       -0.41903  -0.00013   0.00000  -0.00110  -0.00114  -0.42017
    Y6       -1.06602  -0.00052   0.00000  -0.00195  -0.00034  -1.06635
    Z6        0.43525  -0.00010   0.00000  -0.00036  -0.00018   0.43507
    X7        0.20829   0.00025   0.00000   0.00188   0.00173   0.21002
    Y7       -1.72239   0.00033   0.00000   0.00142   0.00329  -1.71910
    Z7        2.50908   0.00016   0.00000   0.00044   0.00074   2.50982
    X8        1.09771   0.00003   0.00000  -0.00062  -0.00060   1.09711
    Y8       -0.68723   0.00014   0.00000   0.00435   0.00535  -0.68188
    Z8       -1.52271   0.00003   0.00000   0.00047   0.00059  -1.52212
    X9        3.77048  -0.00004   0.00000  -0.00108  -0.00108   3.76940
    Y9       -0.84936   0.00007   0.00000   0.00060   0.00122  -0.84814
    Z9       -1.01046   0.00002   0.00000  -0.00097  -0.00083  -1.01129
   X10        4.69461   0.00004   0.00000   0.00203   0.00245   4.69705
   Y10        1.55009   0.00002   0.00000  -0.00221  -0.00153   1.54855
   Z10        0.25135   0.00002   0.00000   0.00190   0.00163   0.25298
   X11        4.61916   0.00000   0.00000  -0.00181  -0.00186   4.61730
   Y11       -1.11677   0.00000   0.00000   0.00196   0.00210  -1.11467
   Z11       -2.86471   0.00000   0.00000  -0.00166  -0.00147  -2.86618
   X12        4.12353  -0.00001   0.00000  -0.00183  -0.00213   4.12140
   Y12       -2.51104   0.00000   0.00000  -0.00155  -0.00078  -2.51182
   Z12        0.15623   0.00001   0.00000  -0.00351  -0.00307   0.15317
   X13        6.73911   0.00000   0.00000   0.00199   0.00239   6.74150
   Y13        1.45461   0.00000   0.00000  -0.00445  -0.00409   1.45052
   Z13        0.51069   0.00000   0.00000   0.00094   0.00068   0.51137
   X14        4.24950   0.00001   0.00000   0.00299   0.00370   4.25320
   Y14        3.18883   0.00000   0.00000  -0.00040   0.00015   3.18898
   Z14       -0.91667   0.00000   0.00000   0.00399   0.00342  -0.91325
   X15        3.81079   0.00000   0.00000   0.00277   0.00323   3.81401
   Y15        1.78382   0.00000   0.00000  -0.00384  -0.00268   1.78114
   Z15        2.09782   0.00000   0.00000   0.00240   0.00208   2.09990
         Item               Value     Threshold  Converged?
 Maximum Force            0.005035     0.000450     NO 
 RMS     Force            0.001031     0.000300     NO 
 Maximum Displacement     0.043145     0.001800     NO 
 RMS     Displacement     0.009143     0.001200     NO 
 Predicted change in Energy=-5.987098D-04
 GradGradGradGradGradGradGradGradGradGradGradGradGradGradGradGradGradGrad


 ----------------------------------------------------------------------

 Electric dipole moment (input orientation):
 (Debye = 10**-18 statcoulomb cm , SI units = C m)
                  (au)            (Debye)         (10**-30 SI)
   Tot        0.399094D+00      0.101440D+01      0.338366D+01
   x         -0.268672D+00     -0.682895D+00     -0.227789D+01
   y         -0.717949D-01     -0.182484D+00     -0.608703D+00
   z         -0.286247D+00     -0.727567D+00     -0.242690D+01

 Dipole polarizability, Alpha (input orientation).
 (esu units = cm**3 , SI units = C**2 m**2 J**-1)
 Alpha(0;0):
               (au)            (10**-24 esu)      (10**-40 SI)
   iso        0.748340D+02      0.110893D+02      0.123385D+02
   aniso      0.320044D+02      0.474256D+01      0.527681D+01
   xx         0.912236D+02      0.135179D+02      0.150407D+02
   yx         0.767398D+01      0.113717D+01      0.126527D+01
   yy         0.736388D+02      0.109122D+02      0.121414D+02
   zx         0.469797D+01      0.696168D+00      0.774591D+00
   zy         0.316359D+01      0.468796D+00      0.521606D+00
   zz         0.596397D+02      0.883769D+01      0.983325D+01

 ----------------------------------------------------------------------

 Dipole orientation:
     8         -2.30670017         -3.28130050          1.08322809
     1         -4.12495210         -3.32560541          0.85420950
     6         -3.24374089          0.38971933          4.30759411
     1         -4.31070544          0.29750948          6.01234029
     6         -2.03341315          0.32232995          2.36373573
     6         -0.52627477          1.09467248          0.16168915
     8         -1.41433175          2.15599345         -1.62999177
     8          1.88156959          0.47776613          0.47680110
     6          3.51554691          0.91748232         -1.66076174
     6          3.17711147         -1.14458112         -3.61955840
     1          5.40739479          0.90613219         -0.85404314
     1          3.10718171          2.78262904         -2.43630750
     1          4.51418184         -0.86006064         -5.16475768
     1          3.52021546         -2.99394978         -2.77695673
     1          1.26700765         -1.10406683         -4.39098004

 Electric dipole moment (dipole orientation):
 (Debye = 10**-18 statcoulomb cm , SI units = C m)
                  (au)            (Debye)         (10**-30 SI)
   Tot        0.399094D+00      0.101440D+01      0.338366D+01
   x          0.000000D+00      0.000000D+00      0.000000D+00
   y          0.000000D+00      0.000000D+00      0.000000D+00
   z          0.399094D+00      0.101440D+01      0.338366D+01

 Dipole polarizability, Alpha (dipole orientation).
 (esu units = cm**3 , SI units = C**2 m**2 J**-1)
 Alpha(0;0):
               (au)            (10**-24 esu)      (10**-40 SI)
   iso        0.748340D+02      0.110893D+02      0.123385D+02
   aniso      0.320044D+02      0.474256D+01      0.527681D+01
   xx         0.716699D+02      0.106204D+02      0.118168D+02
   yx        -0.523676D+00     -0.776008D-01     -0.863425D-01
   yy         0.712137D+02      0.105528D+02      0.117416D+02
   zx        -0.159333D+02     -0.236106D+01     -0.262704D+01
   zy         0.726018D+01      0.107585D+01      0.119704D+01
   zz         0.816186D+02      0.120946D+02      0.134571D+02

 ----------------------------------------------------------------------
 1\1\GINC-AJ\Freq\UM062X\6-311++G(d,p)\C5H7O3(2)\AAYUSH\23-Jun-2025\0\\
 # freq 6-311++g(d,p) m062x\\Title Card Required\\0,2\O,-1.406856,1.686
 632,0.098244\H,-2.035169,1.799293,0.828691\C,-2.783513,-0.491356,-0.44
 2275\H,-3.809864,-0.565947,-0.717986\C,-1.622093,-0.316488,-0.142075\C
 ,-0.221743,-0.564111,0.230322\O,0.110224,-0.911451,1.327749\O,0.580882
 ,-0.363667,-0.805785\C,1.995253,-0.449461,-0.534713\C,2.48428,0.820272
 ,0.133009\H,2.444354,-0.590967,-1.515941\H,2.182076,-1.328785,0.082676
 \H,3.566182,0.769746,0.270248\H,2.248737,1.687456,-0.48508\H,2.016582,
 0.943957,1.11012\\Version=ES64L-G16RevA.03\State=2-A\HF=-420.2024013\S
 2=0.772192\S2-1=0.\S2A=0.750193\RMSD=7.204e-09\RMSF=1.031e-03\ZeroPoin
 t=0.1117645\Thermal=0.1214681\Dipole=-0.2686717,-0.0717949,-0.286247\D
 ipoleDeriv=-0.3529244,0.21211,-0.0545581,0.136744,0.2242305,0.1362399,
 -0.0819402,0.007241,-0.2764618,0.1974442,-0.0839987,0.0507749,-0.00147
 27,0.3267189,0.0144656,0.0831721,0.0788151,0.2286774,-0.2445926,0.4753
 578,0.0532715,0.0457861,-0.0501275,0.0238736,0.0260006,0.1288542,-0.10
 70558,0.2793153,0.0271061,0.0188777,0.0291543,0.2085953,0.00104,0.0115
 491,-0.0008653,0.2282573,-0.4720421,-0.4929839,-0.1563925,-0.1227344,-
 0.8615758,-0.1588898,-0.1202511,-0.1758263,-0.148573,2.1176588,-0.3313
 121,-0.1264078,-0.0378024,0.6244508,-0.3502756,-0.4872019,-0.4775953,1
 .6578013,-0.8122224,0.1708343,-0.1966802,0.0369643,-0.4628077,0.239309
 5,0.0158591,0.3308695,-1.0509661,-1.6287947,-0.0508545,0.383353,-0.074
 5023,-0.3307376,0.0678295,0.5072665,0.1016194,-0.8513968,0.9929682,0.0
 749018,-0.0707175,0.0215172,0.3131439,0.0725207,0.070555,0.0239091,0.2
 898541,-0.0626506,-0.0215754,0.0367069,-0.0470614,-0.0557083,-0.079273
 5,-0.0281675,-0.0506268,-0.0095473,-0.0245102,-0.0010899,0.0305259,-0.
 0085986,0.0560292,-0.0296054,0.0698288,-0.0541359,-0.0713839,-0.017035
 1,-0.0332706,0.019954,0.0229739,-0.0556047,0.0257823,-0.0665892,0.0625
 338,0.0392473,-0.1311042,-0.0074977,-0.0233342,0.0057675,0.0664968,0.0
 016408,-0.0247444,-0.0109859,0.0951106,0.0843596,0.0443157,-0.0377578,
 -0.0014352,-0.0417306,0.0389956,-0.0308952,0.0659846,0.0064768,0.07413
 01,0.017957,0.0723841,-0.0053004,0.0386269,-0.0036531,0.0555583,-0.029
 7912,-0.0300402\Polar=91.2236379,7.6739773,73.6388435,4.6979732,3.1635
 916,59.6396641\Quadrupole=10.0256993,-4.2669932,-5.7587062,0.2552194,-
 1.2208846,3.7770756\PG=C01 [X(C5H7O3)]\NImag=1\\0.23117033,-0.03870930
 ,-0.01067744,-0.25774817,0.03896313,0.30032983,-0.22275053,0.03862784,
 0.25616304,0.22279653,0.02781561,-0.02073752,-0.03821059,-0.03378227,0
 .02440732,0.25367713,-0.04849473,-0.29656872,-0.25373608,0.04525571,0.
 29578119,-0.00754666,-0.05924949,-0.00589634,0.00187710,-0.00056412,-0
 .00199707,1.34458396,-0.00655004,-0.02718313,-0.00432939,-0.00080391,-
 0.00085082,-0.00049940,0.13944053,0.07213083,-0.00237698,-0.01703100,-
 0.00022615,-0.00024191,-0.00077228,-0.00040705,0.33690908,0.03805261,0
 .14198486,0.00019130,0.00076817,0.00013920,0.00005793,-0.00026897,-0.0
 0013924,-0.39457333,-0.02935310,-0.09894874,0.38503507,0.00026114,-0.0
 0021284,0.00012520,-0.00039484,0.00003298,-0.00025333,-0.02082138,-0.0
 2536244,-0.00635635,0.02760475,0.01667186,-0.00021329,0.00017163,0.000
 02154,-0.00008118,-0.00009110,-0.00010659,-0.09903486,-0.00848023,-0.0
 5216047,0.09915053,0.00788379,0.04255653,0.00014901,0.05005351,0.00782
 737,-0.00155198,0.00590973,0.00100640,-0.94756682,-0.10928373,-0.23467
 446,0.00896875,-0.00674735,0.00192832,1.25731273,0.01164407,0.07998033
 ,0.00468026,-0.00422488,-0.00154200,0.00451576,-0.04212740,-0.01851805
 ,-0.00909452,0.00163137,0.00591362,0.00120576,0.00487772,-0.04096115,0
 .00777282,0.02543043,-0.00403435,-0.00322435,-0.00614737,0.00039931,-0
 .22987621,-0.02572842,-0.09342071,0.00109985,-0.00110546,0.00457453,0.
 27902191,-0.01937359,0.18301837,-0.00170506,0.01296729,-0.00182359,-0.
 00101884,0.00232675,0.00344665,0.01671841,0.00705437,0.00200163,-0.000
 67480,0.00013669,-0.00200877,-0.24721371,0.00716339,-0.04607169,0.6525
 6536,0.00309916,-0.02323872,-0.00012224,0.00019056,-0.00099468,-0.0009
 6685,-0.02133509,-0.00171404,-0.00572738,-0.00058258,0.00400091,-0.000
 24956,0.04053947,-0.04858510,0.00915868,-0.06751836,0.28165814,-0.0027
 2711,0.00184815,-0.00321278,0.00279392,-0.00118153,0.00219489,-0.00118
 090,0.00125894,0.00239420,-0.00125616,0.00020949,0.00521531,-0.0303030
 6,-0.00128131,-0.06625940,0.10619509,-0.21404632,0.92399300,0.00021571
 ,-0.00136294,0.00112031,-0.00001327,-0.00065438,-0.00105229,-0.0055481
 5,-0.00035912,-0.00047042,0.00020757,-0.00025287,0.00151066,-0.0180918
 8,0.01933522,-0.04513169,-0.16865430,0.06315963,-0.18617403,0.16449959
 ,0.00101079,0.00116723,0.00046284,-0.00020761,0.00023634,0.00020881,0.
 00280933,0.00083119,0.00048532,0.00016890,-0.00056487,-0.00057855,0.01
 278188,0.01059947,0.01751100,0.05780819,-0.13768111,0.18227920,-0.0694
 5701,0.10763748,0.00070290,-0.00198280,0.00327903,-0.00104865,0.000636
 05,-0.00173230,-0.00125933,-0.00057718,0.00106307,0.00002987,-0.000313
 18,0.00030426,-0.03633641,0.01905596,-0.02655855,-0.17636946,0.1813555
 5,-0.65000687,0.19471092,-0.23003330,0.77389280,-0.00073395,-0.0028529
 7,0.00060830,0.00058814,-0.00098485,-0.00142839,-0.00909089,-0.0002516
 8,-0.00245130,0.00101055,0.00021105,-0.00117073,-0.05214450,0.00372352
 ,0.03440009,-0.19622778,-0.01821061,0.10224011,0.02640091,-0.00657528,
 0.03097183,0.50268416,0.00171177,-0.00072495,-0.00165643,0.00064893,-0
 .00057939,0.00024187,0.00058553,0.00062562,0.00016579,-0.00000749,-0.0
 0033426,0.00007785,0.00255124,0.00952953,-0.00067409,-0.01380512,-0.07
 523154,0.03519155,-0.00858618,0.02305520,0.03169299,0.00840797,0.10484
 711,0.00117705,0.00056883,0.00052675,-0.00065129,0.00042513,0.00032675
 ,0.00120148,0.00029918,0.00015067,-0.00004814,-0.00016529,-0.00062224,
 0.00809381,-0.00098666,0.00548598,0.07910090,0.03480641,-0.22313479,0.
 03057543,0.03144163,-0.09814123,-0.09645411,-0.07454572,0.40539939,0.0
 0076646,0.00024208,-0.00067236,0.00007941,0.00035565,0.00047069,0.0025
 8185,0.00009259,0.00061293,-0.00037043,-0.00001183,0.00001179,0.001577
 12,-0.00325862,0.00002387,-0.05521460,-0.00432018,0.03473553,-0.000435
 72,0.00590721,-0.01965510,-0.17629580,0.01254956,-0.01993540,0.4527024
 3,-0.00032941,0.00181267,0.00004403,-0.00006271,0.00003316,0.00002469,
 0.00139352,0.00009574,0.00029822,0.00003624,-0.00013645,0.00006966,-0.
 00046085,0.00348379,0.00091340,-0.00495478,0.00259911,-0.00885458,0.00
 246964,-0.00561011,0.00090021,0.01546525,-0.06900292,0.01207968,-0.023
 35970,0.56124158,-0.00038490,0.00059181,-0.00004991,-0.00001974,0.0001
 5448,0.00010554,0.00126101,0.00005892,0.00068054,-0.00004243,-0.000010
 50,0.00025752,0.00433888,0.00087152,-0.00365130,0.03439684,-0.00569937
 ,0.01243637,0.00116412,-0.00054691,-0.00396464,-0.04206779,0.01153345,
 -0.09701901,-0.06104935,-0.03938243,0.63184794,-0.00001368,0.00024158,
 0.00001375,-0.00003760,-0.00010621,-0.00008589,-0.00015943,0.00000187,
 0.00000256,0.00008856,-0.00002824,-0.00000941,-0.00048930,0.00141572,0
 .00066936,0.00193219,-0.00122867,-0.00931117,0.00081881,-0.00155168,0.
 00269417,-0.03774936,-0.03492954,-0.01748528,-0.07968694,-0.02147266,-
 0.00794216,0.57801705,0.00005072,-0.00006444,0.00009326,-0.00007195,0.
 00002946,0.00002358,0.00024093,-0.00005935,0.00006487,-0.00000813,0.00
 000349,-0.00001319,-0.00037193,-0.00026578,-0.00019217,-0.00069961,-0.
 00044046,0.00360422,-0.00106918,-0.00019021,-0.00182827,-0.00134107,0.
 00585030,-0.00110822,-0.03288948,-0.18491852,-0.05097127,-0.02945068,0
 .52176383,-0.00008602,0.00004145,-0.00026200,0.00014857,-0.00008574,0.
 00005389,0.00006617,0.00000629,-0.00002074,0.00001304,-0.00002164,0.00
 000390,-0.00040026,0.00032812,0.00008563,0.00145209,0.00103826,0.00236
 630,-0.00121856,-0.00160161,-0.00055686,-0.00802461,-0.00450615,-0.001
 49256,-0.01287191,-0.04954954,-0.11070825,-0.01510857,-0.03498454,0.57
 049534,-0.00001010,-0.00017350,0.00002046,0.00000398,-0.00007205,-0.00
 007159,-0.00071676,-0.00000575,-0.00025982,0.00004872,0.00002465,-0.00
 005387,-0.00111200,-0.00021578,0.00114975,-0.00372890,0.00344000,-0.00
 550964,0.00150172,-0.00054396,0.00130626,-0.03413244,0.00203803,0.0340
 7341,-0.08588567,0.01387578,0.09226359,0.00682841,-0.00089106,-0.01113
 211,0.11262503,0.00002958,0.00004418,0.00003985,-0.00001646,-0.0000210
 2,-0.00000842,-0.00002470,-0.00001025,0.00002568,0.00000865,-0.0000059
 3,0.00000170,0.00017688,0.00017215,-0.00005748,-0.00001926,-0.00068090
 ,0.00248326,-0.00163023,0.00064984,-0.00040146,0.00301149,0.00064571,-
 0.00259119,0.01369144,-0.05697133,-0.02752931,0.01140741,-0.00362887,-
 0.02746896,-0.01357759,0.05686056,0.00007096,-0.00011751,0.00003611,-0
 .00002069,0.00000482,-0.00001941,-0.00009301,0.00000086,-0.00006743,-0
 .00001385,0.00000010,-0.00002801,-0.00022559,-0.00017027,0.00028107,-0
 .00248691,0.00066302,-0.00096479,0.00139356,-0.00045991,0.00094704,-0.
 00630547,0.00171190,0.00944124,0.10608975,-0.02878725,-0.28286679,0.00
 419435,-0.00122118,-0.01114368,-0.10733025,0.03391537,0.29684681,-0.00
 009674,-0.00032443,0.00012597,-0.00002437,0.00002457,-0.00005271,-0.00
 036099,0.00003707,-0.00004732,0.00003106,0.00003709,-0.00003206,-0.000
 05560,-0.00049002,0.00010757,0.00281915,0.00335487,-0.00868644,0.00039
 107,-0.00107679,0.00394010,-0.02711795,0.02987361,-0.02044562,-0.05465
 163,0.02647111,-0.01633216,0.00383409,-0.00947124,0.00721872,0.0042327
 6,-0.01121746,0.00641320,0.07097983,-0.00000937,-0.00007216,-0.0000324
 2,0.00001824,-0.00002194,-0.00001676,-0.00018337,-0.00000838,-0.000035
 23,-0.00000422,0.00000895,0.00001750,0.00015146,-0.00002219,-0.0002014
 1,-0.00042741,-0.00013893,0.00359820,-0.00224378,0.00057308,-0.0009727
 4,0.00488208,0.00225424,-0.00090928,0.03493007,-0.22750785,0.12339901,
 0.00319981,-0.02183161,0.01552661,-0.00202936,0.00551798,-0.00311909,-
 0.03628566,0.24299212,-0.00000905,0.00013535,0.00002260,0.00000141,-0.
 00004898,-0.00001467,-0.00007458,-0.00005168,0.00001522,0.00002774,-0.
 00000089,0.00000120,-0.00024162,0.00049526,-0.00005597,0.00263724,-0.0
 0031660,-0.00028897,0.00158390,-0.00077778,-0.00071905,-0.00748336,0.0
 0256990,-0.00261161,-0.02468219,0.12632194,-0.14096486,0.00331160,-0.0
 1429423,0.01040770,-0.00440387,0.02267754,-0.01383974,0.02970401,-0.13
 455784,0.14799830,-0.00015915,0.00008583,-0.00001313,0.00001876,-0.000
 01759,-0.00000982,-0.00005191,0.00001946,0.00000848,0.00003459,0.00000
 954,0.00000855,-0.00010241,0.00010414,-0.00002119,0.00145860,0.0004834
 6,-0.00130527,-0.00007171,-0.00040925,0.00040935,-0.00058712,-0.002714
 80,-0.00031763,-0.01008655,0.00312256,0.00029419,-0.31399097,0.0128054
 1,-0.03384360,0.00028249,-0.00018173,-0.00034360,0.00019533,-0.0004220
 1,0.00014359,0.34021724,0.00006344,-0.00003580,0.00003659,0.00001907,-
 0.00005190,-0.00005541,-0.00028049,-0.00000863,-0.00006654,0.00001637,
 -0.00001027,-0.00000585,0.00003615,0.00058950,0.00029842,0.00108628,-0
 .00004124,-0.00294093,0.00020754,-0.00037207,0.00104043,-0.00642170,-0
 .00549955,-0.00230546,-0.02624791,0.00480394,-0.00059656,0.01464144,-0
 .04857731,0.00111365,0.00064181,0.00103891,-0.00014846,0.00061450,0.00
 045591,0.00107841,-0.01350786,0.04902272,0.00005701,-0.00003812,0.0000
 9404,-0.00004081,-0.00000645,-0.00002648,-0.00010054,0.00000411,-0.000
 00393,0.00000700,-0.00000029,-0.00000434,-0.00002452,0.00009715,0.0000
 9427,0.00046156,-0.00002112,-0.00281675,0.00053255,0.00027583,0.001142
 32,-0.00398746,-0.00367578,0.00016509,-0.01324950,0.00378914,-0.002502
 35,-0.03270029,0.00066521,-0.05027905,0.00041401,0.00060283,-0.0000606
 9,0.00020763,0.00009800,0.00042759,0.03758815,0.00007659,0.05056614,0.
 00013510,-0.00011412,-0.00005007,0.00004291,-0.00002428,-0.00001762,-0
 .00017214,-0.00001987,-0.00004533,-0.00002545,-0.00001265,-0.00000059,
 0.00022785,0.00029090,0.00003430,-0.00025117,-0.00049612,0.00151929,-0
 .00052449,-0.00000573,-0.00071510,0.00207489,0.00054351,0.00044971,0.0
 0055180,-0.01045381,0.00629422,-0.06023540,0.04883691,-0.03380202,0.00
 009682,0.00079558,0.00002562,-0.00019312,-0.00222703,-0.00104979,-0.00
 504972,0.02586378,-0.01827087,0.06022155,-0.00000858,-0.00006545,-0.00
 002568,0.00003262,-0.00001142,-0.00002600,-0.00013070,0.00000733,-0.00
 004297,-0.00000272,-0.00000483,0.00000365,0.00003350,0.00010353,0.0000
 4643,-0.00008299,-0.00041655,0.00075188,-0.00016483,0.00023418,-0.0003
 9595,0.00104567,0.00298047,0.00014711,0.00692380,-0.02560470,0.0170022
 4,0.04636872,-0.21694782,0.12332473,0.00024879,0.00104272,-0.00007812,
 -0.00210271,-0.00332151,-0.00360786,0.00001235,0.00019519,-0.00087447,
 -0.05038294,0.23801598,-0.00008282,0.00008198,-0.00003796,-0.00000865,
 0.00007569,0.00003887,0.00020804,0.00001446,0.00004808,0.00000526,0.00
 000734,0.00000177,-0.00015428,-0.00042197,-0.00004558,-0.00047199,0.00
 050958,-0.00049728,0.00054581,0.00030268,0.00043824,0.00160643,0.00100
 478,0.00033946,0.00390176,-0.01522681,0.01004014,-0.03422723,0.1257422
 8,-0.13986152,0.00057103,0.00057428,0.00091774,-0.00178715,-0.00302892
 ,-0.00103933,-0.00002809,0.00139068,-0.00278361,0.03805905,-0.13350375
 ,0.14706408,0.00038795,-0.00019954,0.00018527,-0.00006817,0.00004241,-
 0.00001017,0.00002573,-0.00001870,-0.00001840,-0.00003010,-0.00001574,
 -0.00000508,0.00009274,0.00013066,0.00004562,-0.00080457,-0.00057553,-
 0.00103018,-0.00069587,-0.00065899,0.00061866,0.00132114,0.00113298,0.
 00066568,0.00436824,-0.00174019,-0.01217433,-0.09915643,0.01433038,0.1
 0758909,-0.00003407,-0.00245361,-0.00136806,0.00001709,0.00065056,0.00
 053497,-0.01210746,0.00326758,0.02910606,0.00310057,-0.00178998,-0.008
 13718,0.10358320,-0.00007958,0.00000803,-0.00006842,0.00002736,0.00007
 143,0.00005047,0.00024688,0.00002439,0.00003377,-0.00000724,0.00000007
 ,-0.00001307,-0.00024767,-0.00047765,0.00012162,-0.00103542,0.00090511
 ,-0.00292023,0.00060850,-0.00056562,0.00182369,-0.00010886,0.00158443,
 0.00284385,0.01539533,-0.00431810,-0.02887508,0.01149114,-0.05072269,-
 0.02316093,-0.00276001,-0.00465372,-0.00219429,0.00055550,0.00112230,0
 .00037746,0.00061050,-0.00150940,-0.00099261,-0.01259413,0.00379286,0.
 02247772,-0.01210229,0.05473857,0.00017046,-0.00016859,0.00008197,-0.0
 0003360,-0.00000785,-0.00002522,-0.00013295,-0.00002907,-0.00003017,-0
 .00002391,0.00000102,-0.00001491,0.00014350,0.00007853,0.00008669,-0.0
 0045958,-0.00038206,-0.00141844,0.00090971,0.00103076,0.00061272,-0.00
 045353,0.00086809,0.00118612,0.00626951,-0.00264038,-0.01364095,0.1059
 8421,-0.02558034,-0.26908810,-0.00103735,-0.00226370,0.00052053,-0.000
 33375,0.00023437,0.00066159,-0.00256997,0.00108444,0.00598775,0.007569
 20,-0.00272125,-0.01462311,-0.11600194,0.03049605,0.28970354\\-0.00039
 035,-0.00453916,-0.00061945,-0.00002897,-0.00008699,0.00000763,0.00058
 652,-0.00021047,0.00014619,0.00002956,-0.00014260,-0.00001625,-0.00003
 341,0.00503471,0.00062890,0.00013152,0.00052249,0.00010459,-0.00025128
 ,-0.00033073,-0.00016346,-0.00003365,-0.00014395,-0.00002935,0.0000362
 5,-0.00006567,-0.00002347,-0.00003828,-0.00002248,-0.00001873,-0.00000
 037,-0.00000208,-0.00000376,0.00000610,-0.00000405,-0.00000807,-0.0000
 0356,-0.00000452,-0.00000253,-0.00000562,-0.00000320,-0.00000022,-0.00
 000445,-0.00000130,-0.00000202\\\@


 This summer one third of the nation will be ill-housed
 ill-nourished and ill-clad. Only they call it a vacation.
 -- Jonas Salk
 Job cpu time:       0 days  1 hours  0 minutes 29.1 seconds.
 Elapsed time:       0 days  0 hours  2 minutes 31.5 seconds.
 File lengths (MBytes):  RWF=    153 Int=      0 D2E=      0 Chk=      9 Scr=      1
 Normal termination of Gaussian 16 at Mon Jun 23 04:17:25 2025.
