 Entering Gaussian System, Link 0=g16
 Initial command:
 /opt/g16/l1.exe "/home/aayush/scratches/g16/Gau-52799.inp" -scrdir="/home/aayush/scratches/g16/"
 Entering Link 1 = /opt/g16/l1.exe PID=     52802.
  
 Copyright (c) 1988,1990,1992,1993,1995,1998,2003,2009,2016,
            Gaussian, Inc.  All Rights Reserved.
  
 This is part of the Gaussian(R) 16 program.  It is based on
 the Gaussian(R) 09 system (copyright 2009, Gaussian, Inc.),
 the Gaussian(R) 03 system (copyright 2003, Gaussian, Inc.),
 the Gaussian(R) 98 system (copyright 1998, Gaussian, Inc.),
 the Gaussian(R) 94 system (copyright 1995, Gaussian, Inc.),
 the Gaussian 92(TM) system (copyright 1992, Gaussian, Inc.),
 the Gaussian 90(TM) system (copyright 1990, Gaussian, Inc.),
 the Gaussian 88(TM) system (copyright 1988, Gaussian, Inc.),
 the Gaussian 86(TM) system (copyright 1986, Carnegie Mellon
 University), and the Gaussian 82(TM) system (copyright 1983,
 Carnegie Mellon University). Gaussian is a federally registered
 trademark of Gaussian, Inc.
  
 This software contains proprietary and confidential information,
 including trade secrets, belonging to Gaussian, Inc.
  
 This software is provided under written license and may be
 used, copied, transmitted, or stored only in accord with that
 written license.
  
 The following legend is applicable only to US Government
 contracts under FAR:
  
                    RESTRICTED RIGHTS LEGEND
  
 Use, reproduction and disclosure by the US Government is
 subject to restrictions as set forth in subparagraphs (a)
 and (c) of the Commercial Computer Software - Restricted
 Rights clause in FAR 52.227-19.
  
 Gaussian, Inc.
 340 Quinnipiac St., Bldg. 40, Wallingford CT 06492
  
  
 ---------------------------------------------------------------
 Warning -- This program may not be used in any manner that
 competes with the business of Gaussian, Inc. or will provide
 assistance to any competitor of Gaussian, Inc.  The licensee
 of this program is prohibited from giving any competitor of
 Gaussian, Inc. access to this program.  By using this program,
 the user acknowledges that Gaussian, Inc. is engaged in the
 business of creating and licensing software in the field of
 computational chemistry and represents and warrants to the
 licensee that it is not a competitor of Gaussian, Inc. and that
 it will not use this program in any manner prohibited above.
 ---------------------------------------------------------------
  

 Cite this work as:
 Gaussian 16, Revision A.03,
 M. J. Frisch, G. W. Trucks, H. B. Schlegel, G. E. Scuseria, 
 M. A. Robb, J. R. Cheeseman, G. Scalmani, V. Barone, 
 G. A. Petersson, H. Nakatsuji, X. Li, M. Caricato, A. V. Marenich, 
 J. Bloino, B. G. Janesko, R. Gomperts, B. Mennucci, H. P. Hratchian, 
 J. V. Ortiz, A. F. Izmaylov, J. L. Sonnenberg, D. Williams-Young, 
 F. Ding, F. Lipparini, F. Egidi, J. Goings, B. Peng, A. Petrone, 
 T. Henderson, D. Ranasinghe, V. G. Zakrzewski, J. Gao, N. Rega, 
 G. Zheng, W. Liang, M. Hada, M. Ehara, K. Toyota, R. Fukuda, 
 J. Hasegawa, M. Ishida, T. Nakajima, Y. Honda, O. Kitao, H. Nakai, 
 T. Vreven, K. Throssell, J. A. Montgomery, Jr., J. E. Peralta, 
 F. Ogliaro, M. J. Bearpark, J. J. Heyd, E. N. Brothers, K. N. Kudin, 
 V. N. Staroverov, T. A. Keith, R. Kobayashi, J. Normand, 
 K. Raghavachari, A. P. Rendell, J. C. Burant, S. S. Iyengar, 
 J. Tomasi, M. Cossi, J. M. Millam, M. Klene, C. Adamo, R. Cammi, 
 J. W. Ochterski, R. L. Martin, K. Morokuma, O. Farkas, 
 J. B. Foresman, and D. J. Fox, Gaussian, Inc., Wallingford CT, 2016.
 
 ******************************************
 Gaussian 16:  ES64L-G16RevA.03 25-Dec-2016
                23-Jun-2025 
 ******************************************
 %nprocshared=24
 Will use up to   24 processors via shared memory.
 %mem=12GB
 %chk=ethyl_propiolate_ts1.chk
 --------------------------
 # freq 6-311++g(d,p) m062x
 --------------------------
 1/10=4,30=1,38=1/1,3;
 2/12=2,17=6,18=5,40=1/2;
 3/5=4,6=6,7=1111,11=2,25=1,30=1,71=2,74=-55,140=1/1,2,3;
 4//1;
 5/5=2,38=5,98=1/2;
 8/6=4,10=90,11=11/1;
 11/6=1,8=1,9=11,15=111,16=1/1,2,10;
 10/6=1/2;
 6/7=2,8=2,9=2,10=2,28=1/1;
 7/8=1,10=1,25=1/1,2,3,16;
 1/10=4,30=1/3;
 99//99;
 -------------------
 Title Card Required
 -------------------
 Symbolic Z-matrix:
 Charge =  0 Multiplicity = 2
 O                    -1.41565   1.60504   0.11468 
 H                    -2.03407   1.75      0.84429 
 C                    -2.77599  -0.49811  -0.45173 
 H                    -3.80132  -0.5768   -0.73263 
 C                    -1.61635  -0.18902  -0.12937 
 C                    -0.22055  -0.56261   0.2216 
 O                     0.10705  -0.93734   1.31031 
 O                     0.58133  -0.35105  -0.81158 
 C                     1.99666  -0.43888  -0.54115 
 C                     2.48265   0.82047   0.14839 
 H                     2.44628  -0.56288  -1.52442 
 H                     2.18433  -1.32836   0.06112 
 H                     3.56447   0.76847   0.28576 
 H                     2.24614   1.69765  -0.45487 
 H                     2.01387   0.92759   1.12694 
 

 GradGradGradGradGradGradGradGradGradGradGradGradGradGradGradGradGradGrad
 Berny optimization.
 Initialization pass.
 Trust Radius=3.00D-01 FncErr=1.00D-07 GrdErr=1.00D-07 EigMax=2.50D+02 EigMin=1.00D-04
 Number of steps in this run=      2 maximum allowed number of steps=      2.
 GradGradGradGradGradGradGradGradGradGradGradGradGradGradGradGradGradGrad

                          Input orientation:                          
 ---------------------------------------------------------------------
 Center     Atomic      Atomic             Coordinates (Angstroms)
 Number     Number       Type             X           Y           Z
 ---------------------------------------------------------------------
      1          8           0       -1.415648    1.605040    0.114683
      2          1           0       -2.034067    1.750004    0.844290
      3          6           0       -2.775992   -0.498105   -0.451725
      4          1           0       -3.801322   -0.576801   -0.732634
      5          6           0       -1.616353   -0.189019   -0.129369
      6          6           0       -0.220550   -0.562605    0.221604
      7          8           0        0.107048   -0.937343    1.310313
      8          8           0        0.581331   -0.351051   -0.811577
      9          6           0        1.996661   -0.438883   -0.541153
     10          6           0        2.482645    0.820470    0.148388
     11          1           0        2.446275   -0.562877   -1.524424
     12          1           0        2.184334   -1.328355    0.061121
     13          1           0        3.564470    0.768474    0.285761
     14          1           0        2.246140    1.697652   -0.454869
     15          1           0        2.013865    0.927592    1.126935
 ---------------------------------------------------------------------
                    Distance matrix (angstroms):
                    1          2          3          4          5
     1  O    0.000000
     2  H    0.967359   0.000000
     3  C    2.567990   2.698907   0.000000
     4  H    3.342128   3.320226   1.066023   0.000000
     5  C    1.821673   2.209594   1.242663   2.299651   0.000000
     6  C    2.477575   3.004121   2.643448   3.705766   1.486948
     7  O    3.195598   3.467475   3.407290   4.424814   2.367020
     8  O    2.944856   3.741208   3.379754   4.389173   2.306833
     9  C    4.031327   4.791393   4.773858   5.802783   3.644978
    10  C    3.976603   4.663582   5.454543   6.497446   4.230603
    11  H    4.722392   5.570789   5.331693   6.297586   4.311716
    12  H    4.644087   5.280583   5.055409   6.084649   3.972354
    13  H    5.052790   5.711302   6.507654   7.556572   5.284889
    14  H    3.706974   4.473335   5.481165   6.467000   4.310955
    15  H    3.639389   4.140290   5.240945   6.287893   4.000450
                    6          7          8          9         10
     6  C    0.000000
     7  O    1.197095   0.000000
     8  O    1.324851   2.251910   0.000000
     9  C    2.348006   2.692030   1.443607   0.000000
    10  C    3.037354   3.175443   2.430841   1.515789   0.000000
    11  H    3.187565   3.694312   2.007744   1.088278   2.171007
    12  H    2.528951   2.455298   2.070349   1.090466   2.171187
    13  H    4.012763   3.989146   3.369956   2.144650   1.091751
    14  H    3.413347   3.825543   2.663834   2.152781   1.090551
    15  H    2.834241   2.673492   2.728536   2.156402   1.090314
                   11         12         13         14         15
    11  H    0.000000
    12  H    1.780034   0.000000
    13  H    2.509905   2.520304   0.000000
    14  H    2.508783   3.070307   1.774795   0.000000
    15  H    3.072162   2.500863   1.771233   1.774556   0.000000
 Stoichiometry    C5H7O3(2)
 Framework group  C1[X(C5H7O3)]
 Deg. of freedom    39
 Full point group                 C1      NOp   1
 Largest Abelian subgroup         C1      NOp   1
 Largest concise Abelian subgroup C1      NOp   1
                         Standard orientation:                         
 ---------------------------------------------------------------------
 Center     Atomic      Atomic             Coordinates (Angstroms)
 Number     Number       Type             X           Y           Z
 ---------------------------------------------------------------------
      1          8           0       -1.415648    1.605040    0.114683
      2          1           0       -2.034067    1.750004    0.844290
      3          6           0       -2.775992   -0.498105   -0.451725
      4          1           0       -3.801322   -0.576801   -0.732634
      5          6           0       -1.616353   -0.189019   -0.129369
      6          6           0       -0.220550   -0.562605    0.221604
      7          8           0        0.107048   -0.937343    1.310313
      8          8           0        0.581331   -0.351051   -0.811577
      9          6           0        1.996661   -0.438883   -0.541153
     10          6           0        2.482645    0.820470    0.148388
     11          1           0        2.446275   -0.562877   -1.524424
     12          1           0        2.184334   -1.328355    0.061121
     13          1           0        3.564470    0.768474    0.285761
     14          1           0        2.246140    1.697652   -0.454869
     15          1           0        2.013865    0.927592    1.126935
 ---------------------------------------------------------------------
 Rotational constants (GHZ):           3.7431541           1.3120658           1.2033928
 Standard basis: 6-311++G(d,p) (5D, 7F)
 There are   233 symmetry adapted cartesian basis functions of A   symmetry.
 There are   225 symmetry adapted basis functions of A   symmetry.
   225 basis functions,   351 primitive gaussians,   233 cartesian basis functions
    31 alpha electrons       30 beta electrons
       nuclear repulsion energy       364.3653708568 Hartrees.
 NAtoms=   15 NActive=   15 NUniq=   15 SFac= 1.00D+00 NAtFMM=   60 NAOKFM=F Big=F
 Integral buffers will be    131072 words long.
 Raffenetti 2 integral format.
 Two-electron integral symmetry is turned on.
 One-electron integrals computed using PRISM.
 NBasis=   225 RedAO= T EigKep=  5.36D-06  NBF=   225
 NBsUse=   225 1.00D-06 EigRej= -1.00D+00 NBFU=   225
 ExpMin= 3.60D-02 ExpMax= 8.59D+03 ExpMxC= 1.30D+03 IAcc=3 IRadAn=         5 AccDes= 0.00D+00
 Harris functional with IExCor= 1009 and IRadAn=       5 diagonalized for initial guess.
 HarFok:  IExCor= 1009 AccDes= 0.00D+00 IRadAn=         5 IDoV= 1 UseB2=F ITyADJ=14
 ICtDFT=  3500011 ScaDFX=  1.000000  1.000000  1.000000  1.000000
 FoFCou: FMM=F IPFlag=           0 FMFlag=      100000 FMFlg1=           0
         NFxFlg=           0 DoJE=T BraDBF=F KetDBF=T FulRan=T
         wScrn=  0.000000 ICntrl=       500 IOpCl=  0 I1Cent=   200000004 NGrid=           0
         NMat0=    1 NMatS0=      1 NMatT0=    0 NMatD0=    1 NMtDS0=    0 NMtDT0=    0
 Petite list used in FoFCou.
 Initial guess <Sx>= 0.0000 <Sy>= 0.0000 <Sz>= 0.5000 <S**2>= 0.7500 S= 0.5000
 Requested convergence on RMS density matrix=1.00D-08 within 128 cycles.
 Requested convergence on MAX density matrix=1.00D-06.
 Requested convergence on             energy=1.00D-06.
 No special actions if energy rises.
 Restarting incremental Fock formation.
 SCF Done:  E(UM062X) =  -420.208304579     A.U. after   21 cycles
            NFock= 21  Conv=0.37D-08     -V/T= 2.0036
 <Sx>= 0.0000 <Sy>= 0.0000 <Sz>= 0.5000 <S**2>= 0.7857 S= 0.5177
 <L.S>=  0.00000000000    
 Annihilation of the first spin contaminant:
 S**2 before annihilation     0.7857,   after     0.7506
 DoSCS=F DFT=T ScalE2(SS,OS)=  1.000000  1.000000
 Range of M.O.s used for correlation:     1   225
 NBasis=   225 NAE=    31 NBE=    30 NFC=     0 NFV=     0
 NROrb=    225 NOA=    31 NOB=    30 NVA=   194 NVB=   195

 **** Warning!!: The largest alpha MO coefficient is  0.12178710D+03


 **** Warning!!: The largest beta MO coefficient is  0.11511759D+03

 Symmetrizing basis deriv contribution to polar:
 IMax=3 JMax=2 DiffMx= 0.00D+00
 G2DrvN: will do    16 centers at a time, making    1 passes.
 Calling FoFCou, ICntrl=  3107 FMM=F I1Cent=   0 AccDes= 0.00D+00.
 End of G2Drv F.D. properties file   721 does not exist.
 End of G2Drv F.D. properties file   722 does not exist.
 End of G2Drv F.D. properties file   788 does not exist.
          IDoAtm=111111111111111
          Differentiating once with respect to electric field.
                with respect to dipole field.
          Differentiating once with respect to nuclear coordinates.
 Keep R1 and R2 ints in memory in canonical form, NReq=671901991.
          There are    48 degrees of freedom in the 1st order CPHF.  IDoFFX=6 NUNeed=     3.
     45 vectors produced by pass  0 Test12= 2.47D-14 2.08D-09 XBig12= 8.55D+01 4.00D+00.
 AX will form    45 AO Fock derivatives at one time.
     45 vectors produced by pass  1 Test12= 2.47D-14 2.08D-09 XBig12= 1.30D+01 5.32D-01.
     45 vectors produced by pass  2 Test12= 2.47D-14 2.08D-09 XBig12= 5.77D-01 1.15D-01.
     45 vectors produced by pass  3 Test12= 2.47D-14 2.08D-09 XBig12= 8.92D-03 1.29D-02.
     45 vectors produced by pass  4 Test12= 2.47D-14 2.08D-09 XBig12= 1.07D-04 1.35D-03.
     45 vectors produced by pass  5 Test12= 2.47D-14 2.08D-09 XBig12= 1.38D-06 1.26D-04.
     38 vectors produced by pass  6 Test12= 2.47D-14 2.08D-09 XBig12= 1.35D-08 1.10D-05.
     23 vectors produced by pass  7 Test12= 2.47D-14 2.08D-09 XBig12= 9.82D-11 1.10D-06.
      4 vectors produced by pass  8 Test12= 2.47D-14 2.08D-09 XBig12= 8.12D-13 6.81D-08.
      3 vectors produced by pass  9 Test12= 2.47D-14 2.08D-09 XBig12= 1.07D-14 9.41D-09.
      1 vectors produced by pass 10 Test12= 2.47D-14 2.08D-09 XBig12= 1.86D-16 2.31D-09.
 InvSVY:  IOpt=1 It=  1 EMax= 8.88D-15
 Solved reduced A of dimension   339 with    48 vectors.
 Isotropic polarizability for W=    0.000000       73.09 Bohr**3.
 End of Minotr F.D. properties file   721 does not exist.
 End of Minotr F.D. properties file   722 does not exist.
 End of Minotr F.D. properties file   788 does not exist.

 **********************************************************************

            Population analysis using the SCF density.

 **********************************************************************

 Orbital symmetries:
 Alpha Orbitals:
       Occupied  (A) (A) (A) (A) (A) (A) (A) (A) (A) (A) (A) (A)
                 (A) (A) (A) (A) (A) (A) (A) (A) (A) (A) (A) (A)
                 (A) (A) (A) (A) (A) (A) (A)
       Virtual   (A) (A) (A) (A) (A) (A) (A) (A) (A) (A) (A) (A)
                 (A) (A) (A) (A) (A) (A) (A) (A) (A) (A) (A) (A)
                 (A) (A) (A) (A) (A) (A) (A) (A) (A) (A) (A) (A)
                 (A) (A) (A) (A) (A) (A) (A) (A) (A) (A) (A) (A)
                 (A) (A) (A) (A) (A) (A) (A) (A) (A) (A) (A) (A)
                 (A) (A) (A) (A) (A) (A) (A) (A) (A) (A) (A) (A)
                 (A) (A) (A) (A) (A) (A) (A) (A) (A) (A) (A) (A)
                 (A) (A) (A) (A) (A) (A) (A) (A) (A) (A) (A) (A)
                 (A) (A) (A) (A) (A) (A) (A) (A) (A) (A) (A) (A)
                 (A) (A) (A) (A) (A) (A) (A) (A) (A) (A) (A) (A)
                 (A) (A) (A) (A) (A) (A) (A) (A) (A) (A) (A) (A)
                 (A) (A) (A) (A) (A) (A) (A) (A) (A) (A) (A) (A)
                 (A) (A) (A) (A) (A) (A) (A) (A) (A) (A) (A) (A)
                 (A) (A) (A) (A) (A) (A) (A) (A) (A) (A) (A) (A)
                 (A) (A) (A) (A) (A) (A) (A) (A) (A) (A) (A) (A)
                 (A) (A) (A) (A) (A) (A) (A) (A) (A) (A) (A) (A)
                 (A) (A)
 Beta  Orbitals:
       Occupied  (A) (A) (A) (A) (A) (A) (A) (A) (A) (A) (A) (A)
                 (A) (A) (A) (A) (A) (A) (A) (A) (A) (A) (A) (A)
                 (A) (A) (A) (A) (A) (A)
       Virtual   (A) (A) (A) (A) (A) (A) (A) (A) (A) (A) (A) (A)
                 (A) (A) (A) (A) (A) (A) (A) (A) (A) (A) (A) (A)
                 (A) (A) (A) (A) (A) (A) (A) (A) (A) (A) (A) (A)
                 (A) (A) (A) (A) (A) (A) (A) (A) (A) (A) (A) (A)
                 (A) (A) (A) (A) (A) (A) (A) (A) (A) (A) (A) (A)
                 (A) (A) (A) (A) (A) (A) (A) (A) (A) (A) (A) (A)
                 (A) (A) (A) (A) (A) (A) (A) (A) (A) (A) (A) (A)
                 (A) (A) (A) (A) (A) (A) (A) (A) (A) (A) (A) (A)
                 (A) (A) (A) (A) (A) (A) (A) (A) (A) (A) (A) (A)
                 (A) (A) (A) (A) (A) (A) (A) (A) (A) (A) (A) (A)
                 (A) (A) (A) (A) (A) (A) (A) (A) (A) (A) (A) (A)
                 (A) (A) (A) (A) (A) (A) (A) (A) (A) (A) (A) (A)
                 (A) (A) (A) (A) (A) (A) (A) (A) (A) (A) (A) (A)
                 (A) (A) (A) (A) (A) (A) (A) (A) (A) (A) (A) (A)
                 (A) (A) (A) (A) (A) (A) (A) (A) (A) (A) (A) (A)
                 (A) (A) (A) (A) (A) (A) (A) (A) (A) (A) (A) (A)
                 (A) (A) (A)
 The electronic state is 2-A.
 Alpha  occ. eigenvalues --  -19.68239 -19.64332 -19.63246 -10.70610 -10.62299
 Alpha  occ. eigenvalues --  -10.60424 -10.59641 -10.53369  -1.25822  -1.16538
 Alpha  occ. eigenvalues --   -1.10797  -0.91515  -0.87719  -0.78263  -0.70960
 Alpha  occ. eigenvalues --   -0.64704  -0.62467  -0.58799  -0.57618  -0.53358
 Alpha  occ. eigenvalues --   -0.53156  -0.49692  -0.48182  -0.46022  -0.45123
 Alpha  occ. eigenvalues --   -0.41768  -0.40347  -0.39667  -0.38429  -0.36613
 Alpha  occ. eigenvalues --   -0.32011
 Alpha virt. eigenvalues --   -0.00278   0.00152   0.00494   0.01437   0.02396
 Alpha virt. eigenvalues --    0.02691   0.03071   0.04263   0.05745   0.06127
 Alpha virt. eigenvalues --    0.07055   0.07635   0.08352   0.09938   0.10493
 Alpha virt. eigenvalues --    0.10980   0.11267   0.12041   0.12946   0.13611
 Alpha virt. eigenvalues --    0.14281   0.14543   0.14783   0.15551   0.15654
 Alpha virt. eigenvalues --    0.16228   0.17728   0.18085   0.18985   0.19909
 Alpha virt. eigenvalues --    0.21077   0.22140   0.23495   0.23919   0.24595
 Alpha virt. eigenvalues --    0.25375   0.26655   0.27918   0.29939   0.31151
 Alpha virt. eigenvalues --    0.31167   0.32148   0.32908   0.34207   0.34598
 Alpha virt. eigenvalues --    0.35130   0.36374   0.37219   0.38738   0.40374
 Alpha virt. eigenvalues --    0.41399   0.43102   0.44765   0.46757   0.47973
 Alpha virt. eigenvalues --    0.49886   0.53128   0.54523   0.55336   0.57068
 Alpha virt. eigenvalues --    0.58184   0.60941   0.62852   0.64960   0.66461
 Alpha virt. eigenvalues --    0.67094   0.69719   0.69799   0.71691   0.71872
 Alpha virt. eigenvalues --    0.73596   0.75087   0.78020   0.78267   0.80334
 Alpha virt. eigenvalues --    0.83515   0.85734   0.89842   0.93999   0.97748
 Alpha virt. eigenvalues --    0.98449   1.03372   1.05960   1.07873   1.12622
 Alpha virt. eigenvalues --    1.16193   1.17985   1.20430   1.21636   1.23934
 Alpha virt. eigenvalues --    1.26327   1.27579   1.29344   1.32892   1.34983
 Alpha virt. eigenvalues --    1.36192   1.36464   1.39049   1.42298   1.46408
 Alpha virt. eigenvalues --    1.48408   1.50498   1.51847   1.53776   1.57513
 Alpha virt. eigenvalues --    1.58891   1.59926   1.61976   1.63194   1.65042
 Alpha virt. eigenvalues --    1.66277   1.67837   1.70747   1.73024   1.73971
 Alpha virt. eigenvalues --    1.78067   1.80500   1.84119   1.86846   1.88199
 Alpha virt. eigenvalues --    1.90641   1.93804   1.99314   2.04190   2.05888
 Alpha virt. eigenvalues --    2.10349   2.13048   2.14154   2.20931   2.27977
 Alpha virt. eigenvalues --    2.31494   2.35372   2.40826   2.50850   2.52038
 Alpha virt. eigenvalues --    2.54352   2.55809   2.59909   2.61603   2.63445
 Alpha virt. eigenvalues --    2.65342   2.66602   2.70919   2.73571   2.74583
 Alpha virt. eigenvalues --    2.76890   2.81185   2.83030   2.87779   2.90933
 Alpha virt. eigenvalues --    2.94582   2.96856   2.98454   3.01276   3.06579
 Alpha virt. eigenvalues --    3.10732   3.16115   3.18045   3.19908   3.21794
 Alpha virt. eigenvalues --    3.27434   3.30536   3.34178   3.36172   3.45224
 Alpha virt. eigenvalues --    3.46224   3.53335   3.64618   3.75614   3.85751
 Alpha virt. eigenvalues --    3.86344   3.90542   3.91341   4.02468   4.10234
 Alpha virt. eigenvalues --    4.18192   4.28245   5.15252   5.16792   5.19033
 Alpha virt. eigenvalues --    5.21530   5.32232   5.47429   5.62496   5.73001
 Alpha virt. eigenvalues --    5.94696  23.58075  23.92375  23.94287  24.06068
 Alpha virt. eigenvalues --   24.82951  49.98412  50.02301  50.10665
  Beta  occ. eigenvalues --  -19.68238 -19.63439 -19.63261 -10.70561 -10.62448
  Beta  occ. eigenvalues --  -10.60423 -10.59153 -10.53370  -1.25802  -1.16560
  Beta  occ. eigenvalues --   -1.07601  -0.90368  -0.86884  -0.77724  -0.70316
  Beta  occ. eigenvalues --   -0.64488  -0.61712  -0.58691  -0.57236  -0.53137
  Beta  occ. eigenvalues --   -0.51814  -0.48871  -0.46817  -0.45223  -0.41734
  Beta  occ. eigenvalues --   -0.41549  -0.39451  -0.38497  -0.38246  -0.35234
  Beta virt. eigenvalues --   -0.09665  -0.00186   0.00466   0.01307   0.01894
  Beta virt. eigenvalues --    0.02413   0.02767   0.03250   0.04301   0.05741
  Beta virt. eigenvalues --    0.06059   0.07163   0.07492   0.08421   0.09913
  Beta virt. eigenvalues --    0.10723   0.11300   0.11485   0.12115   0.12579
  Beta virt. eigenvalues --    0.13580   0.14316   0.14826   0.15500   0.15642
  Beta virt. eigenvalues --    0.15704   0.16141   0.17470   0.18063   0.19181
  Beta virt. eigenvalues --    0.20446   0.21085   0.22197   0.23743   0.24022
  Beta virt. eigenvalues --    0.24752   0.25285   0.26683   0.27862   0.30043
  Beta virt. eigenvalues --    0.31080   0.31169   0.32064   0.33014   0.34288
  Beta virt. eigenvalues --    0.34582   0.35112   0.36385   0.37198   0.38750
  Beta virt. eigenvalues --    0.40377   0.41475   0.43024   0.44748   0.46814
  Beta virt. eigenvalues --    0.48225   0.49891   0.53066   0.54532   0.55618
  Beta virt. eigenvalues --    0.57585   0.58706   0.61016   0.63035   0.65169
  Beta virt. eigenvalues --    0.66597   0.67409   0.69558   0.69720   0.71596
  Beta virt. eigenvalues --    0.71804   0.73575   0.75037   0.77842   0.78139
  Beta virt. eigenvalues --    0.80288   0.83532   0.85810   0.90261   0.94120
  Beta virt. eigenvalues --    0.97720   0.98535   1.03569   1.06093   1.08018
  Beta virt. eigenvalues --    1.13248   1.17149   1.18341   1.20816   1.22509
  Beta virt. eigenvalues --    1.24133   1.26770   1.28552   1.30057   1.34157
  Beta virt. eigenvalues --    1.35881   1.36531   1.37189   1.39428   1.43147
  Beta virt. eigenvalues --    1.47094   1.48638   1.50732   1.52551   1.54504
  Beta virt. eigenvalues --    1.57709   1.59169   1.59993   1.62035   1.63488
  Beta virt. eigenvalues --    1.65182   1.66326   1.67893   1.70747   1.73094
  Beta virt. eigenvalues --    1.74015   1.78185   1.80560   1.84326   1.87149
  Beta virt. eigenvalues --    1.88424   1.90883   1.94159   1.99370   2.04309
  Beta virt. eigenvalues --    2.06308   2.10621   2.13500   2.14233   2.20971
  Beta virt. eigenvalues --    2.28187   2.31543   2.35401   2.41017   2.51461
  Beta virt. eigenvalues --    2.52042   2.54362   2.55894   2.60362   2.61736
  Beta virt. eigenvalues --    2.63769   2.65935   2.66770   2.71315   2.73630
  Beta virt. eigenvalues --    2.74712   2.78038   2.82016   2.83718   2.90303
  Beta virt. eigenvalues --    2.90967   2.94723   2.96946   2.98459   3.01189
  Beta virt. eigenvalues --    3.09517   3.11321   3.16302   3.20980   3.21265
  Beta virt. eigenvalues --    3.24082   3.27606   3.30611   3.34707   3.36108
  Beta virt. eigenvalues --    3.45929   3.46953   3.52863   3.64587   3.75594
  Beta virt. eigenvalues --    3.85762   3.86353   3.90600   3.93118   4.02449
  Beta virt. eigenvalues --    4.10096   4.18067   4.28242   5.15796   5.17212
  Beta virt. eigenvalues --    5.21457   5.24053   5.32334   5.47409   5.64207
  Beta virt. eigenvalues --    5.72981   5.94686  23.58180  23.92383  23.94292
  Beta virt. eigenvalues --   24.06068  24.83683  49.98017  50.02002  50.10686
          Condensed to atoms (all electrons):
               1          2          3          4          5          6
     1  O    8.112854   0.232000  -0.330674  -0.004275   0.541101  -0.271363
     2  H    0.232000   0.511613  -0.048041  -0.002511   0.045367   0.020891
     3  C   -0.330674  -0.048041  14.666814   0.503902  -3.314310  -5.078798
     4  H   -0.004275  -0.002511   0.503902   0.417464  -0.097136  -0.030797
     5  C    0.541101   0.045367  -3.314310  -0.097136  10.689975  -1.735226
     6  C   -0.271363   0.020891  -5.078798  -0.030797  -1.735226  12.703966
     7  O   -0.007301   0.000754  -0.120972  -0.001584   0.015723   0.544131
     8  O    0.013226  -0.001772  -0.122973  -0.002541  -0.209906   0.211001
     9  C   -0.017348   0.002902  -0.065731  -0.000594  -0.267411   0.227515
    10  C    0.015184  -0.003951   0.027864   0.000355   0.077361  -0.209530
    11  H    0.000984  -0.000067  -0.004635   0.000040  -0.016569   0.029776
    12  H   -0.001454   0.000272  -0.027543  -0.000262  -0.040416   0.058088
    13  H    0.000291   0.000238  -0.004317   0.000024  -0.003290   0.015187
    14  H   -0.001947  -0.000208   0.000284  -0.000010   0.005960  -0.008033
    15  H    0.001487   0.000039   0.010722  -0.000257  -0.000153  -0.020317
               7          8          9         10         11         12
     1  O   -0.007301   0.013226  -0.017348   0.015184   0.000984  -0.001454
     2  H    0.000754  -0.001772   0.002902  -0.003951  -0.000067   0.000272
     3  C   -0.120972  -0.122973  -0.065731   0.027864  -0.004635  -0.027543
     4  H   -0.001584  -0.002541  -0.000594   0.000355   0.000040  -0.000262
     5  C    0.015723  -0.209906  -0.267411   0.077361  -0.016569  -0.040416
     6  C    0.544131   0.211001   0.227515  -0.209530   0.029776   0.058088
     7  O    7.959325  -0.158961   0.053348  -0.071734   0.005144  -0.013954
     8  O   -0.158961   8.255088   0.111283  -0.029373  -0.093371  -0.010560
     9  C    0.053348   0.111283   5.436120   0.040835   0.443586   0.410663
    10  C   -0.071734  -0.029373   0.040835   5.461954  -0.052824  -0.040820
    11  H    0.005144  -0.093371   0.443586  -0.052824   0.533437  -0.038668
    12  H   -0.013954  -0.010560   0.410663  -0.040820  -0.038668   0.524475
    13  H   -0.002185   0.015477  -0.055684   0.406581  -0.000653  -0.004419
    14  H    0.001629  -0.001264  -0.033778   0.414266  -0.010982   0.005478
    15  H    0.001939  -0.025267  -0.005701   0.381738   0.009215  -0.009301
              13         14         15
     1  O    0.000291  -0.001947   0.001487
     2  H    0.000238  -0.000208   0.000039
     3  C   -0.004317   0.000284   0.010722
     4  H    0.000024  -0.000010  -0.000257
     5  C   -0.003290   0.005960  -0.000153
     6  C    0.015187  -0.008033  -0.020317
     7  O   -0.002185   0.001629   0.001939
     8  O    0.015477  -0.001264  -0.025267
     9  C   -0.055684  -0.033778  -0.005701
    10  C    0.406581   0.414266   0.381738
    11  H   -0.000653  -0.010982   0.009215
    12  H   -0.004419   0.005478  -0.009301
    13  H    0.540898  -0.033654  -0.041327
    14  H   -0.033654   0.528301  -0.040203
    15  H   -0.041327  -0.040203   0.547824
          Atomic-Atomic Spin Densities.
               1          2          3          4          5          6
     1  O    0.593959   0.003274  -0.327058  -0.005438  -0.012291   0.196418
     2  H    0.003274  -0.018081   0.042444   0.001163  -0.008733  -0.025255
     3  C   -0.327058   0.042444   1.727310   0.065767  -0.578576  -0.072909
     4  H   -0.005438   0.001163   0.065767  -0.017050  -0.049494  -0.021666
     5  C   -0.012291  -0.008733  -0.578576  -0.049494  -0.026334   0.353139
     6  C    0.196418  -0.025255  -0.072909  -0.021666   0.353139  -0.378185
     7  O    0.002460  -0.000353  -0.001718  -0.000095   0.006422  -0.003467
     8  O    0.005916  -0.000111  -0.016708  -0.000541  -0.000666   0.012006
     9  C    0.004725  -0.000744  -0.019352  -0.000273  -0.019795   0.030103
    10  C   -0.002980   0.000863   0.027267   0.000349   0.029017  -0.046331
    11  H    0.000254  -0.000034  -0.000135  -0.000014  -0.000593  -0.000155
    12  H    0.000759  -0.000052  -0.000741  -0.000083   0.004090  -0.005037
    13  H   -0.000088   0.000030   0.001110   0.000019   0.000954  -0.001546
    14  H   -0.000037  -0.000075  -0.002647  -0.000037  -0.003316   0.005016
    15  H    0.001095  -0.000509  -0.008067  -0.000091  -0.012400   0.016401
               7          8          9         10         11         12
     1  O    0.002460   0.005916   0.004725  -0.002980   0.000254   0.000759
     2  H   -0.000353  -0.000111  -0.000744   0.000863  -0.000034  -0.000052
     3  C   -0.001718  -0.016708  -0.019352   0.027267  -0.000135  -0.000741
     4  H   -0.000095  -0.000541  -0.000273   0.000349  -0.000014  -0.000083
     5  C    0.006422  -0.000666  -0.019795   0.029017  -0.000593   0.004090
     6  C   -0.003467   0.012006   0.030103  -0.046331  -0.000155  -0.005037
     7  O   -0.011944   0.001414  -0.000406   0.000934  -0.000011  -0.000457
     8  O    0.001414  -0.000416  -0.000222   0.000308   0.000315   0.000600
     9  C   -0.000406  -0.000222   0.009553  -0.008207   0.000614   0.002041
    10  C    0.000934   0.000308  -0.008207   0.007162  -0.000768  -0.002263
    11  H   -0.000011   0.000315   0.000614  -0.000768   0.000250   0.000148
    12  H   -0.000457   0.000600   0.002041  -0.002263   0.000148   0.000170
    13  H   -0.000049   0.000042  -0.001292   0.001722  -0.000024  -0.000127
    14  H   -0.000030   0.000015   0.001212  -0.001674   0.000022   0.000280
    15  H   -0.000190  -0.000028   0.002986  -0.002671   0.000427   0.000573
              13         14         15
     1  O   -0.000088  -0.000037   0.001095
     2  H    0.000030  -0.000075  -0.000509
     3  C    0.001110  -0.002647  -0.008067
     4  H    0.000019  -0.000037  -0.000091
     5  C    0.000954  -0.003316  -0.012400
     6  C   -0.001546   0.005016   0.016401
     7  O   -0.000049  -0.000030  -0.000190
     8  O    0.000042   0.000015  -0.000028
     9  C   -0.001292   0.001212   0.002986
    10  C    0.001722  -0.001674  -0.002671
    11  H   -0.000024   0.000022   0.000427
    12  H   -0.000127   0.000280   0.000573
    13  H    0.000099  -0.000436  -0.000496
    14  H   -0.000436   0.000830   0.000405
    15  H   -0.000496   0.000405   0.001564
 Mulliken charges and spin densities:
               1          2
     1  O   -0.282765   0.460967
     2  H    0.242475  -0.006173
     3  C   -0.091593   0.835986
     4  H    0.218181  -0.027486
     5  C    0.308930  -0.318575
     6  C   -0.456493   0.058532
     7  O   -0.205303  -0.007489
     8  O    0.049912   0.001924
     9  C   -0.280005   0.000944
    10  C   -0.417905   0.002729
    11  H    0.195586   0.000296
    12  H    0.188421  -0.000100
    13  H    0.166832  -0.000082
    14  H    0.174162  -0.000472
    15  H    0.189564  -0.001000
 Sum of Mulliken charges =  -0.00000   1.00000
 Mulliken charges and spin densities with hydrogens summed into heavy atoms:
               1          2
     1  O   -0.040291   0.454794
     3  C    0.126588   0.808501
     5  C    0.308930  -0.318575
     6  C   -0.456493   0.058532
     7  O   -0.205303  -0.007489
     8  O    0.049912   0.001924
     9  C    0.104003   0.001140
    10  C    0.112654   0.001175
 APT charges:
               1
     1  O   -0.397171
     2  H    0.231923
     3  C   -0.178298
     4  H    0.242478
     5  C   -0.114597
     6  C    1.403984
     7  O   -0.768814
     8  O   -0.942400
     9  C    0.534896
    10  C   -0.042021
    11  H   -0.013758
    12  H   -0.011856
    13  H    0.010386
    14  H    0.017613
    15  H    0.027636
 Sum of APT charges =   0.00000
 APT charges with hydrogens summed into heavy atoms:
               1
     1  O   -0.165248
     3  C    0.064180
     5  C   -0.114597
     6  C    1.403984
     7  O   -0.768814
     8  O   -0.942400
     9  C    0.509282
    10  C    0.013614
 Electronic spatial extent (au):  <R**2>=           1054.4688
 Charge=             -0.0000 electrons
 Dipole moment (field-independent basis, Debye):
    X=             -0.7350    Y=             -0.6344    Z=             -0.8383  Tot=              1.2828
 Quadrupole moment (field-independent basis, Debye-Ang):
   XX=            -29.7374   YY=            -50.0098   ZZ=            -50.9690
   XY=              1.1090   XZ=             -1.4242   YZ=              4.9748
 Traceless Quadrupole moment (field-independent basis, Debye-Ang):
   XX=             13.8347   YY=             -6.4377   ZZ=             -7.3970
   XY=              1.1090   XZ=             -1.4242   YZ=              4.9748
 Octapole moment (field-independent basis, Debye-Ang**2):
  XXX=            -34.6529  YYY=             -0.0678  ZZZ=             -1.3204  XYY=              1.9636
  XXY=             -3.6024  XXZ=             -6.3626  XZZ=             -0.0789  YZZ=              6.6000
  YYZ=              2.5977  XYZ=             -6.5536
 Hexadecapole moment (field-independent basis, Debye-Ang**3):
 XXXX=           -745.0254 YYYY=           -260.2505 ZZZZ=           -173.5718 XXXY=              1.7633
 XXXZ=             21.1274 YYYX=            -15.2345 YYYZ=              8.3847 ZZZX=            -10.6814
 ZZZY=              7.3289 XXYY=           -200.1231 XXZZ=           -180.2618 YYZZ=            -71.3896
 XXYZ=             19.7589 YYXZ=            -11.9129 ZZXY=             -8.0622
 N-N= 3.643653708568D+02 E-N=-1.713355560185D+03  KE= 4.186957678091D+02
  Exact polarizability:  89.183   6.926  70.672   4.037   2.712  59.405
 Approx polarizability:  93.311   9.490  82.742   6.387   0.798  76.883
                          Isotropic Fermi Contact Couplings
        Atom                 a.u.       MegaHertz       Gauss      10(-4) cm-1
     1  O(17)              0.09473     -57.42369     -20.49020     -19.15448
     2  H(1)              -0.00793     -35.45024     -12.64953     -11.82493
     3  C(13)              0.11094     124.72336      44.50440      41.60324
     4  H(1)              -0.01229     -54.95603     -19.60968     -18.33136
     5  C(13)             -0.01904     -21.40650      -7.63837      -7.14044
     6  C(13)              0.03266      36.71416      13.10053      12.24653
     7  O(17)             -0.00325       1.96988       0.70290       0.65708
     8  O(17)              0.00291      -1.76201      -0.62873      -0.58774
     9  C(13)              0.00005       0.05519       0.01969       0.01841
    10  C(13)             -0.00058      -0.65291      -0.23297      -0.21779
    11  H(1)               0.00005       0.24290       0.08667       0.08102
    12  H(1)              -0.00002      -0.09615      -0.03431      -0.03207
    13  H(1)              -0.00001      -0.06066      -0.02165      -0.02023
    14  H(1)               0.00002       0.10349       0.03693       0.03452
    15  H(1)               0.00002       0.07892       0.02816       0.02632
 --------------------------------------------------------
       Center         ----  Spin Dipole Couplings  ----
                      3XX-RR        3YY-RR        3ZZ-RR
 --------------------------------------------------------
     1   Atom       -0.556369      1.456222     -0.899853
     2   Atom       -0.001538     -0.025782      0.027320
     3   Atom       -0.421392      0.728161     -0.306769
     4   Atom        0.053040     -0.009787     -0.043253
     5   Atom        0.136587     -0.067063     -0.069524
     6   Atom        0.020850      0.001434     -0.022284
     7   Atom        0.023655     -0.031559      0.007904
     8   Atom        0.006257     -0.011221      0.004965
     9   Atom        0.003395     -0.001205     -0.002191
    10   Atom        0.002378     -0.001088     -0.001290
    11   Atom        0.001424     -0.000735     -0.000689
    12   Atom        0.001536     -0.000370     -0.001166
    13   Atom        0.001347     -0.000627     -0.000720
    14   Atom        0.002934     -0.001390     -0.001543
    15   Atom        0.002681     -0.001347     -0.001334
 --------------------------------------------------------
                        XY            XZ            YZ
 --------------------------------------------------------
     1   Atom        0.997145      0.181858      0.419562
     2   Atom       -0.000381     -0.070788      0.030878
     3   Atom       -0.173157     -0.051785      0.075925
     4   Atom        0.005639      0.028318      0.006562
     5   Atom       -0.007113      0.053932      0.004118
     6   Atom       -0.018885      0.011228     -0.002245
     7   Atom       -0.064964     -0.014948     -0.018665
     8   Atom       -0.015228     -0.011399      0.009535
     9   Atom       -0.002310     -0.000124      0.000087
    10   Atom       -0.000746      0.000097      0.000121
    11   Atom       -0.000597     -0.000712      0.000233
    12   Atom       -0.000952      0.000158     -0.000133
    13   Atom       -0.000081      0.000162      0.000031
    14   Atom        0.000378     -0.000561      0.000054
    15   Atom       -0.000466      0.001411     -0.000091
 --------------------------------------------------------


 ---------------------------------------------------------------------------------
              Anisotropic Spin Dipole Couplings in Principal Axis System
 ---------------------------------------------------------------------------------

       Atom             a.u.   MegaHertz   Gauss  10(-4) cm-1        Axes

              Baa    -0.9791    70.849    25.281    23.633 -0.5683  0.0918  0.8177
     1 O(17)  Bbb    -0.9611    69.541    24.814    23.196  0.7318 -0.3979  0.5533
              Bcc     1.9402  -140.391   -50.095   -46.829  0.3762  0.9128  0.1589
 
              Baa    -0.0688   -36.703   -13.097   -12.243  0.6501 -0.4394  0.6200
     2 H(1)   Bbb    -0.0215   -11.462    -4.090    -3.823  0.4691  0.8739  0.1275
              Bcc     0.0903    48.165    17.187    16.066 -0.5978  0.2080  0.7742
 
              Baa    -0.4580   -61.458   -21.930   -20.500  0.9562  0.1226  0.2659
     3 C(13)  Bbb    -0.3021   -40.539   -14.465   -13.522 -0.2527 -0.1133  0.9609
              Bcc     0.7601   101.997    36.395    34.022 -0.1479  0.9860  0.0773
 
              Baa    -0.0515   -27.496    -9.811    -9.172 -0.2537 -0.1167  0.9602
     4 H(1)   Bbb    -0.0099    -5.303    -1.892    -1.769 -0.1273  0.9881  0.0864
              Bcc     0.0615    32.799    11.704    10.941  0.9589  0.1003  0.2656
 
              Baa    -0.0846   -11.359    -4.053    -3.789 -0.2345 -0.3106  0.9211
     5 C(13)  Bbb    -0.0654    -8.771    -3.130    -2.926 -0.0488  0.9501  0.3080
              Bcc     0.1500    20.130     7.183     6.715  0.9709 -0.0273  0.2380
 
              Baa    -0.0253    -3.396    -1.212    -1.133 -0.2799 -0.1177  0.9528
     6 C(13)  Bbb    -0.0091    -1.224    -0.437    -0.408  0.4520  0.8594  0.2390
              Bcc     0.0344     4.620     1.648     1.541  0.8470 -0.4975  0.1874
 
              Baa    -0.0809     5.856     2.089     1.953  0.5361  0.8034  0.2590
     7 O(17)  Bbb     0.0142    -1.028    -0.367    -0.343 -0.1096 -0.2380  0.9651
              Bcc     0.0667    -4.828    -1.723    -1.610  0.8370 -0.5458 -0.0395
 
              Baa    -0.0204     1.474     0.526     0.492  0.4496  0.8837 -0.1303
     8 O(17)  Bbb    -0.0052     0.375     0.134     0.125  0.5709 -0.1720  0.8028
              Bcc     0.0256    -1.849    -0.660    -0.617  0.6870 -0.4353 -0.5818
 
              Baa    -0.0022    -0.297    -0.106    -0.099 -0.1894 -0.5054  0.8419
     9 C(13)  Bbb    -0.0021    -0.288    -0.103    -0.096  0.3344  0.7729  0.5392
              Bcc     0.0044     0.585     0.209     0.195  0.9232 -0.3836 -0.0226
 
              Baa    -0.0014    -0.189    -0.067    -0.063 -0.1433 -0.6269  0.7658
    10 C(13)  Bbb    -0.0011    -0.151    -0.054    -0.050  0.1424  0.7527  0.6428
              Bcc     0.0025     0.340     0.121     0.113  0.9794 -0.2011  0.0186
 
              Baa    -0.0009    -0.506    -0.181    -0.169  0.0651 -0.6474  0.7594
    11 H(1)   Bbb    -0.0009    -0.456    -0.163    -0.152  0.3716  0.7220  0.5837
              Bcc     0.0018     0.962     0.343     0.321  0.9261 -0.2442 -0.2876
 
              Baa    -0.0012    -0.634    -0.226    -0.211 -0.0017  0.1588  0.9873
    12 H(1)   Bbb    -0.0008    -0.403    -0.144    -0.134  0.3882  0.9100 -0.1457
              Bcc     0.0019     1.037     0.370     0.346  0.9216 -0.3831  0.0632
 
              Baa    -0.0007    -0.397    -0.142    -0.133 -0.0851 -0.3083  0.9475
    13 H(1)   Bbb    -0.0006    -0.330    -0.118    -0.110  0.0135  0.9505  0.3105
              Bcc     0.0014     0.727     0.259     0.242  0.9963 -0.0392  0.0767
 
              Baa    -0.0017    -0.883    -0.315    -0.295  0.1433 -0.3913  0.9090
    14 H(1)   Bbb    -0.0014    -0.735    -0.262    -0.245 -0.0285  0.9165  0.3990
              Bcc     0.0030     1.618     0.578     0.540  0.9893  0.0830 -0.1202
 
              Baa    -0.0018    -0.954    -0.340    -0.318 -0.3112 -0.1356  0.9406
    15 H(1)   Bbb    -0.0014    -0.741    -0.264    -0.247  0.0571  0.9853  0.1609
              Bcc     0.0032     1.695     0.605     0.565  0.9486 -0.1038  0.2989
 

 ---------------------------------------------------------------------------------

 Calling FoFJK, ICntrl=    100127 FMM=F ISym2X=0 I1Cent= 0 IOpClX= 1 NMat=1 NMatS=1 NMatT=0.
 Full mass-weighted force constant matrix:
 Low frequencies --- -664.6640   -0.0006    0.0005    0.0007   15.4573   20.4559
 Low frequencies ---   37.4034   86.2936  105.2283
 ******    1 imaginary frequencies (negative Signs) ****** 
 Diagonal vibrational polarizability:
       51.5484692      35.7850288      42.2786368
 Harmonic frequencies (cm**-1), IR intensities (KM/Mole), Raman scattering
 activities (A**4/AMU), depolarization ratios for plane and unpolarized
 incident light, reduced masses (AMU), force constants (mDyne/A),
 and normal coordinates:
                      1                      2                      3
                      A                      A                      A
 Frequencies --   -664.6640                79.4760                89.8524
 Red. masses --     11.8935                 3.1670                 4.5517
 Frc consts  --      3.0957                 0.0118                 0.0217
 IR Inten    --      0.9231                 1.6457                 6.6503
  Atom  AN      X      Y      Z        X      Y      Z        X      Y      Z
     1   8    -0.05  -0.48  -0.07     0.12  -0.02   0.10     0.18   0.02  -0.23
     2   1     0.01  -0.17  -0.10     0.23  -0.06   0.20     0.03   0.23  -0.41
     3   6     0.07  -0.12   0.00     0.02   0.13  -0.10    -0.08   0.04   0.28
     4   1     0.02   0.24   0.03     0.03   0.26  -0.17    -0.13   0.06   0.46
     5   6     0.04   0.79   0.12     0.03   0.01  -0.00     0.01   0.01   0.01
     6   6    -0.02   0.01  -0.00    -0.01  -0.09   0.01     0.00  -0.07  -0.04
     7   8    -0.02  -0.02  -0.01    -0.04  -0.08   0.03    -0.01  -0.19  -0.08
     8   8    -0.00  -0.01  -0.00     0.01  -0.15   0.01     0.01   0.01  -0.02
     9   6     0.00  -0.01  -0.00     0.01   0.01   0.07     0.00   0.09   0.01
    10   6    -0.00  -0.00  -0.00    -0.15   0.19  -0.15    -0.13   0.08   0.13
    11   1     0.00  -0.00  -0.00     0.06  -0.14   0.11     0.04   0.22   0.02
    12   1     0.01  -0.00  -0.00     0.06   0.14   0.25     0.06   0.06  -0.06
    13   1    -0.00  -0.00  -0.00    -0.16   0.31  -0.04    -0.13   0.17   0.16
    14   1    -0.00  -0.00  -0.00    -0.18   0.05  -0.34    -0.20   0.11   0.20
    15   1    -0.00  -0.00  -0.00    -0.25   0.35  -0.21    -0.17  -0.05   0.13
                      4                      5                      6
                      A                      A                      A
 Frequencies --    116.9257               176.8145               201.6496
 Red. masses --      3.0786                 1.8637                 1.3175
 Frc consts  --      0.0248                 0.0343                 0.0316
 IR Inten    --      1.5704                29.0275                55.1889
  Atom  AN      X      Y      Z        X      Y      Z        X      Y      Z
     1   8     0.03  -0.02   0.03    -0.08   0.00   0.02    -0.06  -0.00  -0.09
     2   1     0.27  -0.09   0.25     0.33  -0.18   0.40     0.61  -0.18   0.51
     3   6     0.02   0.03  -0.02    -0.05  -0.01   0.12    -0.02   0.03  -0.00
     4   1     0.02   0.08  -0.03    -0.09   0.04   0.28    -0.03   0.20  -0.01
     5   6     0.02  -0.00   0.00    -0.00   0.00  -0.05    -0.00  -0.02   0.00
     6   6     0.03   0.01  -0.02     0.01   0.02  -0.10    -0.01  -0.02   0.02
     7   8     0.09   0.19   0.02    -0.02   0.06  -0.08    -0.02  -0.04   0.02
     8   8    -0.02  -0.16  -0.10     0.07  -0.02  -0.07     0.01   0.02   0.04
     9   6    -0.01   0.00  -0.09     0.05  -0.04   0.08     0.01   0.02  -0.00
    10   6    -0.19  -0.06   0.16     0.00   0.00   0.03     0.05   0.01  -0.01
    11   1     0.02   0.25  -0.11     0.15  -0.15   0.14    -0.03   0.04  -0.02
    12   1     0.11  -0.09  -0.25    -0.05   0.01   0.18     0.04   0.01  -0.02
    13   1    -0.17   0.12   0.04    -0.05  -0.13   0.38     0.09   0.11  -0.29
    14   1    -0.41   0.03   0.37     0.32  -0.06  -0.18    -0.19   0.04   0.12
    15   1    -0.11  -0.36   0.22    -0.28   0.22  -0.13     0.29  -0.12   0.12
                      7                      8                      9
                      A                      A                      A
 Frequencies --    231.8059               240.6195               290.0719
 Red. masses --      2.7197                 2.7404                 2.2596
 Frc consts  --      0.0861                 0.0935                 0.1120
 IR Inten    --      0.5554                 3.4339                11.2835
  Atom  AN      X      Y      Z        X      Y      Z        X      Y      Z
     1   8     0.18  -0.16  -0.04    -0.12   0.13  -0.10    -0.12  -0.11  -0.03
     2   1     0.44  -0.10   0.17     0.17   0.06   0.17    -0.42  -0.05  -0.29
     3   6    -0.06  -0.00  -0.06     0.11   0.01  -0.06    -0.08   0.20   0.00
     4   1    -0.05   0.11  -0.11     0.15   0.03  -0.22    -0.13   0.75   0.02
     5   6    -0.05  -0.11   0.01     0.04   0.05   0.12    -0.00  -0.08   0.01
     6   6    -0.04   0.00   0.04     0.04  -0.02   0.08     0.03  -0.06   0.01
     7   8     0.02   0.07   0.05     0.12  -0.12   0.02     0.08   0.01   0.02
     8   8    -0.08   0.11   0.02    -0.05  -0.01   0.02     0.03  -0.04   0.01
     9   6    -0.08   0.07  -0.05    -0.04  -0.00  -0.06     0.05   0.03  -0.02
    10   6     0.03  -0.01   0.02    -0.08  -0.03   0.02     0.05   0.01   0.01
    11   1    -0.12   0.11  -0.07    -0.07   0.07  -0.09     0.02   0.08  -0.03
    12   1    -0.09   0.03  -0.10     0.01  -0.04  -0.13     0.10   0.02  -0.05
    13   1    -0.02  -0.31   0.36    -0.15  -0.22   0.48     0.04  -0.05   0.08
    14   1     0.47   0.03  -0.10     0.32  -0.03  -0.14     0.14   0.03   0.01
    15   1    -0.24   0.17  -0.13    -0.47   0.12  -0.19     0.00   0.03  -0.01
                     10                     11                     12
                      A                      A                      A
 Frequencies --    339.0551               430.1503               445.6789
 Red. masses --      3.1099                 1.8290                 2.6234
 Frc consts  --      0.2106                 0.1994                 0.3070
 IR Inten    --     10.5926                14.1065                24.2340
  Atom  AN      X      Y      Z        X      Y      Z        X      Y      Z
     1   8     0.01  -0.04  -0.03     0.02   0.02   0.02     0.04   0.10   0.02
     2   1     0.03   0.03  -0.03    -0.05  -0.02  -0.03     0.01   0.18  -0.02
     3   6    -0.01   0.03  -0.04     0.06  -0.14   0.02     0.01  -0.19  -0.03
     4   1     0.01   0.14  -0.12    -0.05   0.88   0.13    -0.06   0.70  -0.06
     5   6    -0.02  -0.04   0.07     0.06  -0.02  -0.05    -0.05   0.03   0.06
     6   6     0.02   0.04  -0.03     0.02   0.03   0.01    -0.05  -0.05  -0.03
     7   8     0.22   0.01  -0.10    -0.07   0.01   0.03     0.03   0.00  -0.05
     8   8    -0.05   0.14  -0.05     0.03   0.10   0.04    -0.07  -0.13  -0.07
     9   6    -0.11  -0.11   0.18     0.02  -0.06  -0.04    -0.07   0.09   0.07
    10   6    -0.08  -0.03   0.01    -0.09  -0.05  -0.04     0.12   0.06   0.05
    11   1     0.05  -0.39   0.29    -0.01  -0.06  -0.06    -0.00   0.06   0.10
    12   1    -0.38  -0.01   0.41    -0.02  -0.08  -0.06    -0.03   0.12   0.10
    13   1    -0.04   0.14  -0.25    -0.09   0.12   0.05     0.13  -0.21  -0.11
    14   1    -0.35  -0.12  -0.02    -0.18  -0.09  -0.06     0.27   0.14   0.10
    15   1     0.12  -0.01   0.10    -0.19  -0.10  -0.08     0.30   0.15   0.13
                     13                     14                     15
                      A                      A                      A
 Frequencies --    575.7600               618.4529               703.1181
 Red. masses --      3.9643                 6.1951                 1.3541
 Frc consts  --      0.7743                 1.3961                 0.3944
 IR Inten    --      5.5143                13.1894                40.5576
  Atom  AN      X      Y      Z        X      Y      Z        X      Y      Z
     1   8    -0.04  -0.02   0.00    -0.03  -0.09  -0.04    -0.00  -0.00  -0.01
     2   1    -0.14  -0.38  -0.02    -0.00   0.16  -0.07     0.02   0.10  -0.00
     3   6     0.20   0.09   0.08     0.21   0.09   0.06     0.04   0.02  -0.14
     4   1     0.14  -0.06   0.38     0.38   0.09  -0.52    -0.25  -0.07   0.94
     5   6     0.26  -0.01  -0.22     0.11  -0.16   0.42    -0.01  -0.02   0.09
     6   6     0.03  -0.06   0.02     0.05   0.04  -0.11     0.00  -0.01  -0.01
     7   8    -0.03  -0.00   0.06    -0.29   0.04  -0.02    -0.01   0.00   0.00
     8   8    -0.12  -0.01  -0.04     0.01   0.04  -0.20     0.00   0.00  -0.01
     9   6    -0.24   0.07   0.04     0.00   0.02  -0.02     0.00   0.00  -0.00
    10   6    -0.01   0.00   0.01     0.01   0.00   0.01     0.00   0.00   0.00
    11   1    -0.13  -0.05   0.11     0.17  -0.14   0.08     0.01  -0.01   0.00
    12   1    -0.30   0.12   0.13    -0.18   0.07   0.12    -0.00   0.00   0.00
    13   1     0.00  -0.33  -0.19     0.01  -0.03  -0.01     0.00   0.01   0.01
    14   1     0.18   0.10   0.07     0.01   0.05   0.08    -0.00   0.00   0.00
    15   1     0.21   0.10   0.10     0.04  -0.05   0.04    -0.00  -0.01   0.00
                     16                     17                     18
                      A                      A                      A
 Frequencies --    771.6601               802.0977               894.7395
 Red. masses --     10.2468                 1.2120                 3.2146
 Frc consts  --      3.5949                 0.4594                 1.5162
 IR Inten    --     25.9703                 4.9692                16.9516
  Atom  AN      X      Y      Z        X      Y      Z        X      Y      Z
     1   8     0.01  -0.12  -0.01    -0.00  -0.01  -0.00    -0.01  -0.02  -0.00
     2   1     0.02  -0.11  -0.00    -0.01  -0.00  -0.01     0.02   0.12  -0.01
     3   6    -0.01   0.00  -0.01     0.03   0.01   0.01     0.05   0.01   0.01
     4   1    -0.06   0.17   0.12     0.04   0.01  -0.00     0.07   0.02  -0.02
     5   6    -0.01  -0.11  -0.06     0.02  -0.01   0.02     0.02  -0.03   0.05
     6   6     0.09   0.78   0.22    -0.02  -0.01  -0.04    -0.06   0.02  -0.11
     7   8    -0.02  -0.21  -0.10    -0.01   0.02  -0.05     0.01   0.06  -0.16
     8   8    -0.01  -0.21  -0.04     0.01   0.00   0.04     0.12  -0.05   0.24
     9   6    -0.06   0.00   0.02    -0.03  -0.03   0.07    -0.08   0.09   0.02
    10   6    -0.02   0.01   0.01    -0.01  -0.02   0.03    -0.11  -0.05  -0.10
    11   1    -0.03   0.16   0.02    -0.09   0.52  -0.03    -0.25  -0.04  -0.04
    12   1     0.10  -0.03  -0.06     0.13  -0.30  -0.39     0.25   0.27   0.19
    13   1    -0.01  -0.16  -0.10     0.02   0.04  -0.19    -0.13  -0.54  -0.11
    14   1     0.11   0.02  -0.03    -0.04  -0.28  -0.35     0.17   0.24   0.23
    15   1     0.13   0.15   0.07     0.11   0.44   0.03     0.03  -0.35  -0.00
                     19                     20                     21
                      A                      A                      A
 Frequencies --    918.5742               973.0872              1070.2455
 Red. masses --      2.5492                 1.1816                 3.9918
 Frc consts  --      1.2673                 0.6592                 2.6939
 IR Inten    --      3.1112                56.6306                30.4020
  Atom  AN      X      Y      Z        X      Y      Z        X      Y      Z
     1   8     0.01  -0.01  -0.01    -0.04  -0.05   0.02    -0.01  -0.02   0.00
     2   1    -0.08  -0.34  -0.02     0.22   0.95   0.05     0.04   0.16   0.01
     3   6     0.10   0.02   0.02     0.02   0.01   0.02     0.07   0.01   0.02
     4   1     0.10   0.03   0.05     0.03   0.00  -0.01     0.07   0.02   0.05
     5   6     0.05  -0.03   0.02     0.03  -0.02  -0.06     0.04  -0.02  -0.04
     6   6    -0.15   0.03  -0.03    -0.00  -0.00  -0.00    -0.15   0.02   0.04
     7   8     0.02   0.03  -0.12     0.00   0.00  -0.00     0.02  -0.00  -0.01
     8   8    -0.14  -0.04   0.09    -0.02  -0.01   0.01    -0.21   0.03  -0.05
     9   6     0.05  -0.09  -0.02    -0.02  -0.02  -0.01     0.31   0.15   0.14
    10   6     0.14   0.09   0.04     0.03   0.02   0.01    -0.07  -0.16  -0.09
    11   1    -0.28  -0.21  -0.16    -0.06  -0.04  -0.03     0.35   0.27   0.14
    12   1     0.05  -0.09  -0.03    -0.04  -0.03  -0.02     0.39   0.23   0.22
    13   1     0.11   0.56   0.38     0.02   0.11   0.06    -0.06  -0.28  -0.15
    14   1    -0.15   0.07   0.11    -0.03   0.01   0.01    -0.03  -0.21  -0.15
    15   1    -0.21  -0.15  -0.10    -0.03   0.01  -0.01    -0.04  -0.26  -0.08
                     22                     23                     24
                      A                      A                      A
 Frequencies --   1129.2552              1203.3669              1283.2692
 Red. masses --      2.0793                 1.7717                 3.8836
 Frc consts  --      1.5622                 1.5116                 3.7681
 IR Inten    --     21.4819                 7.9954               518.4633
  Atom  AN      X      Y      Z        X      Y      Z        X      Y      Z
     1   8     0.00   0.00  -0.00    -0.00   0.00   0.00     0.00   0.01   0.00
     2   1    -0.01  -0.02  -0.00    -0.00   0.00  -0.00     0.00  -0.01  -0.00
     3   6    -0.01  -0.00  -0.00    -0.02  -0.00  -0.00    -0.08  -0.02  -0.02
     4   1    -0.01  -0.00  -0.01    -0.02  -0.01  -0.01    -0.08  -0.02  -0.05
     5   6    -0.01   0.00   0.01    -0.00   0.01  -0.00    -0.00   0.02   0.01
     6   6     0.03   0.00  -0.00     0.07  -0.00  -0.01     0.38   0.00  -0.15
     7   8    -0.00  -0.00   0.00    -0.01  -0.01   0.03    -0.05   0.01  -0.02
     8   8     0.05  -0.05  -0.01    -0.01   0.02  -0.07    -0.20  -0.02   0.09
     9   6    -0.11   0.19   0.05    -0.04  -0.06   0.17     0.11   0.04   0.02
    10   6     0.11  -0.15  -0.04     0.03   0.05  -0.13    -0.02  -0.02   0.06
    11   1    -0.09   0.10   0.08    -0.34   0.37  -0.01    -0.66  -0.28  -0.27
    12   1    -0.21   0.17   0.04     0.30  -0.25  -0.21     0.03   0.13   0.17
    13   1     0.09   0.45   0.21    -0.03  -0.08   0.28     0.01  -0.03  -0.14
    14   1    -0.39  -0.36  -0.16    -0.02   0.31   0.28     0.01  -0.19  -0.19
    15   1    -0.36  -0.20  -0.26    -0.07  -0.45  -0.11     0.01   0.11   0.06
                     25                     26                     27
                      A                      A                      A
 Frequencies --   1344.6482              1402.2031              1430.7385
 Red. masses --      1.2390                 1.2811                 1.3682
 Frc consts  --      1.3198                 1.4841                 1.6502
 IR Inten    --     85.7184                21.3112                12.8295
  Atom  AN      X      Y      Z        X      Y      Z        X      Y      Z
     1   8    -0.00  -0.00  -0.00     0.00   0.00   0.00    -0.00   0.00   0.00
     2   1     0.00   0.00   0.00     0.00  -0.00  -0.00    -0.00  -0.00  -0.00
     3   6     0.01   0.00   0.00    -0.01  -0.00  -0.00    -0.01  -0.00  -0.00
     4   1     0.01   0.00   0.01    -0.01  -0.00  -0.01    -0.01  -0.00  -0.01
     5   6    -0.00  -0.00  -0.00     0.00   0.00   0.00     0.00   0.00   0.00
     6   6    -0.06  -0.00   0.03     0.06  -0.00  -0.01     0.05  -0.00  -0.01
     7   8     0.01  -0.01   0.02    -0.01   0.01  -0.01    -0.01   0.00  -0.01
     8   8     0.04   0.03  -0.07    -0.04   0.01   0.03    -0.04   0.01   0.02
     9   6    -0.03  -0.01  -0.00    -0.05  -0.04  -0.03    -0.08  -0.08  -0.05
    10   6    -0.00  -0.03   0.05    -0.01  -0.10  -0.05     0.08   0.08   0.05
    11   1    -0.50  -0.21  -0.19     0.35   0.26   0.12     0.42   0.26   0.14
    12   1     0.68   0.28   0.22     0.27   0.19   0.21     0.39   0.21   0.23
    13   1     0.01   0.07  -0.04    -0.01   0.45   0.21     0.07  -0.35  -0.12
    14   1    -0.02  -0.11  -0.06     0.16   0.23   0.34    -0.33  -0.18  -0.17
    15   1     0.02   0.19   0.04     0.20   0.37   0.01    -0.30  -0.20  -0.11
                     28                     29                     30
                      A                      A                      A
 Frequencies --   1491.4997              1501.9233              1514.6281
 Red. masses --      1.0400                 1.0537                 1.0934
 Frc consts  --      1.3631                 1.4005                 1.4779
 IR Inten    --     10.7938                 1.0213                19.8647
  Atom  AN      X      Y      Z        X      Y      Z        X      Y      Z
     1   8     0.00   0.00  -0.00    -0.00   0.00  -0.00    -0.00  -0.00  -0.00
     2   1     0.00  -0.00   0.00     0.00   0.00   0.00     0.00  -0.00   0.00
     3   6     0.00   0.00   0.00    -0.00  -0.00  -0.00     0.01   0.00   0.00
     4   1     0.00   0.00  -0.00    -0.00  -0.00  -0.00     0.01   0.00   0.00
     5   6    -0.00   0.00  -0.00     0.00   0.00   0.00    -0.00  -0.00  -0.00
     6   6    -0.00   0.00  -0.00     0.01  -0.00   0.00    -0.03   0.00  -0.00
     7   8     0.00  -0.00   0.01    -0.00   0.00  -0.01     0.01  -0.00   0.01
     8   8     0.00   0.00  -0.00    -0.01   0.00   0.00     0.02  -0.00  -0.01
     9   6    -0.01  -0.02   0.02     0.00   0.04   0.03     0.05  -0.05  -0.01
    10   6    -0.01  -0.01   0.04     0.03  -0.03   0.00     0.02  -0.02   0.00
    11   1    -0.00   0.12   0.01     0.12  -0.38   0.12    -0.29   0.44  -0.22
    12   1     0.00   0.00   0.05     0.19  -0.19  -0.34    -0.39   0.13   0.38
    13   1     0.08   0.37  -0.55     0.05  -0.14  -0.29     0.03  -0.17  -0.16
    14   1     0.55   0.09  -0.06    -0.18   0.19   0.38    -0.20   0.13   0.29
    15   1    -0.36  -0.29  -0.11    -0.37   0.36  -0.23    -0.24   0.30  -0.15
                     31                     32                     33
                      A                      A                      A
 Frequencies --   1845.7906              1944.4433              3076.8203
 Red. masses --     11.2746                 7.2558                 1.0353
 Frc consts  --     22.6317                16.1632                 5.7747
 IR Inten    --    320.5068                48.2652                 8.8987
  Atom  AN      X      Y      Z        X      Y      Z        X      Y      Z
     1   8    -0.00   0.02   0.00    -0.00   0.04   0.01    -0.00   0.00  -0.00
     2   1     0.02   0.02   0.02    -0.00   0.06  -0.01    -0.00   0.00   0.00
     3   6    -0.17  -0.04  -0.05    -0.39  -0.08  -0.10    -0.00  -0.00   0.00
     4   1    -0.27  -0.07  -0.05    -0.62  -0.14  -0.18    -0.00  -0.00  -0.00
     5   6     0.21   0.01   0.04     0.56   0.00   0.14     0.00   0.00   0.00
     6   6     0.15  -0.22   0.67    -0.16   0.08  -0.16     0.00   0.00  -0.00
     7   8    -0.14   0.15  -0.44     0.03  -0.03   0.09     0.00   0.00   0.00
     8   8     0.02   0.02  -0.07    -0.00  -0.00   0.01    -0.00  -0.00   0.00
     9   6     0.03  -0.01   0.02    -0.00   0.00  -0.00    -0.00   0.00   0.00
    10   6    -0.01   0.01   0.00     0.00  -0.00  -0.00    -0.02  -0.04  -0.02
    11   1    -0.16   0.08  -0.08     0.03  -0.01   0.01     0.00  -0.00  -0.01
    12   1    -0.13  -0.02   0.08     0.02   0.00  -0.02     0.00  -0.02   0.01
    13   1     0.00  -0.03  -0.06    -0.00   0.01   0.01     0.63  -0.04   0.08
    14   1     0.04   0.01  -0.01    -0.00  -0.00   0.00    -0.13   0.45  -0.32
    15   1    -0.04  -0.05  -0.00     0.01   0.01   0.00    -0.23   0.04   0.47
                     34                     35                     36
                      A                      A                      A
 Frequencies --   3109.3866              3154.2195              3155.4263
 Red. masses --      1.0608                 1.1011                 1.1052
 Frc consts  --      6.0429                 6.4543                 6.4834
 IR Inten    --     19.6576                16.2692                 0.1132
  Atom  AN      X      Y      Z        X      Y      Z        X      Y      Z
     1   8     0.00  -0.00   0.00    -0.00   0.00   0.00    -0.00  -0.00  -0.00
     2   1     0.00   0.00  -0.00     0.00  -0.00  -0.00     0.00   0.00  -0.00
     3   6    -0.00  -0.00  -0.00     0.00   0.00   0.00    -0.00  -0.00  -0.00
     4   1     0.00  -0.00   0.00    -0.00   0.00  -0.00    -0.00   0.00  -0.00
     5   6     0.00  -0.00  -0.00    -0.00   0.00  -0.00     0.00  -0.00  -0.00
     6   6    -0.00  -0.00   0.00     0.00   0.00  -0.00     0.00  -0.00   0.00
     7   8    -0.00   0.00  -0.00     0.00  -0.00   0.00    -0.00   0.00  -0.00
     8   8     0.00   0.00  -0.00     0.00  -0.00   0.00    -0.00  -0.00  -0.00
     9   6     0.03  -0.06  -0.00    -0.01   0.01   0.01    -0.01  -0.02   0.05
    10   6    -0.01   0.01  -0.00    -0.08   0.04  -0.01     0.03   0.02  -0.06
    11   1    -0.23   0.05   0.50     0.06  -0.02  -0.14     0.21  -0.05  -0.46
    12   1    -0.13   0.66  -0.46     0.01  -0.07   0.04    -0.06   0.28  -0.19
    13   1     0.12  -0.01   0.01     0.73  -0.03   0.09    -0.15   0.01  -0.03
    14   1     0.01  -0.06   0.04     0.11  -0.47   0.33     0.10  -0.34   0.23
    15   1     0.01  -0.00  -0.03     0.11  -0.02  -0.26    -0.28   0.06   0.58
                     37                     38                     39
                      A                      A                      A
 Frequencies --   3176.9267              3455.9619              3842.9444
 Red. masses --      1.1074                 1.1307                 1.0677
 Frc consts  --      6.5855                 7.9564                 9.2903
 IR Inten    --     14.2745                80.9159                61.7430
  Atom  AN      X      Y      Z        X      Y      Z        X      Y      Z
     1   8     0.00  -0.00   0.00     0.00   0.00   0.00     0.04  -0.01  -0.05
     2   1     0.00  -0.00  -0.00     0.00   0.00  -0.00    -0.64   0.15   0.75
     3   6    -0.00  -0.00  -0.00    -0.10  -0.01  -0.03    -0.00  -0.00  -0.00
     4   1     0.00   0.00   0.00     0.96   0.08   0.26     0.00   0.00   0.00
     5   6    -0.00  -0.00   0.00     0.02   0.00   0.01     0.00   0.00   0.00
     6   6    -0.00   0.00  -0.00    -0.00   0.00  -0.00     0.00  -0.00  -0.00
     7   8     0.00  -0.00   0.00     0.00  -0.00  -0.00    -0.00   0.00  -0.00
     8   8     0.00  -0.00   0.00     0.00  -0.00  -0.00    -0.00  -0.00   0.00
     9   6     0.02   0.02  -0.07    -0.00  -0.00   0.00     0.00   0.00   0.00
    10   6     0.01   0.02  -0.05    -0.00  -0.00   0.00    -0.00   0.00  -0.00
    11   1    -0.26   0.07   0.59     0.00  -0.00  -0.00    -0.00   0.00   0.00
    12   1     0.07  -0.36   0.23     0.00  -0.00   0.00    -0.00  -0.00  -0.00
    13   1    -0.04   0.01  -0.01     0.00   0.00   0.00    -0.00  -0.00   0.00
    14   1     0.09  -0.32   0.21    -0.00   0.00  -0.00    -0.00  -0.00   0.00
    15   1    -0.21   0.05   0.43    -0.00  -0.00  -0.00     0.00   0.00   0.00

 -------------------
 - Thermochemistry -
 -------------------
 Temperature   298.150 Kelvin.  Pressure   1.00000 Atm.
 Atom     1 has atomic number  8 and mass  15.99491
 Atom     2 has atomic number  1 and mass   1.00783
 Atom     3 has atomic number  6 and mass  12.00000
 Atom     4 has atomic number  1 and mass   1.00783
 Atom     5 has atomic number  6 and mass  12.00000
 Atom     6 has atomic number  6 and mass  12.00000
 Atom     7 has atomic number  8 and mass  15.99491
 Atom     8 has atomic number  8 and mass  15.99491
 Atom     9 has atomic number  6 and mass  12.00000
 Atom    10 has atomic number  6 and mass  12.00000
 Atom    11 has atomic number  1 and mass   1.00783
 Atom    12 has atomic number  1 and mass   1.00783
 Atom    13 has atomic number  1 and mass   1.00783
 Atom    14 has atomic number  1 and mass   1.00783
 Atom    15 has atomic number  1 and mass   1.00783
 Molecular mass:   115.03952 amu.
 Principal axes and moments of inertia in atomic units:
                           1         2         3
     Eigenvalues --   482.144511375.495901499.71076
           X            0.99993   0.01162  -0.00008
           Y           -0.01156   0.99585   0.09032
           Z            0.00113  -0.09031   0.99591
 This molecule is an asymmetric top.
 Rotational symmetry number  1.
 Warning -- assumption of classical behavior for rotation
           may cause significant error
 Rotational temperatures (Kelvin)      0.17964     0.06297     0.05775
 Rotational constants (GHZ):           3.74315     1.31207     1.20339
    1 imaginary frequencies ignored.
 Zero-point vibrational energy     293284.2 (Joules/Mol)
                                   70.09660 (Kcal/Mol)
 Warning -- explicit consideration of  13 degrees of freedom as
           vibrations may cause significant error
 Vibrational temperatures:    114.35   129.28   168.23   254.40   290.13
          (Kelvin)            333.52   346.20   417.35   487.82   618.89
                              641.23   828.39   889.82  1011.63  1110.25
                             1154.04  1287.33  1321.62  1400.06  1539.84
                             1624.75  1731.38  1846.34  1934.65  2017.46
                             2058.51  2145.94  2160.93  2179.21  2655.68
                             2797.62  4426.86  4473.71  4538.22  4539.95
                             4570.89  4972.36  5529.14
 
 Zero-point correction=                           0.111706 (Hartree/Particle)
 Thermal correction to Energy=                    0.121158
 Thermal correction to Enthalpy=                  0.122103
 Thermal correction to Gibbs Free Energy=         0.076757
 Sum of electronic and zero-point Energies=           -420.096599
 Sum of electronic and thermal Energies=              -420.087146
 Sum of electronic and thermal Enthalpies=            -420.086202
 Sum of electronic and thermal Free Energies=         -420.131548
 
                     E (Thermal)             CV                S
                      KCal/Mol        Cal/Mol-Kelvin    Cal/Mol-Kelvin
 Total                   76.028             32.305             95.439
 Electronic               0.000              0.000              1.377
 Translational            0.889              2.981             40.136
 Rotational               0.889              2.981             28.388
 Vibrational             74.251             26.343             25.538
 Vibration     1          0.600              1.963              3.904
 Vibration     2          0.602              1.956              3.663
 Vibration     3          0.608              1.935              3.151
 Vibration     4          0.628              1.871              2.362
 Vibration     5          0.639              1.838              2.118
 Vibration     6          0.653              1.792              1.865
 Vibration     7          0.658              1.778              1.798
 Vibration     8          0.686              1.692              1.474
 Vibration     9          0.719              1.597              1.217
 Vibration    10          0.791              1.405              0.858
 Vibration    11          0.805              1.370              0.809
 Vibration    12          0.932              1.084              0.493
 Vibration    13          0.978              0.993              0.419
                       Q            Log10(Q)             Ln(Q)
 Total Bot       0.494831D-35        -35.305543        -81.294018
 Total V=0       0.119022D+17         16.075625         37.015496
 Vib (Bot)       0.142901D-48        -48.844965       -112.469689
 Vib (Bot)    1  0.259148D+01          0.413547          0.952227
 Vib (Bot)    2  0.228831D+01          0.359515          0.827814
 Vib (Bot)    3  0.174898D+01          0.242785          0.559034
 Vib (Bot)    4  0.113718D+01          0.055828          0.128549
 Vib (Bot)    5  0.988194D+00         -0.005158         -0.011877
 Vib (Bot)    6  0.848995D+00         -0.071095         -0.163702
 Vib (Bot)    7  0.814669D+00         -0.089019         -0.204974
 Vib (Bot)    8  0.659235D+00         -0.180960         -0.416675
 Vib (Bot)    9  0.547980D+00         -0.261235         -0.601516
 Vib (Bot)   10  0.405017D+00         -0.392527         -0.903827
 Vib (Bot)   11  0.386123D+00         -0.413274         -0.951599
 Vib (Bot)   12  0.265785D+00         -0.575469         -1.325067
 Vib (Bot)   13  0.236848D+00         -0.625531         -1.440338
 Vib (V=0)       0.343719D+03          2.536203          5.839824
 Vib (V=0)    1  0.313927D+01          0.496829          1.143990
 Vib (V=0)    2  0.284230D+01          0.453670          1.044613
 Vib (V=0)    3  0.231905D+01          0.365310          0.841157
 Vib (V=0)    4  0.174224D+01          0.241109          0.555174
 Vib (V=0)    5  0.160749D+01          0.206147          0.474672
 Vib (V=0)    6  0.148529D+01          0.171811          0.395609
 Vib (V=0)    7  0.145587D+01          0.163122          0.375603
 Vib (V=0)    8  0.132740D+01          0.123002          0.283222
 Vib (V=0)    9  0.124181D+01          0.094055          0.216570
 Vib (V=0)   10  0.114346D+01          0.058220          0.134057
 Vib (V=0)   11  0.113174D+01          0.053745          0.123753
 Vib (V=0)   12  0.106625D+01          0.027860          0.064150
 Vib (V=0)   13  0.105326D+01          0.022536          0.051890
 Electronic      0.200000D+01          0.301030          0.693147
 Translational   0.484981D+08          7.685724         17.697035
 Rotational      0.357000D+06          5.552668         12.785490
 ***** Axes restored to original set *****
 -------------------------------------------------------------------
 Center     Atomic                   Forces (Hartrees/Bohr)
 Number     Number              X              Y              Z
 -------------------------------------------------------------------
      1        8          -0.003068364   -0.032728588   -0.004532696
      2        1           0.000136828   -0.000821870   -0.000443435
      3        6           0.002845267   -0.005056852    0.000154464
      4        1           0.000102519    0.000109232   -0.000003692
      5        6           0.001581160    0.040440949    0.005963325
      6        6          -0.000569701    0.000823269   -0.000042061
      7        8          -0.001020200   -0.001527851   -0.000758497
      8        8          -0.000001610   -0.000822218   -0.000110524
      9        6           0.000152522   -0.000280621   -0.000131443
     10        6          -0.000158759   -0.000093667   -0.000067544
     11        1           0.000023334   -0.000008152   -0.000004765
     12        1           0.000028327   -0.000015815   -0.000016029
     13        1          -0.000015165   -0.000005452    0.000001481
     14        1          -0.000021216   -0.000007916   -0.000003687
     15        1          -0.000014941   -0.000004447   -0.000004897
 -------------------------------------------------------------------
 Cartesian Forces:  Max     0.040440949 RMS     0.007909292

 GradGradGradGradGradGradGradGradGradGradGradGradGradGradGradGradGradGrad
 Berny optimization.
 Search for a local minimum.
 Step number   1 out of a maximum of    2
 All quantities printed in internal units (Hartrees-Bohrs-Radians)
 Second derivative matrix not updated -- analytic derivatives used.
 ITU=  0
     Eigenvalues ---   -0.21586   0.00077   0.00150   0.00158   0.00250
     Eigenvalues ---    0.00418   0.00697   0.00860   0.02101   0.02324
     Eigenvalues ---    0.03209   0.03400   0.04181   0.04836   0.06324
     Eigenvalues ---    0.06803   0.07616   0.08596   0.10180   0.11146
     Eigenvalues ---    0.12726   0.14168   0.17051   0.17554   0.20677
     Eigenvalues ---    0.28706   0.29377   0.43042   0.49276   0.62275
     Eigenvalues ---    0.68870   0.76565   0.79213   0.86748   0.89192
     Eigenvalues ---    0.93505   1.00899   1.74805   2.05168
 Eigenvalue     1 is  -2.16D-01 should be greater than     0.000000 Eigenvector:
                          Y5        Y1        Z5        Y3        X1
   1                    0.79666  -0.56000   0.12340  -0.11771  -0.07284
                          Z2        Z1        X3        Y2        X2
   1                   -0.05930  -0.05759   0.05253  -0.04430   0.03796
 Quadratic step=3.153D-01 exceeds max=3.000D-01 adjusted using Lamda=-4.861D-04.
 Angle between NR and scaled steps=   5.82 degrees.
 Angle between quadratic step and forces=  34.06 degrees.
 Linear search not attempted -- first point.
 B after Tr=    -0.002293    0.004464    0.000410
         Rot=    0.999999   -0.000788   -0.000073    0.000621 Ang=  -0.12 deg.
 Variable       Old X    -DE/DX   Delta X   Delta X   Delta X     New X
                                 (Linear)    (Quad)   (Total)
    X1       -2.67519  -0.00307   0.00000   0.00163   0.00296  -2.67223
    Y1        3.03309  -0.03273   0.00000  -0.14321  -0.13576   2.89732
    Z1        0.21672  -0.00453   0.00000  -0.00728  -0.00192   0.21480
    X2       -3.84383   0.00014   0.00000   0.03008   0.03218  -3.81165
    Y2        3.30703  -0.00082   0.00000   0.04041   0.04710   3.35413
    Z2        1.59548  -0.00044   0.00000  -0.00997  -0.00373   1.59175
    X3       -5.24586   0.00285   0.00000   0.00303  -0.00055  -5.24641
    Y3       -0.94128  -0.00506   0.00000   0.00173   0.01405  -0.92723
    Z3       -0.85364   0.00015   0.00000  -0.00245  -0.00275  -0.85639
    X4       -7.18346   0.00010   0.00000   0.01169   0.00766  -7.17579
    Y4       -1.09000   0.00011   0.00000  -0.15003  -0.13447  -1.22446
    Z4       -1.38448  -0.00000   0.00000  -0.01211  -0.01260  -1.39708
    X5       -3.05446   0.00158   0.00000   0.00101  -0.00150  -3.05596
    Y5       -0.35719   0.04044   0.00000   0.20590   0.21449  -0.14270
    Z5       -0.24447   0.00596   0.00000   0.03003   0.03065  -0.21382
    X6       -0.41678  -0.00057   0.00000  -0.00897  -0.01251  -0.42929
    Y6       -1.06317   0.00082   0.00000   0.01257   0.01691  -1.04626
    Z6        0.41877  -0.00004   0.00000  -0.00175  -0.00294   0.41584
    X7        0.20229  -0.00102   0.00000  -0.01188  -0.01601   0.18628
    Y7       -1.77132  -0.00153   0.00000  -0.00254  -0.00220  -1.77352
    Z7        2.47613  -0.00076   0.00000  -0.00617  -0.00858   2.46755
    X8        1.09856  -0.00000   0.00000  -0.00342  -0.00675   1.09181
    Y8       -0.66339  -0.00082   0.00000   0.00626   0.01178  -0.65161
    Z8       -1.53366  -0.00011   0.00000  -0.00057  -0.00136  -1.53502
    X9        3.77314   0.00015   0.00000  -0.00286  -0.00634   3.76680
    Y9       -0.82937  -0.00028   0.00000  -0.00068   0.00072  -0.82865
    Z9       -1.02263  -0.00013   0.00000  -0.00267  -0.00412  -1.02675
   X10        4.69152  -0.00016   0.00000   0.00458   0.00424   4.69576
   Y10        1.55046  -0.00009   0.00000  -0.00563  -0.00744   1.54302
   Z10        0.28041  -0.00007   0.00000   0.00198   0.00413   0.28454
   X11        4.62279   0.00002   0.00000  -0.00583  -0.00986   4.61293
   Y11       -1.06368  -0.00001   0.00000   0.00278   0.00606  -1.05762
   Z11       -2.88074  -0.00000   0.00000  -0.00403  -0.00597  -2.88671
   X12        4.12779   0.00003   0.00000  -0.00732  -0.01272   4.11508
   Y12       -2.51023  -0.00002   0.00000  -0.00334  -0.00416  -2.51438
   Z12        0.11550  -0.00002   0.00000  -0.00641  -0.01057   0.10494
   X13        6.73587  -0.00002   0.00000   0.00437   0.00394   6.73982
   Y13        1.45221  -0.00001   0.00000  -0.01074  -0.01550   1.43671
   Z13        0.54001   0.00000   0.00000   0.00091   0.00260   0.54261
   X14        4.24459  -0.00002   0.00000   0.00769   0.00925   4.25384
   Y14        3.20810  -0.00001   0.00000  -0.00136  -0.00083   3.20727
   Z14       -0.85958  -0.00000   0.00000   0.00663   0.01146  -0.84811
   X15        3.80565  -0.00001   0.00000   0.00583   0.00601   3.81166
   Y15        1.75289  -0.00000   0.00000  -0.00714  -0.01077   1.74213
   Z15        2.12960  -0.00000   0.00000   0.00310   0.00570   2.13530
         Item               Value     Threshold  Converged?
 Maximum Force            0.040441     0.000450     NO 
 RMS     Force            0.007909     0.000300     NO 
 Maximum Displacement     0.214491     0.001800     NO 
 RMS     Displacement     0.044574     0.001200     NO 
 Predicted change in Energy=-1.944743D-02
 GradGradGradGradGradGradGradGradGradGradGradGradGradGradGradGradGradGrad


 ----------------------------------------------------------------------

 Electric dipole moment (input orientation):
 (Debye = 10**-18 statcoulomb cm , SI units = C m)
                  (au)            (Debye)         (10**-30 SI)
   Tot        0.504686D+00      0.128278D+01      0.427890D+01
   x         -0.289187D+00     -0.735041D+00     -0.245183D+01
   y         -0.249595D+00     -0.634408D+00     -0.211616D+01
   z         -0.329819D+00     -0.838316D+00     -0.279632D+01

 Dipole polarizability, Alpha (input orientation).
 (esu units = cm**3 , SI units = C**2 m**2 J**-1)
 Alpha(0;0):
               (au)            (10**-24 esu)      (10**-40 SI)
   iso        0.730870D+02      0.108304D+02      0.120504D+02
   aniso      0.298836D+02      0.442829D+01      0.492714D+01
   xx         0.891833D+02      0.132156D+02      0.147043D+02
   yx         0.692558D+01      0.102626D+01      0.114187D+01
   yy         0.706723D+02      0.104726D+02      0.116523D+02
   zx         0.403735D+01      0.598273D+00      0.665669D+00
   zy         0.271243D+01      0.401941D+00      0.447219D+00
   zz         0.594054D+02      0.880297D+01      0.979462D+01

 ----------------------------------------------------------------------

 Dipole orientation:
     8         -2.78797981         -2.93573540         -0.10876552
     1         -4.56155100         -2.68756825         -0.47564431
     6         -3.55374860         -0.51917068          4.02928472
     1         -4.77693680         -0.98705416          5.55999369
     6         -2.24664620         -0.34002780          2.08664071
     6         -0.39176950          1.04158377          0.49094080
     8         -0.95313961          2.76856545         -0.85808233
     8          1.87290527         -0.00494452          0.70087216
     6          3.75202971          0.84759093         -1.08355579
     6          3.33353523         -0.37839782         -3.63830705
     1          5.53782929          0.27391958         -0.24022400
     1          3.67217203          2.90347023         -1.19927873
     1          4.84003497          0.18407748         -4.93078705
     1          3.34448217         -2.43122146         -3.45700785
     1          1.52928848          0.21181867         -4.43928336

 Electric dipole moment (dipole orientation):
 (Debye = 10**-18 statcoulomb cm , SI units = C m)
                  (au)            (Debye)         (10**-30 SI)
   Tot        0.504686D+00      0.128278D+01      0.427890D+01
   x          0.000000D+00      0.000000D+00      0.000000D+00
   y          0.000000D+00      0.000000D+00      0.000000D+00
   z          0.504686D+00      0.128278D+01      0.427890D+01

 Dipole polarizability, Alpha (dipole orientation).
 (esu units = cm**3 , SI units = C**2 m**2 J**-1)
 Alpha(0;0):
               (au)            (10**-24 esu)      (10**-40 SI)
   iso        0.730870D+02      0.108304D+02      0.120504D+02
   aniso      0.298836D+02      0.442829D+01      0.492714D+01
   xx         0.737847D+02      0.109338D+02      0.121654D+02
   yx         0.310075D+01      0.459484D+00      0.511245D+00
   yy         0.648359D+02      0.960769D+01      0.106900D+02
   zx        -0.145012D+02     -0.214885D+01     -0.239092D+01
   zy         0.386871D+01      0.573283D+00      0.637864D+00
   zz         0.806404D+02      0.119497D+02      0.132958D+02

 ----------------------------------------------------------------------
 1\1\GINC-AJ\Freq\UM062X\6-311++G(d,p)\C5H7O3(2)\AAYUSH\23-Jun-2025\0\\
 # freq 6-311++g(d,p) m062x\\Title Card Required\\0,2\O,-1.415648,1.605
 04,0.114683\H,-2.034067,1.750004,0.84429\C,-2.775992,-0.498105,-0.4517
 25\H,-3.801322,-0.576801,-0.732634\C,-1.616353,-0.189019,-0.129369\C,-
 0.22055,-0.562605,0.221604\O,0.107048,-0.937343,1.310313\O,0.581331,-0
 .351051,-0.811577\C,1.996661,-0.438883,-0.541153\C,2.482645,0.82047,0.
 148388\H,2.446275,-0.562877,-1.524424\H,2.184334,-1.328355,0.061121\H,
 3.56447,0.768474,0.285761\H,2.24614,1.697652,-0.454869\H,2.013865,0.92
 7592,1.126935\\Version=ES64L-G16RevA.03\State=2-A\HF=-420.2083046\S2=0
 .785714\S2-1=0.\S2A=0.750593\RMSD=3.700e-09\RMSF=7.909e-03\ZeroPoint=0
 .111706\Thermal=0.1211585\Dipole=-0.2891873,-0.2495954,-0.329819\Dipol
 eDeriv=-0.4637187,0.1749701,-0.0919885,0.0311995,-0.3744902,-0.013605,
 -0.1012153,-0.0982242,-0.3533046,0.1822262,-0.1060456,0.0497511,-0.017
 4396,0.2780699,0.0269805,0.0756676,0.0878698,0.2354726,-0.3230559,0.22
 80943,-0.0106003,0.0024999,-0.0851907,0.0020963,0.0022366,0.0680758,-0
 .1266477,0.2744666,0.0205981,0.0154387,0.0570028,0.2198573,0.0106784,0
 .0109339,-0.0030229,0.233111,-0.1470422,-0.2040476,-0.0293289,0.079948
 9,-0.1402666,0.0176463,-0.0306965,-0.0178244,-0.056481,2.0069226,-0.27
 1385,-0.150551,-0.1389409,0.5739969,-0.4094343,-0.533043,-0.4993688,1.
 6310321,-0.8071202,0.1613283,-0.1906979,0.0640396,-0.4663833,0.2615304
 ,0.0351473,0.3370537,-1.0329393,-1.6399253,-0.0796444,0.3782279,-0.070
 23,-0.3337557,0.0733356,0.4907162,0.1152912,-0.85352,0.9939446,0.08313
 7,-0.0680572,0.0276534,0.3173181,0.0761008,0.078726,0.0281589,0.293424
 6,-0.0606864,-0.021126,0.0374609,-0.0467958,-0.0534773,-0.0787517,-0.0
 296125,-0.0505122,-0.0119004,-0.0260525,-0.0027985,0.0295378,-0.009475
 ,0.0575856,-0.0271993,0.0678392,-0.0523364,-0.0728064,-0.0185116,-0.03
 44145,0.0190557,0.0235746,-0.0580406,0.0241683,-0.0658574,0.0607309,0.
 0409829,-0.1294918,-0.0064053,-0.0231668,0.0060198,0.0657286,0.0008394
 ,-0.024905,-0.0118617,0.0949206,0.0848477,0.0427771,-0.0369012,-0.0014
 004,-0.041259,0.0371289,-0.0303948,0.0647371,0.0092507,0.0731969,0.014
 9621,0.0718198,-0.0076569,0.0403069,-0.0015145,0.0544577,-0.0287668,-0
 .0305951\Polar=89.1833413,6.9255762,70.6723273,4.0373496,2.7124292,59.
 4053727\Quadrupole=10.2857689,-4.7863043,-5.4994646,0.8245227,-1.05888
 55,3.6986346\PG=C01 [X(C5H7O3)]\NImag=1\\0.25262515,-0.04670933,-0.005
 12305,-0.26163114,0.04817277,0.32113746,-0.22083953,0.04956867,0.25894
 520,0.22047612,0.03065737,-0.03619153,-0.04658422,-0.04264638,0.041925
 88,0.25441024,-0.06564808,-0.30192269,-0.25471516,0.05954374,0.3011370
 3,-0.01003112,-0.08646063,-0.01117528,0.00248961,-0.00239364,-0.003128
 34,1.13370924,-0.01763740,-0.05889317,-0.01087317,-0.00037054,-0.00120
 999,-0.00134947,0.18443272,0.06944021,-0.00625008,-0.02992278,0.001388
 99,0.00035525,-0.00028611,-0.00029715,0.29741946,0.04980408,0.13187990
 ,0.00039213,0.00167727,0.00032551,0.00006096,-0.00020798,-0.00008996,-
 0.38979063,-0.03566533,-0.10088560,0.38146518,0.00089937,0.00273719,0.
 00061512,-0.00048787,-0.00000230,-0.00022187,-0.01955892,-0.00786579,-
 0.00410930,0.03108061,0.00819179,-0.00020699,0.00111051,-0.00009399,0.
 00003345,-0.00007425,-0.00010454,-0.09958708,-0.00807704,-0.05102155,0
 .10074546,0.00787559,0.04263432,-0.02211201,0.07269984,0.01539424,-0.0
 0149866,0.01465125,0.00241505,-0.73306661,-0.13773527,-0.18959353,0.00
 739568,-0.01256756,0.00079502,1.03171651,0.02217453,0.12966741,0.01156
 201,-0.00670614,-0.00164780,0.00836585,-0.05292358,0.00310608,-0.00863
 950,0.00344471,-0.00527639,0.00003093,-0.00875650,-0.10518016,0.015562
 09,0.04826954,-0.02409740,-0.00585782,-0.01315797,0.00013659,-0.180859
 33,-0.03027072,-0.08341155,0.00125710,-0.00378720,0.00310974,0.2126275
 3,-0.03399676,0.18829142,-0.00079294,0.00397892,-0.00499831,-0.0014887
 9,0.00027374,0.00355880,0.00505736,0.00492802,0.00001014,-0.00043398,0
 .00049939,-0.00199021,-0.21437352,0.03278299,-0.03413834,0.63362544,0.
 00904811,-0.03703369,-0.00157672,0.00002610,-0.00311435,-0.00116328,-0
 .02970169,-0.00639665,-0.00858502,-0.00046844,0.00312186,-0.00034148,0
 .05233432,-0.03766433,0.01457285,-0.08407382,0.30319690,-0.00317960,-0
 .00431925,-0.00131362,0.00289831,-0.00094192,0.00232467,-0.00596526,-0
 .00059773,-0.00090267,-0.00129957,0.00006768,0.00571219,-0.02002856,0.
 00727721,-0.06130073,0.09836130,-0.23203818,0.91524584,-0.00023243,0.0
 0303303,0.00285869,0.00013954,0.00014331,-0.00108205,-0.00276296,0.000
 96440,-0.00019380,0.00014472,-0.00019219,0.00157358,-0.01692343,0.0141
 3809,-0.04317101,-0.16884654,0.06956622,-0.18481260,0.16078043,0.00070
 735,0.00240208,-0.00002740,-0.00016621,0.00028456,0.00021567,0.0036072
 4,0.00078331,0.00124069,0.00017095,-0.00047946,-0.00076087,0.01461844,
 0.00690191,0.01903793,0.06291231,-0.14804583,0.19791120,-0.07613647,0.
 12139490,0.00029606,0.00215069,0.00467692,-0.00104191,0.00114450,-0.00
 180797,0.00044620,0.00095142,0.00146645,-0.00001295,-0.00017169,0.0001
 9510,-0.03184986,0.01403014,-0.02446054,-0.17756031,0.19742077,-0.6462
 7867,0.18955906,-0.24940228,0.76618956,-0.00011632,0.00261883,0.000806
 81,0.00061480,-0.00065835,-0.00160738,-0.00648205,0.00089016,-0.001076
 34,0.00099503,0.00034521,-0.00128610,-0.05113186,-0.00184384,0.0326237
 6,-0.19886569,-0.01738580,0.10298783,0.02663616,-0.00771805,0.03162057
 ,0.49899765,0.00160051,0.00062029,-0.00150863,0.00085177,-0.00020702,0
 .00027173,0.00143337,0.00065507,0.00019842,-0.00004197,-0.00031243,0.0
 0011662,0.00486790,0.00704597,-0.00161526,-0.01493803,-0.07611121,0.03
 781893,-0.00960654,0.02198827,0.03352605,0.00689273,0.10797256,0.00153
 086,0.00011464,0.00031135,-0.00065886,0.00022507,0.00040717,0.00195083
 ,0.00053188,0.00047180,-0.00000978,-0.00024134,-0.00067276,0.00633304,
 -0.00060579,0.00464378,0.08122277,0.03619374,-0.22177693,0.03046534,0.
 03371304,-0.09798155,-0.09778243,-0.07883705,0.40391576,0.00091134,-0.
 00080441,-0.00093030,0.00007913,0.00023090,0.00050756,0.00184286,0.000
 05619,0.00040061,-0.00037168,-0.00005973,0.00002819,0.00135468,-0.0025
 0057,0.00021216,-0.05490233,-0.00445182,0.03540042,-0.00039157,0.00632
 111,-0.01968460,-0.17435434,0.01291745,-0.01995388,0.45109905,-0.00087
 462,0.00187909,0.00016169,-0.00008076,0.00016165,0.00001750,0.00157696
 ,0.00037962,0.00031047,0.00000313,-0.00009340,0.00011997,0.00028307,0.
 00314679,0.00095661,-0.00520636,0.00300381,-0.00980234,0.00244708,-0.0
 0561387,0.00112020,0.01552032,-0.06953665,0.01288935,-0.02295297,0.562
 39295,-0.00069774,-0.00001913,-0.00002973,-0.00000930,0.00019027,0.000
 12633,0.00092577,-0.00016928,0.00041609,-0.00005230,-0.00000641,0.0002
 8970,0.00485972,0.00186024,-0.00327032,0.03446328,-0.00617468,0.011739
 95,0.00118122,-0.00059122,-0.00383470,-0.04167909,0.01216302,-0.096191
 92,-0.06193411,-0.04068358,0.63063946,-0.00018787,0.00060818,0.0000754
 4,-0.00002172,-0.00005685,-0.00009729,0.00006794,0.00012727,0.00004898
 ,0.00007855,-0.00000375,0.00000867,-0.00027140,0.00094676,0.00063245,0
 .00179465,-0.00123548,-0.00964090,0.00084846,-0.00153540,0.00273014,-0
 .03789555,-0.03459371,-0.01788889,-0.07939554,-0.02100675,-0.00805419,
 0.57810083,0.00009037,-0.00015060,0.00008840,-0.00009154,-0.00004191,0
 .00001489,0.00021164,-0.00004357,0.00005127,-0.00000299,-0.00000460,-0
 .00001098,-0.00043159,-0.00009342,-0.00015118,-0.00067397,-0.00054096,
 0.00362640,-0.00104922,-0.00009354,-0.00185074,-0.00119588,0.00585897,
 -0.00103287,-0.03230160,-0.18320035,-0.05214746,-0.02947694,0.52315711
 ,-0.00011876,0.00008886,-0.00031581,0.00015551,-0.00007460,0.00005344,
 0.00012661,0.00006964,0.00001848,0.00001343,-0.00001973,0.00000140,-0.
 00040346,0.00020481,0.00007314,0.00143777,0.00107251,0.00247620,-0.001
 23049,-0.00159896,-0.00063207,-0.00803618,-0.00442379,-0.00159119,-0.0
 1319311,-0.05069822,-0.11251755,-0.01558841,-0.03604501,0.56940839,0.0
 0005286,0.00010766,0.00002527,0.00000464,-0.00006017,-0.00007843,-0.00
 056064,0.00002537,-0.00017199,0.00004830,0.00003656,-0.00006419,-0.001
 18122,-0.00054652,0.00105310,-0.00391255,0.00350580,-0.00538258,0.0015
 1658,-0.00053045,0.00128315,-0.03407442,0.00137857,0.03402672,-0.08603
 904,0.01227401,0.09272690,0.00680351,-0.00070931,-0.01109721,0.1127230
 6,0.00001737,0.00008517,0.00005757,-0.00001604,-0.00001296,-0.00000904
 ,0.00000576,0.00000012,0.00002616,0.00000829,-0.00000028,0.00000678,0.
 00018157,0.00010972,-0.00006898,0.00001594,-0.00073425,0.00244612,-0.0
 0163917,0.00065446,-0.00039602,0.00306529,0.00065959,-0.00267822,0.011
 80718,-0.05598923,-0.02359127,0.01138257,-0.00309653,-0.02732701,-0.01
 165493,0.05569987,0.00012578,-0.00007174,0.00004192,-0.00001965,-0.000
 00322,-0.00002059,-0.00006165,0.00000881,-0.00004457,-0.00001015,-0.00
 000672,-0.00003313,-0.00032610,-0.00021348,0.00024091,-0.00247524,0.00
 068545,-0.00085556,0.00134539,-0.00045652,0.00092823,-0.00630689,0.001
 51966,0.00939304,0.10659086,-0.02478518,-0.28394154,0.00439538,-0.0010
 9013,-0.01162055,-0.10778510,0.02967717,0.29809277,-0.00003356,-0.0003
 2077,0.00011953,-0.00002700,0.00000600,-0.00005554,-0.00037240,-0.0000
 4606,-0.00003484,0.00003472,0.00003938,-0.00004987,-0.00005659,-0.0003
 7623,0.00008588,0.00277771,0.00339763,-0.00850660,0.00038820,-0.001179
 64,0.00392319,-0.02716000,0.03026384,-0.02004791,-0.05464308,0.0270182
 5,-0.01599896,0.00384014,-0.00953680,0.00701105,0.00427932,-0.01135961
 ,0.00624959,0.07094790,0.00001229,-0.00001079,-0.00001578,0.00002554,-
 0.00000361,-0.00001557,-0.00013085,-0.00000968,-0.00004063,-0.00000444
 ,-0.00000071,0.00001955,0.00008335,-0.00007863,-0.00018848,-0.00044716
 ,-0.00026935,0.00356342,-0.00228525,0.00060662,-0.00093828,0.00492885,
 0.00232089,-0.00091163,0.03559571,-0.23180764,0.12200649,0.00320207,-0
 .02181216,0.01499595,-0.00195651,0.00513401,-0.00277613,-0.03702754,0.
 24758811,-0.00005032,0.00021083,0.00003587,0.00000239,-0.00002969,-0.0
 0001683,-0.00004282,0.00000159,0.00004452,0.00002791,0.00000769,-0.000
 00007,-0.00012601,0.00035056,-0.00007232,0.00253017,-0.00030322,-0.000
 27178,0.00154968,-0.00076664,-0.00072691,-0.00735321,0.00261926,-0.002
 56700,-0.02429240,0.12486352,-0.13686491,0.00340146,-0.01484332,0.0104
 6409,-0.00447843,0.02300824,-0.01350922,0.02924334,-0.13294644,0.14352
 882,-0.00022304,0.00008628,-0.00001214,0.00001736,-0.00001730,-0.00001
 284,-0.00006029,0.00001000,0.00000342,0.00003131,0.00001807,0.00000807
 ,0.00004122,0.00013171,0.00000540,0.00139611,0.00047829,-0.00131849,-0
 .00005917,-0.00039405,0.00040648,-0.00056558,-0.00266721,-0.00034819,-
 0.01007579,0.00306874,0.00032851,-0.31396127,0.01314661,-0.03388190,0.
 00028194,-0.00017919,-0.00034638,0.00019844,-0.00042566,0.00013342,0.3
 4016867,0.00006140,0.00018285,0.00007795,0.00003527,0.00000817,-0.0000
 5306,-0.00016456,0.00002816,-0.00002849,0.00001420,-0.00000765,-0.0000
 0572,0.00003562,0.00026468,0.00023093,0.00101316,-0.00000102,-0.002962
 58,0.00020912,-0.00039096,0.00103361,-0.00640020,-0.00540215,-0.002380
 39,-0.02602779,0.00465692,-0.00050861,0.01496163,-0.04855747,0.0011556
 0,0.00062766,0.00102588,-0.00013323,0.00061418,0.00044065,0.00107930,-
 0.01389192,0.04899337,0.00006804,0.00003688,0.00013469,-0.00003969,0.0
 0000270,-0.00002985,-0.00006815,0.00000483,-0.00000363,0.00000666,0.00
 000012,-0.00000329,-0.00002918,0.00002131,0.00007347,0.00046644,0.0000
 2497,-0.00288397,0.00052186,0.00021938,0.00118362,-0.00409148,-0.00376
 522,0.00005090,-0.01371783,0.00386543,-0.00248385,-0.03272094,0.000720
 89,-0.05027676,0.00042501,0.00061772,-0.00005093,0.00021415,0.00009933
 ,0.00044951,0.03763863,0.00008377,0.05061178,0.00018137,0.00001464,-0.
 00003470,0.00005734,0.00003052,-0.00001275,-0.00010505,-0.00001098,-0.
 00002939,-0.00002314,-0.00001865,-0.00000067,0.00013922,0.00008510,-0.
 00000754,-0.00026731,-0.00051493,0.00150213,-0.00051708,0.00000481,-0.
 00071038,0.00207737,0.00053310,0.00046341,0.00054293,-0.01054524,0.006
 10625,-0.06037990,0.04965108,-0.03323415,0.00009098,0.00079067,0.00003
 582,-0.00018441,-0.00221303,-0.00109221,-0.00505750,0.02614235,-0.0178
 0846,0.06034191,0.00002190,-0.00000239,-0.00002036,0.00003768,0.000016
 51,-0.00002452,-0.00009591,0.00000735,-0.00003793,-0.00000275,-0.00000
 650,0.00000375,-0.00000264,-0.00000793,0.00003822,-0.00011453,-0.00043
 779,0.00075055,-0.00016517,0.00024087,-0.00039883,0.00103663,0.0029378
 4,0.00018875,0.00684289,-0.02559987,0.01637383,0.04711333,-0.22136899,
 0.12213395,0.00023227,0.00103289,-0.00007545,-0.00204699,-0.00320397,-
 0.00363964,0.00000023,0.00027085,-0.00087796,-0.05122122,0.24268646,-0
 .00011696,-0.00008308,-0.00008371,-0.00001944,0.00002893,0.00003698,0.
 00012397,0.00000238,0.00002598,0.00000393,0.00000944,0.00000213,-0.000
 10277,-0.00019105,0.00000783,-0.00041476,0.00051194,-0.00046460,0.0005
 2443,0.00029126,0.00042694,0.00160132,0.00105324,0.00035913,0.00406971
 ,-0.01585764,0.01009793,-0.03366860,0.12453102,-0.13585161,0.00057378,
 0.00057577,0.00092524,-0.00182458,-0.00308072,-0.00116007,-0.00002599,
 0.00144184,-0.00278358,0.03742174,-0.13200320,0.14277692,0.00040595,-0
 .00009820,0.00023117,-0.00006380,0.00004757,-0.00001190,0.00006474,0.0
 0003145,-0.00000229,-0.00002717,-0.00002991,-0.00000732,-0.00003200,-0
 .00005049,-0.00002543,-0.00076763,-0.00052450,-0.00101582,-0.00072091,
 -0.00068195,0.00059515,0.00132480,0.00110822,0.00069696,0.00434337,-0.
 00152484,-0.01216598,-0.09942083,0.01237014,0.10803929,-0.00003336,-0.
 00242569,-0.00141166,0.00001061,0.00064264,0.00054703,-0.01213242,0.00
 276988,0.02913495,0.00310326,-0.00163572,-0.00814578,0.10394538,-0.000
 06922,-0.00016887,-0.00012923,0.00002044,0.00003470,0.00005551,0.00016
 207,0.00001894,0.00001867,-0.00000526,-0.00000135,-0.00001338,-0.00026
 179,-0.00029389,0.00013046,-0.00095061,0.00102683,-0.00279951,0.000572
 76,-0.00063331,0.00178046,-0.00009591,0.00151001,0.00283083,0.01532747
 ,-0.00377983,-0.02870220,0.00956707,-0.05001197,-0.01953399,-0.0027300
 0,-0.00456846,-0.00227929,0.00055436,0.00110627,0.00038794,0.00063540,
 -0.00151227,-0.00105413,-0.01272820,0.00343468,0.02276987,-0.00999860,
 0.05383854,0.00025851,-0.00009067,0.00012975,-0.00002828,0.00001676,-0
 .00002257,-0.00010494,-0.00003721,-0.00003108,-0.00001970,-0.00001138,
 -0.00001524,0.00003487,-0.00005649,0.00003599,-0.00047349,-0.00029966,
 -0.00145034,0.00091069,0.00097473,0.00065559,-0.00042119,0.00086302,0.
 00122842,0.00649672,-0.00247779,-0.01417496,0.10636671,-0.02186118,-0.
 26968961,-0.00105602,-0.00234497,0.00045400,-0.00032841,0.00022891,0.0
 0066631,-0.00257801,0.00096907,0.00601189,0.00740090,-0.00241116,-0.01
 431550,-0.11645837,0.02653800,0.29051738\\0.00306836,0.03272859,0.0045
 3270,-0.00013683,0.00082187,0.00044343,-0.00284527,0.00505685,-0.00015
 446,-0.00010252,-0.00010923,0.00000369,-0.00158116,-0.04044095,-0.0059
 6333,0.00056970,-0.00082327,0.00004206,0.00102020,0.00152785,0.0007585
 0,0.00000161,0.00082222,0.00011052,-0.00015252,0.00028062,0.00013144,0
 .00015876,0.00009367,0.00006754,-0.00002333,0.00000815,0.00000477,-0.0
 0002833,0.00001582,0.00001603,0.00001516,0.00000545,-0.00000148,0.0000
 2122,0.00000792,0.00000369,0.00001494,0.00000445,0.00000490\\\@


 WHEN IT COMES TO CASH FLOW, IT SEEMS LIKE THE TIDE IS ALWAYS GOING OUT.
 Job cpu time:       0 days  0 hours 59 minutes 47.4 seconds.
 Elapsed time:       0 days  0 hours  2 minutes 29.8 seconds.
 File lengths (MBytes):  RWF=    153 Int=      0 D2E=      0 Chk=      9 Scr=      1
 Normal termination of Gaussian 16 at Mon Jun 23 04:14:53 2025.
