 Entering Gaussian System, Link 0=g16
 Initial command:
 /opt/g16/l1.exe "/home/aayush/scratches/g16/Gau-52639.inp" -scrdir="/home/aayush/scratches/g16/"
 Entering Link 1 = /opt/g16/l1.exe PID=     52642.
  
 Copyright (c) 1988,1990,1992,1993,1995,1998,2003,2009,2016,
            Gaussian, Inc.  All Rights Reserved.
  
 This is part of the Gaussian(R) 16 program.  It is based on
 the Gaussian(R) 09 system (copyright 2009, Gaussian, Inc.),
 the Gaussian(R) 03 system (copyright 2003, Gaussian, Inc.),
 the Gaussian(R) 98 system (copyright 1998, Gaussian, Inc.),
 the Gaussian(R) 94 system (copyright 1995, Gaussian, Inc.),
 the Gaussian 92(TM) system (copyright 1992, Gaussian, Inc.),
 the Gaussian 90(TM) system (copyright 1990, Gaussian, Inc.),
 the Gaussian 88(TM) system (copyright 1988, Gaussian, Inc.),
 the Gaussian 86(TM) system (copyright 1986, Carnegie Mellon
 University), and the Gaussian 82(TM) system (copyright 1983,
 Carnegie Mellon University). Gaussian is a federally registered
 trademark of Gaussian, Inc.
  
 This software contains proprietary and confidential information,
 including trade secrets, belonging to Gaussian, Inc.
  
 This software is provided under written license and may be
 used, copied, transmitted, or stored only in accord with that
 written license.
  
 The following legend is applicable only to US Government
 contracts under FAR:
  
                    RESTRICTED RIGHTS LEGEND
  
 Use, reproduction and disclosure by the US Government is
 subject to restrictions as set forth in subparagraphs (a)
 and (c) of the Commercial Computer Software - Restricted
 Rights clause in FAR 52.227-19.
  
 Gaussian, Inc.
 340 Quinnipiac St., Bldg. 40, Wallingford CT 06492
  
  
 ---------------------------------------------------------------
 Warning -- This program may not be used in any manner that
 competes with the business of Gaussian, Inc. or will provide
 assistance to any competitor of Gaussian, Inc.  The licensee
 of this program is prohibited from giving any competitor of
 Gaussian, Inc. access to this program.  By using this program,
 the user acknowledges that Gaussian, Inc. is engaged in the
 business of creating and licensing software in the field of
 computational chemistry and represents and warrants to the
 licensee that it is not a competitor of Gaussian, Inc. and that
 it will not use this program in any manner prohibited above.
 ---------------------------------------------------------------
  

 Cite this work as:
 Gaussian 16, Revision A.03,
 M. J. Frisch, G. W. Trucks, H. B. Schlegel, G. E. Scuseria, 
 M. A. Robb, J. R. Cheeseman, G. Scalmani, V. Barone, 
 G. A. Petersson, H. Nakatsuji, X. Li, M. Caricato, A. V. Marenich, 
 J. Bloino, B. G. Janesko, R. Gomperts, B. Mennucci, H. P. Hratchian, 
 J. V. Ortiz, A. F. Izmaylov, J. L. Sonnenberg, D. Williams-Young, 
 F. Ding, F. Lipparini, F. Egidi, J. Goings, B. Peng, A. Petrone, 
 T. Henderson, D. Ranasinghe, V. G. Zakrzewski, J. Gao, N. Rega, 
 G. Zheng, W. Liang, M. Hada, M. Ehara, K. Toyota, R. Fukuda, 
 J. Hasegawa, M. Ishida, T. Nakajima, Y. Honda, O. Kitao, H. Nakai, 
 T. Vreven, K. Throssell, J. A. Montgomery, Jr., J. E. Peralta, 
 F. Ogliaro, M. J. Bearpark, J. J. Heyd, E. N. Brothers, K. N. Kudin, 
 V. N. Staroverov, T. A. Keith, R. Kobayashi, J. Normand, 
 K. Raghavachari, A. P. Rendell, J. C. Burant, S. S. Iyengar, 
 J. Tomasi, M. Cossi, J. M. Millam, M. Klene, C. Adamo, R. Cammi, 
 J. W. Ochterski, R. L. Martin, K. Morokuma, O. Farkas, 
 J. B. Foresman, and D. J. Fox, Gaussian, Inc., Wallingford CT, 2016.
 
 ******************************************
 Gaussian 16:  ES64L-G16RevA.03 25-Dec-2016
                20-Jun-2025 
 ******************************************
 %nprocshared=24
 Will use up to   24 processors via shared memory.
 %mem=12GB
 %chk=ethyl_propiolate_ts1.chk
 -------------------
 # freq 6-31+g m062x
 -------------------
 1/10=4,30=1,38=1/1,3;
 2/12=2,17=6,18=5,40=1/2;
 3/5=1,6=6,7=10,11=2,25=1,30=1,71=2,74=-55,140=1/1,2,3;
 4//1;
 5/5=2,38=5,98=1/2;
 8/6=4,10=90,11=11/1;
 11/6=1,8=1,9=11,15=111,16=1/1,2,10;
 10/6=1/2;
 6/7=2,8=2,9=2,10=2,28=1/1;
 7/8=1,10=1,25=1/1,2,3,16;
 1/10=4,30=1/3;
 99//99;
 -------------------
 Title Card Required
 -------------------
 Symbolic Z-matrix:
 Charge =  0 Multiplicity = 2
 O                    -1.34597   1.75137   0.10457 
 H                    -1.97915   1.83289   0.83604 
 C                    -2.73128  -0.46513  -0.44893 
 H                    -3.75944  -0.51919  -0.7217 
 C                    -1.56747  -0.35343  -0.15535 
 C                    -0.1659   -0.54869   0.22382 
 O                     0.16971  -0.88838   1.32327 
 O                     0.63813  -0.33698  -0.81001 
 C                     2.05194  -0.42327  -0.53887 
 C                     2.54164   0.84426   0.13228 
 H                     2.5015   -0.56244  -1.52028 
 H                     2.23854  -1.30413   0.0765 
 H                     3.62356   0.79344   0.26923 
 H                     2.30641   1.71319  -0.48357 
 H                     2.07403   0.96508   1.10976 
 

 GradGradGradGradGradGradGradGradGradGradGradGradGradGradGradGradGradGrad
 Berny optimization.
 Initialization pass.
 Trust Radius=3.00D-01 FncErr=1.00D-07 GrdErr=1.00D-07 EigMax=2.50D+02 EigMin=1.00D-04
 Number of steps in this run=      2 maximum allowed number of steps=      2.
 GradGradGradGradGradGradGradGradGradGradGradGradGradGradGradGradGradGrad

                          Input orientation:                          
 ---------------------------------------------------------------------
 Center     Atomic      Atomic             Coordinates (Angstroms)
 Number     Number       Type             X           Y           Z
 ---------------------------------------------------------------------
      1          8           0       -1.345973    1.751369    0.104567
      2          1           0       -1.979148    1.832886    0.836039
      3          6           0       -2.731278   -0.465129   -0.448926
      4          1           0       -3.759439   -0.519194   -0.721696
      5          6           0       -1.567471   -0.353428   -0.155345
      6          6           0       -0.165904   -0.548691    0.223816
      7          8           0        0.169710   -0.888380    1.323269
      8          8           0        0.638128   -0.336983   -0.810013
      9          6           0        2.051944   -0.423265   -0.538869
     10          6           0        2.541635    0.844261    0.132276
     11          1           0        2.501504   -0.562435   -1.520279
     12          1           0        2.238542   -1.304128    0.076502
     13          1           0        3.623559    0.793437    0.269226
     14          1           0        2.306407    1.713190   -0.483570
     15          1           0        2.074035    0.965075    1.109757
 ---------------------------------------------------------------------
                    Distance matrix (angstroms):
                    1          2          3          4          5
     1  O    0.000000
     2  H    0.970879   0.000000
     3  C    2.671757   2.738194   0.000000
     4  H    3.415111   3.335904   1.065102   0.000000
     5  C    2.132319   2.435629   1.205452   2.270012   0.000000
     6  C    2.587868   3.055254   2.653433   3.715960   1.465019
     7  O    3.278842   3.501467   3.425719   4.444816   2.343133
     8  O    3.022305   3.777294   3.391121   4.402226   2.300767
     9  C    4.085203   4.819781   4.784251   5.815049   3.640348
    10  C    3.992131   4.680827   5.464056   6.503215   4.289748
    11  H    4.774609   5.600539   5.342216   6.311815   4.296893
    12  H    4.710159   5.310994   5.067455   6.101559   3.929799
    13  H    5.063694   5.726435   6.517951   7.563966   5.333137
    14  H    3.699627   4.485719   5.488583   6.467977   4.402905
    15  H    3.650359   4.154071   5.250334   6.291796   4.074248
                    6          7          8          9         10
     6  C    0.000000
     7  O    1.198675   0.000000
     8  O    1.326684   2.252631   0.000000
     9  C    2.348674   2.688251   1.442165   0.000000
    10  C    3.046221   3.169627   2.430347   1.515538   0.000000
    11  H    3.187024   3.691784   2.006857   1.088411   2.170563
    12  H    2.524628   2.450988   2.069445   1.090605   2.170380
    13  H    4.020373   3.983540   3.369778   2.145543   1.091741
    14  H    3.424737   3.820773   2.663255   2.152266   1.090704
    15  H    2.844944   2.665959   2.728131   2.155445   1.090282
                   11         12         13         14         15
    11  H    0.000000
    12  H    1.780159   0.000000
    13  H    2.509925   2.520951   0.000000
    14  H    2.508246   3.069608   1.774130   0.000000
    15  H    3.071336   2.498792   1.771151   1.775490   0.000000
 Stoichiometry    C5H7O3(2)
 Framework group  C1[X(C5H7O3)]
 Deg. of freedom    39
 Full point group                 C1      NOp   1
 Largest Abelian subgroup         C1      NOp   1
 Largest concise Abelian subgroup C1      NOp   1
                         Standard orientation:                         
 ---------------------------------------------------------------------
 Center     Atomic      Atomic             Coordinates (Angstroms)
 Number     Number       Type             X           Y           Z
 ---------------------------------------------------------------------
      1          8           0       -1.401452    1.729825    0.090239
      2          1           0       -2.034055    1.819805    0.821214
      3          6           0       -2.788929   -0.491430   -0.438179
      4          1           0       -3.817321   -0.547619   -0.709644
      5          6           0       -1.624829   -0.377492   -0.146624
      6          6           0       -0.223159   -0.569764    0.233682
      7          8           0        0.112940   -0.897754    1.336533
      8          8           0        0.580329   -0.369963   -0.802936
      9          6           0        1.994262   -0.454445   -0.531835
     10          6           0        2.485440    0.819903    0.125157
     11          1           0        2.443031   -0.604642   -1.511980
     12          1           0        2.180574   -1.328718    0.092949
     13          1           0        3.567417    0.769689    0.261913
     14          1           0        2.250489    1.682277   -0.499939
     15          1           0        2.018614    0.951717    1.101585
 ---------------------------------------------------------------------
 Rotational constants (GHZ):           3.5364999           1.3077038           1.1805097
 Standard basis: 6-31+G (6D, 7F)
 There are   118 symmetry adapted cartesian basis functions of A   symmetry.
 There are   118 symmetry adapted basis functions of A   symmetry.
   118 basis functions,   236 primitive gaussians,   118 cartesian basis functions
    31 alpha electrons       30 beta electrons
       nuclear repulsion energy       361.1707494474 Hartrees.
 NAtoms=   15 NActive=   15 NUniq=   15 SFac= 1.00D+00 NAtFMM=   60 NAOKFM=F Big=F
 Integral buffers will be    131072 words long.
 Raffenetti 2 integral format.
 Two-electron integral symmetry is turned on.
 One-electron integrals computed using PRISM.
 NBasis=   118 RedAO= T EigKep=  2.46D-06  NBF=   118
 NBsUse=   118 1.00D-06 EigRej= -1.00D+00 NBFU=   118
 ExpMin= 4.38D-02 ExpMax= 5.48D+03 ExpMxC= 8.25D+02 IAcc=3 IRadAn=         5 AccDes= 0.00D+00
 Harris functional with IExCor= 1009 and IRadAn=       5 diagonalized for initial guess.
 HarFok:  IExCor= 1009 AccDes= 0.00D+00 IRadAn=         5 IDoV= 1 UseB2=F ITyADJ=14
 ICtDFT=  3500011 ScaDFX=  1.000000  1.000000  1.000000  1.000000
 FoFCou: FMM=F IPFlag=           0 FMFlag=      100000 FMFlg1=           0
         NFxFlg=           0 DoJE=T BraDBF=F KetDBF=T FulRan=T
         wScrn=  0.000000 ICntrl=       500 IOpCl=  0 I1Cent=   200000004 NGrid=           0
         NMat0=    1 NMatS0=      1 NMatT0=    0 NMatD0=    1 NMtDS0=    0 NMtDT0=    0
 Petite list used in FoFCou.
 Initial guess <Sx>= 0.0000 <Sy>= 0.0000 <Sz>= 0.5000 <S**2>= 0.7500 S= 0.5000
 Requested convergence on RMS density matrix=1.00D-08 within 128 cycles.
 Requested convergence on MAX density matrix=1.00D-06.
 Requested convergence on             energy=1.00D-06.
 No special actions if energy rises.
 Restarting incremental Fock formation.
 SCF Done:  E(UM062X) =  -419.956387441     A.U. after   24 cycles
            NFock= 24  Conv=0.33D-08     -V/T= 2.0049
 <Sx>= 0.0000 <Sy>= 0.0000 <Sz>= 0.5000 <S**2>= 0.7622 S= 0.5061
 <L.S>=  0.00000000000    
 Annihilation of the first spin contaminant:
 S**2 before annihilation     0.7622,   after     0.7501
 DoSCS=F DFT=T ScalE2(SS,OS)=  1.000000  1.000000
 Range of M.O.s used for correlation:     1   118
 NBasis=   118 NAE=    31 NBE=    30 NFC=     0 NFV=     0
 NROrb=    118 NOA=    31 NOB=    30 NVA=    87 NVB=    88

 **** Warning!!: The largest alpha MO coefficient is  0.20131534D+03


 **** Warning!!: The largest beta MO coefficient is  0.19382338D+03

 Symmetrizing basis deriv contribution to polar:
 IMax=3 JMax=2 DiffMx= 0.00D+00
 G2DrvN: will do    16 centers at a time, making    1 passes.
 Calling FoFCou, ICntrl=  3107 FMM=F I1Cent=   0 AccDes= 0.00D+00.
 End of G2Drv F.D. properties file   721 does not exist.
 End of G2Drv F.D. properties file   722 does not exist.
 End of G2Drv F.D. properties file   788 does not exist.
          IDoAtm=111111111111111
          Differentiating once with respect to electric field.
                with respect to dipole field.
          Differentiating once with respect to nuclear coordinates.
 Keep R1 and R2 ints in memory in canonical form, NReq=71861349.
          There are    48 degrees of freedom in the 1st order CPHF.  IDoFFX=6 NUNeed=     3.
     45 vectors produced by pass  0 Test12= 1.11D-14 2.08D-09 XBig12= 9.07D+01 3.41D+00.
 AX will form    45 AO Fock derivatives at one time.
     45 vectors produced by pass  1 Test12= 1.11D-14 2.08D-09 XBig12= 1.89D+01 5.71D-01.
     45 vectors produced by pass  2 Test12= 1.11D-14 2.08D-09 XBig12= 4.87D-01 1.19D-01.
     45 vectors produced by pass  3 Test12= 1.11D-14 2.08D-09 XBig12= 2.86D-03 7.14D-03.
     45 vectors produced by pass  4 Test12= 1.11D-14 2.08D-09 XBig12= 2.04D-05 7.38D-04.
     45 vectors produced by pass  5 Test12= 1.11D-14 2.08D-09 XBig12= 2.08D-07 5.55D-05.
     33 vectors produced by pass  6 Test12= 1.11D-14 2.08D-09 XBig12= 1.51D-09 4.85D-06.
     12 vectors produced by pass  7 Test12= 1.11D-14 2.08D-09 XBig12= 9.28D-12 2.40D-07.
      3 vectors produced by pass  8 Test12= 1.11D-14 2.08D-09 XBig12= 7.49D-14 2.45D-08.
      1 vectors produced by pass  9 Test12= 1.11D-14 2.08D-09 XBig12= 1.36D-15 5.05D-09.
 InvSVY:  IOpt=1 It=  1 EMax= 8.88D-15
 Solved reduced A of dimension   319 with    48 vectors.
 Isotropic polarizability for W=    0.000000       69.46 Bohr**3.
 End of Minotr F.D. properties file   721 does not exist.
 End of Minotr F.D. properties file   722 does not exist.
 End of Minotr F.D. properties file   788 does not exist.

 **********************************************************************

            Population analysis using the SCF density.

 **********************************************************************

 Orbital symmetries:
 Alpha Orbitals:
       Occupied  (A) (A) (A) (A) (A) (A) (A) (A) (A) (A) (A) (A)
                 (A) (A) (A) (A) (A) (A) (A) (A) (A) (A) (A) (A)
                 (A) (A) (A) (A) (A) (A) (A)
       Virtual   (A) (A) (A) (A) (A) (A) (A) (A) (A) (A) (A) (A)
                 (A) (A) (A) (A) (A) (A) (A) (A) (A) (A) (A) (A)
                 (A) (A) (A) (A) (A) (A) (A) (A) (A) (A) (A) (A)
                 (A) (A) (A) (A) (A) (A) (A) (A) (A) (A) (A) (A)
                 (A) (A) (A) (A) (A) (A) (A) (A) (A) (A) (A) (A)
                 (A) (A) (A) (A) (A) (A) (A) (A) (A) (A) (A) (A)
                 (A) (A) (A) (A) (A) (A) (A) (A) (A) (A) (A) (A)
                 (A) (A) (A)
 Beta  Orbitals:
       Occupied  (A) (A) (A) (A) (A) (A) (A) (A) (A) (A) (A) (A)
                 (A) (A) (A) (A) (A) (A) (A) (A) (A) (A) (A) (A)
                 (A) (A) (A) (A) (A) (A)
       Virtual   (A) (A) (A) (A) (A) (A) (A) (A) (A) (A) (A) (A)
                 (A) (A) (A) (A) (A) (A) (A) (A) (A) (A) (A) (A)
                 (A) (A) (A) (A) (A) (A) (A) (A) (A) (A) (A) (A)
                 (A) (A) (A) (A) (A) (A) (A) (A) (A) (A) (A) (A)
                 (A) (A) (A) (A) (A) (A) (A) (A) (A) (A) (A) (A)
                 (A) (A) (A) (A) (A) (A) (A) (A) (A) (A) (A) (A)
                 (A) (A) (A) (A) (A) (A) (A) (A) (A) (A) (A) (A)
                 (A) (A) (A) (A)
 The electronic state is 2-A.
 Alpha  occ. eigenvalues --  -19.70332 -19.69476 -19.66064 -10.72895 -10.61268
 Alpha  occ. eigenvalues --  -10.60072 -10.59506 -10.54132  -1.27865  -1.18517
 Alpha  occ. eigenvalues --   -1.14016  -0.91498  -0.87949  -0.78455  -0.71121
 Alpha  occ. eigenvalues --   -0.64468  -0.62211  -0.58577  -0.57162  -0.54120
 Alpha  occ. eigenvalues --   -0.53668  -0.50484  -0.48592  -0.46339  -0.45004
 Alpha  occ. eigenvalues --   -0.41873  -0.41650  -0.39531  -0.37991  -0.36774
 Alpha  occ. eigenvalues --   -0.35357
 Alpha virt. eigenvalues --   -0.00926   0.01961   0.02493   0.03651   0.03723
 Alpha virt. eigenvalues --    0.04430   0.05489   0.05865   0.07699   0.08149
 Alpha virt. eigenvalues --    0.08836   0.08936   0.10033   0.11846   0.12290
 Alpha virt. eigenvalues --    0.13494   0.14289   0.15681   0.16148   0.16408
 Alpha virt. eigenvalues --    0.17281   0.18872   0.19686   0.20348   0.21579
 Alpha virt. eigenvalues --    0.23545   0.24158   0.24716   0.26291   0.26731
 Alpha virt. eigenvalues --    0.28936   0.29775   0.30212   0.30689   0.32018
 Alpha virt. eigenvalues --    0.32861   0.33492   0.34945   0.35563   0.36912
 Alpha virt. eigenvalues --    0.38688   0.40195   0.40812   0.42938   0.44583
 Alpha virt. eigenvalues --    0.47508   0.58585   0.59971   0.69159   0.70314
 Alpha virt. eigenvalues --    0.72067   0.73256   0.74707   0.76567   0.77782
 Alpha virt. eigenvalues --    0.80853   0.85133   0.85637   0.89365   0.91702
 Alpha virt. eigenvalues --    0.93688   0.96510   1.00474   1.07479   1.10867
 Alpha virt. eigenvalues --    1.11940   1.12499   1.14485   1.17574   1.21248
 Alpha virt. eigenvalues --    1.23534   1.25182   1.27572   1.28241   1.33537
 Alpha virt. eigenvalues --    1.37056   1.37765   1.39649   1.43931   1.45522
 Alpha virt. eigenvalues --    1.47575   1.59521   1.64769   1.72810   1.83023
 Alpha virt. eigenvalues --    2.02761   2.04773
  Beta  occ. eigenvalues --  -19.70336 -19.67900 -19.66083 -10.72873 -10.61268
  Beta  occ. eigenvalues --  -10.60094 -10.59341 -10.54132  -1.27872  -1.18547
  Beta  occ. eigenvalues --   -1.07420  -0.91118  -0.87674  -0.78324  -0.70974
  Beta  occ. eigenvalues --   -0.64405  -0.61830  -0.58433  -0.56835  -0.53652
  Beta  occ. eigenvalues --   -0.51402  -0.49195  -0.46623  -0.45070  -0.41670
  Beta  occ. eigenvalues --   -0.39408  -0.39164  -0.38308  -0.38012  -0.36278
  Beta virt. eigenvalues --   -0.09414  -0.00111   0.02011   0.02511   0.03685
  Beta virt. eigenvalues --    0.03777   0.04637   0.05553   0.05922   0.07744
  Beta virt. eigenvalues --    0.08105   0.08929   0.08984   0.10131   0.11900
  Beta virt. eigenvalues --    0.12385   0.13757   0.14459   0.15816   0.16205
  Beta virt. eigenvalues --    0.16302   0.17627   0.18962   0.20028   0.20360
  Beta virt. eigenvalues --    0.21502   0.23601   0.24308   0.24871   0.26363
  Beta virt. eigenvalues --    0.26905   0.29049   0.29792   0.30236   0.30803
  Beta virt. eigenvalues --    0.32156   0.32880   0.33482   0.34910   0.35493
  Beta virt. eigenvalues --    0.36957   0.38727   0.40368   0.40619   0.43019
  Beta virt. eigenvalues --    0.44676   0.47526   0.58579   0.60083   0.69270
  Beta virt. eigenvalues --    0.70556   0.72408   0.73545   0.74865   0.77339
  Beta virt. eigenvalues --    0.77940   0.80874   0.85059   0.85729   0.89106
  Beta virt. eigenvalues --    0.91733   0.93999   0.96783   1.00664   1.07318
  Beta virt. eigenvalues --    1.10921   1.12071   1.13456   1.16090   1.17961
  Beta virt. eigenvalues --    1.21257   1.23919   1.27368   1.27729   1.29124
  Beta virt. eigenvalues --    1.34295   1.37408   1.39842   1.40026   1.44232
  Beta virt. eigenvalues --    1.45813   1.47729   1.59648   1.65542   1.72767
  Beta virt. eigenvalues --    1.84930   2.02812   2.04893
          Condensed to atoms (all electrons):
               1          2          3          4          5          6
     1  O    8.348939   0.139549  -0.169302   0.000420   0.581887  -0.448036
     2  H    0.139549   0.439425   0.088137  -0.000131  -0.035754  -0.037838
     3  C   -0.169302   0.088137  40.740133   0.571282 -13.920649 -20.888558
     4  H    0.000420  -0.000131   0.571282   0.351901  -0.210327  -0.041803
     5  C    0.581887  -0.035754 -13.920649  -0.210327  24.224152  -3.071248
     6  C   -0.448036  -0.037838 -20.888558  -0.041803  -3.071248  29.336421
     7  O   -0.011997  -0.000482   0.085830  -0.000091   0.214788  -0.117554
     8  O   -0.009483   0.000561  -0.262890  -0.000153  -0.832995   0.527430
     9  C   -0.022035  -0.000143  -0.425925  -0.000022  -0.783111   0.983867
    10  C    0.018789  -0.000114   0.162973  -0.000060   0.130983  -0.421548
    11  H    0.000021   0.000000  -0.006834   0.000000  -0.024848   0.043968
    12  H    0.000002   0.000002   0.000286   0.000000   0.009689  -0.015624
    13  H    0.000063   0.000000   0.000386   0.000000   0.004017   0.001956
    14  H   -0.000237   0.000003   0.004340   0.000000   0.015549  -0.015779
    15  H   -0.000198   0.000020  -0.000652  -0.000000  -0.012038   0.011197
               7          8          9         10         11         12
     1  O   -0.011997  -0.009483  -0.022035   0.018789   0.000021   0.000002
     2  H   -0.000482   0.000561  -0.000143  -0.000114   0.000000   0.000002
     3  C    0.085830  -0.262890  -0.425925   0.162973  -0.006834   0.000286
     4  H   -0.000091  -0.000153  -0.000022  -0.000060   0.000000   0.000000
     5  C    0.214788  -0.832995  -0.783111   0.130983  -0.024848   0.009689
     6  C   -0.117554   0.527430   0.983867  -0.421548   0.043968  -0.015624
     7  O    8.481368  -0.251897  -0.019268  -0.045073  -0.000392   0.003674
     8  O   -0.251897   9.060519   0.012309   0.029709  -0.072975  -0.033527
     9  C   -0.019268   0.012309   6.012300  -0.180012   0.431200   0.420269
    10  C   -0.045073   0.029709  -0.180012   5.793103  -0.057178  -0.075847
    11  H   -0.000392  -0.072975   0.431200  -0.057178   0.501847  -0.032996
    12  H    0.003674  -0.033527   0.420269  -0.075847  -0.032996   0.492622
    13  H   -0.000128   0.007759  -0.073740   0.399845  -0.000814  -0.000675
    14  H   -0.000228  -0.000787  -0.054918   0.396440  -0.004542   0.003757
    15  H    0.001265  -0.010097  -0.046356   0.403818   0.003567  -0.004703
              13         14         15
     1  O    0.000063  -0.000237  -0.000198
     2  H    0.000000   0.000003   0.000020
     3  C    0.000386   0.004340  -0.000652
     4  H    0.000000   0.000000  -0.000000
     5  C    0.004017   0.015549  -0.012038
     6  C    0.001956  -0.015779   0.011197
     7  O   -0.000128  -0.000228   0.001265
     8  O    0.007759  -0.000787  -0.010097
     9  C   -0.073740  -0.054918  -0.046356
    10  C    0.399845   0.396440   0.403818
    11  H   -0.000814  -0.004542   0.003567
    12  H   -0.000675   0.003757  -0.004703
    13  H    0.505945  -0.025389  -0.023872
    14  H   -0.025389   0.479972  -0.026135
    15  H   -0.023872  -0.026135   0.468150
          Atomic-Atomic Spin Densities.
               1          2          3          4          5          6
     1  O    0.981742   0.002450  -0.191879  -0.000654  -0.034404   0.114833
     2  H    0.002450  -0.035228   0.004801   0.000040  -0.002738  -0.001398
     3  C   -0.191879   0.004801  -0.195489  -0.004140   0.189519   0.393843
     4  H   -0.000654   0.000040  -0.004140  -0.007225   0.003122  -0.000527
     5  C   -0.034404  -0.002738   0.189519   0.003122  -0.358425   0.113417
     6  C    0.114833  -0.001398   0.393843  -0.000527   0.113417  -0.557663
     7  O    0.001168   0.000014   0.006405   0.000000   0.005454  -0.010485
     8  O   -0.000001   0.000141   0.001521   0.000008   0.000924   0.002701
     9  C    0.002553   0.000165  -0.003631  -0.000005  -0.006916   0.005186
    10  C   -0.002803  -0.000013   0.000787   0.000006   0.002547   0.003186
    11  H    0.000009  -0.000000   0.000090   0.000000   0.000189  -0.000268
    12  H    0.000008  -0.000000   0.000163   0.000000   0.000281  -0.000365
    13  H   -0.000002  -0.000000  -0.000038   0.000000  -0.000172   0.000181
    14  H   -0.000037  -0.000000   0.000105  -0.000000   0.000106  -0.000055
    15  H   -0.000032  -0.000002  -0.000274  -0.000000  -0.001457   0.002260
               7          8          9         10         11         12
     1  O    0.001168  -0.000001   0.002553  -0.002803   0.000009   0.000008
     2  H    0.000014   0.000141   0.000165  -0.000013  -0.000000  -0.000000
     3  C    0.006405   0.001521  -0.003631   0.000787   0.000090   0.000163
     4  H    0.000000   0.000008  -0.000005   0.000006   0.000000   0.000000
     5  C    0.005454   0.000924  -0.006916   0.002547   0.000189   0.000281
     6  C   -0.010485   0.002701   0.005186   0.003186  -0.000268  -0.000365
     7  O   -0.011411   0.000012   0.000319   0.000071   0.000003  -0.000045
     8  O    0.000012  -0.004374  -0.001197  -0.000015   0.000086  -0.000008
     9  C    0.000319  -0.001197   0.010976  -0.008427  -0.000071  -0.000044
    10  C    0.000071  -0.000015  -0.008427   0.005291   0.000018  -0.000012
    11  H    0.000003   0.000086  -0.000071   0.000018  -0.000067  -0.000000
    12  H   -0.000045  -0.000008  -0.000044  -0.000012  -0.000000  -0.000063
    13  H   -0.000001  -0.000025   0.000043   0.000089  -0.000000  -0.000004
    14  H   -0.000017  -0.000052  -0.000025  -0.000037  -0.000001  -0.000002
    15  H   -0.000082  -0.000207   0.000150  -0.000332   0.000000  -0.000000
              13         14         15
     1  O   -0.000002  -0.000037  -0.000032
     2  H   -0.000000  -0.000000  -0.000002
     3  C   -0.000038   0.000105  -0.000274
     4  H    0.000000  -0.000000  -0.000000
     5  C   -0.000172   0.000106  -0.001457
     6  C    0.000181  -0.000055   0.002260
     7  O   -0.000001  -0.000017  -0.000082
     8  O   -0.000025  -0.000052  -0.000207
     9  C    0.000043  -0.000025   0.000150
    10  C    0.000089  -0.000037  -0.000332
    11  H   -0.000000  -0.000001   0.000000
    12  H   -0.000004  -0.000002  -0.000000
    13  H   -0.000093  -0.000009   0.000001
    14  H   -0.000009  -0.000012  -0.000016
    15  H    0.000001  -0.000016  -0.000057
 Mulliken charges and spin densities:
               1          2
     1  O   -0.428382   0.872952
     2  H    0.406764  -0.031769
     3  C    0.021442   0.201783
     4  H    0.328983  -0.009375
     5  C   -0.290095  -0.088555
     6  C    0.153151   0.064848
     7  O   -0.339815  -0.008594
     8  O   -0.163484  -0.000487
     9  C   -0.254415  -0.000927
    10  C   -0.555829   0.000356
    11  H    0.219976  -0.000012
    12  H    0.233070  -0.000093
    13  H    0.204647  -0.000030
    14  H    0.227954  -0.000050
    15  H    0.236032  -0.000048
 Sum of Mulliken charges =  -0.00000   1.00000
 Mulliken charges and spin densities with hydrogens summed into heavy atoms:
               1          2
     1  O   -0.021618   0.841183
     3  C    0.350425   0.192408
     5  C   -0.290095  -0.088555
     6  C    0.153151   0.064848
     7  O   -0.339815  -0.008594
     8  O   -0.163484  -0.000487
     9  C    0.198632  -0.001031
    10  C    0.112804   0.000228
 APT charges:
               1
     1  O   -0.173474
     2  H    0.253389
     3  C   -0.202829
     4  H    0.253789
     5  C   -0.410034
     6  C    1.449363
     7  O   -0.754293
     8  O   -0.927213
     9  C    0.500889
    10  C   -0.058859
    11  H   -0.003436
    12  H   -0.005156
    13  H    0.014378
    14  H    0.026484
    15  H    0.037002
 Sum of APT charges =   0.00000
 APT charges with hydrogens summed into heavy atoms:
               1
     1  O    0.079914
     3  C    0.050961
     5  C   -0.410034
     6  C    1.449363
     7  O   -0.754293
     8  O   -0.927213
     9  C    0.492298
    10  C    0.019004
 Electronic spatial extent (au):  <R**2>=           1070.6859
 Charge=             -0.0000 electrons
 Dipole moment (field-independent basis, Debye):
    X=             -0.7937    Y=              0.0645    Z=             -0.4149  Tot=              0.8980
 Quadrupole moment (field-independent basis, Debye-Ang):
   XX=            -29.6648   YY=            -49.0118   ZZ=            -52.3842
   XY=             -0.5025   XZ=             -2.2202   YZ=              5.6911
 Traceless Quadrupole moment (field-independent basis, Debye-Ang):
   XX=             14.0221   YY=             -5.3249   ZZ=             -8.6972
   XY=             -0.5025   XZ=             -2.2202   YZ=              5.6911
 Octapole moment (field-independent basis, Debye-Ang**2):
  XXX=            -34.9927  YYY=              3.8451  ZZZ=             -2.2382  XYY=              0.3488
  XXY=             -0.3255  XXZ=             -5.5435  XZZ=             -0.3541  YZZ=              7.7876
  YYZ=              4.2199  XYZ=             -7.0965
 Hexadecapole moment (field-independent basis, Debye-Ang**3):
 XXXX=           -747.1530 YYYY=           -271.1271 ZZZZ=           -178.9432 XXXY=             -7.4640
 XXXZ=             18.5322 YYYX=            -21.0213 YYYZ=             12.3240 ZZZX=            -10.3113
 ZZZY=              8.5964 XXYY=           -200.9466 XXZZ=           -182.3802 YYZZ=            -74.6154
 XXYZ=             20.8572 YYXZ=            -14.6233 ZZXY=             -8.5643
 N-N= 3.611707494474D+02 E-N=-1.705226290646D+03  KE= 4.178948475514D+02
  Exact polarizability:  87.139   5.952  64.243   3.962   1.165  56.998
 Approx polarizability:  92.684   6.337  63.171   7.628  -2.573  71.442
                          Isotropic Fermi Contact Couplings
        Atom                 a.u.       MegaHertz       Gauss      10(-4) cm-1
     1  O(17)              0.12948     -78.49259     -28.00811     -26.18231
     2  H(1)              -0.01528     -68.28042     -24.36415     -22.77590
     3  C(13)              0.02617      29.41784      10.49702       9.81274
     4  H(1)              -0.00394     -17.63241      -6.29168      -5.88154
     5  C(13)              0.00901      10.12361       3.61236       3.37687
     6  C(13)              0.01061      11.92589       4.25545       3.97805
     7  O(17)             -0.00238       1.44342       0.51505       0.48147
     8  O(17)             -0.00010       0.05908       0.02108       0.01971
     9  C(13)              0.00000       0.00255       0.00091       0.00085
    10  C(13)             -0.00037      -0.41904      -0.14952      -0.13978
    11  H(1)               0.00001       0.05054       0.01803       0.01686
    12  H(1)              -0.00004      -0.19919      -0.07108      -0.06644
    13  H(1)               0.00000       0.00044       0.00016       0.00015
    14  H(1)               0.00001       0.02642       0.00943       0.00881
    15  H(1)               0.00000       0.01767       0.00630       0.00589
 --------------------------------------------------------
       Center         ----  Spin Dipole Couplings  ----
                      3XX-RR        3YY-RR        3ZZ-RR
 --------------------------------------------------------
     1   Atom       -0.955341      2.358087     -1.402746
     2   Atom        0.008678     -0.056786      0.048107
     3   Atom       -0.137875      0.237803     -0.099927
     4   Atom        0.020246     -0.003919     -0.016327
     5   Atom        0.032601      0.002706     -0.035307
     6   Atom        0.003617      0.012397     -0.016014
     7   Atom        0.023326     -0.033117      0.009790
     8   Atom        0.005949     -0.007345      0.001396
     9   Atom        0.002591     -0.000565     -0.002026
    10   Atom        0.003620     -0.001666     -0.001954
    11   Atom        0.001254     -0.000417     -0.000837
    12   Atom        0.001089      0.000231     -0.001320
    13   Atom        0.001857     -0.000859     -0.000998
    14   Atom        0.004810     -0.002441     -0.002369
    15   Atom        0.004110     -0.002075     -0.002035
 --------------------------------------------------------
                        XY            XZ            YZ
 --------------------------------------------------------
     1   Atom        1.544197      0.336431      0.832789
     2   Atom        0.002315     -0.129317      0.034840
     3   Atom        0.007116     -0.009255      0.028776
     4   Atom        0.005955      0.010662      0.002767
     5   Atom       -0.003003      0.018014      0.006939
     6   Atom       -0.016925      0.003765     -0.001443
     7   Atom       -0.030491     -0.005373     -0.018622
     8   Atom       -0.009078     -0.005046      0.003921
     9   Atom       -0.002731     -0.000518      0.000374
    10   Atom       -0.001537      0.000101      0.000021
    11   Atom       -0.001304     -0.000919      0.000549
    12   Atom       -0.001696      0.000106     -0.000050
    13   Atom       -0.000531      0.000134     -0.000004
    14   Atom       -0.000208     -0.001167      0.000112
    15   Atom       -0.001617      0.002086     -0.000446
 --------------------------------------------------------


 ---------------------------------------------------------------------------------
              Anisotropic Spin Dipole Couplings in Principal Axis System
 ---------------------------------------------------------------------------------

       Atom             a.u.   MegaHertz   Gauss  10(-4) cm-1        Axes

              Baa    -1.5832   114.560    40.878    38.213 -0.4054 -0.0342  0.9135
     1 O(17)  Bbb    -1.5604   112.907    40.288    37.662  0.8404 -0.4072  0.3577
              Bcc     3.1436  -227.468   -81.166   -75.875  0.3597  0.9127  0.1938
 
              Baa    -0.1134   -60.518   -21.594   -20.187  0.6668 -0.4100  0.6223
     2 H(1)   Bbb    -0.0486   -25.955    -9.262    -8.658  0.3829  0.9049  0.1859
              Bcc     0.1621    86.473    30.856    28.844 -0.6393  0.1143  0.7604
 
              Baa    -0.1405   -18.855    -6.728    -6.289  0.9683 -0.0370  0.2471
     3 C(13)  Bbb    -0.0998   -13.397    -4.780    -4.469 -0.2493 -0.0770  0.9654
              Bcc     0.2403    32.252    11.508    10.758  0.0167  0.9963  0.0838
 
              Baa    -0.0193   -10.295    -3.673    -3.434 -0.2487 -0.0775  0.9655
     4 H(1)   Bbb    -0.0053    -2.829    -1.009    -0.944 -0.2340  0.9721  0.0177
              Bcc     0.0246    13.124     4.683     4.378  0.9399  0.2215  0.2599
 
              Baa    -0.0411    -5.510    -1.966    -1.838 -0.2406 -0.1681  0.9560
     5 C(13)  Bbb     0.0039     0.528     0.188     0.176 -0.0049  0.9851  0.1720
              Bcc     0.0371     4.982     1.778     1.662  0.9706 -0.0367  0.2379
 
              Baa    -0.0169    -2.266    -0.809    -0.756 -0.2623 -0.1043  0.9593
     6 C(13)  Bbb    -0.0089    -1.193    -0.426    -0.398  0.7447  0.6104  0.2700
              Bcc     0.0258     3.459     1.234     1.154 -0.6137  0.7852 -0.0824
 
              Baa    -0.0524     3.791     1.353     1.264  0.3748  0.8787  0.2956
     7 O(17)  Bbb     0.0155    -1.118    -0.399    -0.373 -0.2219 -0.2245  0.9489
              Bcc     0.0369    -2.673    -0.954    -0.891  0.9001 -0.4213  0.1108
 
              Baa    -0.0121     0.874     0.312     0.291  0.4243  0.8996 -0.1029
     8 O(17)  Bbb    -0.0017     0.121     0.043     0.041  0.4521 -0.1120  0.8849
              Bcc     0.0138    -0.995    -0.355    -0.332  0.7846 -0.4220 -0.4543
 
              Baa    -0.0022    -0.293    -0.105    -0.098  0.3641  0.7432 -0.5613
     9 C(13)  Bbb    -0.0020    -0.275    -0.098    -0.092  0.3547  0.4466  0.8214
              Bcc     0.0042     0.568     0.203     0.189  0.8612 -0.4982 -0.1010
 
              Baa    -0.0021    -0.281    -0.100    -0.094  0.2514  0.9143 -0.3176
    10 C(13)  Bbb    -0.0019    -0.260    -0.093    -0.087  0.0686  0.3105  0.9481
              Bcc     0.0040     0.542     0.193     0.181  0.9654 -0.2602  0.0154
 
              Baa    -0.0012    -0.649    -0.232    -0.216  0.0573 -0.5004  0.8639
    11 H(1)   Bbb    -0.0011    -0.594    -0.212    -0.198  0.5559  0.7348  0.3888
              Bcc     0.0023     1.242     0.443     0.414  0.8293 -0.4579 -0.3202
 
              Baa    -0.0013    -0.708    -0.253    -0.236 -0.0903 -0.0667  0.9937
    12 H(1)   Bbb    -0.0011    -0.580    -0.207    -0.193  0.6080  0.7866  0.1080
              Bcc     0.0024     1.288     0.459     0.430  0.7888 -0.6139  0.0305
 
              Baa    -0.0010    -0.540    -0.193    -0.180 -0.1090 -0.3547  0.9286
    13 H(1)   Bbb    -0.0010    -0.507    -0.181    -0.169  0.1559  0.9165  0.3683
              Bcc     0.0020     1.047     0.374     0.349  0.9817 -0.1849  0.0446
 
              Baa    -0.0026    -1.385    -0.494    -0.462  0.1248 -0.4671  0.8754
    14 H(1)   Bbb    -0.0024    -1.284    -0.458    -0.428  0.0994  0.8837  0.4574
              Bcc     0.0050     2.668     0.952     0.890  0.9872 -0.0300 -0.1567
 
              Baa    -0.0027    -1.433    -0.511    -0.478 -0.3311 -0.2029  0.9215
    15 H(1)   Bbb    -0.0025    -1.309    -0.467    -0.437  0.1508  0.9527  0.2640
              Bcc     0.0051     2.743     0.979     0.915  0.9315 -0.2263  0.2848
 

 ---------------------------------------------------------------------------------

 Calling FoFJK, ICntrl=    100127 FMM=F ISym2X=0 I1Cent= 0 IOpClX= 1 NMat=1 NMatS=1 NMatT=0.
 Full mass-weighted force constant matrix:
 Low frequencies --- -456.1568 -200.2715 -132.1794 -107.6597  -84.4578  -54.3987
 Low frequencies ---  -22.5101   -0.0014   -0.0012
 ******    5 imaginary frequencies (negative Signs) ****** 
 Diagonal vibrational polarizability:
      110.0556019     106.3020943      39.4044052
 Harmonic frequencies (cm**-1), IR intensities (KM/Mole), Raman scattering
 activities (A**4/AMU), depolarization ratios for plane and unpolarized
 incident light, reduced masses (AMU), force constants (mDyne/A),
 and normal coordinates:
                      1                      2                      3
                      A                      A                      A
 Frequencies --   -455.2978              -199.8190               -96.8187
 Red. masses --      1.0905                 6.4456                 5.3957
 Frc consts  --      0.1332                 0.1516                 0.0298
 IR Inten    --    117.9252                 1.9184                19.9044
  Atom  AN      X      Y      Z        X      Y      Z        X      Y      Z
     1   8    -0.05   0.02  -0.04    -0.02  -0.31  -0.16    -0.19  -0.07   0.27
     2   1     0.70  -0.26   0.65     0.35   0.52   0.05    -0.29  -0.35   0.22
     3   6     0.00   0.01  -0.00     0.03  -0.11   0.06     0.07  -0.12  -0.16
     4   1    -0.00   0.04  -0.00     0.06  -0.38   0.03     0.09  -0.29  -0.22
     5   6     0.00  -0.01  -0.01    -0.00   0.48   0.11     0.03   0.18  -0.08
     6   6    -0.00  -0.00  -0.01    -0.00   0.13   0.03     0.01   0.13  -0.02
     7   8    -0.00   0.01   0.00    -0.04  -0.15  -0.04    -0.05   0.24   0.03
     8   8     0.00  -0.01   0.00    -0.01   0.10   0.02     0.04  -0.06  -0.03
     9   6     0.00  -0.00   0.01    -0.01   0.01  -0.01     0.03  -0.13   0.01
    10   6    -0.00  -0.00   0.00     0.03  -0.03   0.03     0.11  -0.10  -0.11
    11   1     0.01  -0.00   0.01    -0.03   0.03  -0.02     0.04  -0.27   0.04
    12   1     0.00  -0.00   0.01    -0.04  -0.02  -0.05    -0.05  -0.08   0.11
    13   1    -0.00   0.00   0.01     0.03  -0.06   0.03     0.10  -0.17  -0.07
    14   1    -0.00  -0.00   0.00     0.05  -0.00   0.05     0.20  -0.15  -0.21
    15   1     0.00  -0.00   0.01     0.03  -0.04   0.03     0.09   0.04  -0.14
                      4                      5                      6
                      A                      A                      A
 Frequencies --    -51.8899                -9.5517                83.6046
 Red. masses --      4.5486                 2.7729                 3.2695
 Frc consts  --      0.0072                 0.0001                 0.0135
 IR Inten    --      1.3018                 0.3181                 6.6314
  Atom  AN      X      Y      Z        X      Y      Z        X      Y      Z
     1   8     0.26  -0.18   0.14     0.05  -0.05  -0.01     0.01   0.01   0.00
     2   1     0.33   0.09   0.17     0.07   0.07  -0.01    -0.03  -0.07  -0.02
     3   6    -0.01   0.08  -0.07    -0.00  -0.04   0.02    -0.10  -0.07   0.28
     4   1    -0.01   0.13  -0.09    -0.00  -0.07   0.03    -0.18  -0.13   0.60
     5   6    -0.01   0.07  -0.04    -0.00   0.00   0.01     0.00   0.01  -0.13
     6   6    -0.02  -0.04  -0.02     0.01   0.04  -0.02     0.01   0.02  -0.15
     7   8    -0.06   0.05   0.01     0.08   0.20   0.00    -0.09   0.05  -0.11
     8   8     0.00  -0.18  -0.03    -0.03  -0.06  -0.08     0.09  -0.00  -0.09
     9   6     0.00   0.03   0.06    -0.02   0.02  -0.11     0.06  -0.03   0.09
    10   6    -0.21   0.18  -0.08    -0.10  -0.11   0.19     0.01   0.00   0.08
    11   1     0.08  -0.05   0.11    -0.03   0.29  -0.16     0.18  -0.10   0.15
    12   1     0.07   0.13   0.19     0.07  -0.12  -0.33    -0.04   0.01   0.17
    13   1    -0.22   0.32   0.05    -0.07  -0.01   0.02    -0.03  -0.09   0.37
    14   1    -0.23   0.06  -0.24    -0.29   0.04   0.47     0.25  -0.04  -0.07
    15   1    -0.34   0.28  -0.16     0.03  -0.45   0.30    -0.24   0.14  -0.06
                      7                      8                      9
                      A                      A                      A
 Frequencies --    132.4825               173.9460               194.0561
 Red. masses --      5.5688                 1.2747                 5.4286
 Frc consts  --      0.0576                 0.0227                 0.1204
 IR Inten    --      0.2121                 1.3278                 1.6270
  Atom  AN      X      Y      Z        X      Y      Z        X      Y      Z
     1   8     0.30  -0.03   0.04    -0.02  -0.01  -0.01     0.09   0.36   0.03
     2   1     0.38   0.01   0.10     0.00   0.05   0.00     0.05  -0.02   0.04
     3   6    -0.08  -0.27  -0.08     0.02   0.02  -0.03     0.10  -0.31  -0.03
     4   1    -0.07  -0.39  -0.10     0.04   0.04  -0.10     0.13  -0.66  -0.09
     5   6    -0.11  -0.16  -0.04     0.00  -0.01   0.06     0.03   0.17   0.05
     6   6    -0.09   0.06   0.02     0.01   0.00   0.02     0.01   0.04   0.02
     7   8    -0.08   0.10   0.02     0.09   0.01  -0.00    -0.00  -0.12  -0.02
     8   8    -0.09   0.24   0.05    -0.03   0.01  -0.02    -0.01  -0.10  -0.02
     9   6    -0.10   0.05  -0.01    -0.03  -0.00  -0.02    -0.02  -0.05  -0.01
    10   6     0.15  -0.04  -0.03    -0.04  -0.02   0.03    -0.18   0.00   0.00
    11   1    -0.16  -0.03  -0.02    -0.02   0.02  -0.02     0.01  -0.01  -0.00
    12   1    -0.20   0.02  -0.01    -0.05  -0.01  -0.04     0.03  -0.04  -0.01
    13   1     0.14  -0.27  -0.01    -0.12  -0.27   0.56    -0.18   0.14   0.07
    14   1     0.36   0.00  -0.05     0.46  -0.04  -0.18    -0.25  -0.03  -0.02
    15   1     0.17   0.08  -0.04    -0.47   0.20  -0.21    -0.25  -0.04  -0.03
                     10                     11                     12
                      A                      A                      A
 Frequencies --    305.7986               395.4875               433.9932
 Red. masses --      2.7985                 1.5618                 2.0613
 Frc consts  --      0.1542                 0.1439                 0.2287
 IR Inten    --     13.6166                86.2506                33.9274
  Atom  AN      X      Y      Z        X      Y      Z        X      Y      Z
     1   8    -0.01  -0.01   0.01    -0.05   0.04   0.04    -0.04  -0.01   0.03
     2   1     0.04   0.19   0.03     0.17   0.89   0.12     0.16   0.77   0.10
     3   6    -0.01   0.00  -0.03    -0.04  -0.03  -0.03     0.05  -0.00   0.01
     4   1     0.01   0.01  -0.10    -0.03  -0.04  -0.07     0.03   0.04   0.08
     5   6    -0.03  -0.03   0.06    -0.06  -0.02   0.03     0.07  -0.09  -0.07
     6   6    -0.00   0.04  -0.05    -0.03  -0.04  -0.03     0.04   0.02   0.01
     7   8     0.19   0.02  -0.12     0.01   0.01  -0.02    -0.06   0.01   0.04
     8   8    -0.03   0.09  -0.07     0.00  -0.11  -0.03     0.06   0.13   0.05
     9   6    -0.07  -0.11   0.20     0.02   0.05   0.02     0.05  -0.09  -0.06
    10   6    -0.07  -0.02   0.01     0.10   0.04   0.02    -0.11  -0.06  -0.05
    11   1     0.10  -0.39   0.32     0.03   0.07   0.02     0.01  -0.08  -0.08
    12   1    -0.35   0.01   0.43     0.08   0.06   0.02     0.01  -0.12  -0.08
    13   1    -0.02   0.14  -0.25     0.10  -0.09  -0.03    -0.12   0.19   0.08
    14   1    -0.33  -0.11  -0.01     0.18   0.08   0.04    -0.26  -0.13  -0.09
    15   1     0.14   0.00   0.11     0.16   0.07   0.04    -0.27  -0.14  -0.11
                     13                     14                     15
                      A                      A                      A
 Frequencies --    574.1818               620.0716               725.2835
 Red. masses --      4.1419                 5.4807                 2.4987
 Frc consts  --      0.8045                 1.2416                 0.7744
 IR Inten    --      4.2278                12.7042                11.2892
  Atom  AN      X      Y      Z        X      Y      Z        X      Y      Z
     1   8    -0.02  -0.00   0.01     0.01  -0.01  -0.01    -0.00  -0.03   0.00
     2   1     0.04   0.26   0.02    -0.04  -0.10  -0.04     0.03   0.01   0.02
     3   6     0.23   0.00   0.06     0.17  -0.01   0.06     0.02   0.15  -0.05
     4   1     0.16   0.04   0.34     0.33   0.29  -0.56    -0.02  -0.86   0.33
     5   6     0.26   0.01  -0.18     0.06  -0.12   0.40     0.01  -0.14   0.02
     6   6     0.03  -0.08   0.01     0.05   0.03  -0.12     0.02   0.27   0.06
     7   8    -0.04  -0.00   0.06    -0.29   0.03  -0.03    -0.03  -0.06  -0.02
     8   8    -0.14  -0.02  -0.07     0.02   0.04  -0.20    -0.00  -0.07  -0.03
     9   6    -0.26   0.08   0.04     0.03   0.01  -0.01    -0.01   0.00   0.00
    10   6    -0.01   0.01   0.01     0.01   0.01   0.02    -0.00   0.00   0.01
    11   1    -0.12  -0.06   0.13     0.20  -0.14   0.09     0.00   0.02   0.01
    12   1    -0.34   0.15   0.16    -0.17   0.06   0.12     0.01   0.01   0.00
    13   1     0.00  -0.37  -0.19     0.01   0.01   0.01     0.00  -0.05  -0.01
    14   1     0.19   0.11   0.09     0.00   0.04   0.06     0.04   0.02   0.02
    15   1     0.24   0.11   0.11     0.02  -0.05   0.03     0.04   0.02   0.02
                     16                     17                     18
                      A                      A                      A
 Frequencies --    741.4441               777.9077               818.0585
 Red. masses --      2.1514                 1.3500                 1.2738
 Frc consts  --      0.6968                 0.4813                 0.5023
 IR Inten    --     93.0017                50.1178                 6.3175
  Atom  AN      X      Y      Z        X      Y      Z        X      Y      Z
     1   8     0.00  -0.01   0.01     0.00   0.00  -0.00     0.00  -0.00  -0.00
     2   1     0.00   0.03   0.00    -0.01  -0.02  -0.01    -0.00  -0.00  -0.00
     3   6    -0.01  -0.12   0.04     0.04  -0.04  -0.14     0.05   0.00   0.00
     4   1    -0.01   0.92  -0.18    -0.26   0.32   0.89     0.04  -0.01   0.05
     5   6     0.01  -0.04  -0.06    -0.02   0.01   0.08     0.02  -0.01   0.04
     6   6     0.01   0.26   0.07     0.00  -0.01  -0.00    -0.03  -0.01  -0.05
     7   8     0.01  -0.06  -0.03    -0.01   0.00   0.00    -0.01   0.02  -0.06
     8   8    -0.01  -0.07   0.00    -0.00   0.01  -0.02     0.01   0.00   0.04
     9   6    -0.02   0.00   0.01     0.02  -0.00  -0.00    -0.04  -0.02   0.08
    10   6    -0.00   0.00   0.00     0.01   0.00   0.00    -0.02  -0.02   0.03
    11   1    -0.03   0.06  -0.01     0.03  -0.03   0.01    -0.11   0.52  -0.05
    12   1     0.04  -0.01  -0.03    -0.01   0.01   0.02     0.14  -0.31  -0.38
    13   1    -0.00  -0.05  -0.03     0.00   0.03   0.02     0.01   0.01  -0.19
    14   1     0.03   0.01  -0.01    -0.01   0.01   0.01    -0.04  -0.28  -0.33
    15   1     0.04   0.04   0.02    -0.01  -0.02  -0.00     0.12   0.43   0.02
                     19                     20                     21
                      A                      A                      A
 Frequencies --    899.0349               946.1086              1110.8359
 Red. masses --      3.3905                 2.5146                 4.1732
 Frc consts  --      1.6146                 1.3262                 3.0340
 IR Inten    --     20.9422                 5.7854                 9.7514
  Atom  AN      X      Y      Z        X      Y      Z        X      Y      Z
     1   8     0.00  -0.00  -0.00     0.00  -0.01   0.00    -0.00  -0.00   0.00
     2   1    -0.01  -0.01  -0.01    -0.00   0.00  -0.00     0.00  -0.00   0.00
     3   6     0.08   0.00   0.01     0.10   0.01   0.03     0.07   0.00   0.02
     4   1     0.08   0.01   0.03     0.11   0.00   0.03     0.07   0.00   0.03
     5   6     0.04  -0.02   0.08     0.07  -0.02  -0.01     0.04  -0.01  -0.03
     6   6    -0.09   0.01  -0.12    -0.14   0.01  -0.01    -0.16   0.01   0.04
     7   8    -0.00   0.05  -0.19     0.01   0.02  -0.08     0.01  -0.00  -0.01
     8   8     0.09  -0.05   0.25    -0.15  -0.03   0.05    -0.18   0.01  -0.05
     9   6    -0.08   0.07  -0.01     0.05  -0.11  -0.03     0.28   0.21   0.16
    10   6    -0.08  -0.04  -0.09     0.16   0.11   0.06    -0.03  -0.21  -0.12
    11   1    -0.28  -0.17  -0.05    -0.25  -0.21  -0.15     0.27   0.31   0.14
    12   1     0.20   0.29   0.23    -0.02  -0.14  -0.06     0.38   0.27   0.19
    13   1    -0.10  -0.41  -0.00     0.14   0.67   0.38    -0.04  -0.10  -0.03
    14   1     0.15   0.28   0.28    -0.18   0.03   0.07    -0.13  -0.26  -0.13
    15   1    -0.04  -0.41  -0.02    -0.22  -0.10  -0.09    -0.15  -0.34  -0.16
                     22                     23                     24
                      A                      A                      A
 Frequencies --   1159.3125              1228.8948              1328.1228
 Red. masses --      2.0877                 1.7540                 1.8495
 Frc consts  --      1.6532                 1.5607                 1.9221
 IR Inten    --     18.5108                 4.9402               287.2921
  Atom  AN      X      Y      Z        X      Y      Z        X      Y      Z
     1   8    -0.00   0.00  -0.00    -0.00   0.00   0.00    -0.00   0.00   0.00
     2   1    -0.00  -0.00  -0.00     0.00   0.00  -0.00     0.00   0.01  -0.00
     3   6    -0.02  -0.00  -0.01    -0.02  -0.00  -0.01    -0.04  -0.00  -0.01
     4   1    -0.03  -0.00  -0.01    -0.02  -0.00  -0.01    -0.05  -0.00  -0.02
     5   6    -0.01   0.00   0.01    -0.01   0.00  -0.00    -0.01   0.00   0.00
     6   6     0.06   0.00  -0.01     0.07  -0.00  -0.01     0.20   0.01  -0.07
     7   8    -0.00  -0.00   0.00    -0.01  -0.01   0.03    -0.02   0.00  -0.01
     8   8     0.08  -0.05   0.01     0.00   0.02  -0.07    -0.10  -0.00   0.03
     9   6    -0.15   0.17   0.02    -0.05  -0.05   0.17     0.07   0.03   0.02
    10   6     0.11  -0.13  -0.01     0.03   0.04  -0.12    -0.02  -0.03   0.06
    11   1    -0.13   0.03   0.06    -0.41   0.32  -0.04    -0.69  -0.31  -0.27
    12   1    -0.32   0.13   0.00     0.30  -0.23  -0.19     0.31   0.21   0.20
    13   1     0.09   0.52   0.21    -0.02  -0.04   0.27     0.00   0.01  -0.11
    14   1    -0.37  -0.35  -0.15    -0.01   0.31   0.28     0.01  -0.18  -0.14
    15   1    -0.32  -0.12  -0.22    -0.10  -0.45  -0.10     0.04   0.18   0.06
                     25                     26                     27
                      A                      A                      A
 Frequencies --   1371.4916              1442.6872              1457.6951
 Red. masses --      1.8470                 1.3926                 1.2618
 Frc consts  --      2.0470                 1.7077                 1.5797
 IR Inten    --    297.6387                39.5025                18.5770
  Atom  AN      X      Y      Z        X      Y      Z        X      Y      Z
     1   8     0.00  -0.00  -0.00    -0.00   0.00   0.00     0.00  -0.00  -0.00
     2   1    -0.00  -0.01   0.00     0.00   0.00  -0.00    -0.00   0.00  -0.00
     3   6     0.03   0.00   0.01    -0.02  -0.00  -0.00     0.00   0.00   0.00
     4   1     0.03   0.00   0.02    -0.02  -0.00  -0.01     0.01   0.00   0.00
     5   6     0.00  -0.00  -0.00    -0.00   0.00   0.00     0.00  -0.00  -0.00
     6   6    -0.16  -0.01   0.06     0.09   0.00  -0.02    -0.02  -0.00   0.01
     7   8     0.02  -0.01   0.03    -0.01   0.01  -0.02     0.00  -0.00   0.00
     8   8     0.11   0.04  -0.11    -0.06   0.01   0.04     0.02  -0.00  -0.01
     9   6    -0.08  -0.02  -0.02    -0.08  -0.07  -0.04     0.03   0.03   0.02
    10   6     0.01  -0.03   0.05     0.03  -0.05  -0.02    -0.07  -0.11  -0.06
    11   1    -0.35  -0.17  -0.13     0.51   0.35   0.18    -0.16  -0.13  -0.05
    12   1     0.75   0.31   0.21     0.46   0.28   0.28    -0.15  -0.10  -0.11
    13   1     0.02   0.07  -0.03     0.02   0.25   0.13    -0.06   0.50   0.18
    14   1    -0.05  -0.11  -0.05    -0.00   0.11   0.19     0.34   0.30   0.33
    15   1    -0.01   0.18   0.02     0.04   0.20  -0.04     0.34   0.40   0.08
                     28                     29                     30
                      A                      A                      A
 Frequencies --   1526.2227              1536.8243              1544.6737
 Red. masses --      1.0414                 1.0573                 1.0879
 Frc consts  --      1.4292                 1.4713                 1.5293
 IR Inten    --     14.9283                 2.3150                27.7698
  Atom  AN      X      Y      Z        X      Y      Z        X      Y      Z
     1   8    -0.00  -0.00   0.00     0.00  -0.00   0.00    -0.00  -0.00  -0.00
     2   1     0.00   0.00  -0.00    -0.00  -0.00  -0.00     0.00  -0.00   0.00
     3   6     0.00   0.00   0.00     0.00   0.00   0.00     0.00   0.00   0.00
     4   1     0.00  -0.00   0.00     0.00   0.00   0.00     0.01   0.00   0.00
     5   6     0.00  -0.00  -0.00    -0.00   0.00  -0.00    -0.00  -0.00  -0.00
     6   6     0.00  -0.00   0.00    -0.01   0.00  -0.00    -0.02   0.00  -0.00
     7   8    -0.00   0.00  -0.00     0.00  -0.00   0.01     0.00  -0.00   0.01
     8   8    -0.00  -0.00   0.00     0.02  -0.00  -0.01     0.02  -0.00  -0.01
     9   6     0.01   0.02  -0.01     0.01  -0.04  -0.02     0.05  -0.05  -0.01
    10   6     0.02   0.01  -0.05    -0.03   0.02  -0.01     0.03  -0.02  -0.00
    11   1     0.01  -0.11  -0.00    -0.14   0.40  -0.15    -0.25   0.42  -0.21
    12   1     0.01  -0.00  -0.04    -0.22   0.19   0.35    -0.36   0.14   0.36
    13   1    -0.08  -0.35   0.57    -0.05   0.16   0.27     0.03  -0.17  -0.16
    14   1    -0.55  -0.09   0.05     0.20  -0.17  -0.34    -0.22   0.15   0.31
    15   1     0.36   0.26   0.11     0.37  -0.32   0.23    -0.26   0.32  -0.18
                     31                     32                     33
                      A                      A                      A
 Frequencies --   1910.3625              2273.3824              3107.9317
 Red. masses --     12.2531                 5.7791                 1.0350
 Frc consts  --     26.3469                17.5976                 5.8904
 IR Inten    --    316.8447                73.6466                12.4745
  Atom  AN      X      Y      Z        X      Y      Z        X      Y      Z
     1   8    -0.00   0.01  -0.00     0.00   0.01   0.00     0.00   0.00  -0.00
     2   1     0.02  -0.00   0.02    -0.00   0.00  -0.00    -0.00  -0.00   0.00
     3   6    -0.07  -0.01  -0.01    -0.37  -0.03  -0.09     0.00   0.00   0.00
     4   1    -0.11  -0.02  -0.01    -0.73  -0.06  -0.19    -0.00   0.00  -0.00
     5   6     0.06   0.00  -0.00     0.51   0.01   0.13    -0.00   0.00   0.00
     6   6     0.19  -0.21   0.74    -0.09   0.02  -0.04     0.00   0.00  -0.00
     7   8    -0.15   0.14  -0.48     0.00  -0.00   0.01     0.00   0.00   0.00
     8   8     0.04   0.02  -0.07    -0.00  -0.00   0.00    -0.00  -0.00   0.00
     9   6     0.02  -0.01   0.01     0.00   0.00  -0.00     0.00   0.00   0.00
    10   6    -0.01   0.01  -0.00    -0.00  -0.00  -0.00    -0.02  -0.04  -0.02
    11   1    -0.15   0.07  -0.08     0.01  -0.00  -0.00     0.00  -0.00  -0.00
    12   1    -0.13  -0.02   0.08     0.00  -0.00  -0.00     0.00  -0.01   0.01
    13   1    -0.00  -0.03  -0.05     0.00   0.00   0.00     0.63  -0.04   0.08
    14   1     0.03   0.01  -0.01     0.00   0.00  -0.00    -0.13   0.44  -0.33
    15   1    -0.03  -0.05   0.00     0.00   0.00   0.00    -0.23   0.05   0.47
                     34                     35                     36
                      A                      A                      A
 Frequencies --   3137.7417              3188.6827              3190.3815
 Red. masses --      1.0601                 1.1026                 1.1004
 Frc consts  --      6.1494                 6.6054                 6.5989
 IR Inten    --     21.5758                 4.1979                16.3851
  Atom  AN      X      Y      Z        X      Y      Z        X      Y      Z
     1   8     0.00  -0.00  -0.00     0.00  -0.00   0.00    -0.00   0.00   0.00
     2   1     0.00   0.00   0.00    -0.00  -0.00   0.00     0.00   0.00  -0.00
     3   6    -0.00   0.00  -0.00    -0.00   0.00   0.00     0.00   0.00   0.00
     4   1     0.00   0.00   0.00     0.00  -0.00   0.00     0.00  -0.00   0.00
     5   6     0.00  -0.00  -0.00     0.00   0.00   0.00    -0.00   0.00   0.00
     6   6    -0.00  -0.00   0.00    -0.00  -0.00   0.00     0.00   0.00  -0.00
     7   8    -0.00   0.00  -0.00     0.00  -0.00   0.00     0.00  -0.00   0.00
     8   8     0.00   0.00  -0.00    -0.00   0.00  -0.00     0.00   0.00   0.00
     9   6     0.03  -0.06  -0.00     0.02   0.01  -0.06     0.00   0.02  -0.02
    10   6    -0.01   0.01  -0.00     0.02  -0.03   0.06    -0.08   0.03   0.01
    11   1    -0.23   0.06   0.50    -0.24   0.08   0.53    -0.07   0.02   0.14
    12   1    -0.13   0.65  -0.48     0.06  -0.26   0.18     0.04  -0.21   0.15
    13   1     0.11  -0.01   0.01    -0.23   0.00  -0.02     0.72  -0.03   0.09
    14   1     0.01  -0.05   0.04    -0.13   0.46  -0.34     0.06  -0.27   0.21
    15   1     0.01  -0.00  -0.03     0.17  -0.05  -0.33     0.20  -0.05  -0.47
                     37                     38                     39
                      A                      A                      A
 Frequencies --   3211.3539              3526.8473              3817.7067
 Red. masses --      1.1053                 1.1693                 1.0672
 Frc consts  --      6.7159                 8.5694                 9.1647
 IR Inten    --     17.4540                61.0501                14.4976
  Atom  AN      X      Y      Z        X      Y      Z        X      Y      Z
     1   8    -0.00  -0.00   0.00     0.00   0.00   0.00     0.04  -0.01  -0.05
     2   1     0.00   0.00  -0.00     0.00  -0.00  -0.00    -0.65   0.09   0.75
     3   6    -0.00   0.00  -0.00    -0.11  -0.01  -0.03    -0.00   0.00  -0.00
     4   1     0.00  -0.00  -0.00     0.96   0.05   0.25     0.00   0.00   0.00
     5   6     0.00  -0.00   0.00     0.03   0.00   0.01     0.00   0.00   0.00
     6   6    -0.00   0.00  -0.00    -0.00   0.00  -0.00     0.00   0.00  -0.00
     7   8     0.00  -0.00   0.00     0.00   0.00  -0.00    -0.00   0.00  -0.00
     8   8    -0.00   0.00  -0.00     0.00   0.00  -0.00    -0.00  -0.00   0.00
     9   6     0.01   0.02  -0.06    -0.00   0.00   0.00     0.00   0.00   0.00
    10   6     0.02   0.02  -0.06     0.00  -0.00   0.00    -0.00   0.00  -0.00
    11   1    -0.23   0.08   0.51     0.00  -0.00  -0.00    -0.00   0.00   0.00
    12   1     0.06  -0.31   0.21     0.00  -0.00   0.00    -0.00  -0.00   0.00
    13   1    -0.07   0.01  -0.02     0.00   0.00   0.00     0.00  -0.00   0.00
    14   1     0.10  -0.36   0.25    -0.00   0.00  -0.00    -0.00  -0.00   0.00
    15   1    -0.25   0.08   0.51    -0.00  -0.00  -0.00     0.00   0.00  -0.00

 -------------------
 - Thermochemistry -
 -------------------
 Temperature   298.150 Kelvin.  Pressure   1.00000 Atm.
 Atom     1 has atomic number  8 and mass  15.99491
 Atom     2 has atomic number  1 and mass   1.00783
 Atom     3 has atomic number  6 and mass  12.00000
 Atom     4 has atomic number  1 and mass   1.00783
 Atom     5 has atomic number  6 and mass  12.00000
 Atom     6 has atomic number  6 and mass  12.00000
 Atom     7 has atomic number  8 and mass  15.99491
 Atom     8 has atomic number  8 and mass  15.99491
 Atom     9 has atomic number  6 and mass  12.00000
 Atom    10 has atomic number  6 and mass  12.00000
 Atom    11 has atomic number  1 and mass   1.00783
 Atom    12 has atomic number  1 and mass   1.00783
 Atom    13 has atomic number  1 and mass   1.00783
 Atom    14 has atomic number  1 and mass   1.00783
 Atom    15 has atomic number  1 and mass   1.00783
 Molecular mass:   115.03952 amu.
 Principal axes and moments of inertia in atomic units:
                           1         2         3
     Eigenvalues --   510.318461380.084051528.78131
           X            0.99994   0.01074  -0.00089
           Y           -0.01064   0.99726   0.07321
           Z            0.00167  -0.07319   0.99732
 This molecule is an asymmetric top.
 Rotational symmetry number  1.
 Warning -- assumption of classical behavior for rotation
           may cause significant error
 Rotational temperatures (Kelvin)      0.16973     0.06276     0.05666
 Rotational constants (GHZ):           3.53650     1.30770     1.18051
    5 imaginary frequencies ignored.
 Zero-point vibrational energy     292442.8 (Joules/Mol)
                                   69.89550 (Kcal/Mol)
 Warning -- explicit consideration of   9 degrees of freedom as
           vibrations may cause significant error
 Vibrational temperatures:    120.29   190.61   250.27   279.20   439.98
          (Kelvin)            569.02   624.42   826.12   892.14  1043.52
                             1066.77  1119.24  1177.00  1293.51  1361.24
                             1598.25  1667.99  1768.11  1910.87  1973.27
                             2075.71  2097.30  2195.89  2211.15  2222.44
                             2748.59  3270.89  4471.62  4514.51  4587.80
                             4590.25  4620.42  5074.35  5492.83
 
 Zero-point correction=                           0.111386 (Hartree/Particle)
 Thermal correction to Energy=                    0.118721
 Thermal correction to Enthalpy=                  0.119665
 Thermal correction to Gibbs Free Energy=         0.078393
 Sum of electronic and zero-point Energies=           -419.845002
 Sum of electronic and thermal Energies=              -419.837667
 Sum of electronic and thermal Enthalpies=            -419.836723
 Sum of electronic and thermal Free Energies=         -419.877994
 
                     E (Thermal)             CV                S
                      KCal/Mol        Cal/Mol-Kelvin    Cal/Mol-Kelvin
 Total                   74.498             25.305             86.863
 Electronic               0.000              0.000              1.377
 Translational            0.889              2.981             40.136
 Rotational               0.889              2.981             28.467
 Vibrational             72.721             19.343             16.883
 Vibration     1          0.600              1.960              3.804
 Vibration     2          0.613              1.921              2.910
 Vibration     3          0.627              1.875              2.392
 Vibration     4          0.635              1.848              2.189
 Vibration     5          0.696              1.663              1.385
 Vibration     6          0.762              1.480              0.979
 Vibration     7          0.795              1.396              0.846
 Vibration     8          0.930              1.087              0.496
 Vibration     9          0.980              0.990              0.416
                       Q            Log10(Q)             Ln(Q)
 Total Bot       0.874128D-36        -36.058425        -83.027591
 Total V=0       0.149738D+16         15.175332         34.942493
 Vib (Bot)       0.242621D-49        -49.615071       -114.242923
 Vib (Bot)    1  0.246190D+01          0.391270          0.900932
 Vib (Bot)    2  0.153784D+01          0.186912          0.430380
 Vib (Bot)    3  0.115705D+01          0.063351          0.145870
 Vib (Bot)    4  0.102982D+01          0.012760          0.029380
 Vib (Bot)    5  0.619857D+00         -0.207709         -0.478267
 Vib (Bot)    6  0.452158D+00         -0.344710         -0.793724
 Vib (Bot)    7  0.400224D+00         -0.397697         -0.915732
 Vib (Bot)    8  0.266934D+00         -0.573596         -1.320753
 Vib (Bot)    9  0.235827D+00         -0.627407         -1.444658
 Vib (V=0)       0.415610D+02          1.618686          3.727162
 Vib (V=0)    1  0.301216D+01          0.478878          1.102656
 Vib (V=0)    2  0.211708D+01          0.325738          0.750039
 Vib (V=0)    3  0.176046D+01          0.245626          0.565574
 Vib (V=0)    4  0.164478D+01          0.216108          0.497606
 Vib (V=0)    5  0.129638D+01          0.112733          0.259576
 Vib (V=0)    6  0.117413D+01          0.069715          0.160525
 Vib (V=0)    7  0.114045D+01          0.057077          0.131425
 Vib (V=0)    8  0.106679D+01          0.028080          0.064657
 Vib (V=0)    9  0.105282D+01          0.022356          0.051476
 Electronic      0.200000D+01          0.301030          0.693147
 Translational   0.484981D+08          7.685724         17.697035
 Rotational      0.371443D+06          5.569892         12.825150
 ***** Axes restored to original set *****
 -------------------------------------------------------------------
 Center     Atomic                   Forces (Hartrees/Bohr)
 Number     Number              X              Y              Z
 -------------------------------------------------------------------
      1        8           0.012810040    0.009275815   -0.010187184
      2        1          -0.011294510    0.003014199    0.012741326
      3        6          -0.022306350    0.000551955   -0.005466166
      4        1          -0.000788274   -0.000278587   -0.000235067
      5        6           0.024528290   -0.015076818    0.003779157
      6        6          -0.043062359    0.013258737   -0.031021531
      7        8           0.017827533   -0.013711100    0.045879601
      8        8           0.002645234    0.002741761   -0.014603439
      9        6           0.017473091   -0.000919836   -0.003055854
     10        6           0.000501385    0.000351592    0.000171978
     11        1           0.000379357   -0.000158424   -0.000677120
     12        1           0.000546047   -0.001155270    0.001099802
     13        1           0.001395205    0.000337067    0.000506901
     14        1          -0.000361378    0.001026132   -0.000482341
     15        1          -0.000293310    0.000742777    0.001549938
 -------------------------------------------------------------------
 Cartesian Forces:  Max     0.045879601 RMS     0.013483995

 GradGradGradGradGradGradGradGradGradGradGradGradGradGradGradGradGradGrad
 Berny optimization.
 Search for a local minimum.
 Step number   1 out of a maximum of    2
 All quantities printed in internal units (Hartrees-Bohrs-Radians)
 Second derivative matrix not updated -- analytic derivatives used.
 ITU=  0
     Eigenvalues ---   -0.01580  -0.01309  -0.00306  -0.00106  -0.00035
     Eigenvalues ---    0.00088   0.00203   0.00426   0.00933   0.01104
     Eigenvalues ---    0.01768   0.03219   0.03518   0.05505   0.06539
     Eigenvalues ---    0.07016   0.07675   0.08799   0.09239   0.10547
     Eigenvalues ---    0.12112   0.14883   0.17741   0.18440   0.21043
     Eigenvalues ---    0.25809   0.29864   0.43378   0.50047   0.64623
     Eigenvalues ---    0.73601   0.77853   0.80513   0.88697   0.94111
     Eigenvalues ---    0.97206   0.98725   1.86192   2.75685
 Eigenvalue     1 is  -1.58D-02 should be greater than     0.000000 Eigenvector:
                          Y5        Y1        Z2        Y2        Y7
   1                    0.56844  -0.49381  -0.34083   0.32645  -0.23286
                          Y4        X2        X1        Y6        Z5
   1                   -0.21207  -0.17074   0.12284   0.11901   0.11221
 Eigenvalue     2 is  -1.31D-02 should be greater than     0.000000 Eigenvector:
                          X2        Z2        X1        Z1        Y5
   1                    0.53079   0.44849  -0.41689  -0.36909   0.31684
                          Y7        Y1        Y8        Z5        Y6
   1                   -0.15584  -0.11615   0.08666   0.07976   0.07520
 Eigenvalue     3 is  -3.06D-03 should be greater than     0.000000 Eigenvector:
                          Y7        Z1        Z2        Y5        Y4
   1                    0.56734   0.32594   0.26828   0.26232  -0.22512
                          Y6        Y1        Y8        Y2        Z4
   1                    0.19971  -0.19545  -0.18365  -0.18138  -0.17466
 Eigenvalue     4 is  -1.06D-03 should be greater than     0.000000 Eigenvector:
                          X2        X14       Z14       Y11       Y2
   1                    0.35545  -0.33751   0.29114   0.26196   0.26144
                          X1        Y15       Z12       X10       Y7
   1                    0.25425  -0.25343  -0.22973  -0.19952   0.18712
 Eigenvalue     5 is  -3.55D-04 should be greater than     0.000000 Eigenvector:
                          X2        Z14       Y15       X1        X15
   1                    0.30939  -0.30752   0.29869   0.26017  -0.25893
                          Z2        Y13       Z12       Z1        Z15
   1                    0.25041   0.24964   0.24041   0.22452  -0.19107
 Quadratic step=6.189D+00 exceeds max=3.000D-01 adjusted using Lamda=-5.433D-02.
 Angle between NR and scaled steps=  64.83 degrees.
 Angle between quadratic step and forces=  65.68 degrees.
 Linear search not attempted -- first point.
 B after Tr=     0.001168   -0.000193    0.000085
         Rot=    1.000000    0.000157   -0.000061    0.000131 Ang=   0.02 deg.
 Variable       Old X    -DE/DX   Delta X   Delta X   Delta X     New X
                                 (Linear)    (Quad)   (Total)
    X1       -2.54352   0.01281   0.00000   0.03833   0.04044  -2.50308
    Y1        3.30961   0.00928   0.00000   0.16669   0.16722   3.47683
    Z1        0.19760  -0.01019   0.00000   0.01358   0.01288   0.21048
    X2       -3.74005  -0.01129   0.00000  -0.02110  -0.01882  -3.75887
    Y2        3.46365   0.00301   0.00000   0.03799   0.03929   3.50294
    Z2        1.57988   0.01274   0.00000   0.01772   0.01716   1.59705
    X3       -5.16137  -0.02231   0.00000  -0.04193  -0.04110  -5.20246
    Y3       -0.87897   0.00055   0.00000   0.00778   0.00868  -0.87029
    Z3       -0.84835  -0.00547   0.00000  -0.01188  -0.01089  -0.85924
    X4       -7.10431  -0.00079   0.00000  -0.03809  -0.03734  -7.14165
    Y4       -0.98113  -0.00028   0.00000  -0.00326  -0.00201  -0.98315
    Z4       -1.36381  -0.00024   0.00000  -0.00953  -0.00827  -1.37208
    X5       -2.96209   0.02453   0.00000  -0.01860  -0.01770  -2.97979
    Y5       -0.66788  -0.01508   0.00000  -0.21491  -0.21442  -0.88231
    Z5       -0.29356   0.00378   0.00000  -0.02154  -0.02082  -0.31438
    X6       -0.31351  -0.04306   0.00000  -0.04852  -0.04758  -0.36109
    Y6       -1.03688   0.01326   0.00000  -0.03099  -0.03095  -1.06783
    Z6        0.42295  -0.03102   0.00000  -0.00859  -0.00812   0.41483
    X7        0.32071   0.01783   0.00000   0.02790   0.02894   0.34964
    Y7       -1.67879  -0.01371   0.00000  -0.00121  -0.00070  -1.67949
    Z7        2.50062   0.04588   0.00000   0.03542   0.03599   2.53661
    X8        1.20589   0.00265   0.00000  -0.00614  -0.00532   1.20057
    Y8       -0.63681   0.00274   0.00000   0.01134   0.01035  -0.62646
    Z8       -1.53070  -0.01460   0.00000  -0.01540  -0.01526  -1.54597
    X9        3.87761   0.01747   0.00000   0.03261   0.03345   3.91106
    Y9       -0.79985  -0.00092   0.00000   0.00366   0.00212  -0.79773
    Z9       -1.01831  -0.00306   0.00000  -0.00514  -0.00528  -1.02360
   X10        4.80299   0.00050   0.00000   0.01347   0.01509   4.81809
   Y10        1.59542   0.00035   0.00000   0.00692   0.00554   1.60096
   Z10        0.24997   0.00017   0.00000   0.00357   0.00257   0.25253
   X11        4.72716   0.00038   0.00000   0.01175   0.01229   4.73945
   Y11       -1.06285  -0.00016   0.00000   0.00141  -0.00094  -1.06378
   Z11       -2.87291  -0.00068   0.00000  -0.01310  -0.01325  -2.88616
   X12        4.23023   0.00055   0.00000   0.00653   0.00707   4.23730
   Y12       -2.46444  -0.00116   0.00000  -0.00097  -0.00223  -2.46667
   Z12        0.14457   0.00110   0.00000   0.00158   0.00193   0.14649
   X13        6.84753   0.00140   0.00000   0.01560   0.01723   6.86476
   Y13        1.49938   0.00034   0.00000   0.01407   0.01224   1.51162
   Z13        0.50876   0.00051   0.00000   0.00929   0.00806   0.51683
   X14        4.35848  -0.00036   0.00000   0.00499   0.00690   4.36538
   Y14        3.23746   0.00103   0.00000   0.00664   0.00502   3.24248
   Z14       -0.91381  -0.00048   0.00000   0.00183   0.00036  -0.91345
   X15        3.91936  -0.00029   0.00000   0.00456   0.00646   3.92582
   Y15        1.82373   0.00074   0.00000   0.00136   0.00080   1.82453
   Z15        2.09714   0.00155   0.00000   0.00391   0.00294   2.10008
         Item               Value     Threshold  Converged?
 Maximum Force            0.045880     0.000450     NO 
 RMS     Force            0.013484     0.000300     NO 
 Maximum Displacement     0.214424     0.001800     NO 
 RMS     Displacement     0.044785     0.001200     NO 
 Predicted change in Energy=-8.927386D-03
 GradGradGradGradGradGradGradGradGradGradGradGradGradGradGradGradGradGrad


 ----------------------------------------------------------------------

 Electric dipole moment (input orientation):
 (Debye = 10**-18 statcoulomb cm , SI units = C m)
                  (au)            (Debye)         (10**-30 SI)
   Tot        0.353291D+00      0.897976D+00      0.299533D+01
   x         -0.312192D+00     -0.793514D+00     -0.264688D+01
   y          0.268894D-01      0.683459D-01      0.227977D+00
   z         -0.163179D+00     -0.414760D+00     -0.138349D+01

 Dipole polarizability, Alpha (input orientation).
 (esu units = cm**3 , SI units = C**2 m**2 J**-1)
 Alpha(0;0):
               (au)            (10**-24 esu)      (10**-40 SI)
   iso        0.694601D+02      0.102929D+02      0.114524D+02
   aniso      0.300004D+02      0.444560D+01      0.494640D+01
   xx         0.871239D+02      0.129104D+02      0.143648D+02
   yx         0.592643D+01      0.878206D+00      0.977136D+00
   yy         0.642261D+02      0.951733D+01      0.105895D+02
   zx         0.404596D+01      0.599549D+00      0.667089D+00
   zy         0.125053D+01      0.185309D+00      0.206184D+00
   zz         0.570302D+02      0.845100D+01      0.940301D+01

 ----------------------------------------------------------------------

 Dipole orientation:
     8         -1.20723709         -3.19451272          2.40825938
     1         -2.97902655         -3.39810526          2.83886648
     6         -1.69517891          1.17751171          4.88587995
     1         -2.14949331          1.40789637          6.83310506
     6         -1.15119384          0.82385598          2.70226577
     6         -0.56750107          1.01499955          0.00277052
     8         -2.13755515          1.46706316         -1.56616356
     8          1.88509432          0.69530618         -0.40706845
     6          2.66942188          0.69579264         -3.01706292
     6          2.08996609         -1.82909710         -4.23828406
     1          4.69192872          1.05981384         -2.93119098
     1          1.72950107          2.24905507         -3.99247066
     1          2.80929487         -1.84719505         -6.17182571
     1          2.98683259         -3.35560066         -3.18297128
     1          0.05654340         -2.15643443         -4.29324190

 Electric dipole moment (dipole orientation):
 (Debye = 10**-18 statcoulomb cm , SI units = C m)
                  (au)            (Debye)         (10**-30 SI)
   Tot        0.353291D+00      0.897976D+00      0.299533D+01
   x          0.000000D+00      0.000000D+00      0.000000D+00
   y          0.000000D+00      0.000000D+00      0.000000D+00
   z          0.353291D+00      0.897976D+00      0.299533D+01

 Dipole polarizability, Alpha (dipole orientation).
 (esu units = cm**3 , SI units = C**2 m**2 J**-1)
 Alpha(0;0):
               (au)            (10**-24 esu)      (10**-40 SI)
   iso        0.694601D+02      0.102929D+02      0.114524D+02
   aniso      0.300004D+02      0.444560D+01      0.494640D+01
   xx         0.603974D+02      0.894997D+01      0.995819D+01
   yx        -0.261980D+01     -0.388214D+00     -0.431946D+00
   yy         0.649940D+02      0.963112D+01      0.107161D+02
   zx        -0.102156D+02     -0.151380D+01     -0.168433D+01
   zy         0.679960D+01      0.100760D+01      0.112110D+01
   zz         0.829888D+02      0.122977D+02      0.136830D+02

 ----------------------------------------------------------------------
 1\1\GINC-AJ\Freq\UM062X\6-31+G\C5H7O3(2)\AAYUSH\20-Jun-2025\0\\# freq 
 6-31+g m062x\\Title Card Required\\0,2\O,-1.345973,1.751369,0.104567\H
 ,-1.979148,1.832886,0.836039\C,-2.731278,-0.465129,-0.448926\H,-3.7594
 39,-0.519194,-0.721696\C,-1.567471,-0.353428,-0.155345\C,-0.165904,-0.
 548691,0.223816\O,0.16971,-0.88838,1.323269\O,0.638128,-0.336983,-0.81
 0013\C,2.051944,-0.423265,-0.538869\C,2.541635,0.844261,0.132276\H,2.5
 01504,-0.562435,-1.520279\H,2.238542,-1.304128,0.076502\H,3.623559,0.7
 93437,0.269226\H,2.306407,1.71319,-0.48357\H,2.074035,0.965075,1.10975
 7\\Version=ES64L-G16RevA.03\State=2-A\HF=-419.9563874\S2=0.762233\S2-1
 =0.\S2A=0.750074\RMSD=3.267e-09\RMSF=1.348e-02\ZeroPoint=0.1113856\The
 rmal=0.1187207\Dipole=-0.3121924,0.0268894,-0.163179\DipoleDeriv=-0.30
 43434,0.1740918,-0.1234568,0.0746061,0.0025015,0.114571,-0.1549112,0.0
 197137,-0.218581,0.200077,-0.0548141,0.1202788,-0.0024932,0.3658171,0.
 0014832,0.1482767,0.0396967,0.1942716,-0.2695357,0.3208309,0.0443228,0
 .0224864,-0.1676447,0.0181332,0.0402863,0.0839811,-0.1713053,0.268318,
 0.018416,0.0074768,0.0141498,0.2332578,-0.0050405,-0.0031531,-0.004435
 3,0.2597921,-0.5202067,-0.3407764,-0.1406407,-0.0256189,-0.5664341,-0.
 1091498,-0.1395984,-0.0965125,-0.14346,2.1116398,-0.235576,-0.1125351,
 0.0082444,0.6387082,-0.3161737,-0.4650878,-0.442167,1.5977408,-0.78290
 86,0.1309345,-0.1759924,0.0080674,-0.4668174,0.2144374,0.0380885,0.290
 2524,-1.0131541,-1.5468603,-0.0830478,0.3716696,-0.0967115,-0.3969682,
 0.0492628,0.5160973,0.0944098,-0.8378096,0.8974439,0.0735119,-0.097116
 1,0.0072973,0.3211495,0.0674464,0.0262491,0.012509,0.2840738,-0.086219
 4,-0.0268905,0.0338338,-0.0492692,-0.0743025,-0.0865901,-0.0296024,-0.
 0543678,-0.0160566,-0.0108517,-0.0034555,0.0333695,-0.0067108,0.072834
 3,-0.0305998,0.0800246,-0.0557631,-0.0722908,-0.007666,-0.0363045,0.02
 03962,0.0271663,-0.0570712,0.0333884,-0.0679208,0.0744792,0.0492707,-0
 .1483872,-0.0096436,-0.0275692,0.0180568,0.0813517,0.0025281,-0.026900
 6,-0.0121481,0.110169,0.1084527,0.0510244,-0.042022,0.0031048,-0.04371
 3,0.0460545,-0.0292883,0.0848936,0.0147123,0.0910476,0.0216988,0.08798
 46,-0.0023757,0.0573309,0.0002489,0.0674402,-0.0345417,-0.0373729\Pola
 r=87.1238538,5.9264258,64.2261357,4.0459604,1.2505271,57.0302075\Quadr
 upole=10.427972,-4.0518005,-6.3761715,-0.3468457,-1.6464926,4.2558461\
 PG=C01 [X(C5H7O3)]\NImag=5\\0.22429424,-0.02749606,0.01138842,-0.26265
 419,0.03463430,0.29370082,-0.22062453,0.02922426,0.26176368,0.22085852
 ,0.02167267,-0.00129055,-0.02851430,-0.02572469,0.00821171,0.26045730,
 -0.03612060,-0.29239368,-0.26047603,0.03436313,0.29195839,-0.00520361,
 -0.02941556,-0.00234854,0.00100299,0.00098031,-0.00150052,1.48858024,-
 0.00373487,-0.01475913,-0.00338151,-0.00084680,-0.00123276,0.00013360,
 0.10169513,0.05891892,-0.00117159,-0.00818112,0.00002383,-0.00037743,-
 0.00057364,-0.00009493,0.36715435,0.02805307,0.14992593,0.00019795,0.0
 0033117,0.00002678,0.00003723,-0.00028495,-0.00008627,-0.40635375,-0.0
 2066102,-0.09962931,0.39563787,0.00026935,0.00003455,0.00033623,-0.000
 50518,0.00010210,-0.00045846,-0.01553109,-0.02799107,-0.00505517,0.020
 08126,0.01757900,-0.00023556,0.00002733,-0.00000291,-0.00011572,-0.000
 14962,-0.00012644,-0.09997533,-0.00649059,-0.05628873,0.10029790,0.006
 08451,0.04411115,0.00314989,0.02227348,0.00343433,-0.00096841,0.002096
 59,0.00056882,-1.08374351,-0.08080464,-0.26486127,0.01085419,-0.004831
 72,0.00165285,1.40688889,0.00462739,0.01939800,-0.00150711,-0.00256288
 ,-0.00435044,0.00217012,-0.04356462,-0.01752267,-0.01000540,0.00061792
 ,0.00665619,0.00115182,0.01549237,0.03125039,0.00470963,0.00903747,-0.
 00102734,-0.00219824,-0.00474677,-0.00011210,-0.26300596,-0.01813879,-
 0.10288460,0.00061330,-0.00083602,0.00814494,0.31974281,-0.01130376,0.
 20085694,-0.00283374,0.00857612,-0.00159306,-0.00069657,0.00294420,0.0
 0328926,0.01692028,0.00549791,-0.00000355,-0.00118914,0.00033527,-0.00
 170734,-0.25952366,0.00567953,-0.04644168,0.67831486,0.00253681,-0.015
 96087,-0.00057430,-0.00011834,-0.00089321,-0.00023094,-0.01786793,0.00
 163993,-0.00420280,-0.00031036,0.00493525,-0.00042454,0.03357566,-0.06
 457691,0.00610557,-0.05943709,0.26050656,-0.00316348,0.00227033,-0.003
 43466,0.00381262,-0.00168370,0.00177954,-0.00065310,0.00121905,0.00820
 200,-0.00106310,0.00033244,0.00423399,-0.03576592,-0.00315643,-0.07814
 948,0.10455506,-0.23443833,0.99304486,0.00053983,-0.00105153,0.0009694
 7,-0.00028645,-0.00074052,-0.00097893,-0.00498216,-0.00170991,0.000837
 68,0.00010573,-0.00003785,0.00128352,-0.02221433,0.02211664,-0.0524824
 3,-0.15661550,0.06625354,-0.20833190,0.15748486,0.00089784,0.00080547,
 0.00045941,-0.00020106,0.00011363,0.00010310,0.00219337,0.00020566,0.0
 0004920,0.00015561,-0.00069829,-0.00035586,0.01130332,0.01466897,0.017
 38659,0.06278309,-0.12042896,0.19891074,-0.07382494,0.08810489,0.00120
 072,-0.00234439,0.00283215,-0.00156604,0.00069633,-0.00154359,-0.00060
 511,0.00005441,0.00074100,-0.00004802,-0.00050588,0.00035313,-0.034232
 86,0.01787045,-0.02726239,-0.19810707,0.19834558,-0.69808738,0.2196123
 9,-0.24576349,0.82121647,-0.00052556,-0.00186129,0.00051050,0.00064666
 ,-0.00123934,-0.00128119,-0.00728686,-0.00023773,-0.00250721,0.0008615
 4,0.00034101,-0.00109529,-0.05617003,0.00064423,0.03723947,-0.21330846
 ,-0.02773188,0.13694644,0.02414118,-0.00458367,0.02387158,0.55158692,0
 .00152391,-0.00065503,-0.00141528,0.00076652,-0.00065576,0.00000396,0.
 00059585,0.00077642,-0.00041271,0.00002759,-0.00038373,0.00015086,0.00
 137904,0.00973440,0.00136997,-0.01843335,-0.06826467,0.03883102,-0.009
 18840,0.02217832,0.03182142,0.01574102,0.09557268,0.00106090,0.0002215
 7,0.00039436,-0.00085815,0.00054549,0.00044352,-0.00001285,-0.00112555
 ,-0.00008816,-0.00011137,0.00010827,-0.00060595,0.00644963,0.00257316,
 0.00322909,0.09810961,0.03866278,-0.23067030,0.03395015,0.03108858,-0.
 09754907,-0.12219305,-0.07892804,0.40648441,0.00064594,-0.00032848,-0.
 00040226,0.00008717,0.00049234,0.00027783,0.00221548,0.00040500,0.0010
 0145,-0.00029938,-0.00006776,-0.00003560,0.00328037,-0.00344110,-0.000
 48459,-0.06143755,-0.00253996,0.02666589,-0.00013362,0.00535834,-0.017
 49568,-0.20059865,0.01173740,-0.01075090,0.48727402,-0.00034746,0.0012
 4265,-0.00008649,-0.00003802,-0.00004539,0.00007072,0.00099808,-0.0000
 1263,0.00027527,0.00005793,-0.00024310,0.00002044,-0.00031854,0.004938
 31,0.00134832,-0.00654281,0.00388323,-0.00770969,0.00240250,-0.0053115
 3,0.00082270,0.01687490,-0.06572390,0.01113858,-0.02241721,0.56615429,
 -0.00030404,0.00047835,-0.00005761,-0.00003737,0.00013491,0.00009442,0
 .00102662,-0.00035902,0.00057786,-0.00000223,0.00000433,0.00020854,0.0
 0374938,0.00215983,-0.00340169,0.04193188,-0.00461239,0.00573295,0.001
 71478,-0.00073567,-0.00241224,-0.04604201,0.01037712,-0.08707709,-0.06
 541204,-0.03888383,0.63590804,-0.00004965,0.00014701,-0.00003631,-0.00
 002816,-0.00013232,-0.00008686,-0.00024373,0.00007264,-0.00004685,0.00
 009884,-0.00007469,-0.00002588,-0.00055554,0.00148564,0.00085299,0.002
 34144,-0.00071804,-0.00898237,0.00068813,-0.00159078,0.00266549,-0.038
 17740,-0.03623612,-0.01892697,-0.08326390,-0.02057315,-0.00742635,0.59
 082018,0.00004197,-0.00015727,0.00007320,-0.00009153,0.00006834,0.0000
 5075,0.00016852,-0.00005045,0.00009334,-0.00002019,-0.00000480,-0.0000
 1301,-0.00023623,-0.00029788,-0.00025935,-0.00044521,-0.00041277,0.003
 94970,-0.00119865,-0.00033978,-0.00162481,-0.00027980,0.00538930,-0.00
 231846,-0.03256846,-0.18564071,-0.04948627,-0.02985846,0.53377039,-0.0
 0011730,0.00005654,-0.00028158,0.00019346,-0.00012522,0.00005288,0.000
 01709,-0.00004261,-0.00007095,0.00000723,-0.00000464,0.00000874,-0.000
 40482,0.00046439,0.00015792,0.00152271,0.00083822,0.00227610,-0.001227
 59,-0.00154353,-0.00039821,-0.00823313,-0.00530075,-0.00106282,-0.0123
 8569,-0.04835740,-0.11399816,-0.01558031,-0.03588680,0.58346733,-0.000
 00929,-0.00010132,0.00000367,0.00000527,-0.00008015,-0.00005301,-0.000
 64405,0.00010017,-0.00026068,0.00004132,0.00002037,-0.00004311,-0.0010
 9360,-0.00048972,0.00113500,-0.00430783,0.00354344,-0.00491329,0.00157
 340,-0.00048911,0.00089748,-0.03541226,0.00190685,0.03443427,-0.087129
 15,0.01420502,0.09466405,0.00701361,-0.00208123,-0.01150880,0.11513113
 ,0.00003673,0.00002975,0.00004461,-0.00002429,-0.00002271,-0.00000874,
 -0.00001450,0.00001443,0.00004402,0.00001103,-0.00000580,0.00000013,0.
 00019314,0.00015372,-0.00012722,-0.00002264,-0.00054599,0.00252615,-0.
 00155916,0.00058252,-0.00038506,0.00300021,0.00092878,-0.00286905,0.01
 395176,-0.05785569,-0.02712555,0.01112837,-0.00503417,-0.02942216,-0.0
 1343386,0.05929176,0.00006862,-0.00008289,0.00004402,-0.00002891,0.000
 01351,-0.00001957,-0.00004094,0.00019672,-0.00002333,-0.00000989,-0.00
 002761,-0.00002830,0.00000212,-0.00059222,0.00027692,-0.00335760,0.000
 66785,-0.00049190,0.00141182,-0.00039102,0.00074627,-0.00809698,0.0019
 9972,0.00818146,0.10923834,-0.02858939,-0.28629279,0.00461211,-0.00119
 890,-0.01173520,-0.10972695,0.03382292,0.30291028,-0.00006946,-0.00017
 477,0.00011398,-0.00003272,0.00001268,-0.00003336,-0.00020101,0.000245
 53,-0.00009715,0.00003619,0.00001156,-0.00000895,-0.00002044,-0.000941
 96,0.00027013,0.00240177,0.00345776,-0.00871866,0.00071391,-0.00101571
 ,0.00367286,-0.02896409,0.03095766,-0.02172990,-0.05546208,0.02785571,
 -0.01652778,0.00424810,-0.01050234,0.00679238,0.00453813,-0.01159890,0
 .00740403,0.07290959,0.00000737,-0.00002239,-0.00001446,0.00002215,-0.
 00003247,-0.00002862,-0.00017289,-0.00000640,-0.00001552,-0.00000877,0
 .00002057,0.00001152,0.00005099,-0.00013988,-0.00032065,-0.00025327,-0
 .00007864,0.00357116,-0.00247924,0.00058633,-0.00104600,0.00350374,0.0
 0178860,0.00024511,0.03693371,-0.23065454,0.12437722,0.00291863,-0.023
 55496,0.01602332,-0.00132007,0.00483978,-0.00375945,-0.03743010,0.2487
 8249,-0.00000720,0.00011826,0.00001872,-0.00000932,-0.00006096,-0.0000
 0621,-0.00010774,-0.00014662,-0.00001925,0.00002112,0.00000848,0.00000
 445,-0.00032713,0.00069503,-0.00002209,0.00286921,-0.00013771,-0.00013
 690,0.00129316,-0.00085073,-0.00062804,-0.00701360,0.00307993,-0.00273
 123,-0.02523819,0.12765391,-0.14231802,0.00273668,-0.01615052,0.009762
 10,-0.00452872,0.02457822,-0.01494910,0.03069183,-0.13668571,0.1510100
 2,-0.00014790,0.00007170,-0.00005062,0.00001769,-0.00002996,0.00001245
 ,-0.00008085,-0.00001358,-0.00000527,0.00003685,0.00000721,0.00000933,
 -0.00018590,0.00020968,0.00000537,0.00170274,0.00060277,-0.00123217,-0
 .00011642,-0.00047091,0.00041426,-0.00031857,-0.00289633,-0.00030228,-
 0.01108557,0.00408130,0.00032207,-0.31837928,0.01276824,-0.03410564,0.
 00029635,-0.00008968,-0.00038741,0.00014815,-0.00046322,0.00021518,0.3
 4812486,0.00010131,0.00004795,0.00006610,0.00000922,-0.00007016,-0.000
 07568,-0.00019142,0.00000360,-0.00005269,0.00001428,-0.00001152,-0.000
 00754,-0.00006685,0.00053113,0.00031414,0.00084569,-0.00015314,-0.0027
 2197,0.00029883,-0.00035361,0.00093343,-0.00569039,-0.00554415,-0.0024
 0274,-0.02900773,0.00300219,-0.00235551,0.01526036,-0.05010843,0.00141
 593,0.00062225,0.00117833,-0.00002056,0.00057831,0.00047991,0.00113061
 ,-0.01386218,0.05170649,0.00006732,-0.00000928,0.00010094,-0.00005521,
 -0.00000441,-0.00002962,-0.00007385,0.00002177,-0.00000606,0.00000584,
 -0.00000083,-0.00000260,-0.00005830,-0.00000040,0.00009660,0.00034924,
 -0.00002199,-0.00249158,0.00049801,0.00032237,0.00098459,-0.00350580,-
 0.00365918,-0.00021395,-0.01500353,0.00261311,-0.00211674,-0.03269591,
 0.00077973,-0.05217976,0.00038310,0.00062109,-0.00017511,0.00024034,0.
 00027938,0.00045526,0.03828905,0.00026316,0.05298638,0.00017767,-0.000
 00330,0.00001684,0.00006866,-0.00004099,-0.00006215,-0.00006986,-0.000
 00455,-0.00001582,-0.00003050,-0.00001019,-0.00000338,0.00016719,0.000
 16629,-0.00000844,-0.00053020,-0.00071867,0.00159393,-0.00044705,0.000
 02763,-0.00074684,0.00204733,0.00085809,0.00045564,0.00118255,-0.01234
 880,0.00547349,-0.06269193,0.04982467,-0.03382428,0.00006824,0.0008489
 6,0.00021989,-0.00025544,-0.00214028,-0.00107058,-0.00633895,0.0276094
 1,-0.01964727,0.06315527,0.00000123,-0.00001580,-0.00000814,0.00004418
 ,-0.00001628,-0.00004964,-0.00009050,0.00000590,-0.00004139,-0.0000058
 2,-0.00000137,0.00000604,-0.00001683,0.00006700,0.00003174,-0.00003003
 ,-0.00052350,0.00078657,-0.00020240,0.00021489,-0.00048612,0.00130670,
 0.00327449,0.00032369,0.00675136,-0.02797283,0.01752398,0.04686262,-0.
 22125709,0.12438646,0.00023381,0.00111616,-0.00000495,-0.00198326,-0.0
 0316979,-0.00357975,-0.00075565,-0.00013364,0.00006447,-0.05144304,0.2
 4500249,-0.00011476,-0.00004616,-0.00009699,0.00000582,0.00011444,0.00
 007353,0.00016417,0.00000561,0.00001369,0.00000138,0.00000397,0.000005
 41,-0.00006887,-0.00041751,0.00000630,-0.00058764,0.00053352,-0.000296
 38,0.00056538,0.00035650,0.00028729,0.00211241,0.00113223,0.00017902,0
 .00244801,-0.01754478,0.00963632,-0.03421912,0.12737511,-0.14207868,0.
 00057415,0.00051394,0.00094625,-0.00169103,-0.00301834,-0.00110846,0.0
 0044006,0.00238079,-0.00262034,0.03869895,-0.13576874,0.15090932,0.000
 45821,-0.00019143,0.00024574,-0.00008734,0.00007412,-0.00004734,0.0000
 9041,-0.00000328,-0.00001733,-0.00003495,-0.00000756,0.00000256,0.0001
 3489,-0.00003940,0.00005262,-0.00123846,-0.00052772,-0.00074994,-0.000
 45150,-0.00054302,0.00046681,0.00147825,0.00126028,0.00042527,0.004724
 37,-0.00388943,-0.01313044,-0.10182072,0.01447870,0.10885470,-0.000071
 26,-0.00242715,-0.00130826,0.00000938,0.00083125,0.00047530,-0.0136732
 1,0.00347890,0.03120697,0.00349702,-0.00067239,-0.00832889,0.10698490,
 -0.00013818,-0.00008575,-0.00011227,0.00004646,0.00011395,0.00007732,0
 .00021724,0.00001025,0.00002557,-0.00000566,0.00001204,-0.00001149,-0.
 00008980,-0.00051034,0.00013875,-0.00149742,0.00087368,-0.00268704,0.0
 0092110,-0.00032850,0.00161144,0.00021229,0.00158425,0.00273660,0.0147
 4079,-0.00576036,-0.03149748,0.01130830,-0.05236972,-0.02250174,-0.002
 63645,-0.00467085,-0.00203372,0.00052782,0.00116140,0.00034755,0.00084
 061,-0.00057496,-0.00126900,-0.01262523,0.00340937,0.02437942,-0.01182
 187,0.05713557,0.00020365,-0.00005972,0.00017993,-0.00005314,-0.000009
 18,-0.00007615,-0.00003829,0.00000047,-0.00000829,-0.00002338,0.000010
 38,-0.00001542,0.00011923,-0.00010197,0.00009099,-0.00082903,-0.000510
 51,-0.00151086,0.00088448,0.00096380,0.00072002,-0.00071212,0.00094975
 ,0.00108671,0.00757694,-0.00277147,-0.01448379,0.10715968,-0.02538371,
 -0.27391973,-0.00105716,-0.00221327,0.00061011,-0.00037871,0.00038103,
 0.00066878,-0.00362438,0.00113253,0.00521199,0.00892001,-0.00318422,-0
 .01585625,-0.11814778,0.03079608,0.29730196\\-0.01281004,-0.00927581,0
 .01018718,0.01129451,-0.00301420,-0.01274133,0.02230635,-0.00055195,0.
 00546617,0.00078827,0.00027859,0.00023507,-0.02452829,0.01507682,-0.00
 377916,0.04306236,-0.01325874,0.03102153,-0.01782753,0.01371110,-0.045
 87960,-0.00264523,-0.00274176,0.01460344,-0.01747309,0.00091984,0.0030
 5585,-0.00050138,-0.00035159,-0.00017198,-0.00037936,0.00015842,0.0006
 7712,-0.00054605,0.00115527,-0.00109980,-0.00139520,-0.00033707,-0.000
 50690,0.00036138,-0.00102613,0.00048234,0.00029331,-0.00074278,-0.0015
 4994\\\@


     SCHOPENHAUER'S LAW OF ENTROPY
 IF YOU PUT A SPOONFUL OF WINE IN A BARREL FULL
 OF SEWAGE, YOU GET SEWAGE.
 IF YOU PUT A SPOONFUL OF SEWAGE IN A BARREL FULL
 OF WINE, YOU GET SEWAGE.
 Job cpu time:       0 days  0 hours 20 minutes  3.7 seconds.
 Elapsed time:       0 days  0 hours  0 minutes 50.2 seconds.
 File lengths (MBytes):  RWF=     59 Int=      0 D2E=      0 Chk=      8 Scr=      1
 Normal termination of Gaussian 16 at Fri Jun 20 13:32:09 2025.
