 Entering Gaussian System, Link 0=g16
 Initial command:
 /opt/g16/l1.exe "/home/aayush/scratches/g16/Gau-44382.inp" -scrdir="/home/aayush/scratches/g16/"
 Entering Link 1 = /opt/g16/l1.exe PID=     44385.
  
 Copyright (c) 1988,1990,1992,1993,1995,1998,2003,2009,2016,
            Gaussian, Inc.  All Rights Reserved.
  
 This is part of the Gaussian(R) 16 program.  It is based on
 the Gaussian(R) 09 system (copyright 2009, Gaussian, Inc.),
 the Gaussian(R) 03 system (copyright 2003, Gaussian, Inc.),
 the Gaussian(R) 98 system (copyright 1998, Gaussian, Inc.),
 the Gaussian(R) 94 system (copyright 1995, Gaussian, Inc.),
 the Gaussian 92(TM) system (copyright 1992, Gaussian, Inc.),
 the Gaussian 90(TM) system (copyright 1990, Gaussian, Inc.),
 the Gaussian 88(TM) system (copyright 1988, Gaussian, Inc.),
 the Gaussian 86(TM) system (copyright 1986, Carnegie Mellon
 University), and the Gaussian 82(TM) system (copyright 1983,
 Carnegie Mellon University). Gaussian is a federally registered
 trademark of Gaussian, Inc.
  
 This software contains proprietary and confidential information,
 including trade secrets, belonging to Gaussian, Inc.
  
 This software is provided under written license and may be
 used, copied, transmitted, or stored only in accord with that
 written license.
  
 The following legend is applicable only to US Government
 contracts under FAR:
  
                    RESTRICTED RIGHTS LEGEND
  
 Use, reproduction and disclosure by the US Government is
 subject to restrictions as set forth in subparagraphs (a)
 and (c) of the Commercial Computer Software - Restricted
 Rights clause in FAR 52.227-19.
  
 Gaussian, Inc.
 340 Quinnipiac St., Bldg. 40, Wallingford CT 06492
  
  
 ---------------------------------------------------------------
 Warning -- This program may not be used in any manner that
 competes with the business of Gaussian, Inc. or will provide
 assistance to any competitor of Gaussian, Inc.  The licensee
 of this program is prohibited from giving any competitor of
 Gaussian, Inc. access to this program.  By using this program,
 the user acknowledges that Gaussian, Inc. is engaged in the
 business of creating and licensing software in the field of
 computational chemistry and represents and warrants to the
 licensee that it is not a competitor of Gaussian, Inc. and that
 it will not use this program in any manner prohibited above.
 ---------------------------------------------------------------
  

 Cite this work as:
 Gaussian 16, Revision A.03,
 M. J. Frisch, G. W. Trucks, H. B. Schlegel, G. E. Scuseria, 
 M. A. Robb, J. R. Cheeseman, G. Scalmani, V. Barone, 
 G. A. Petersson, H. Nakatsuji, X. Li, M. Caricato, A. V. Marenich, 
 J. Bloino, B. G. Janesko, R. Gomperts, B. Mennucci, H. P. Hratchian, 
 J. V. Ortiz, A. F. Izmaylov, J. L. Sonnenberg, D. Williams-Young, 
 F. Ding, F. Lipparini, F. Egidi, J. Goings, B. Peng, A. Petrone, 
 T. Henderson, D. Ranasinghe, V. G. Zakrzewski, J. Gao, N. Rega, 
 G. Zheng, W. Liang, M. Hada, M. Ehara, K. Toyota, R. Fukuda, 
 J. Hasegawa, M. Ishida, T. Nakajima, Y. Honda, O. Kitao, H. Nakai, 
 T. Vreven, K. Throssell, J. A. Montgomery, Jr., J. E. Peralta, 
 F. Ogliaro, M. J. Bearpark, J. J. Heyd, E. N. Brothers, K. N. Kudin, 
 V. N. Staroverov, T. A. Keith, R. Kobayashi, J. Normand, 
 K. Raghavachari, A. P. Rendell, J. C. Burant, S. S. Iyengar, 
 J. Tomasi, M. Cossi, J. M. Millam, M. Klene, C. Adamo, R. Cammi, 
 J. W. Ochterski, R. L. Martin, K. Morokuma, O. Farkas, 
 J. B. Foresman, and D. J. Fox, Gaussian, Inc., Wallingford CT, 2016.
 
 ******************************************
 Gaussian 16:  ES64L-G16RevA.03 25-Dec-2016
                16-Aug-2025 
 ******************************************
 %nprocshared=24
 Will use up to   24 processors via shared memory.
 %mem=12GB
 %chk=ethyl_propiolate_ts1.chk
 --------------------------
 # freq 6-311++g(d,p) m062x
 --------------------------
 1/10=4,30=1,38=1/1,3;
 2/12=2,17=6,18=5,40=1/2;
 3/5=4,6=6,7=1111,11=2,25=1,30=1,71=2,74=-55,140=1/1,2,3;
 4//1;
 5/5=2,38=5,98=1/2;
 8/6=4,10=90,11=11/1;
 11/6=1,8=1,9=11,15=111,16=1/1,2,10;
 10/6=1/2;
 6/7=2,8=2,9=2,10=2,28=1/1;
 7/8=1,10=1,25=1/1,2,3,16;
 1/10=4,30=1/3;
 99//99;
 -------------------
 Title Card Required
 -------------------
 Symbolic Z-matrix:
 Charge =  0 Multiplicity = 2
 O                    -1.34883   1.72327   0.10085 
 H                    -1.97903   1.82507   0.83173 
 C                    -2.72781  -0.46613  -0.4479 
 H                    -3.75464  -0.53474  -0.72304 
 C                    -1.56585  -0.31342  -0.1496 
 C                    -0.16509  -0.5432    0.22482 
 O                     0.16794  -0.89065   1.32215 
 O                     0.63812  -0.33758  -0.81021 
 C                     2.05226  -0.42398  -0.53914 
 C                     2.54127   0.8439    0.13206 
 H                     2.50165  -0.56289  -1.52062 
 H                     2.23906  -1.30489   0.07603 
 H                     3.62316   0.79321   0.26929 
 H                     2.30581   1.71274  -0.48376 
 H                     2.07346   0.9648    1.10946 
 

 GradGradGradGradGradGradGradGradGradGradGradGradGradGradGradGradGradGrad
 Berny optimization.
 Initialization pass.
 Trust Radius=3.00D-01 FncErr=1.00D-07 GrdErr=1.00D-07 EigMax=2.50D+02 EigMin=1.00D-04
 Number of steps in this run=      2 maximum allowed number of steps=      2.
 GradGradGradGradGradGradGradGradGradGradGradGradGradGradGradGradGradGrad

                          Input orientation:                          
 ---------------------------------------------------------------------
 Center     Atomic      Atomic             Coordinates (Angstroms)
 Number     Number       Type             X           Y           Z
 ---------------------------------------------------------------------
      1          8           0       -1.348833    1.723267    0.100850
      2          1           0       -1.979027    1.825070    0.831726
      3          6           0       -2.727813   -0.466131   -0.447900
      4          1           0       -3.754638   -0.534739   -0.723040
      5          6           0       -1.565848   -0.313422   -0.149600
      6          6           0       -0.165090   -0.543201    0.224817
      7          8           0        0.167942   -0.890646    1.322150
      8          8           0        0.638118   -0.337584   -0.810208
      9          6           0        2.052255   -0.423976   -0.539141
     10          6           0        2.541270    0.843897    0.132058
     11          1           0        2.501650   -0.562885   -1.520622
     12          1           0        2.239059   -1.304885    0.076027
     13          1           0        3.623164    0.793205    0.269290
     14          1           0        2.305806    1.712743   -0.483760
     15          1           0        2.073462    0.964801    1.109462
 ---------------------------------------------------------------------
                    Distance matrix (angstroms):
                    1          2          3          4          5
     1  O    0.000000
     2  H    0.970406   0.000000
     3  C    2.645029   2.729052   0.000000
     4  H    3.400777   3.337483   1.065260   0.000000
     5  C    2.063473   2.388905   1.209324   2.273459   0.000000
     6  C    2.559979   3.044243   2.650667   3.712595   1.468029
     7  O    3.259558   3.496442   3.420334   4.438029   2.346330
     8  O    3.004182   3.771269   3.387814   4.398042   2.300968
     9  C    4.072793   4.815467   4.781125   5.810860   3.640691
    10  C    3.988379   4.678175   5.460381   6.501560   4.276346
    11  H    4.762550   5.595743   5.339230   6.306986   4.299590
    12  H    4.695028   5.306595   5.064368   6.095575   3.938429
    13  H    5.061042   5.724126   6.514230   7.561754   5.322212
    14  H    3.701117   4.483627   5.485080   6.468185   4.382546
    15  H    3.647557   4.152092   5.246445   6.290742   4.057545
                    6          7          8          9         10
     6  C    0.000000
     7  O    1.198235   0.000000
     8  O    1.326159   2.252531   0.000000
     9  C    2.348290   2.689390   1.442472   0.000000
    10  C    3.042537   3.171379   2.430175   1.515634   0.000000
    11  H    3.187232   3.692556   2.007038   1.088373   2.170704
    12  H    2.526308   2.452334   2.069806   1.090563   2.170653
    13  H    4.017316   3.985276   3.369644   2.145424   1.091740
    14  H    3.420043   3.822225   2.663004   2.152423   1.090673
    15  H    2.840384   2.668132   2.727921   2.155700   1.090312
                   11         12         13         14         15
    11  H    0.000000
    12  H    1.780114   0.000000
    13  H    2.510091   2.520928   0.000000
    14  H    2.508370   3.069836   1.774279   0.000000
    15  H    3.071565   2.499377   1.771133   1.775319   0.000000
 Stoichiometry    C5H7O3(2)
 Framework group  C1[X(C5H7O3)]
 Deg. of freedom    39
 Full point group                 C1      NOp   1
 Largest Abelian subgroup         C1      NOp   1
 Largest concise Abelian subgroup C1      NOp   1
                         Standard orientation:                         
 ---------------------------------------------------------------------
 Center     Atomic      Atomic             Coordinates (Angstroms)
 Number     Number       Type             X           Y           Z
 ---------------------------------------------------------------------
      1          8           0       -1.405177    1.700765    0.095557
      2          1           0       -2.035120    1.806774    0.826051
      3          6           0       -2.785100   -0.491094   -0.440856
      4          1           0       -3.812030   -0.560831   -0.715320
      5          6           0       -1.622994   -0.337180   -0.143730
      6          6           0       -0.222209   -0.565420    0.231526
      7          8           0        0.111020   -0.907001    1.330639
      8          8           0        0.580770   -0.365733   -0.804837
      9          6           0        1.994955   -0.451155   -0.533714
     10          6           0        2.484620    0.820180    0.130425
     11          1           0        2.444014   -0.595571   -1.514555
     12          1           0        2.181624   -1.328767    0.086189
     13          1           0        3.566536    0.769847    0.267617
     14          1           0        2.249287    1.685743   -0.490048
     15          1           0        2.017142    0.946575    1.107292
 ---------------------------------------------------------------------
 Rotational constants (GHZ):           3.5859446           1.3088850           1.1862408
 Standard basis: 6-311++G(d,p) (5D, 7F)
 There are   233 symmetry adapted cartesian basis functions of A   symmetry.
 There are   225 symmetry adapted basis functions of A   symmetry.
   225 basis functions,   351 primitive gaussians,   233 cartesian basis functions
    31 alpha electrons       30 beta electrons
       nuclear repulsion energy       361.9480714429 Hartrees.
 NAtoms=   15 NActive=   15 NUniq=   15 SFac= 1.00D+00 NAtFMM=   60 NAOKFM=F Big=F
 Integral buffers will be    131072 words long.
 Raffenetti 2 integral format.
 Two-electron integral symmetry is turned on.
 One-electron integrals computed using PRISM.
 NBasis=   225 RedAO= T EigKep=  1.90D-06  NBF=   225
 NBsUse=   225 1.00D-06 EigRej= -1.00D+00 NBFU=   225
 ExpMin= 3.60D-02 ExpMax= 8.59D+03 ExpMxC= 1.30D+03 IAcc=3 IRadAn=         5 AccDes= 0.00D+00
 Harris functional with IExCor= 1009 and IRadAn=       5 diagonalized for initial guess.
 HarFok:  IExCor= 1009 AccDes= 0.00D+00 IRadAn=         5 IDoV= 1 UseB2=F ITyADJ=14
 ICtDFT=  3500011 ScaDFX=  1.000000  1.000000  1.000000  1.000000
 FoFCou: FMM=F IPFlag=           0 FMFlag=      100000 FMFlg1=           0
         NFxFlg=           0 DoJE=T BraDBF=F KetDBF=T FulRan=T
         wScrn=  0.000000 ICntrl=       500 IOpCl=  0 I1Cent=   200000004 NGrid=           0
         NMat0=    1 NMatS0=      1 NMatT0=    0 NMatD0=    1 NMtDS0=    0 NMtDT0=    0
 Petite list used in FoFCou.
 Initial guess <Sx>= 0.0000 <Sy>= 0.0000 <Sz>= 0.5000 <S**2>= 0.7500 S= 0.5000
 Requested convergence on RMS density matrix=1.00D-08 within 128 cycles.
 Requested convergence on MAX density matrix=1.00D-06.
 Requested convergence on             energy=1.00D-06.
 No special actions if energy rises.
 Restarting incremental Fock formation.
 SCF Done:  E(UM062X) =  -420.202847792     A.U. after   24 cycles
            NFock= 24  Conv=0.41D-08     -V/T= 2.0032
 <Sx>= 0.0000 <Sy>= 0.0000 <Sz>= 0.5000 <S**2>= 0.7687 S= 0.5093
 <L.S>=  0.00000000000    
 Annihilation of the first spin contaminant:
 S**2 before annihilation     0.7687,   after     0.7501
 DoSCS=F DFT=T ScalE2(SS,OS)=  1.000000  1.000000
 Range of M.O.s used for correlation:     1   225
 NBasis=   225 NAE=    31 NBE=    30 NFC=     0 NFV=     0
 NROrb=    225 NOA=    31 NOB=    30 NVA=   194 NVB=   195

 **** Warning!!: The largest alpha MO coefficient is  0.25104623D+03


 **** Warning!!: The largest beta MO coefficient is  0.23856902D+03

 Symmetrizing basis deriv contribution to polar:
 IMax=3 JMax=2 DiffMx= 0.00D+00
 G2DrvN: will do    16 centers at a time, making    1 passes.
 Calling FoFCou, ICntrl=  3107 FMM=F I1Cent=   0 AccDes= 0.00D+00.
 End of G2Drv F.D. properties file   721 does not exist.
 End of G2Drv F.D. properties file   722 does not exist.
 End of G2Drv F.D. properties file   788 does not exist.
          IDoAtm=111111111111111
          Differentiating once with respect to electric field.
                with respect to dipole field.
          Differentiating once with respect to nuclear coordinates.
 Keep R1 and R2 ints in memory in canonical form, NReq=671901991.
          There are    48 degrees of freedom in the 1st order CPHF.  IDoFFX=6 NUNeed=     3.
     45 vectors produced by pass  0 Test12= 2.47D-14 2.08D-09 XBig12= 9.37D+01 3.19D+00.
 AX will form    45 AO Fock derivatives at one time.
     45 vectors produced by pass  1 Test12= 2.47D-14 2.08D-09 XBig12= 1.98D+01 5.96D-01.
     45 vectors produced by pass  2 Test12= 2.47D-14 2.08D-09 XBig12= 7.31D-01 1.48D-01.
     45 vectors produced by pass  3 Test12= 2.47D-14 2.08D-09 XBig12= 1.11D-02 1.39D-02.
     45 vectors produced by pass  4 Test12= 2.47D-14 2.08D-09 XBig12= 1.06D-04 1.18D-03.
     45 vectors produced by pass  5 Test12= 2.47D-14 2.08D-09 XBig12= 8.82D-07 8.64D-05.
     39 vectors produced by pass  6 Test12= 2.47D-14 2.08D-09 XBig12= 8.45D-09 1.06D-05.
     20 vectors produced by pass  7 Test12= 2.47D-14 2.08D-09 XBig12= 6.15D-11 6.75D-07.
      4 vectors produced by pass  8 Test12= 2.47D-14 2.08D-09 XBig12= 5.40D-13 6.34D-08.
      3 vectors produced by pass  9 Test12= 2.47D-14 2.08D-09 XBig12= 6.87D-15 1.17D-08.
      1 vectors produced by pass 10 Test12= 2.47D-14 2.08D-09 XBig12= 7.09D-16 6.70D-09.
 InvSVY:  IOpt=1 It=  1 EMax= 6.22D-15
 Solved reduced A of dimension   337 with    48 vectors.
 Isotropic polarizability for W=    0.000000       74.36 Bohr**3.
 End of Minotr F.D. properties file   721 does not exist.
 End of Minotr F.D. properties file   722 does not exist.
 End of Minotr F.D. properties file   788 does not exist.

 **********************************************************************

            Population analysis using the SCF density.

 **********************************************************************

 Orbital symmetries:
 Alpha Orbitals:
       Occupied  (A) (A) (A) (A) (A) (A) (A) (A) (A) (A) (A) (A)
                 (A) (A) (A) (A) (A) (A) (A) (A) (A) (A) (A) (A)
                 (A) (A) (A) (A) (A) (A) (A)
       Virtual   (A) (A) (A) (A) (A) (A) (A) (A) (A) (A) (A) (A)
                 (A) (A) (A) (A) (A) (A) (A) (A) (A) (A) (A) (A)
                 (A) (A) (A) (A) (A) (A) (A) (A) (A) (A) (A) (A)
                 (A) (A) (A) (A) (A) (A) (A) (A) (A) (A) (A) (A)
                 (A) (A) (A) (A) (A) (A) (A) (A) (A) (A) (A) (A)
                 (A) (A) (A) (A) (A) (A) (A) (A) (A) (A) (A) (A)
                 (A) (A) (A) (A) (A) (A) (A) (A) (A) (A) (A) (A)
                 (A) (A) (A) (A) (A) (A) (A) (A) (A) (A) (A) (A)
                 (A) (A) (A) (A) (A) (A) (A) (A) (A) (A) (A) (A)
                 (A) (A) (A) (A) (A) (A) (A) (A) (A) (A) (A) (A)
                 (A) (A) (A) (A) (A) (A) (A) (A) (A) (A) (A) (A)
                 (A) (A) (A) (A) (A) (A) (A) (A) (A) (A) (A) (A)
                 (A) (A) (A) (A) (A) (A) (A) (A) (A) (A) (A) (A)
                 (A) (A) (A) (A) (A) (A) (A) (A) (A) (A) (A) (A)
                 (A) (A) (A) (A) (A) (A) (A) (A) (A) (A) (A) (A)
                 (A) (A) (A) (A) (A) (A) (A) (A) (A) (A) (A) (A)
                 (A) (A)
 Beta  Orbitals:
       Occupied  (A) (A) (A) (A) (A) (A) (A) (A) (A) (A) (A) (A)
                 (A) (A) (A) (A) (A) (A) (A) (A) (A) (A) (A) (A)
                 (A) (A) (A) (A) (A) (A)
       Virtual   (A) (A) (A) (A) (A) (A) (A) (A) (A) (A) (A) (A)
                 (A) (A) (A) (A) (A) (A) (A) (A) (A) (A) (A) (A)
                 (A) (A) (A) (A) (A) (A) (A) (A) (A) (A) (A) (A)
                 (A) (A) (A) (A) (A) (A) (A) (A) (A) (A) (A) (A)
                 (A) (A) (A) (A) (A) (A) (A) (A) (A) (A) (A) (A)
                 (A) (A) (A) (A) (A) (A) (A) (A) (A) (A) (A) (A)
                 (A) (A) (A) (A) (A) (A) (A) (A) (A) (A) (A) (A)
                 (A) (A) (A) (A) (A) (A) (A) (A) (A) (A) (A) (A)
                 (A) (A) (A) (A) (A) (A) (A) (A) (A) (A) (A) (A)
                 (A) (A) (A) (A) (A) (A) (A) (A) (A) (A) (A) (A)
                 (A) (A) (A) (A) (A) (A) (A) (A) (A) (A) (A) (A)
                 (A) (A) (A) (A) (A) (A) (A) (A) (A) (A) (A) (A)
                 (A) (A) (A) (A) (A) (A) (A) (A) (A) (A) (A) (A)
                 (A) (A) (A) (A) (A) (A) (A) (A) (A) (A) (A) (A)
                 (A) (A) (A) (A) (A) (A) (A) (A) (A) (A) (A) (A)
                 (A) (A) (A) (A) (A) (A) (A) (A) (A) (A) (A) (A)
                 (A) (A) (A)
 The electronic state is 2-A.
 Alpha  occ. eigenvalues --  -19.68066 -19.66273 -19.62983 -10.70591 -10.60340
 Alpha  occ. eigenvalues --  -10.58909 -10.58246 -10.53370  -1.25611  -1.16313
 Alpha  occ. eigenvalues --   -1.12303  -0.90940  -0.87388  -0.78070  -0.70622
 Alpha  occ. eigenvalues --   -0.64427  -0.62010  -0.58520  -0.57200  -0.53971
 Alpha  occ. eigenvalues --   -0.53234  -0.50306  -0.48480  -0.46084  -0.45064
 Alpha  occ. eigenvalues --   -0.41724  -0.41400  -0.39623  -0.38295  -0.36598
 Alpha  occ. eigenvalues --   -0.34629
 Alpha virt. eigenvalues --   -0.00708  -0.00215   0.00504   0.01474   0.02533
 Alpha virt. eigenvalues --    0.02784   0.03514   0.04346   0.05660   0.06187
 Alpha virt. eigenvalues --    0.07125   0.07624   0.08444   0.09831   0.10685
 Alpha virt. eigenvalues --    0.11014   0.11454   0.12532   0.12834   0.13707
 Alpha virt. eigenvalues --    0.14305   0.14705   0.15336   0.15663   0.15835
 Alpha virt. eigenvalues --    0.17043   0.17377   0.18423   0.19066   0.20694
 Alpha virt. eigenvalues --    0.21301   0.21623   0.23541   0.24248   0.24467
 Alpha virt. eigenvalues --    0.25424   0.26444   0.27880   0.29535   0.30666
 Alpha virt. eigenvalues --    0.31260   0.32071   0.32405   0.33907   0.34559
 Alpha virt. eigenvalues --    0.34683   0.35741   0.36992   0.38797   0.40525
 Alpha virt. eigenvalues --    0.41036   0.43333   0.44989   0.46791   0.49056
 Alpha virt. eigenvalues --    0.50112   0.53623   0.55218   0.56112   0.58669
 Alpha virt. eigenvalues --    0.59349   0.60639   0.63277   0.66290   0.67129
 Alpha virt. eigenvalues --    0.69967   0.70139   0.70473   0.72261   0.72414
 Alpha virt. eigenvalues --    0.73921   0.75590   0.77317   0.78508   0.79849
 Alpha virt. eigenvalues --    0.84168   0.86930   0.91543   0.93925   0.98420
 Alpha virt. eigenvalues --    1.01704   1.05006   1.06534   1.08909   1.10662
 Alpha virt. eigenvalues --    1.15199   1.17933   1.19087   1.20279   1.23591
 Alpha virt. eigenvalues --    1.24906   1.26228   1.29546   1.32637   1.35350
 Alpha virt. eigenvalues --    1.35552   1.36793   1.38203   1.41425   1.45398
 Alpha virt. eigenvalues --    1.47024   1.49075   1.51525   1.53189   1.56293
 Alpha virt. eigenvalues --    1.58542   1.59829   1.61938   1.62657   1.65477
 Alpha virt. eigenvalues --    1.66559   1.67906   1.70648   1.73417   1.74884
 Alpha virt. eigenvalues --    1.79019   1.81310   1.83847   1.86986   1.89339
 Alpha virt. eigenvalues --    1.90581   1.95054   1.99408   2.03717   2.05183
 Alpha virt. eigenvalues --    2.09928   2.10659   2.14300   2.21226   2.31841
 Alpha virt. eigenvalues --    2.35773   2.38330   2.46060   2.52020   2.53206
 Alpha virt. eigenvalues --    2.54521   2.55872   2.61476   2.62229   2.63499
 Alpha virt. eigenvalues --    2.65653   2.66545   2.72075   2.73733   2.75945
 Alpha virt. eigenvalues --    2.80663   2.83035   2.84735   2.90212   2.92172
 Alpha virt. eigenvalues --    2.94636   2.96743   2.99284   3.02509   3.05929
 Alpha virt. eigenvalues --    3.11038   3.13138   3.16111   3.18107   3.19396
 Alpha virt. eigenvalues --    3.25557   3.27203   3.31853   3.36665   3.38168
 Alpha virt. eigenvalues --    3.45248   3.50194   3.65790   3.76926   3.85642
 Alpha virt. eigenvalues --    3.86319   3.89190   3.91095   4.03348   4.12989
 Alpha virt. eigenvalues --    4.19453   4.28514   5.11623   5.13803   5.16836
 Alpha virt. eigenvalues --    5.20412   5.32685   5.47582   5.59332   5.73828
 Alpha virt. eigenvalues --    5.94964  23.61331  23.93092  23.94458  24.06150
 Alpha virt. eigenvalues --   25.05931  49.95946  50.01396  50.11430
  Beta  occ. eigenvalues --  -19.68070 -19.64821 -19.63003 -10.70567 -10.60340
  Beta  occ. eigenvalues --  -10.58949 -10.58039 -10.53371  -1.25615  -1.16352
  Beta  occ. eigenvalues --   -1.06102  -0.90407  -0.86972  -0.77856  -0.70395
  Beta  occ. eigenvalues --   -0.64332  -0.61564  -0.58461  -0.56747  -0.53204
  Beta  occ. eigenvalues --   -0.51592  -0.48993  -0.46576  -0.45123  -0.41712
  Beta  occ. eigenvalues --   -0.39492  -0.39199  -0.38409  -0.37987  -0.35928
  Beta virt. eigenvalues --   -0.09634  -0.00202   0.00370   0.00628   0.01768
  Beta virt. eigenvalues --    0.02645   0.02821   0.03530   0.04418   0.05729
  Beta virt. eigenvalues --    0.06168   0.07225   0.07566   0.08490   0.09913
  Beta virt. eigenvalues --    0.10797   0.11238   0.11676   0.12620   0.12841
  Beta virt. eigenvalues --    0.13719   0.14380   0.14970   0.15514   0.15713
  Beta virt. eigenvalues --    0.16140   0.17008   0.17482   0.18451   0.19156
  Beta virt. eigenvalues --    0.20876   0.21599   0.21740   0.23536   0.24148
  Beta virt. eigenvalues --    0.24571   0.25482   0.26587   0.28025   0.29426
  Beta virt. eigenvalues --    0.30693   0.31231   0.32085   0.32463   0.33971
  Beta virt. eigenvalues --    0.34548   0.34691   0.35850   0.37008   0.38866
  Beta virt. eigenvalues --    0.40499   0.41179   0.43273   0.44995   0.46815
  Beta virt. eigenvalues --    0.49187   0.50134   0.53637   0.55302   0.56424
  Beta virt. eigenvalues --    0.59161   0.59633   0.60928   0.63344   0.66475
  Beta virt. eigenvalues --    0.67113   0.69998   0.70310   0.70452   0.72154
  Beta virt. eigenvalues --    0.72443   0.73933   0.75575   0.77261   0.78526
  Beta virt. eigenvalues --    0.79857   0.84242   0.86982   0.91591   0.94286
  Beta virt. eigenvalues --    0.98437   1.01781   1.05317   1.07139   1.08962
  Beta virt. eigenvalues --    1.12385   1.15838   1.18253   1.19735   1.20832
  Beta virt. eigenvalues --    1.23886   1.25362   1.26458   1.29758   1.33543
  Beta virt. eigenvalues --    1.35511   1.36159   1.36972   1.38877   1.42059
  Beta virt. eigenvalues --    1.45974   1.47400   1.49297   1.51834   1.53727
  Beta virt. eigenvalues --    1.56697   1.58572   1.59841   1.62036   1.62673
  Beta virt. eigenvalues --    1.65485   1.66565   1.67916   1.70694   1.73634
  Beta virt. eigenvalues --    1.74991   1.79312   1.81357   1.84159   1.87095
  Beta virt. eigenvalues --    1.89550   1.90758   1.95595   1.99428   2.03837
  Beta virt. eigenvalues --    2.05287   2.10094   2.11773   2.14318   2.21244
  Beta virt. eigenvalues --    2.31857   2.35787   2.38595   2.46134   2.52023
  Beta virt. eigenvalues --    2.53231   2.54534   2.55967   2.61948   2.62466
  Beta virt. eigenvalues --    2.63825   2.65854   2.66689   2.72356   2.73781
  Beta virt. eigenvalues --    2.76243   2.81379   2.83162   2.87236   2.90834
  Beta virt. eigenvalues --    2.94551   2.94932   2.97639   2.99759   3.03800
  Beta virt. eigenvalues --    3.07175   3.11784   3.15771   3.16621   3.19751
  Beta virt. eigenvalues --    3.20932   3.26996   3.27572   3.31941   3.37168
  Beta virt. eigenvalues --    3.38106   3.45200   3.50810   3.65774   3.76975
  Beta virt. eigenvalues --    3.85681   3.86368   3.91073   3.92309   4.03340
  Beta virt. eigenvalues --    4.12925   4.19379   4.28510   5.13187   5.16241
  Beta virt. eigenvalues --    5.20736   5.22380   5.32771   5.47584   5.61739
  Beta virt. eigenvalues --    5.73812   5.94953  23.61393  23.93098  23.94463
  Beta virt. eigenvalues --   24.06150  25.06290  49.95476  50.01345  50.11455
          Condensed to atoms (all electrons):
               1          2          3          4          5          6
     1  O    8.096896   0.236075  -0.246260  -0.002624   0.488374  -0.327759
     2  H    0.236075   0.509901  -0.118176  -0.002591   0.084336   0.058000
     3  C   -0.246260  -0.118176  30.204267   0.621531 -10.409297 -12.969565
     4  H   -0.002624  -0.002591   0.621531   0.430439  -0.177004  -0.057669
     5  C    0.488374   0.084336 -10.409297  -0.177004  17.265591  -1.818877
     6  C   -0.327759   0.058000 -12.969565  -0.057669  -1.818877  20.858990
     7  O   -0.009494  -0.000286  -0.039102  -0.001450   0.124534   0.330330
     8  O    0.001909  -0.000914  -0.047431  -0.002844  -0.195505   0.093040
     9  C   -0.023341   0.003990  -0.238852  -0.001002  -0.414465   0.538559
    10  C    0.018484  -0.004285   0.092750   0.000170   0.114215  -0.327135
    11  H    0.000543   0.000073  -0.017291  -0.000019  -0.023705   0.049623
    12  H   -0.000991   0.000212  -0.032149  -0.000218  -0.054804   0.072865
    13  H    0.000522   0.000153  -0.008520  -0.000026  -0.009902   0.023200
    14  H   -0.001782  -0.000211   0.002449   0.000046   0.009102  -0.012280
    15  H    0.002644  -0.000220   0.033665  -0.000156   0.021140  -0.069760
               7          8          9         10         11         12
     1  O   -0.009494   0.001909  -0.023341   0.018484   0.000543  -0.000991
     2  H   -0.000286  -0.000914   0.003990  -0.004285   0.000073   0.000212
     3  C   -0.039102  -0.047431  -0.238852   0.092750  -0.017291  -0.032149
     4  H   -0.001450  -0.002844  -0.001002   0.000170  -0.000019  -0.000218
     5  C    0.124534  -0.195505  -0.414465   0.114215  -0.023705  -0.054804
     6  C    0.330330   0.093040   0.538559  -0.327135   0.049623   0.072865
     7  O    7.978455  -0.148555   0.048049  -0.070610   0.004280  -0.016629
     8  O   -0.148555   8.257003   0.121267  -0.026234  -0.093484  -0.007570
     9  C    0.048049   0.121267   5.451727   0.016595   0.448987   0.415779
    10  C   -0.070610  -0.026234   0.016595   5.496409  -0.056489  -0.038771
    11  H    0.004280  -0.093484   0.448987  -0.056489   0.532291  -0.037958
    12  H   -0.016629  -0.007570   0.415779  -0.038771  -0.037958   0.521329
    13  H   -0.002209   0.015106  -0.045757   0.398461  -0.000079  -0.004240
    14  H    0.001623  -0.001398  -0.035805   0.416121  -0.010780   0.005041
    15  H    0.001440  -0.022149  -0.009225   0.385920   0.009049  -0.010233
              13         14         15
     1  O    0.000522  -0.001782   0.002644
     2  H    0.000153  -0.000211  -0.000220
     3  C   -0.008520   0.002449   0.033665
     4  H   -0.000026   0.000046  -0.000156
     5  C   -0.009902   0.009102   0.021140
     6  C    0.023200  -0.012280  -0.069760
     7  O   -0.002209   0.001623   0.001440
     8  O    0.015106  -0.001398  -0.022149
     9  C   -0.045757  -0.035805  -0.009225
    10  C    0.398461   0.416121   0.385920
    11  H   -0.000079  -0.010780   0.009049
    12  H   -0.004240   0.005041  -0.010233
    13  H    0.533411  -0.031120  -0.038452
    14  H   -0.031120   0.529731  -0.042851
    15  H   -0.038452  -0.042851   0.550163
          Atomic-Atomic Spin Densities.
               1          2          3          4          5          6
     1  O    0.925248   0.011632  -0.333594  -0.004090  -0.014227   0.219297
     2  H    0.011632  -0.031944   0.022888   0.000358  -0.006948  -0.014708
     3  C   -0.333594   0.022888   1.725382   0.057558  -0.535504  -0.570033
     4  H   -0.004090   0.000358   0.057558  -0.009028  -0.036092  -0.023045
     5  C   -0.014227  -0.006948  -0.535504  -0.036092   0.302650   0.149364
     6  C    0.219297  -0.014708  -0.570033  -0.023045   0.149364   0.235635
     7  O    0.002033  -0.000206   0.005229  -0.000017   0.002935  -0.005961
     8  O    0.002345   0.000307  -0.019677  -0.000246   0.002740   0.022021
     9  C    0.005058  -0.000577  -0.030048  -0.000160  -0.033926   0.057291
    10  C   -0.003327   0.000704   0.030834   0.000175   0.037653  -0.059276
    11  H    0.000267  -0.000021  -0.002105  -0.000025  -0.001988   0.003556
    12  H    0.000512  -0.000058  -0.000610  -0.000049  -0.000074  -0.000743
    13  H   -0.000059   0.000031   0.001594   0.000013   0.002144  -0.003145
    14  H   -0.000047  -0.000058  -0.001082  -0.000009  -0.002159   0.002885
    15  H    0.000001  -0.000240  -0.009652  -0.000019  -0.015991   0.025327
               7          8          9         10         11         12
     1  O    0.002033   0.002345   0.005058  -0.003327   0.000267   0.000512
     2  H   -0.000206   0.000307  -0.000577   0.000704  -0.000021  -0.000058
     3  C    0.005229  -0.019677  -0.030048   0.030834  -0.002105  -0.000610
     4  H   -0.000017  -0.000246  -0.000160   0.000175  -0.000025  -0.000049
     5  C    0.002935   0.002740  -0.033926   0.037653  -0.001988  -0.000074
     6  C   -0.005961   0.022021   0.057291  -0.059276   0.003556  -0.000743
     7  O   -0.013550   0.000307   0.000020   0.000668   0.000044  -0.000361
     8  O    0.000307  -0.004859  -0.002654   0.001093   0.000027   0.000160
     9  C    0.000020  -0.002654   0.011562  -0.011012   0.000711   0.001911
    10  C    0.000668   0.001093  -0.011012   0.008632  -0.001038  -0.001663
    11  H    0.000044   0.000027   0.000711  -0.001038   0.000126   0.000300
    12  H   -0.000361   0.000160   0.001911  -0.001663   0.000300   0.000096
    13  H   -0.000016   0.000122  -0.001713   0.001909  -0.000081  -0.000215
    14  H   -0.000049  -0.000097   0.000883  -0.001028   0.000039   0.000126
    15  H   -0.000248  -0.000983   0.001828  -0.001255   0.000325   0.000649
              13         14         15
     1  O   -0.000059  -0.000047   0.000001
     2  H    0.000031  -0.000058  -0.000240
     3  C    0.001594  -0.001082  -0.009652
     4  H    0.000013  -0.000009  -0.000019
     5  C    0.002144  -0.002159  -0.015991
     6  C   -0.003145   0.002885   0.025327
     7  O   -0.000016  -0.000049  -0.000248
     8  O    0.000122  -0.000097  -0.000983
     9  C   -0.001713   0.000883   0.001828
    10  C    0.001909  -0.001028  -0.001255
    11  H   -0.000081   0.000039   0.000325
    12  H   -0.000215   0.000126   0.000649
    13  H    0.000404  -0.000374  -0.000543
    14  H   -0.000374   0.000478   0.000090
    15  H   -0.000543   0.000090  -0.000506
 Mulliken charges and spin densities:
               1          2
     1  O   -0.233198   0.811049
     2  H    0.233943  -0.018842
     3  C   -0.828018   0.341180
     4  H    0.193416  -0.014676
     5  C    0.996268  -0.149425
     6  C   -0.441563   0.038464
     7  O   -0.200379  -0.009171
     8  O    0.057760   0.000607
     9  C   -0.276507  -0.000827
    10  C   -0.415602   0.003068
    11  H    0.194958   0.000137
    12  H    0.188336  -0.000017
    13  H    0.169451   0.000071
    14  H    0.172112  -0.000401
    15  H    0.189022  -0.001216
 Sum of Mulliken charges =  -0.00000   1.00000
 Mulliken charges and spin densities with hydrogens summed into heavy atoms:
               1          2
     1  O    0.000745   0.792207
     3  C   -0.634602   0.326504
     5  C    0.996268  -0.149425
     6  C   -0.441563   0.038464
     7  O   -0.200379  -0.009171
     8  O    0.057760   0.000607
     9  C    0.106788  -0.000707
    10  C    0.114984   0.001523
 APT charges:
               1
     1  O   -0.139622
     2  H    0.252667
     3  C   -0.150790
     4  H    0.237352
     5  C   -0.473074
     6  C    1.468944
     7  O   -0.776364
     8  O   -0.937915
     9  C    0.532373
    10  C   -0.042410
    11  H   -0.013374
    12  H   -0.011238
    13  H    0.009841
    14  H    0.015951
    15  H    0.027659
 Sum of APT charges =  -0.00000
 APT charges with hydrogens summed into heavy atoms:
               1
     1  O    0.113045
     3  C    0.086562
     5  C   -0.473074
     6  C    1.468944
     7  O   -0.776364
     8  O   -0.937915
     9  C    0.507761
    10  C    0.011041
 Electronic spatial extent (au):  <R**2>=           1065.9669
 Charge=             -0.0000 electrons
 Dipole moment (field-independent basis, Debye):
    X=             -0.6686    Y=             -0.0776    Z=             -0.7015  Tot=              0.9722
 Quadrupole moment (field-independent basis, Debye-Ang):
   XX=            -30.0028   YY=            -48.9588   ZZ=            -51.1588
   XY=              0.1305   XZ=             -1.7060   YZ=              5.0947
 Traceless Quadrupole moment (field-independent basis, Debye-Ang):
   XX=             13.3707   YY=             -5.5853   ZZ=             -7.7854
   XY=              0.1305   XZ=             -1.7060   YZ=              5.0947
 Octapole moment (field-independent basis, Debye-Ang**2):
  XXX=            -35.2764  YYY=              2.8598  ZZZ=             -1.6021  XYY=              0.9636
  XXY=             -2.0629  XXZ=             -5.9644  XZZ=             -0.0253  YZZ=              6.9112
  YYZ=              3.5124  XYZ=             -6.7738
 Hexadecapole moment (field-independent basis, Debye-Ang**3):
 XXXX=           -742.2776 YYYY=           -266.6903 ZZZZ=           -174.7244 XXXY=             -2.1102
 XXXZ=             20.8145 YYYX=            -19.1600 YYYZ=              9.8362 ZZZX=            -10.5594
 ZZZY=              7.6358 XXYY=           -201.2000 XXZZ=           -181.1431 YYZZ=            -72.9142
 XXYZ=             20.1124 YYXZ=            -13.0026 ZZXY=             -8.5580
 N-N= 3.619480714429D+02 E-N=-1.708761060560D+03  KE= 4.188562369296D+02
  Exact polarizability:  91.326   7.222  72.177   4.647   2.804  59.583
 Approx polarizability:  98.446   7.561  76.100   7.552  -0.483  76.843
                          Isotropic Fermi Contact Couplings
        Atom                 a.u.       MegaHertz       Gauss      10(-4) cm-1
     1  O(17)              0.13189     -79.95042     -28.52830     -26.66859
     2  H(1)              -0.01380     -61.66475     -22.00352     -20.56915
     3  C(13)              0.04456      50.09015      17.87341      16.70827
     4  H(1)              -0.00524     -23.41767      -8.35601      -7.81130
     5  C(13)              0.01417      15.93502       5.68601       5.31535
     6  C(13)              0.01460      16.41318       5.85663       5.47485
     7  O(17)             -0.00343       2.07668       0.74101       0.69271
     8  O(17)             -0.00015       0.08796       0.03139       0.02934
     9  C(13)             -0.00002      -0.02176      -0.00777      -0.00726
    10  C(13)             -0.00052      -0.58658      -0.20931      -0.19566
    11  H(1)               0.00002       0.10724       0.03827       0.03577
    12  H(1)              -0.00005      -0.20653      -0.07369      -0.06889
    13  H(1)              -0.00000      -0.02232      -0.00797      -0.00745
    14  H(1)               0.00001       0.06017       0.02147       0.02007
    15  H(1)               0.00001       0.05639       0.02012       0.01881
 --------------------------------------------------------
       Center         ----  Spin Dipole Couplings  ----
                      3XX-RR        3YY-RR        3ZZ-RR
 --------------------------------------------------------
     1   Atom       -0.954391      2.410218     -1.455826
     2   Atom        0.004369     -0.048035      0.043667
     3   Atom       -0.196718      0.336010     -0.139291
     4   Atom        0.025470     -0.004592     -0.020878
     5   Atom        0.057669     -0.017141     -0.040528
     6   Atom        0.005392      0.011925     -0.017318
     7   Atom        0.026391     -0.038157      0.011767
     8   Atom        0.007530     -0.010960      0.003430
     9   Atom        0.002604     -0.000621     -0.001983
    10   Atom        0.003415     -0.001584     -0.001831
    11   Atom        0.001259     -0.000456     -0.000803
    12   Atom        0.001128      0.000141     -0.001269
    13   Atom        0.001763     -0.000819     -0.000944
    14   Atom        0.004481     -0.002277     -0.002204
    15   Atom        0.003889     -0.001967     -0.001922
 --------------------------------------------------------
                        XY            XZ            YZ
 --------------------------------------------------------
     1   Atom        1.609547      0.334731      0.807769
     2   Atom        0.002227     -0.123049      0.040285
     3   Atom       -0.015691     -0.016415      0.040062
     4   Atom        0.006191      0.013651      0.003488
     5   Atom       -0.004258      0.025669      0.005233
     6   Atom       -0.018693      0.004139     -0.001796
     7   Atom       -0.040985     -0.008171     -0.022034
     8   Atom       -0.010894     -0.006768      0.004548
     9   Atom       -0.002656     -0.000500      0.000346
    10   Atom       -0.001475      0.000069      0.000026
    11   Atom       -0.001181     -0.000865      0.000494
    12   Atom       -0.001560      0.000110     -0.000045
    13   Atom       -0.000464      0.000129      0.000002
    14   Atom       -0.000114     -0.001074      0.000099
    15   Atom       -0.001449      0.001945     -0.000395
 --------------------------------------------------------


 ---------------------------------------------------------------------------------
              Anisotropic Spin Dipole Couplings in Principal Axis System
 ---------------------------------------------------------------------------------

       Atom             a.u.   MegaHertz   Gauss  10(-4) cm-1        Axes

              Baa    -1.6234   117.465    41.914    39.182 -0.4213 -0.0135  0.9068
     1 O(17)  Bbb    -1.5963   115.509    41.216    38.530  0.8296 -0.4097  0.3793
              Bcc     3.2197  -232.973   -83.131   -77.711  0.3665  0.9121  0.1838
 
              Baa    -0.1131   -60.357   -21.537   -20.133  0.6633 -0.4101  0.6259
     2 H(1)   Bbb    -0.0398   -21.241    -7.579    -7.085  0.4043  0.9003  0.1614
              Bcc     0.1529    81.599    29.116    27.218 -0.6297  0.1460  0.7630
 
              Baa    -0.2011   -26.989    -9.630    -9.003  0.9680  0.0096  0.2508
     3 C(13)  Bbb    -0.1388   -18.622    -6.645    -6.212 -0.2489 -0.0896  0.9644
              Bcc     0.3399    45.612    16.275    15.214 -0.0317  0.9959  0.0843
 
              Baa    -0.0248   -13.208    -4.713    -4.406 -0.2509 -0.0897  0.9638
     4 H(1)   Bbb    -0.0058    -3.089    -1.102    -1.030 -0.2094  0.9771  0.0364
              Bcc     0.0305    16.297     5.815     5.436  0.9451  0.1927  0.2640
 
              Baa    -0.0480    -6.446    -2.300    -2.150 -0.2389 -0.1941  0.9515
     5 C(13)  Bbb    -0.0160    -2.152    -0.768    -0.718 -0.0120  0.9803  0.1970
              Bcc     0.0641     8.599     3.068     2.868  0.9710 -0.0357  0.2365
 
              Baa    -0.0182    -2.441    -0.871    -0.814 -0.2437 -0.0937  0.9653
     6 C(13)  Bbb    -0.0098    -1.316    -0.470    -0.439  0.7248  0.6437  0.2455
              Bcc     0.0280     3.757     1.341     1.253 -0.6444  0.7595 -0.0890
 
              Baa    -0.0652     4.715     1.683     1.573  0.4124  0.8633  0.2910
     7 O(17)  Bbb     0.0187    -1.354    -0.483    -0.452 -0.1975 -0.2272  0.9536
              Bcc     0.0465    -3.362    -1.200    -1.121  0.8893 -0.4508  0.0768
 
              Baa    -0.0161     1.165     0.416     0.389  0.3999  0.9135 -0.0742
     8 O(17)  Bbb    -0.0012     0.085     0.030     0.028  0.4887 -0.1441  0.8605
              Bcc     0.0173    -1.250    -0.446    -0.417  0.7754 -0.3804 -0.5041
 
              Baa    -0.0021    -0.288    -0.103    -0.096  0.3917  0.7895 -0.4726
     9 C(13)  Bbb    -0.0020    -0.270    -0.096    -0.090  0.3085  0.3712  0.8758
              Bcc     0.0042     0.558     0.199     0.186  0.8668 -0.4888 -0.0982
 
              Baa    -0.0020    -0.268    -0.096    -0.089  0.2574  0.9325 -0.2535
    10 C(13)  Bbb    -0.0018    -0.244    -0.087    -0.081  0.0569  0.2473  0.9673
              Bcc     0.0038     0.512     0.183     0.171  0.9646 -0.2633  0.0106
 
              Baa    -0.0012    -0.616    -0.220    -0.205  0.0633 -0.5025  0.8623
    11 H(1)   Bbb    -0.0010    -0.553    -0.197    -0.185  0.5335  0.7472  0.3962
              Bcc     0.0022     1.169     0.417     0.390  0.8434 -0.4350 -0.3154
 
              Baa    -0.0013    -0.680    -0.243    -0.227 -0.0873 -0.0644  0.9941
    12 H(1)   Bbb    -0.0010    -0.533    -0.190    -0.178  0.5848  0.8046  0.1034
              Bcc     0.0023     1.213     0.433     0.405  0.8065 -0.5904  0.0325
 
              Baa    -0.0010    -0.512    -0.183    -0.171 -0.1062 -0.3667  0.9243
    13 H(1)   Bbb    -0.0009    -0.475    -0.169    -0.158  0.1415  0.9145  0.3791
              Bcc     0.0018     0.987     0.352     0.329  0.9842 -0.1710  0.0453
 
              Baa    -0.0024    -1.290    -0.460    -0.430  0.1251 -0.5004  0.8567
    14 H(1)   Bbb    -0.0022    -1.191    -0.425    -0.397  0.0934  0.8656  0.4919
              Bcc     0.0047     2.482     0.886     0.828  0.9877 -0.0185 -0.1550
 
              Baa    -0.0025    -1.345    -0.480    -0.449 -0.3230 -0.1826  0.9286
    15 H(1)   Bbb    -0.0023    -1.222    -0.436    -0.408  0.1491  0.9591  0.2405
              Bcc     0.0048     2.568     0.916     0.856  0.9346 -0.2162  0.2825
 

 ---------------------------------------------------------------------------------

 Calling FoFJK, ICntrl=    100127 FMM=F ISym2X=0 I1Cent= 0 IOpClX= 1 NMat=1 NMatS=1 NMatT=0.
 Full mass-weighted force constant matrix:
 Low frequencies --- -393.8822  -50.4808  -30.0656   -8.3073   -0.0010   -0.0005
 Low frequencies ---   -0.0004   34.3719   53.0081
 ******    1 imaginary frequencies (negative Signs) ****** 
 Diagonal vibrational polarizability:
      135.9000413     399.8369759      41.7682067
 Harmonic frequencies (cm**-1), IR intensities (KM/Mole), Raman scattering
 activities (A**4/AMU), depolarization ratios for plane and unpolarized
 incident light, reduced masses (AMU), force constants (mDyne/A),
 and normal coordinates:
                      1                      2                      3
                      A                      A                      A
 Frequencies --   -393.8820                19.7972                51.1155
 Red. masses --     11.9101                 4.7819                 3.8506
 Frc consts  --      1.0887                 0.0011                 0.0059
 IR Inten    --     51.5067                 6.6379                 1.6896
  Atom  AN      X      Y      Z        X      Y      Z        X      Y      Z
     1   8    -0.06  -0.53  -0.07    -0.21  -0.01   0.28     0.24  -0.06   0.11
     2   1    -0.01  -0.15  -0.09    -0.08  -0.28   0.43     0.24  -0.03   0.11
     3   6     0.06  -0.02   0.02     0.06  -0.02  -0.20    -0.00   0.10  -0.08
     4   1     0.08  -0.27  -0.02     0.08  -0.04  -0.29    -0.00   0.19  -0.11
     5   6     0.03   0.75   0.10     0.02   0.02  -0.09    -0.00  -0.00  -0.03
     6   6     0.02   0.10   0.02     0.01   0.06  -0.00    -0.02  -0.08  -0.00
     7   8    -0.03  -0.04  -0.02    -0.03   0.20   0.05    -0.06  -0.04   0.02
     8   8     0.00  -0.01  -0.00     0.04  -0.07  -0.00     0.00  -0.15   0.00
     9   6     0.01  -0.01  -0.00     0.03  -0.12   0.03    -0.00   0.03   0.08
    10   6    -0.00  -0.01  -0.00     0.10  -0.05  -0.15    -0.18   0.21  -0.13
    11   1     0.00  -0.01  -0.01     0.04  -0.30   0.06     0.06  -0.10   0.12
    12   1     0.01  -0.02  -0.01    -0.03  -0.03   0.17     0.06   0.16   0.24
    13   1    -0.01  -0.01   0.00     0.10  -0.10  -0.11    -0.19   0.34  -0.02
    14   1    -0.01  -0.01  -0.00     0.18  -0.13  -0.30    -0.22   0.06  -0.31
    15   1    -0.01  -0.01  -0.01     0.08   0.14  -0.19    -0.29   0.35  -0.19
                      4                      5                      6
                      A                      A                      A
 Frequencies --    116.1854               146.9411               162.4176
 Red. masses --      3.6055                 5.3186                 2.6053
 Frc consts  --      0.0287                 0.0677                 0.0405
 IR Inten    --      1.5595                15.1150                 7.7503
  Atom  AN      X      Y      Z        X      Y      Z        X      Y      Z
     1   8     0.07  -0.04   0.05     0.31  -0.10   0.09     0.04  -0.03   0.03
     2   1     0.21  -0.10   0.18    -0.19   0.16  -0.37     0.12  -0.07   0.11
     3   6     0.00  -0.02   0.02    -0.03  -0.24  -0.14    -0.09  -0.08   0.20
     4   1    -0.01  -0.02   0.06     0.01  -0.43  -0.25    -0.15  -0.14   0.44
     5   6     0.01  -0.01  -0.03    -0.09  -0.06  -0.01    -0.02  -0.01  -0.11
     6   6     0.02   0.04  -0.05    -0.08   0.09   0.05    -0.01   0.04  -0.13
     7   8     0.07   0.25  -0.00    -0.06   0.12   0.05    -0.08   0.06  -0.10
     8   8    -0.01  -0.14  -0.12    -0.11   0.18   0.05     0.07   0.04  -0.06
     9   6    -0.01  -0.00  -0.09    -0.10   0.04  -0.05     0.04  -0.02   0.10
    10   6    -0.17  -0.08   0.19     0.11  -0.05  -0.03     0.04   0.01   0.03
    11   1     0.03   0.25  -0.11    -0.19   0.04  -0.10     0.14  -0.16   0.17
    12   1     0.09  -0.11  -0.26    -0.15  -0.01  -0.11    -0.09   0.03   0.21
    13   1    -0.15   0.06   0.10     0.12  -0.21  -0.13    -0.01  -0.15   0.37
    14   1    -0.35   0.03   0.41     0.17   0.01   0.04     0.38  -0.05  -0.18
    15   1    -0.12  -0.38   0.25     0.21  -0.05   0.02    -0.23   0.24  -0.13
                      7                      8                      9
                      A                      A                      A
 Frequencies --    212.1534               227.8302               259.5848
 Red. masses --      1.5728                 1.4486                 1.9024
 Frc consts  --      0.0417                 0.0443                 0.0755
 IR Inten    --     33.9855                 3.8056                31.1079
  Atom  AN      X      Y      Z        X      Y      Z        X      Y      Z
     1   8    -0.00  -0.10  -0.06    -0.01  -0.06  -0.04     0.02   0.14  -0.03
     2   1     0.55  -0.27   0.45     0.29  -0.12   0.22     0.66  -0.08   0.56
     3   6    -0.05   0.07   0.01     0.01   0.06  -0.05     0.06  -0.17  -0.03
     4   1    -0.07   0.20   0.05     0.03   0.16  -0.14     0.08  -0.37  -0.07
     5   6    -0.02  -0.07  -0.04    -0.01  -0.05   0.06     0.01   0.10   0.03
     6   6    -0.02  -0.01  -0.00     0.01  -0.01   0.03    -0.01   0.03   0.01
     7   8    -0.05   0.03   0.02     0.08   0.02   0.02    -0.02  -0.06  -0.01
     8   8     0.01   0.04   0.03    -0.05   0.04   0.00    -0.02   0.01   0.01
     9   6     0.01   0.03   0.01    -0.04   0.02  -0.03    -0.02  -0.02   0.00
    10   6     0.08   0.02  -0.01    -0.01  -0.02   0.02    -0.05  -0.01  -0.01
    11   1    -0.02   0.03  -0.01    -0.05   0.04  -0.04    -0.02  -0.03   0.01
    12   1     0.02   0.03  -0.00    -0.05   0.00  -0.06    -0.03  -0.02   0.01
    13   1     0.13   0.09  -0.32    -0.08  -0.27   0.48    -0.05   0.03  -0.00
    14   1    -0.15   0.05   0.13     0.46  -0.02  -0.16    -0.07  -0.02  -0.02
    15   1     0.35  -0.10   0.13    -0.38   0.19  -0.19    -0.05  -0.01  -0.01
                     10                     11                     12
                      A                      A                      A
 Frequencies --    335.9497               428.6412               560.2755
 Red. masses --      2.9145                 3.7410                 3.8136
 Frc consts  --      0.1938                 0.4050                 0.7053
 IR Inten    --      9.7775                 3.6238                 6.2949
  Atom  AN      X      Y      Z        X      Y      Z        X      Y      Z
     1   8     0.00  -0.03  -0.01     0.00  -0.04  -0.01    -0.00  -0.01   0.00
     2   1     0.02   0.02  -0.00    -0.05  -0.17  -0.03     0.12   0.36   0.06
     3   6     0.00   0.02  -0.04     0.09   0.03   0.06    -0.18  -0.01  -0.07
     4   1     0.02   0.06  -0.11     0.05   0.09   0.19    -0.11  -0.03  -0.34
     5   6    -0.02  -0.03   0.08     0.13  -0.06  -0.13    -0.23  -0.03   0.23
     6   6     0.01   0.04  -0.04     0.07   0.07   0.05    -0.02   0.06  -0.03
     7   8     0.20   0.01  -0.11    -0.09  -0.01   0.07    -0.01   0.01  -0.05
     8   8    -0.03   0.12  -0.06     0.07   0.22   0.09     0.14   0.04   0.04
     9   6    -0.09  -0.11   0.19     0.04  -0.13  -0.09     0.25  -0.08  -0.05
    10   6    -0.08  -0.03   0.01    -0.20  -0.10  -0.07    -0.00  -0.01  -0.02
    11   1     0.07  -0.40   0.31    -0.03  -0.12  -0.13     0.15   0.02  -0.11
    12   1    -0.37  -0.00   0.42    -0.04  -0.18  -0.12     0.29  -0.13  -0.13
    13   1    -0.04   0.15  -0.26    -0.21   0.27   0.11    -0.01   0.36   0.19
    14   1    -0.36  -0.12  -0.02    -0.41  -0.20  -0.14    -0.21  -0.11  -0.08
    15   1     0.14  -0.00   0.10    -0.43  -0.22  -0.17    -0.25  -0.13  -0.12
                     13                     14                     15
                      A                      A                      A
 Frequencies --    607.3020               698.5362               706.5577
 Red. masses --      6.5043                 1.1261                 1.3173
 Frc consts  --      1.4134                 0.3237                 0.3875
 IR Inten    --     12.6880                81.1447                21.2934
  Atom  AN      X      Y      Z        X      Y      Z        X      Y      Z
     1   8    -0.01  -0.04  -0.00    -0.03  -0.03   0.02     0.01   0.02   0.00
     2   1     0.01   0.20  -0.02     0.22   0.92   0.10    -0.04  -0.13  -0.02
     3   6     0.26   0.01   0.05     0.02  -0.03  -0.02    -0.02  -0.14   0.07
     4   1     0.36   0.29  -0.37    -0.05   0.20   0.19     0.05   0.87  -0.45
     5   6     0.14  -0.13   0.39     0.02   0.00  -0.05    -0.00   0.05  -0.03
     6   6     0.04   0.02  -0.13     0.00  -0.04  -0.01    -0.01  -0.02  -0.00
     7   8    -0.33   0.04  -0.02     0.01   0.01   0.01     0.01   0.01  -0.00
     8   8     0.00   0.03  -0.22    -0.00   0.01   0.01     0.00   0.00   0.01
     9   6    -0.03   0.03  -0.01    -0.02   0.00  -0.00     0.00  -0.00   0.00
    10   6     0.01   0.01   0.01    -0.00  -0.00  -0.00     0.00  -0.00  -0.00
    11   1     0.17  -0.15   0.11    -0.01  -0.00   0.00    -0.01   0.01  -0.01
    12   1    -0.22   0.09   0.15    -0.02   0.01   0.00     0.01  -0.01  -0.01
    13   1     0.01  -0.07  -0.04    -0.00  -0.02  -0.01     0.00   0.01   0.00
    14   1     0.03   0.06   0.08     0.00   0.00   0.00    -0.01  -0.01  -0.01
    15   1     0.07  -0.03   0.05     0.00  -0.00   0.00    -0.00   0.00  -0.00
                     16                     17                     18
                      A                      A                      A
 Frequencies --    735.8069               771.0975               803.0261
 Red. masses --      1.3250                 8.0060                 1.2053
 Frc consts  --      0.4226                 2.8047                 0.4579
 IR Inten    --     25.0320                63.0319                 5.0797
  Atom  AN      X      Y      Z        X      Y      Z        X      Y      Z
     1   8     0.01   0.02  -0.00    -0.01  -0.07   0.00     0.00  -0.00  -0.00
     2   1    -0.07  -0.25  -0.04     0.07   0.24   0.03    -0.01  -0.00  -0.00
     3   6     0.03  -0.06  -0.13     0.01  -0.02  -0.01     0.03   0.01   0.01
     4   1    -0.25   0.41   0.82    -0.05   0.38   0.13     0.04  -0.02  -0.00
     5   6    -0.02   0.02   0.08     0.02  -0.15  -0.06     0.02  -0.00   0.02
     6   6    -0.00  -0.01  -0.01     0.04   0.68   0.17    -0.02  -0.03  -0.04
     7   8    -0.01   0.00  -0.00    -0.01  -0.18  -0.09    -0.01   0.02  -0.04
     8   8    -0.00   0.00  -0.00    -0.00  -0.19  -0.02     0.01   0.01   0.04
     9   6     0.01  -0.00  -0.00    -0.05   0.00   0.03    -0.03  -0.02   0.07
    10   6     0.00   0.00   0.00    -0.02   0.01   0.01    -0.01  -0.02   0.03
    11   1     0.01  -0.00  -0.00    -0.05   0.21  -0.00    -0.09   0.52  -0.04
    12   1     0.01  -0.01  -0.00     0.12  -0.06  -0.10     0.12  -0.31  -0.38
    13   1     0.00   0.02   0.01    -0.01  -0.14  -0.10     0.02   0.03  -0.19
    14   1    -0.01  -0.00  -0.00     0.09  -0.01  -0.06    -0.05  -0.29  -0.34
    15   1    -0.01  -0.00  -0.00     0.12   0.18   0.06     0.11   0.44   0.02
                     19                     20                     21
                      A                      A                      A
 Frequencies --    897.3062               928.2828              1074.7655
 Red. masses --      3.2439                 2.7451                 4.1259
 Frc consts  --      1.5388                 1.3937                 2.8080
 IR Inten    --     16.1286                 6.3535                24.3408
  Atom  AN      X      Y      Z        X      Y      Z        X      Y      Z
     1   8     0.00  -0.00  -0.00    -0.00  -0.01  -0.00    -0.00  -0.01  -0.00
     2   1    -0.02  -0.03  -0.01    -0.00   0.02  -0.00     0.00   0.01   0.00
     3   6     0.05   0.01   0.01     0.11   0.01   0.03     0.07   0.01   0.02
     4   1     0.06   0.00  -0.02     0.12   0.01   0.04     0.07   0.01   0.04
     5   6     0.01  -0.02   0.07     0.07  -0.02   0.00     0.04  -0.01  -0.03
     6   6    -0.05   0.00  -0.11    -0.15   0.02  -0.04    -0.15   0.01   0.04
     7   8     0.00   0.05  -0.16     0.01   0.03  -0.13     0.02  -0.00  -0.02
     8   8     0.13  -0.04   0.24    -0.14  -0.04   0.11    -0.22   0.02  -0.04
     9   6    -0.09   0.09   0.02     0.03  -0.10  -0.02     0.31   0.16   0.14
    10   6    -0.11  -0.06  -0.10     0.15   0.10   0.04    -0.06  -0.17  -0.09
    11   1    -0.24  -0.02  -0.03    -0.33  -0.21  -0.17     0.33   0.28   0.14
    12   1     0.25   0.27   0.18     0.04  -0.11  -0.04     0.40   0.25   0.21
    13   1    -0.13  -0.57  -0.12     0.12   0.60   0.39    -0.06  -0.26  -0.12
    14   1     0.18   0.23   0.22    -0.16   0.07   0.12    -0.05  -0.22  -0.15
    15   1     0.04  -0.33   0.01    -0.22  -0.15  -0.10    -0.07  -0.28  -0.09
                     22                     23                     24
                      A                      A                      A
 Frequencies --   1129.5987              1204.3311              1289.4641
 Red. masses --      2.0899                 1.7715                 3.6924
 Frc consts  --      1.5712                 1.5139                 3.6173
 IR Inten    --     22.4353                 6.1492               534.5156
  Atom  AN      X      Y      Z        X      Y      Z        X      Y      Z
     1   8    -0.00   0.00   0.00    -0.00   0.00   0.00    -0.00   0.01   0.00
     2   1    -0.00  -0.00  -0.00     0.00   0.00  -0.00     0.01   0.02   0.00
     3   6    -0.01  -0.00  -0.00    -0.02  -0.00  -0.00    -0.08  -0.01  -0.02
     4   1    -0.02  -0.00  -0.01    -0.02  -0.00  -0.01    -0.08  -0.01  -0.05
     5   6    -0.01   0.00   0.01    -0.00   0.00  -0.00    -0.01   0.01   0.01
     6   6     0.03   0.00  -0.00     0.06  -0.00  -0.01     0.38   0.01  -0.14
     7   8    -0.00  -0.00   0.00    -0.01  -0.01   0.03    -0.05   0.00  -0.01
     8   8     0.06  -0.05  -0.01    -0.01   0.02  -0.07    -0.18  -0.02   0.08
     9   6    -0.12   0.19   0.05    -0.04  -0.06   0.18     0.10   0.04   0.03
    10   6     0.11  -0.15  -0.03     0.03   0.05  -0.13    -0.02  -0.02   0.06
    11   1    -0.09   0.10   0.08    -0.33   0.37  -0.02    -0.69  -0.28  -0.27
    12   1    -0.22   0.17   0.03     0.30  -0.26  -0.21     0.04   0.13   0.15
    13   1     0.09   0.46   0.20    -0.03  -0.08   0.28     0.00  -0.03  -0.13
    14   1    -0.40  -0.37  -0.15    -0.02   0.31   0.28     0.01  -0.19  -0.18
    15   1    -0.36  -0.20  -0.25    -0.07  -0.45  -0.10     0.00   0.09   0.05
                     25                     26                     27
                      A                      A                      A
 Frequencies --   1345.8896              1402.0705              1431.1339
 Red. masses --      1.2520                 1.2845                 1.3807
 Frc consts  --      1.3362                 1.4878                 1.6661
 IR Inten    --     97.8695                26.4450                13.4830
  Atom  AN      X      Y      Z        X      Y      Z        X      Y      Z
     1   8     0.00  -0.00  -0.00    -0.00   0.00   0.00    -0.00   0.00   0.00
     2   1    -0.00  -0.00   0.00     0.00   0.00   0.00     0.00   0.00   0.00
     3   6     0.01   0.00   0.00    -0.01  -0.00  -0.00    -0.01  -0.00  -0.00
     4   1     0.01   0.00   0.01    -0.01  -0.00  -0.01    -0.01  -0.00  -0.01
     5   6     0.00   0.00  -0.00    -0.00   0.00   0.00     0.00   0.00   0.00
     6   6    -0.06  -0.00   0.03     0.06  -0.00  -0.01     0.05   0.00  -0.01
     7   8     0.01  -0.01   0.02    -0.01   0.01  -0.01    -0.01   0.00  -0.01
     8   8     0.05   0.03  -0.08    -0.04   0.01   0.03    -0.04   0.01   0.02
     9   6    -0.04  -0.01  -0.00    -0.04  -0.04  -0.02    -0.08  -0.08  -0.05
    10   6    -0.00  -0.03   0.05    -0.02  -0.10  -0.05     0.07   0.07   0.04
    11   1    -0.50  -0.21  -0.18     0.33   0.25   0.11     0.43   0.28   0.14
    12   1     0.69   0.28   0.21     0.25   0.18   0.19     0.41   0.23   0.24
    13   1     0.01   0.07  -0.04    -0.02   0.47   0.21     0.07  -0.33  -0.11
    14   1    -0.02  -0.11  -0.05     0.17   0.24   0.34    -0.32  -0.17  -0.15
    15   1     0.02   0.19   0.03     0.21   0.38   0.00    -0.29  -0.18  -0.10
                     28                     29                     30
                      A                      A                      A
 Frequencies --   1491.2559              1502.3911              1515.0562
 Red. masses --      1.0400                 1.0545                 1.0935
 Frc consts  --      1.3627                 1.4024                 1.4788
 IR Inten    --     10.9300                 1.1938                21.3903
  Atom  AN      X      Y      Z        X      Y      Z        X      Y      Z
     1   8    -0.00   0.00   0.00     0.00  -0.00   0.00    -0.00  -0.00  -0.00
     2   1     0.00   0.00  -0.00    -0.00  -0.00  -0.00     0.00  -0.00   0.00
     3   6    -0.00  -0.00  -0.00     0.00   0.00   0.00     0.00   0.00   0.00
     4   1    -0.00  -0.00   0.00     0.00   0.00   0.00     0.01   0.00   0.00
     5   6     0.00  -0.00   0.00    -0.00   0.00  -0.00    -0.00  -0.00  -0.00
     6   6     0.00  -0.00   0.00    -0.01   0.00  -0.00    -0.03   0.00  -0.00
     7   8    -0.00   0.00  -0.01     0.00  -0.00   0.01     0.01  -0.00   0.01
     8   8    -0.00  -0.00   0.00     0.01  -0.00  -0.00     0.02  -0.00  -0.01
     9   6     0.01   0.02  -0.02     0.00  -0.04  -0.03     0.05  -0.05  -0.01
    10   6     0.01   0.01  -0.04    -0.03   0.03  -0.01     0.02  -0.02   0.00
    11   1    -0.00  -0.12  -0.01    -0.12   0.38  -0.13    -0.29   0.42  -0.23
    12   1    -0.00  -0.00  -0.04    -0.19   0.20   0.35    -0.38   0.14   0.37
    13   1    -0.08  -0.36   0.56    -0.05   0.14   0.28     0.03  -0.18  -0.16
    14   1    -0.55  -0.09   0.05     0.18  -0.19  -0.37    -0.20   0.14   0.29
    15   1     0.36   0.28   0.10     0.37  -0.35   0.23    -0.25   0.30  -0.16
                     31                     32                     33
                      A                      A                      A
 Frequencies --   1845.7294              2173.9516              3075.9773
 Red. masses --     11.9891                 6.1250                 1.0353
 Frc consts  --     24.0642                17.0553                 5.7712
 IR Inten    --    344.6834                87.1428                 9.2327
  Atom  AN      X      Y      Z        X      Y      Z        X      Y      Z
     1   8    -0.00   0.01  -0.00     0.00   0.01   0.00    -0.00  -0.00  -0.00
     2   1     0.02  -0.00   0.02    -0.00   0.01  -0.00    -0.00  -0.00   0.00
     3   6    -0.08  -0.01  -0.02    -0.38  -0.04  -0.10    -0.00   0.00   0.00
     4   1    -0.12  -0.02  -0.00    -0.70  -0.08  -0.19    -0.00  -0.00  -0.00
     5   6     0.06   0.00   0.00     0.53   0.01   0.13    -0.00   0.00   0.00
     6   6     0.21  -0.22   0.72    -0.10   0.03  -0.05     0.00   0.00  -0.00
     7   8    -0.15   0.15  -0.47     0.01  -0.00   0.02     0.00   0.00   0.00
     8   8     0.02   0.02  -0.07    -0.00  -0.00   0.00    -0.00  -0.00   0.00
     9   6     0.03  -0.01   0.02     0.00   0.00  -0.00    -0.00   0.00   0.00
    10   6    -0.01   0.01   0.00    -0.00  -0.00  -0.00    -0.02  -0.04  -0.02
    11   1    -0.18   0.08  -0.09     0.01  -0.00  -0.00     0.00  -0.00  -0.01
    12   1    -0.14  -0.02   0.09     0.00  -0.00  -0.00     0.00  -0.02   0.01
    13   1     0.00  -0.04  -0.06     0.00   0.00   0.00     0.62  -0.03   0.08
    14   1     0.04   0.01  -0.01     0.00  -0.00  -0.00    -0.13   0.45  -0.33
    15   1    -0.04  -0.05  -0.00     0.00   0.00   0.00    -0.23   0.05   0.47
                     34                     35                     36
                      A                      A                      A
 Frequencies --   3107.9826              3152.9390              3154.3959
 Red. masses --      1.0608                 1.1018                 1.1046
 Frc consts  --      6.0370                 6.4532                 6.4756
 IR Inten    --     19.7815                13.8559                 3.1537
  Atom  AN      X      Y      Z        X      Y      Z        X      Y      Z
     1   8     0.00  -0.00   0.00    -0.00   0.00   0.00     0.00  -0.00  -0.00
     2   1     0.00   0.00  -0.00     0.00   0.00  -0.00    -0.00  -0.00  -0.00
     3   6    -0.00   0.00  -0.00     0.00   0.00   0.00    -0.00   0.00  -0.00
     4   1     0.00   0.00   0.00    -0.00   0.00  -0.00    -0.00   0.00  -0.00
     5   6     0.00  -0.00  -0.00    -0.00  -0.00  -0.00     0.00  -0.00  -0.00
     6   6    -0.00  -0.00   0.00     0.00   0.00  -0.00     0.00  -0.00   0.00
     7   8    -0.00   0.00  -0.00    -0.00  -0.00   0.00    -0.00   0.00  -0.00
     8   8     0.00   0.00  -0.00     0.00  -0.00   0.00    -0.00  -0.00  -0.00
     9   6     0.03  -0.06  -0.00    -0.01  -0.00   0.03    -0.01  -0.02   0.05
    10   6    -0.01   0.01  -0.00    -0.06   0.05  -0.04     0.06   0.00  -0.05
    11   1    -0.23   0.06   0.50     0.14  -0.04  -0.30     0.17  -0.05  -0.37
    12   1    -0.13   0.65  -0.48    -0.01   0.05  -0.04    -0.06   0.28  -0.20
    13   1     0.12  -0.01   0.01     0.62  -0.02   0.07    -0.43   0.02  -0.07
    14   1     0.01  -0.05   0.04     0.14  -0.55   0.40     0.04  -0.11   0.07
    15   1     0.01  -0.00  -0.03    -0.02   0.01   0.01    -0.30   0.08   0.62
                     37                     38                     39
                      A                      A                      A
 Frequencies --   3175.4980              3480.6956              3811.1953
 Red. masses --      1.1074                 1.1568                 1.0674
 Frc consts  --      6.5793                 8.2570                 9.1350
 IR Inten    --     14.7086                69.2641                45.2588
  Atom  AN      X      Y      Z        X      Y      Z        X      Y      Z
     1   8    -0.00   0.00   0.00     0.00   0.00   0.00     0.04  -0.01  -0.05
     2   1     0.00   0.00  -0.00     0.00  -0.00  -0.00    -0.65   0.10   0.75
     3   6    -0.00  -0.00  -0.00    -0.11  -0.01  -0.03    -0.00   0.00  -0.00
     4   1     0.00   0.00   0.00     0.96   0.06   0.26     0.00   0.00   0.00
     5   6     0.00  -0.00   0.00     0.03   0.00   0.01     0.00   0.00   0.00
     6   6    -0.00   0.00  -0.00    -0.00   0.00  -0.00     0.00  -0.00  -0.00
     7   8     0.00  -0.00   0.00     0.00  -0.00  -0.00    -0.00   0.00  -0.00
     8   8     0.00  -0.00   0.00     0.00  -0.00  -0.00    -0.00  -0.00   0.00
     9   6     0.02   0.02  -0.07    -0.00  -0.00   0.00     0.00   0.00   0.00
    10   6     0.01   0.02  -0.05     0.00  -0.00   0.00    -0.00   0.00  -0.00
    11   1    -0.26   0.09   0.58     0.00  -0.00  -0.00    -0.00   0.00   0.00
    12   1     0.07  -0.35   0.24     0.00   0.00   0.00    -0.00  -0.00  -0.00
    13   1    -0.06   0.01  -0.02     0.00   0.00   0.00    -0.00  -0.00   0.00
    14   1     0.09  -0.31   0.22    -0.00   0.00  -0.00    -0.00  -0.00   0.00
    15   1    -0.21   0.06   0.44    -0.00  -0.00  -0.00     0.00   0.00  -0.00

 -------------------
 - Thermochemistry -
 -------------------
 Temperature   298.150 Kelvin.  Pressure   1.00000 Atm.
 Atom     1 has atomic number  8 and mass  15.99491
 Atom     2 has atomic number  1 and mass   1.00783
 Atom     3 has atomic number  6 and mass  12.00000
 Atom     4 has atomic number  1 and mass   1.00783
 Atom     5 has atomic number  6 and mass  12.00000
 Atom     6 has atomic number  6 and mass  12.00000
 Atom     7 has atomic number  8 and mass  15.99491
 Atom     8 has atomic number  8 and mass  15.99491
 Atom     9 has atomic number  6 and mass  12.00000
 Atom    10 has atomic number  6 and mass  12.00000
 Atom    11 has atomic number  1 and mass   1.00783
 Atom    12 has atomic number  1 and mass   1.00783
 Atom    13 has atomic number  1 and mass   1.00783
 Atom    14 has atomic number  1 and mass   1.00783
 Atom    15 has atomic number  1 and mass   1.00783
 Molecular mass:   115.03952 amu.
 Principal axes and moments of inertia in atomic units:
                           1         2         3
     Eigenvalues --   503.281951378.838601521.39531
           X            0.99994   0.01100  -0.00070
           Y           -0.01091   0.99697   0.07706
           Z            0.00154  -0.07704   0.99703
 This molecule is an asymmetric top.
 Rotational symmetry number  1.
 Warning -- assumption of classical behavior for rotation
           may cause significant error
 Rotational temperatures (Kelvin)      0.17210     0.06282     0.05693
 Rotational constants (GHZ):           3.58594     1.30889     1.18624
    1 imaginary frequencies ignored.
 Zero-point vibrational energy     293283.2 (Joules/Mol)
                                   70.09638 (Kcal/Mol)
 Warning -- explicit consideration of  12 degrees of freedom as
           vibrations may cause significant error
 Vibrational temperatures:     28.48    73.54   167.16   211.42   233.68
          (Kelvin)            305.24   327.80   373.48   483.36   616.72
                              806.11   873.77  1005.04  1016.58  1058.66
                             1109.44  1155.38  1291.02  1335.59  1546.35
                             1625.24  1732.76  1855.25  1936.43  2017.27
                             2059.08  2145.58  2161.61  2179.83  2655.59
                             3127.83  4425.65  4471.69  4536.38  4538.47
                             4568.83  5007.94  5483.46
 
 Zero-point correction=                           0.111706 (Hartree/Particle)
 Thermal correction to Energy=                    0.121485
 Thermal correction to Enthalpy=                  0.122429
 Thermal correction to Gibbs Free Energy=         0.074779
 Sum of electronic and zero-point Energies=           -420.091142
 Sum of electronic and thermal Energies=              -420.081363
 Sum of electronic and thermal Enthalpies=            -420.080419
 Sum of electronic and thermal Free Energies=         -420.128069
 
                     E (Thermal)             CV                S
                      KCal/Mol        Cal/Mol-Kelvin    Cal/Mol-Kelvin
 Total                   76.233             32.381            100.288
 Electronic               0.000              0.000              1.377
 Translational            0.889              2.981             40.136
 Rotational               0.889              2.981             28.447
 Vibrational             74.455             26.420             30.328
 Vibration     1          0.593              1.986              6.654
 Vibration     2          0.595              1.977              4.774
 Vibration     3          0.608              1.936              3.163
 Vibration     4          0.617              1.906              2.711
 Vibration     5          0.623              1.889              2.521
 Vibration     6          0.643              1.822              2.025
 Vibration     7          0.651              1.799              1.896
 Vibration     8          0.668              1.747              1.665
 Vibration     9          0.717              1.604              1.231
 Vibration    10          0.790              1.408              0.863
 Vibration    11          0.916              1.117              0.523
 Vibration    12          0.966              1.016              0.437
                       Q            Log10(Q)             Ln(Q)
 Total Bot       0.401979D-34        -34.395796        -79.199248
 Total V=0       0.966511D+17         16.985207         39.109884
 Vib (Bot)       0.112673D-47        -47.948180       -110.404764
 Vib (Bot)    1  0.104634D+02          1.019672          2.347881
 Vib (Bot)    2  0.404379D+01          0.606788          1.397182
 Vib (Bot)    3  0.176042D+01          0.245616          0.565552
 Vib (Bot)    4  0.138114D+01          0.140237          0.322908
 Vib (Bot)    5  0.124379D+01          0.094748          0.218166
 Vib (Bot)    6  0.935379D+00         -0.029012         -0.066803
 Vib (Bot)    7  0.865313D+00         -0.062827         -0.144664
 Vib (Bot)    8  0.748392D+00         -0.125871         -0.289829
 Vib (Bot)    9  0.554125D+00         -0.256392         -0.590365
 Vib (Bot)   10  0.406921D+00         -0.390490         -0.899136
 Vib (Bot)   11  0.277329D+00         -0.557005         -1.282552
 Vib (Bot)   12  0.244025D+00         -0.612565         -1.410484
 Vib (V=0)       0.270909D+04          3.432823          7.904368
 Vib (V=0)    1  0.109753D+02          1.040417          2.395648
 Vib (V=0)    2  0.457458D+01          0.660351          1.520515
 Vib (V=0)    3  0.233005D+01          0.367365          0.845889
 Vib (V=0)    4  0.196886D+01          0.294214          0.677454
 Vib (V=0)    5  0.184053D+01          0.264943          0.610054
 Vib (V=0)    6  0.156063D+01          0.193300          0.445089
 Vib (V=0)    7  0.149938D+01          0.175913          0.405054
 Vib (V=0)    8  0.140005D+01          0.146144          0.336508
 Vib (V=0)    9  0.124636D+01          0.095644          0.220228
 Vib (V=0)   10  0.114466D+01          0.058676          0.135106
 Vib (V=0)   11  0.107176D+01          0.030098          0.069304
 Vib (V=0)   12  0.105637D+01          0.023816          0.054839
 Electronic      0.200000D+01          0.301030          0.693147
 Translational   0.484981D+08          7.685724         17.697035
 Rotational      0.367815D+06          5.565629         12.815334
 ***** Axes restored to original set *****
 -------------------------------------------------------------------
 Center     Atomic                   Forces (Hartrees/Bohr)
 Number     Number              X              Y              Z
 -------------------------------------------------------------------
      1        8           0.000681443    0.007732897    0.001097076
      2        1           0.000065882    0.000127592   -0.000021701
      3        6          -0.001093012    0.000241789   -0.000292693
      4        1          -0.000047518    0.000262832    0.000034114
      5        6           0.000083199   -0.008359495   -0.001074205
      6        6          -0.000185314   -0.001062435   -0.000189829
      7        8           0.000449665    0.000617066    0.000281601
      8        8           0.000026294    0.000228387    0.000056081
      9        6          -0.000059821    0.000131631    0.000056073
     10        6           0.000069359    0.000054372    0.000039565
     11        1          -0.000003764    0.000004972    0.000002394
     12        1          -0.000012688    0.000008046    0.000009684
     13        1           0.000006746    0.000004256   -0.000000329
     14        1           0.000010103    0.000005188    0.000001161
     15        1           0.000009427    0.000002900    0.000001008
 -------------------------------------------------------------------
 Cartesian Forces:  Max     0.008359495 RMS     0.001737760

 GradGradGradGradGradGradGradGradGradGradGradGradGradGradGradGradGradGrad
 Berny optimization.
 Search for a local minimum.
 Step number   1 out of a maximum of    2
 All quantities printed in internal units (Hartrees-Bohrs-Radians)
 Second derivative matrix not updated -- analytic derivatives used.
 ITU=  0
     Eigenvalues ---   -0.07680   0.00002   0.00040   0.00164   0.00237
     Eigenvalues ---    0.00428   0.00521   0.00660   0.01181   0.02081
     Eigenvalues ---    0.02639   0.03248   0.03586   0.05267   0.06327
     Eigenvalues ---    0.07537   0.07630   0.08657   0.09691   0.10207
     Eigenvalues ---    0.11530   0.14136   0.17026   0.17344   0.19934
     Eigenvalues ---    0.28568   0.29429   0.43579   0.49413   0.62741
     Eigenvalues ---    0.70634   0.76563   0.79233   0.86791   0.89753
     Eigenvalues ---    0.93113   0.98247   1.73742   2.52716
 Eigenvalue     1 is  -7.68D-02 should be greater than     0.000000 Eigenvector:
                          Y5        Y1        Z5        Y6        X1
   1                    0.74639  -0.62709   0.10856   0.08278  -0.07919
                          Z1        Z2        Y2        Y4        Y7
   1                   -0.07280  -0.05917  -0.05516  -0.05133  -0.04514
 Quadratic step=7.932D-01 exceeds max=3.000D-01 adjusted using Lamda=-4.387D-05.
 Angle between NR and scaled steps=  25.25 degrees.
 Angle between quadratic step and forces=  59.58 degrees.
 Linear search not attempted -- first point.
 B after Tr=     0.001652    0.002357   -0.001103
         Rot=    0.999999    0.001405    0.000003    0.000047 Ang=   0.16 deg.
 Variable       Old X    -DE/DX   Delta X   Delta X   Delta X     New X
                                 (Linear)    (Quad)   (Total)
    X1       -2.54892   0.00068   0.00000   0.02032   0.02228  -2.52664
    Y1        3.25650   0.00773   0.00000   0.11508   0.11799   3.37449
    Z1        0.19058   0.00110   0.00000  -0.07356  -0.08416   0.10642
    X2       -3.73982   0.00007   0.00000  -0.02843  -0.02645  -3.76627
    Y2        3.44888   0.00013   0.00000   0.05427   0.06107   3.50996
    Z2        1.57173  -0.00002   0.00000  -0.10905  -0.12003   1.45171
    X3       -5.15482  -0.00109   0.00000  -0.01514  -0.01356  -5.16838
    Y3       -0.88086   0.00024   0.00000  -0.01590  -0.01529  -0.89615
    Z3       -0.84641  -0.00029   0.00000   0.05025   0.05164  -0.79477
    X4       -7.09524  -0.00005   0.00000  -0.01697  -0.01540  -7.11064
    Y4       -1.01051   0.00026   0.00000  -0.04113  -0.04174  -1.05225
    Z4       -1.36635   0.00003   0.00000   0.07254   0.07435  -1.29199
    X5       -2.95902   0.00008   0.00000  -0.00697  -0.00538  -2.96440
    Y5       -0.59228  -0.00836   0.00000  -0.11283  -0.11097  -0.70325
    Z5       -0.28270  -0.00107   0.00000   0.00705   0.00792  -0.27479
    X6       -0.31197  -0.00019   0.00000   0.00017   0.00172  -0.31026
    Y6       -1.02650  -0.00106   0.00000  -0.01111  -0.00753  -1.03403
    Z6        0.42484  -0.00019   0.00000   0.00052   0.00233   0.42717
    X7        0.31736   0.00045   0.00000   0.01982   0.02130   0.33867
    Y7       -1.68308   0.00062   0.00000  -0.02237  -0.01304  -1.69612
    Z7        2.49850   0.00028   0.00000  -0.00731  -0.00362   2.49488
    X8        1.20587   0.00003   0.00000  -0.00880  -0.00719   1.19868
    Y8       -0.63794   0.00023   0.00000   0.03526   0.03321  -0.60473
    Z8       -1.53107   0.00006   0.00000   0.00143   0.00203  -1.52904
    X9        3.87820  -0.00006   0.00000  -0.00738  -0.00579   3.87241
    Y9       -0.80120   0.00013   0.00000   0.01812   0.01721  -0.78399
    Z9       -1.01883   0.00006   0.00000  -0.01789  -0.01677  -1.03560
   X10        4.80230   0.00007   0.00000   0.00718   0.00898   4.81128
   Y10        1.59473   0.00005   0.00000  -0.01830  -0.01559   1.57915
   Z10        0.24955   0.00004   0.00000   0.03987   0.03437   0.28392
   X11        4.72743  -0.00000   0.00000  -0.01830  -0.01672   4.71071
   Y11       -1.06370   0.00000   0.00000   0.06459   0.05836  -1.00534
   Z11       -2.87356   0.00000   0.00000  -0.02981  -0.02806  -2.90162
   X12        4.23121  -0.00001   0.00000  -0.00277  -0.00135   4.22986
   Y12       -2.46588   0.00001   0.00000  -0.01411  -0.01191  -2.47779
   Z12        0.14367   0.00001   0.00000  -0.06454  -0.05864   0.08503
   X13        6.84679   0.00001   0.00000   0.00948   0.01127   6.85806
   Y13        1.49894   0.00000   0.00000  -0.02744  -0.02425   1.47469
   Z13        0.50888  -0.00000   0.00000   0.01757   0.01238   0.52126
   X14        4.35734   0.00001   0.00000  -0.00237  -0.00041   4.35694
   Y14        3.23662   0.00001   0.00000   0.01352   0.01313   3.24975
   Z14       -0.91417   0.00000   0.00000   0.08825   0.07805  -0.83613
   X15        3.91828   0.00001   0.00000   0.02490   0.02671   3.94498
   Y15        1.82321   0.00000   0.00000  -0.06868  -0.06065   1.76256
   Z15        2.09658   0.00000   0.00000   0.05424   0.04822   2.14480
         Item               Value     Threshold  Converged?
 Maximum Force            0.008359     0.000450     NO 
 RMS     Force            0.001738     0.000300     NO 
 Maximum Displacement     0.120029     0.001800     NO 
 RMS     Displacement     0.044526     0.001200     NO 
 Predicted change in Energy=-2.620655D-03
 GradGradGradGradGradGradGradGradGradGradGradGradGradGradGradGradGradGrad


 ----------------------------------------------------------------------

 Electric dipole moment (input orientation):
 (Debye = 10**-18 statcoulomb cm , SI units = C m)
                  (au)            (Debye)         (10**-30 SI)
   Tot        0.382480D+00      0.972168D+00      0.324280D+01
   x         -0.262954D+00     -0.668362D+00     -0.222942D+01
   y         -0.291334D-01     -0.740496D-01     -0.247003D+00
   z         -0.276221D+00     -0.702083D+00     -0.234190D+01

 Dipole polarizability, Alpha (input orientation).
 (esu units = cm**3 , SI units = C**2 m**2 J**-1)
 Alpha(0;0):
               (au)            (10**-24 esu)      (10**-40 SI)
   iso        0.743620D+02      0.110193D+02      0.122606D+02
   aniso      0.318010D+02      0.471243D+01      0.524328D+01
   xx         0.913181D+02      0.135319D+02      0.150563D+02
   yx         0.720304D+01      0.106738D+01      0.118762D+01
   yy         0.721515D+02      0.106917D+02      0.118962D+02
   zx         0.469423D+01      0.695613D+00      0.773974D+00
   zy         0.287577D+01      0.426145D+00      0.474150D+00
   zz         0.596165D+02      0.883425D+01      0.982943D+01

 ----------------------------------------------------------------------

 Dipole orientation:
     8         -2.07941803         -3.30852061          1.36669689
     1         -3.89886131         -3.43126173          1.17333234
     6         -3.13139881          0.65667968          4.22227409
     1         -4.17787297          0.68728755          5.94167025
     6         -1.93455663          0.47877824          2.28359431
     6         -0.48721861          1.04591685         -0.01414415
     8         -1.43626863          1.87736676         -1.89436112
     8          1.94692247          0.55583790          0.32527459
     6          3.53863541          0.83881979         -1.86944014
     6          3.26425967         -1.42433008         -3.60325872
     1          5.43789941          0.98498403         -1.09383688
     1          3.04616523          2.59716940         -2.82487062
     1          4.57226085         -1.24693923         -5.18882064
     1          3.69155008         -3.16285032         -2.58198675
     1          1.34608107         -1.53822930         -4.34678457

 Electric dipole moment (dipole orientation):
 (Debye = 10**-18 statcoulomb cm , SI units = C m)
                  (au)            (Debye)         (10**-30 SI)
   Tot        0.382480D+00      0.972168D+00      0.324280D+01
   x          0.000000D+00      0.000000D+00      0.000000D+00
   y          0.000000D+00      0.000000D+00      0.000000D+00
   z          0.382480D+00      0.972168D+00      0.324280D+01

 Dipole polarizability, Alpha (dipole orientation).
 (esu units = cm**3 , SI units = C**2 m**2 J**-1)
 Alpha(0;0):
               (au)            (10**-24 esu)      (10**-40 SI)
   iso        0.743620D+02      0.110193D+02      0.122606D+02
   aniso      0.318010D+02      0.471243D+01      0.524328D+01
   xx         0.714359D+02      0.105857D+02      0.117782D+02
   yx        -0.201092D+01     -0.297987D+00     -0.331555D+00
   yy         0.712450D+02      0.105574D+02      0.117467D+02
   zx        -0.160589D+02     -0.237968D+01     -0.264775D+01
   zy         0.691180D+01      0.102422D+01      0.113960D+01
   zz         0.804051D+02      0.119148D+02      0.132570D+02

 ----------------------------------------------------------------------
 1\1\GINC-AJ\Freq\UM062X\6-311++G(d,p)\C5H7O3(2)\AAYUSH\16-Aug-2025\0\\
 # freq 6-311++g(d,p) m062x\\Title Card Required\\0,2\O,-1.348833,1.723
 267,0.10085\H,-1.979027,1.82507,0.831726\C,-2.727813,-0.466131,-0.4479
 \H,-3.754638,-0.534739,-0.72304\C,-1.565848,-0.313422,-0.1496\C,-0.165
 09,-0.543201,0.224817\O,0.167942,-0.890646,1.32215\O,0.638118,-0.33758
 4,-0.810208\C,2.052255,-0.423976,-0.539141\C,2.54127,0.843897,0.132058
 \H,2.50165,-0.562885,-1.520622\H,2.239059,-1.304885,0.076027\H,3.62316
 4,0.793205,0.26929\H,2.305806,1.712743,-0.48376\H,2.073462,0.964801,1.
 109462\\Version=ES64L-G16RevA.03\State=2-A\HF=-420.2028478\S2=0.768746
 \S2-1=0.\S2A=0.750145\RMSD=4.116e-09\RMSF=1.738e-03\ZeroPoint=0.111705
 7\Thermal=0.1214848\Dipole=-0.2629538,-0.0291334,-0.2762206\DipoleDeri
 v=-0.3385029,0.2059699,-0.0509627,0.1248261,0.1863332,0.1317334,-0.081
 8363,0.008772,-0.2666959,0.2021553,-0.0773238,0.0510466,-0.0036629,0.3
 263224,0.01288,0.0822497,0.0746806,0.2295242,-0.256891,0.4241971,0.045
 814,0.04184,-0.0830993,0.0184513,0.0230652,0.1115626,-0.1123794,0.2785
 237,0.027106,0.0190955,0.0245196,0.2062726,-0.0004846,0.0113333,-0.000
 8213,0.2272598,-0.4852924,-0.4476708,-0.1552386,-0.1074945,-0.7817488,
 -0.1478099,-0.1191711,-0.1574431,-0.1521802,2.1301194,-0.3083159,-0.12
 02625,-0.0199888,0.6203931,-0.3494578,-0.4831598,-0.4777123,1.6563186,
 -0.8147683,0.1638604,-0.1990203,0.0319211,-0.4627535,0.2384556,0.01375
 63,0.327884,-1.0515702,-1.6300606,-0.0620922,0.3814288,-0.0805639,-0.3
 3397,0.0701179,0.5083202,0.1054957,-0.849715,0.992184,0.0774126,-0.070
 086,0.0217352,0.314813,0.0726126,0.0699987,0.0248039,0.2901212,-0.0625
 478,-0.021861,0.0365278,-0.0467425,-0.0548821,-0.0795665,-0.0279079,-0
 .0507192,-0.0098013,-0.0246086,-0.001796,0.0306291,-0.0088003,0.056164
 9,-0.0293328,0.0701012,-0.0539557,-0.0716777,-0.0170308,-0.0338362,0.0
 197806,0.0231442,-0.0561082,0.0254394,-0.0665068,0.0623558,0.0394258,-
 0.1314012,-0.0074777,-0.0234228,0.0056266,0.0659297,0.0014703,-0.02486
 41,-0.0113045,0.0949959,0.0840034,0.0440701,-0.0378361,-0.0013691,-0.0
 42859,0.0389877,-0.0307772,0.0667618,0.0067073,0.0741178,0.0177572,0.0
 725065,-0.0049908,0.0391922,-0.0034966,0.0553984,-0.0303605,-0.030333\
 Polar=91.3180531,7.2030426,72.1514791,4.6942309,2.8757681,59.6164665\Q
 uadrupole=9.9414235,-4.1937802,-5.7476432,0.1078942,-1.2645979,3.79604
 6\PG=C01 [X(C5H7O3)]\NImag=1\\0.22974735,-0.03466323,-0.00123133,-0.25
 744398,0.03633982,0.29868331,-0.22329844,0.03477864,0.25610982,0.22346
 153,0.02517940,-0.01728622,-0.03441720,-0.03037991,0.02147827,0.253845
 12,-0.04353569,-0.29604661,-0.25391595,0.04085842,0.29532911,-0.006633
 72,-0.04855563,-0.00481301,0.00160157,-0.00002099,-0.00170026,1.372526
 91,-0.00535938,-0.02138911,-0.00365221,-0.00089931,-0.00073691,-0.0003
 4100,0.12637044,0.07040850,-0.00191596,-0.01375365,-0.00020323,-0.0003
 4849,-0.00068787,-0.00036932,0.34260863,0.03469773,0.14334480,0.000156
 72,0.00056380,0.00011831,0.00005681,-0.00027245,-0.00014663,-0.3952987
 8,-0.02669762,-0.09877840,0.38568500,0.00023409,-0.00019634,0.00012491
 ,-0.00039744,0.00005643,-0.00024986,-0.01917157,-0.02629284,-0.0059669
 9,0.02524334,0.01698951,-0.00019402,0.00010479,0.00001105,-0.00010007,
 -0.00009790,-0.00010433,-0.09896872,-0.00783845,-0.05227334,0.09901151
 ,0.00728080,0.04256867,0.00140259,0.04037187,0.00643875,-0.00143708,0.
 00456950,0.00074275,-0.97546950,-0.09930425,-0.24075635,0.00909766,-0.
 00601061,0.00199534,1.28726139,0.00948302,0.05864949,0.00262725,-0.003
 67303,-0.00241132,0.00375991,-0.04402657,-0.02264961,-0.01006410,0.001
 53514,0.00632558,0.00122239,0.00928855,-0.01235930,0.00669240,0.019903
 66,-0.00259550,-0.00285357,-0.00554004,0.00032047,-0.23715974,-0.02373
 242,-0.09489622,0.00110216,-0.00088946,0.00467977,0.28812752,-0.015445
 83,0.18365010,-0.00184825,0.01195306,-0.00163517,-0.00088427,0.0023868
 5,0.00336284,0.01655686,0.00625173,0.00177813,-0.00068795,0.00014124,-
 0.00201100,-0.25002575,0.00721094,-0.04675004,0.65592150,0.00264258,-0
 .02008251,0.00006597,0.00021472,-0.00072470,-0.00091828,-0.01874419,-0
 .00072470,-0.00499840,-0.00058531,0.00420851,-0.00023607,0.03709628,-0
 .05239305,0.00782852,-0.06517738,0.28088087,-0.00259507,0.00219731,-0.
 00335400,0.00279193,-0.00123280,0.00217453,-0.00074167,0.00127297,0.00
 260769,-0.00125427,0.00020889,0.00520104,-0.03146619,-0.00190510,-0.06
 681389,0.10751223,-0.21382153,0.92254089,0.00025970,-0.00143495,0.0009
 7266,-0.00005623,-0.00069600,-0.00103078,-0.00554846,-0.00031319,-0.00
 041263,0.00020492,-0.00027031,0.00151456,-0.01844780,0.01922686,-0.045
 50647,-0.16905086,0.06295123,-0.18633679,0.16519831,0.00103156,0.00090
 681,0.00048620,-0.00021858,0.00020900,0.00020028,0.00253760,0.00076701
 ,0.00035986,0.00017063,-0.00059307,-0.00055389,0.01267602,0.01130003,0
 .01734989,0.05778511,-0.13752076,0.18180049,-0.06905337,0.10737365,0.0
 0072441,-0.00221394,0.00310501,-0.00106778,0.00061032,-0.00171108,-0.0
 0129752,-0.00060267,0.00108060,0.00002500,-0.00033154,0.00032100,-0.03
 686364,0.01915935,-0.02681070,-0.17640448,0.18083874,-0.64869108,0.195
 34802,-0.22962506,0.77271147,-0.00077203,-0.00273055,0.00062836,0.0005
 4559,-0.00097578,-0.00137759,-0.00886951,-0.00010379,-0.00241850,0.001
 00560,0.00022157,-0.00116410,-0.05257595,0.00282908,0.03431489,-0.1962
 2475,-0.01897986,0.10179279,0.02646476,-0.00657982,0.03091888,0.503225
 79,0.00170414,-0.00078278,-0.00164004,0.00061858,-0.00059697,0.0002361
 2,0.00053674,0.00065821,0.00018456,0.00000038,-0.00034198,0.00007414,0
 .00197387,0.00965468,-0.00052447,-0.01424116,-0.07545901,0.03563936,-0
 .00855631,0.02285523,0.03206768,0.00952744,0.10527087,0.00111937,0.000
 43931,0.00051974,-0.00064280,0.00043357,0.00029844,0.00095561,0.000205
 73,0.00008569,-0.00005224,-0.00014213,-0.00061704,0.00838348,-0.000708
 67,0.00565514,0.07866651,0.03542789,-0.22256031,0.03053821,0.03174504,
 -0.09787221,-0.09596341,-0.07559150,0.40454531,0.00072836,0.00016247,-
 0.00065432,0.00008696,0.00036828,0.00046386,0.00253233,0.00000879,0.00
 059322,-0.00036702,-0.00000226,0.00000815,0.00171173,-0.00300448,0.000
 05728,-0.05517363,-0.00454481,0.03458410,-0.00045808,0.00593667,-0.019
 63206,-0.17666600,0.01253690,-0.01988695,0.45308232,-0.00028505,0.0015
 8610,0.00002200,-0.00005004,0.00001645,0.00002157,0.00120410,0.0000068
 0,0.00024417,0.00004069,-0.00014997,0.00005467,-0.00045458,0.00381323,
 0.00104408,-0.00511307,0.00262208,-0.00873180,0.00244711,-0.00562226,0
 .00083006,0.01567031,-0.06910020,0.01208852,-0.02307362,0.56146154,-0.
 00034499,0.00058936,-0.00005453,-0.00001787,0.00014096,0.00010052,0.00
 124711,0.00004927,0.00068741,-0.00003897,-0.00002330,0.00025267,0.0043
 0340,0.00094985,-0.00364323,0.03434804,-0.00566186,0.01252440,0.001165
 48,-0.00054731,-0.00399749,-0.04204928,0.01155468,-0.09707444,-0.06104
 753,-0.03956426,0.63154839,0.00000026,0.00018850,0.00000865,-0.0000388
 3,-0.00010902,-0.00008571,-0.00020024,-0.00001010,-0.00000673,0.000089
 45,-0.00003446,-0.00001403,-0.00050209,0.00147389,0.00069242,0.0019420
 6,-0.00115653,-0.00925458,0.00081290,-0.00157560,0.00268385,-0.0376722
 3,-0.03491663,-0.01763059,-0.07972906,-0.02146861,-0.00802888,0.578017
 07,0.00004168,-0.00008130,0.00009077,-0.00006875,0.00003747,0.00002316
 ,0.00022360,-0.00006455,0.00006236,-0.00000935,0.00000474,-0.00001322,
 -0.00034048,-0.00025964,-0.00019452,-0.00069726,-0.00045086,0.00358095
 ,-0.00106934,-0.00019076,-0.00182344,-0.00134465,0.00587874,-0.0010776
 6,-0.03287069,-0.18466476,-0.05119583,-0.02932249,0.52190299,-0.000085
 56,0.00002794,-0.00025469,0.00014849,-0.00008710,0.00005453,0.00004975
 ,-0.00000502,-0.00002866,0.00001243,-0.00002083,0.00000403,-0.00038857
 ,0.00035222,0.00009222,0.00144760,0.00101243,0.00236610,-0.00122316,-0
 .00160178,-0.00056043,-0.00804178,-0.00448180,-0.00151152,-0.01297557,
 -0.04978293,-0.11096551,-0.01518263,-0.03506968,0.57027969,-0.00001544
 ,-0.00015823,0.00002317,0.00000189,-0.00007088,-0.00006982,-0.00070163
 ,0.00001153,-0.00025815,0.00004827,0.00002469,-0.00005234,-0.00112403,
 -0.00026590,0.00114086,-0.00371769,0.00346754,-0.00552387,0.00150754,-
 0.00055438,0.00131180,-0.03415834,0.00194609,0.03408191,-0.08593306,0.
 01363587,0.09233428,0.00683153,-0.00085578,-0.01112660,0.11268428,0.00
 003025,0.00004007,0.00003781,-0.00001653,-0.00002212,-0.00000845,-0.00
 002750,-0.00000894,0.00002460,0.00000867,-0.00000714,0.00000129,0.0001
 7388,0.00017782,-0.00005397,-0.00001262,-0.00068702,0.00248899,-0.0016
 3834,0.00065324,-0.00040435,0.00302386,0.00065178,-0.00261085,0.013426
 67,-0.05682896,-0.02691326,0.01139864,-0.00356087,-0.02745297,-0.01329
 756,0.05668586,0.00006476,-0.00010799,0.00003609,-0.00002185,0.0000067
 2,-0.00001899,-0.00008675,0.00000782,-0.00006581,-0.00001426,0.0000016
 1,-0.00002715,-0.00021949,-0.00019409,0.00027802,-0.00249307,0.0006612
 4,-0.00097313,0.00139659,-0.00046168,0.00094786,-0.00629947,0.00169759
 ,0.00945918,0.10614062,-0.02817727,-0.28290734,0.00423007,-0.00119876,
 -0.01122497,-0.10739327,0.03326846,0.29691728,-0.00009571,-0.00027415,
 0.00012755,-0.00002663,0.00002427,-0.00005208,-0.00032616,0.00005911,-
 0.00003812,0.00003054,0.00003754,-0.00002857,-0.00007969,-0.00057100,0
 .00008904,0.00280224,0.00339452,-0.00869347,0.00040014,-0.00107515,0.0
 0394148,-0.02711727,0.02991047,-0.02035798,-0.05466144,0.02648937,-0.0
 1626293,0.00383145,-0.00948947,0.00719529,0.00422717,-0.01123524,0.006
 38520,0.07099623,-0.00000985,-0.00005560,-0.00003141,0.00001597,-0.000
 02302,-0.00001597,-0.00017258,0.00000122,-0.00002984,-0.00000439,0.000
 00993,0.00001718,0.00014789,-0.00005709,-0.00021151,-0.00045194,-0.000
 12457,0.00359742,-0.00224292,0.00057411,-0.00096864,0.00490861,0.00224
 207,-0.00088383,0.03497531,-0.22810061,0.12313621,0.00318419,-0.021849
 50,0.01544114,-0.00201605,0.00547078,-0.00307070,-0.03633851,0.2436443
 0,-0.00000584,0.00011919,0.00002061,0.00000185,-0.00005096,-0.00001493
 ,-0.00008330,-0.00005872,0.00000954,0.00002705,-0.00000246,0.00000160,
 -0.00025270,0.00051889,-0.00004940,0.00265497,-0.00031427,-0.00027670,
 0.00157473,-0.00077358,-0.00072552,-0.00749265,0.00259583,-0.00261984,
 -0.02456779,0.12606891,-0.14029466,0.00331507,-0.01438140,0.01040320,-
 0.00440366,0.02272006,-0.01378564,0.02960628,-0.13428298,0.14729385,-0
 .00015032,0.00007790,-0.00001377,0.00001994,-0.00001889,-0.00001007,-0
 .00005832,0.00001662,0.00000658,0.00003489,0.00000759,0.00000857,-0.00
 011224,0.00011562,-0.00001919,0.00146418,0.00049200,-0.00129901,-0.000
 07427,-0.00041560,0.00040800,-0.00058590,-0.00272168,-0.00032863,-0.01
 007680,0.00312594,0.00030431,-0.31398446,0.01285247,-0.03383593,0.0002
 8243,-0.00018056,-0.00034415,0.00019437,-0.00042225,0.00014295,0.34021
 111,0.00006626,-0.00002063,0.00003596,0.00001455,-0.00005667,-0.000054
 43,-0.00026511,-0.00000055,-0.00006243,0.00001672,-0.00001019,-0.00000
 632,0.00000882,0.00056567,0.00029685,0.00107708,-0.00002203,-0.0029215
 5,0.00020870,-0.00037761,0.00103672,-0.00638788,-0.00548943,-0.0023310
 3,-0.02622106,0.00480484,-0.00057947,0.01468573,-0.04858273,0.00110862
 ,0.00064204,0.00103906,-0.00014475,0.00061265,0.00045270,0.00107846,-0
 .01356129,0.04901967,0.00005726,-0.00003237,0.00009054,-0.00004185,-0.
 00000672,-0.00002613,-0.00009407,0.00000945,-0.00000057,0.00000726,-0.
 00000030,-0.00000471,-0.00003549,0.00008414,0.00009391,0.00046060,-0.0
 0000940,-0.00282147,0.00053767,0.00027877,0.00114272,-0.00399997,-0.00
 369651,0.00014884,-0.01332031,0.00381479,-0.00248956,-0.03268483,0.000
 65682,-0.05029151,0.00041534,0.00060689,-0.00005981,0.00020968,0.00009
 799,0.00043062,0.03758064,0.00007514,0.05058069,0.00013197,-0.00008616
 ,-0.00004658,0.00003798,-0.00002820,-0.00001641,-0.00014828,-0.0000074
 4,-0.00003756,-0.00002554,-0.00001136,-0.00000037,0.00020776,0.0002501
 2,0.00002411,-0.00026153,-0.00049477,0.00151765,-0.00052198,-0.0000050
 5,-0.00071425,0.00207916,0.00054535,0.00045066,0.00055142,-0.01046171,
 0.00625895,-0.06021943,0.04889500,-0.03363704,0.00009775,0.00079569,0.
 00002830,-0.00019222,-0.00222167,-0.00105332,-0.00505197,0.02591635,-0
 .01820550,0.06021040,-0.00001040,-0.00005151,-0.00002386,0.00003078,-0
 .00001356,-0.00002533,-0.00011994,0.00001376,-0.00003890,-0.00000266,-
 0.00000430,0.00000376,0.00002483,0.00008757,0.00003999,-0.00008282,-0.
 00041711,0.00075087,-0.00016599,0.00023221,-0.00039533,0.00103919,0.00
 298218,0.00015444,0.00691859,-0.02561394,0.01691425,0.04644457,-0.2175
 4497,0.12307918,0.00024853,0.00104191,-0.00007788,-0.00210089,-0.00330
 641,-0.00361528,0.00001365,0.00018580,-0.00086158,-0.05046670,0.238670
 63,-0.00008158,0.00005818,-0.00003743,-0.00000436,0.00007875,0.0000380
 0,0.00018551,0.00000199,0.00004119,0.00000522,0.00000673,0.00000166,-0
 .00012951,-0.00038429,-0.00003872,-0.00046764,0.00050284,-0.00049245,0
 .00054449,0.00030540,0.00043696,0.00160899,0.00101132,0.00034414,0.003
 91358,-0.01531856,0.01004031,-0.03407528,0.12549970,-0.13917155,0.0005
 7076,0.00057514,0.00091908,-0.00179064,-0.00303366,-0.00105647,-0.0000
 2988,0.00140596,-0.00278577,0.03789847,-0.13323388,0.14632591,0.000386
 96,-0.00019335,0.00017956,-0.00007079,0.00004382,-0.00000928,0.0000369
 3,-0.00002313,-0.00001568,-0.00003057,-0.00001205,-0.00000490,0.000092
 99,0.00012776,0.00004833,-0.00081215,-0.00057602,-0.00103377,-0.000690
 62,-0.00066004,0.00061829,0.00132106,0.00113582,0.00066686,0.00437196,
 -0.00170670,-0.01217112,-0.09917838,0.01405551,0.10764329,-0.00003067,
 -0.00244933,-0.00137324,0.00001697,0.00064820,0.00053639,-0.01211263,0
 .00318646,0.02911357,0.00310449,-0.00177074,-0.00814814,0.10359444,-0.
 00008506,-0.00000514,-0.00006598,0.00003037,0.00007388,0.00004955,0.00
 023159,0.00001170,0.00002890,-0.00000759,0.00000114,-0.00001316,-0.000
 22158,-0.00044406,0.00012920,-0.00102977,0.00089487,-0.00292448,0.0006
 0683,-0.00056685,0.00182212,-0.00011773,0.00157663,0.00285118,0.015383
 24,-0.00423036,-0.02884926,0.01121791,-0.05057402,-0.02251942,-0.00275
 752,-0.00464549,-0.00221034,0.00055647,0.00112169,0.00037831,0.0006184
 8,-0.00150791,-0.00101709,-0.01261945,0.00373772,0.02252438,-0.0118062
 1,0.05455619,0.00016367,-0.00013592,0.00007966,-0.00003749,-0.00000816
 ,-0.00002422,-0.00010156,-0.00001446,-0.00001978,-0.00002416,0.0000039
 3,-0.00001491,0.00012068,0.00002808,0.00007803,-0.00046952,-0.00037782
 ,-0.00143163,0.00091744,0.00103737,0.00062288,-0.00045716,0.00087304,0
 .00119888,0.00632371,-0.00261397,-0.01372693,0.10603321,-0.02495924,-0
 .26919092,-0.00105041,-0.00227939,0.00050536,-0.00033073,0.00023860,0.
 00066374,-0.00257044,0.00106227,0.00599222,0.00753290,-0.00267044,-0.0
 1456486,-0.11605016,0.02981611,0.28983249\\-0.00068144,-0.00773290,-0.
 00109708,-0.00006588,-0.00012759,0.00002170,0.00109301,-0.00024179,0.0
 0029269,0.00004752,-0.00026283,-0.00003411,-0.00008320,0.00835949,0.00
 107421,0.00018531,0.00106244,0.00018983,-0.00044966,-0.00061707,-0.000
 28160,-0.00002629,-0.00022839,-0.00005608,0.00005982,-0.00013163,-0.00
 005607,-0.00006936,-0.00005437,-0.00003957,0.00000376,-0.00000497,-0.0
 0000239,0.00001269,-0.00000805,-0.00000968,-0.00000675,-0.00000426,0.0
 0000033,-0.00001010,-0.00000519,-0.00000116,-0.00000943,-0.00000290,-0
 .00000101\\\@


 SLITHERY-DITHERY
 FRIEDRICH A. KEKULE
 DREAMT ON A BUS OF THINGS
 FREUD WOULD THINK KEEN.
 MOST OF THE TIME THEY WERE
 HERPETOLOGICAL
 BITING THEIR TAILS IN THE
 SHAPE OF BENZENE.
 Job cpu time:       0 days  0 hours 57 minutes  0.3 seconds.
 Elapsed time:       0 days  0 hours  2 minutes 22.8 seconds.
 File lengths (MBytes):  RWF=    153 Int=      0 D2E=      0 Chk=      5 Scr=      1
 Normal termination of Gaussian 16 at Sat Aug 16 16:44:39 2025.
