 Entering Gaussian System, Link 0=g16
 Initial command:
 /opt/g16/l1.exe "/home/aayush/scratches/g16/Gau-5917.inp" -scrdir="/home/aayush/scratches/g16/"
 Entering Link 1 = /opt/g16/l1.exe PID=      5920.
  
 Copyright (c) 1988,1990,1992,1993,1995,1998,2003,2009,2016,
            Gaussian, Inc.  All Rights Reserved.
  
 This is part of the Gaussian(R) 16 program.  It is based on
 the Gaussian(R) 09 system (copyright 2009, Gaussian, Inc.),
 the Gaussian(R) 03 system (copyright 2003, Gaussian, Inc.),
 the Gaussian(R) 98 system (copyright 1998, Gaussian, Inc.),
 the Gaussian(R) 94 system (copyright 1995, Gaussian, Inc.),
 the Gaussian 92(TM) system (copyright 1992, Gaussian, Inc.),
 the Gaussian 90(TM) system (copyright 1990, Gaussian, Inc.),
 the Gaussian 88(TM) system (copyright 1988, Gaussian, Inc.),
 the Gaussian 86(TM) system (copyright 1986, Carnegie Mellon
 University), and the Gaussian 82(TM) system (copyright 1983,
 Carnegie Mellon University). Gaussian is a federally registered
 trademark of Gaussian, Inc.
  
 This software contains proprietary and confidential information,
 including trade secrets, belonging to Gaussian, Inc.
  
 This software is provided under written license and may be
 used, copied, transmitted, or stored only in accord with that
 written license.
  
 The following legend is applicable only to US Government
 contracts under FAR:
  
                    RESTRICTED RIGHTS LEGEND
  
 Use, reproduction and disclosure by the US Government is
 subject to restrictions as set forth in subparagraphs (a)
 and (c) of the Commercial Computer Software - Restricted
 Rights clause in FAR 52.227-19.
  
 Gaussian, Inc.
 340 Quinnipiac St., Bldg. 40, Wallingford CT 06492
  
  
 ---------------------------------------------------------------
 Warning -- This program may not be used in any manner that
 competes with the business of Gaussian, Inc. or will provide
 assistance to any competitor of Gaussian, Inc.  The licensee
 of this program is prohibited from giving any competitor of
 Gaussian, Inc. access to this program.  By using this program,
 the user acknowledges that Gaussian, Inc. is engaged in the
 business of creating and licensing software in the field of
 computational chemistry and represents and warrants to the
 licensee that it is not a competitor of Gaussian, Inc. and that
 it will not use this program in any manner prohibited above.
 ---------------------------------------------------------------
  

 Cite this work as:
 Gaussian 16, Revision A.03,
 M. J. Frisch, G. W. Trucks, H. B. Schlegel, G. E. Scuseria, 
 M. A. Robb, J. R. Cheeseman, G. Scalmani, V. Barone, 
 G. A. Petersson, H. Nakatsuji, X. Li, M. Caricato, A. V. Marenich, 
 J. Bloino, B. G. Janesko, R. Gomperts, B. Mennucci, H. P. Hratchian, 
 J. V. Ortiz, A. F. Izmaylov, J. L. Sonnenberg, D. Williams-Young, 
 F. Ding, F. Lipparini, F. Egidi, J. Goings, B. Peng, A. Petrone, 
 T. Henderson, D. Ranasinghe, V. G. Zakrzewski, J. Gao, N. Rega, 
 G. Zheng, W. Liang, M. Hada, M. Ehara, K. Toyota, R. Fukuda, 
 J. Hasegawa, M. Ishida, T. Nakajima, Y. Honda, O. Kitao, H. Nakai, 
 T. Vreven, K. Throssell, J. A. Montgomery, Jr., J. E. Peralta, 
 F. Ogliaro, M. J. Bearpark, J. J. Heyd, E. N. Brothers, K. N. Kudin, 
 V. N. Staroverov, T. A. Keith, R. Kobayashi, J. Normand, 
 K. Raghavachari, A. P. Rendell, J. C. Burant, S. S. Iyengar, 
 J. Tomasi, M. Cossi, J. M. Millam, M. Klene, C. Adamo, R. Cammi, 
 J. W. Ochterski, R. L. Martin, K. Morokuma, O. Farkas, 
 J. B. Foresman, and D. J. Fox, Gaussian, Inc., Wallingford CT, 2016.
 
 ******************************************
 Gaussian 16:  ES64L-G16RevA.03 25-Dec-2016
                 3-Aug-2025 
 ******************************************
 %nprocshared=24
 Will use up to   24 processors via shared memory.
 %mem=12GB
 %chk=ethyl_propiolate_ts1.chk
 --------------------------
 # ccsd(t)/6-311++g(d,p) sp
 --------------------------
 1/38=1,172=1/1;
 2/12=2,17=6,18=5,40=1/2;
 3/5=4,6=6,7=1111,11=9,25=1,30=1/1,2,3;
 4//1;
 5/5=2,38=5/2;
 8/6=4,9=120000,10=2/1,4;
 9/5=7,14=2/13;
 6/7=2,8=2,9=2,10=2/1;
 99/5=1,9=1/99;
 -------------------
 Title Card Required
 -------------------
 Symbolic Z-matrix:
 Charge =  0 Multiplicity = 2
 O                    -1.40686   1.68663   0.09824 
 H                    -2.03517   1.79929   0.82869 
 C                    -2.78351  -0.49136  -0.44228 
 H                    -3.80986  -0.56595  -0.71799 
 C                    -1.62209  -0.31649  -0.14208 
 C                    -0.22174  -0.56411   0.23032 
 O                     0.11022  -0.91145   1.32775 
 O                     0.58088  -0.36367  -0.80579 
 C                     1.99525  -0.44946  -0.53471 
 C                     2.48428   0.82027   0.13301 
 H                     2.44435  -0.59097  -1.51594 
 H                     2.18208  -1.32879   0.08268 
 H                     3.56618   0.76975   0.27025 
 H                     2.24874   1.68746  -0.48508 
 H                     2.01658   0.94396   1.11012 
 
                          Input orientation:                          
 ---------------------------------------------------------------------
 Center     Atomic      Atomic             Coordinates (Angstroms)
 Number     Number       Type             X           Y           Z
 ---------------------------------------------------------------------
      1          8           0       -1.406856    1.686632    0.098244
      2          1           0       -2.035169    1.799293    0.828691
      3          6           0       -2.783513   -0.491356   -0.442275
      4          1           0       -3.809864   -0.565948   -0.717986
      5          6           0       -1.622093   -0.316488   -0.142075
      6          6           0       -0.221743   -0.564111    0.230322
      7          8           0        0.110224   -0.911451    1.327749
      8          8           0        0.580882   -0.363667   -0.805785
      9          6           0        1.995253   -0.449461   -0.534713
     10          6           0        2.484280    0.820272    0.133009
     11          1           0        2.444354   -0.590967   -1.515941
     12          1           0        2.182076   -1.328785    0.082676
     13          1           0        3.566182    0.769746    0.270248
     14          1           0        2.248737    1.687456   -0.485080
     15          1           0        2.016582    0.943957    1.110120
 ---------------------------------------------------------------------
                    Distance matrix (angstroms):
                    1          2          3          4          5
     1  O    0.000000
     2  H    0.970063   0.000000
     3  C    2.632675   2.724417   0.000000
     4  H    3.393346   3.337082   1.065353   0.000000
     5  C    2.028933   2.364222   1.212269   2.276015   0.000000
     6  C    2.547112   3.038460   2.649593   3.711321   1.470026
     7  O    3.250115   3.492836   3.418066   4.435256   2.348465
     8  O    2.995346   3.767444   3.386384   4.396280   2.301268
     9  C    4.066678   4.812491   4.779844   5.809177   3.641022
    10  C    3.986568   4.676310   5.459026   6.500927   4.269683
    11  H    4.756561   5.592564   5.337909   6.304966   4.301028
    12  H    4.687581   5.303448   5.062997   6.093138   3.942963
    13  H    5.059780   5.722496   6.512810   7.560869   5.316776
    14  H    3.701841   4.482226   5.483848   6.468286   4.372273
    15  H    3.646284   4.150601   5.245090   6.290410   4.049280
                    6          7          8          9         10
     6  C    0.000000
     7  O    1.197995   0.000000
     8  O    1.325859   2.252455   0.000000
     9  C    2.348083   2.689895   1.442666   0.000000
    10  C    3.041142   3.172130   2.430220   1.515659   0.000000
    11  H    3.187198   3.692891   2.007116   1.088358   2.170766
    12  H    2.526830   2.452946   2.069937   1.090542   2.170785
    13  H    4.016111   3.986023   3.369642   2.145285   1.091741
    14  H    3.418278   3.822814   2.663024   2.152471   1.090652
    15  H    2.838734   2.669101   2.727968   2.155816   1.090314
                   11         12         13         14         15
    11  H    0.000000
    12  H    1.780096   0.000000
    13  H    2.510081   2.520866   0.000000
    14  H    2.508416   3.069935   1.774366   0.000000
    15  H    3.071673   2.499677   1.771156   1.775204   0.000000
 Stoichiometry    C5H7O3(2)
 Framework group  C1[X(C5H7O3)]
 Deg. of freedom    39
 Full point group                 C1      NOp   1
 Largest Abelian subgroup         C1      NOp   1
 Largest concise Abelian subgroup C1      NOp   1
                         Standard orientation:                         
 ---------------------------------------------------------------------
 Center     Atomic      Atomic             Coordinates (Angstroms)
 Number     Number       Type             X           Y           Z
 ---------------------------------------------------------------------
      1          8           0       -1.406856    1.686632    0.098244
      2          1           0       -2.035169    1.799293    0.828691
      3          6           0       -2.783513   -0.491356   -0.442275
      4          1           0       -3.809864   -0.565948   -0.717986
      5          6           0       -1.622093   -0.316488   -0.142075
      6          6           0       -0.221743   -0.564111    0.230322
      7          8           0        0.110224   -0.911451    1.327749
      8          8           0        0.580882   -0.363667   -0.805785
      9          6           0        1.995253   -0.449461   -0.534713
     10          6           0        2.484280    0.820272    0.133009
     11          1           0        2.444354   -0.590967   -1.515941
     12          1           0        2.182076   -1.328785    0.082676
     13          1           0        3.566182    0.769746    0.270248
     14          1           0        2.248737    1.687456   -0.485080
     15          1           0        2.016582    0.943957    1.110120
 ---------------------------------------------------------------------
 Rotational constants (GHZ):           3.6098162           1.3094036           1.1889420
 Standard basis: 6-311++G(d,p) (5D, 7F)
 There are   233 symmetry adapted cartesian basis functions of A   symmetry.
 There are   225 symmetry adapted basis functions of A   symmetry.
   225 basis functions,   351 primitive gaussians,   233 cartesian basis functions
    31 alpha electrons       30 beta electrons
       nuclear repulsion energy       362.3178756599 Hartrees.
 NAtoms=   15 NActive=   15 NUniq=   15 SFac= 1.00D+00 NAtFMM=   60 NAOKFM=F Big=F
 Integral buffers will be    131072 words long.
 Raffenetti 2 integral format.
 Two-electron integral symmetry is turned on.
 One-electron integrals computed using PRISM.
 NBasis=   225 RedAO= T EigKep=  2.21D-06  NBF=   225
 NBsUse=   225 1.00D-06 EigRej= -1.00D+00 NBFU=   225
 ExpMin= 3.60D-02 ExpMax= 8.59D+03 ExpMxC= 1.30D+03 IAcc=3 IRadAn=         5 AccDes= 0.00D+00
 Harris functional with IExCor=  205 and IRadAn=       5 diagonalized for initial guess.
 HarFok:  IExCor=  205 AccDes= 0.00D+00 IRadAn=         5 IDoV= 1 UseB2=F ITyADJ=14
 ICtDFT=  3500011 ScaDFX=  1.000000  1.000000  1.000000  1.000000
 FoFCou: FMM=F IPFlag=           0 FMFlag=      100000 FMFlg1=           0
         NFxFlg=           0 DoJE=T BraDBF=F KetDBF=T FulRan=T
         wScrn=  0.000000 ICntrl=       500 IOpCl=  0 I1Cent=   200000004 NGrid=           0
         NMat0=    1 NMatS0=      1 NMatT0=    0 NMatD0=    1 NMtDS0=    0 NMtDT0=    0
 Petite list used in FoFCou.
 Initial guess <Sx>= 0.0000 <Sy>= 0.0000 <Sz>= 0.5000 <S**2>= 0.7500 S= 0.5000
 Requested convergence on RMS density matrix=1.00D-08 within 128 cycles.
 Requested convergence on MAX density matrix=1.00D-06.
 Requested convergence on             energy=1.00D-06.
 No special actions if energy rises.
 Initial convergence to 1.5D-05 achieved.  Increase integral accuracy.
 SCF Done:  E(UHF) =  -417.980470950     A.U. after   37 cycles
            NFock= 37  Conv=0.61D-08     -V/T= 2.0006
 <Sx>= 0.0000 <Sy>= 0.0000 <Sz>= 0.5000 <S**2>= 0.9897 S= 0.6134
 <L.S>=  0.00000000000    
 Annihilation of the first spin contaminant:
 S**2 before annihilation     0.9897,   after     0.7839
 ExpMin= 3.60D-02 ExpMax= 8.59D+03 ExpMxC= 1.30D+03 IAcc=3 IRadAn=         5 AccDes= 0.00D+00
 HarFok:  IExCor=  205 AccDes= 0.00D+00 IRadAn=         5 IDoV=-2 UseB2=F ITyADJ=14
 ICtDFT= 12500011 ScaDFX=  1.000000  1.000000  1.000000  1.000000
 Range of M.O.s used for correlation:     9   225
 NBasis=   225 NAE=    31 NBE=    30 NFC=     8 NFV=     0
 NROrb=    217 NOA=    23 NOB=    22 NVA=   194 NVB=   195

 **** Warning!!: The largest alpha MO coefficient is  0.20224533D+03


 **** Warning!!: The largest beta MO coefficient is  0.18863390D+03

 Semi-Direct transformation.
 ModeAB=           4 MOrb=            23 LenV=    1609174103
 LASXX=    109339976 LTotXX=   109339976 LenRXX=   221407890
 LTotAB=   112067914 MaxLAS=   130160289 LenRXY=           0
 NonZer=   330747866 LenScr=   498067456 LnRSAI=   130160289
 LnScr1=   196006912 LExtra=           0 Total=   1045642547
 MaxDsk=          -1 SrtSym=           T ITran=            4
 JobTyp=1 Pass  1:  I=   1 to  23.
 (rs|ai) integrals will be sorted in core.
 ModeAB=           4 MOrb=            22 LenV=    1609174103
 LASXX=    104936601 LTotXX=   104936601 LenRXX=   190867446
 LTotAB=    85930845 MaxLAS=   124501146 LenRXY=           0
 NonZer=   295804047 LenScr=   445446144 LnRSAI=   124501146
 LnScr1=   187516928 LExtra=           0 Total=    948331664
 MaxDsk=          -1 SrtSym=           T ITran=            4
 JobTyp=2 Pass  1:  I=   1 to  22.
 (rs|ai) integrals will be sorted in core.
 SymMOI:  orbitals are not symmetric.
 Spin components of T(2) and E(2):
     alpha-alpha T2 =       0.5219004245D-01 E2=     -0.1699086789D+00
     alpha-beta  T2 =       0.2817544156D+00 E2=     -0.9303060519D+00
     beta-beta   T2 =       0.4978362850D-01 E2=     -0.1568630318D+00
 ANorm=    0.1176319721D+01
 E2 =    -0.1257077763D+01 EUMP2 =    -0.41923754871284D+03
 (S**2,0)=  0.98965D+00           (S**2,1)=  0.92330D+00
 E(PUHF)=      -0.41800009795D+03        E(PMP2)=      -0.41925466733D+03
 Keep R2 and R3 ints in memory in canonical form, NReq=652884060.
 CIDS: In Core Option IDoMem=           1.
 Iterations=  50 Convergence= 0.100D-06
 Produce multiple copies of IABC intergrals
 Iteration Nr.   1
 **********************
 DD1Dir will call FoFMem   1 times, MxPair=      1496
 NAB=   506 NAA=   253 NBB=   231.
 E(PMP3)=      -0.41928002557D+03
 MP4(R+Q)=  0.24576234D-01
 E3=       -0.29658658D-01        EUMP3=      -0.41926720737D+03
 E4(DQ)=   -0.58138923D-02        UMP4(DQ)=   -0.41927302126D+03
 E4(SDQ)=  -0.26931420D-01        UMP4(SDQ)=  -0.41929413879D+03
 DE(Corr)=  -1.2618412     E(Corr)=     -419.24231216    
 NORM(A)=   0.11858697D+01
 Iteration Nr.   2
 **********************
 DD1Dir will call FoFMem   1 times, MxPair=      1496
 NAB=   506 NAA=   253 NBB=   231.
 DE(Corr)=  -1.3053635     E(CORR)=     -419.28583444     Delta=-4.35D-02
 NORM(A)=   0.12075060D+01
 Iteration Nr.   3
 **********************
 DD1Dir will call FoFMem   1 times, MxPair=      1496
 NAB=   506 NAA=   253 NBB=   231.
 DE(Corr)=  -1.3086692     E(CORR)=     -419.28914012     Delta=-3.31D-03
 NORM(A)=   0.12201083D+01
 Iteration Nr.   4
 **********************
 DD1Dir will call FoFMem   1 times, MxPair=      1496
 NAB=   506 NAA=   253 NBB=   231.
 DE(Corr)=  -1.3161798     E(CORR)=     -419.29665077     Delta=-7.51D-03
 NORM(A)=   0.12283901D+01
 Iteration Nr.   5
 **********************
 DD1Dir will call FoFMem   1 times, MxPair=      1496
 NAB=   506 NAA=   253 NBB=   231.
 DE(Corr)=  -1.3183578     E(CORR)=     -419.29882870     Delta=-2.18D-03
 NORM(A)=   0.12322560D+01
 Iteration Nr.   6
 **********************
 DD1Dir will call FoFMem   1 times, MxPair=      1496
 NAB=   506 NAA=   253 NBB=   231.
 DE(Corr)=  -1.3189863     E(CORR)=     -419.29945723     Delta=-6.29D-04
 NORM(A)=   0.12328306D+01
 Iteration Nr.   7
 **********************
 DD1Dir will call FoFMem   1 times, MxPair=      1496
 NAB=   506 NAA=   253 NBB=   231.
 DE(Corr)=  -1.3190670     E(CORR)=     -419.29953799     Delta=-8.08D-05
 NORM(A)=   0.12329365D+01
 Iteration Nr.   8
 **********************
 DD1Dir will call FoFMem   1 times, MxPair=      1496
 NAB=   506 NAA=   253 NBB=   231.
 DE(Corr)=  -1.3190432     E(CORR)=     -419.29951418     Delta= 2.38D-05
 NORM(A)=   0.12329477D+01
 Iteration Nr.   9
 **********************
 DD1Dir will call FoFMem   1 times, MxPair=      1496
 NAB=   506 NAA=   253 NBB=   231.
 DE(Corr)=  -1.3190568     E(CORR)=     -419.29952773     Delta=-1.36D-05
 NORM(A)=   0.12329156D+01
 Iteration Nr.  10
 **********************
 DD1Dir will call FoFMem   1 times, MxPair=      1496
 NAB=   506 NAA=   253 NBB=   231.
 DE(Corr)=  -1.3190392     E(CORR)=     -419.29951011     Delta= 1.76D-05
 NORM(A)=   0.12328935D+01
 Iteration Nr.  11
 **********************
 DD1Dir will call FoFMem   1 times, MxPair=      1496
 NAB=   506 NAA=   253 NBB=   231.
 DE(Corr)=  -1.3190564     E(CORR)=     -419.29952740     Delta=-1.73D-05
 NORM(A)=   0.12329231D+01
 Iteration Nr.  12
 **********************
 DD1Dir will call FoFMem   1 times, MxPair=      1496
 NAB=   506 NAA=   253 NBB=   231.
 DE(Corr)=  -1.3190528     E(CORR)=     -419.29952377     Delta= 3.63D-06
 NORM(A)=   0.12329977D+01
 Iteration Nr.  13
 **********************
 DD1Dir will call FoFMem   1 times, MxPair=      1496
 NAB=   506 NAA=   253 NBB=   231.
 DE(Corr)=  -1.3190694     E(CORR)=     -419.29954035     Delta=-1.66D-05
 NORM(A)=   0.12330925D+01
 Iteration Nr.  14
 **********************
 DD1Dir will call FoFMem   1 times, MxPair=      1496
 NAB=   506 NAA=   253 NBB=   231.
 DE(Corr)=  -1.3190851     E(CORR)=     -419.29955600     Delta=-1.57D-05
 NORM(A)=   0.12331676D+01
 Iteration Nr.  15
 **********************
 DD1Dir will call FoFMem   1 times, MxPair=      1496
 NAB=   506 NAA=   253 NBB=   231.
 DE(Corr)=  -1.3190937     E(CORR)=     -419.29956462     Delta=-8.62D-06
 NORM(A)=   0.12332069D+01
 Iteration Nr.  16
 **********************
 DD1Dir will call FoFMem   1 times, MxPair=      1496
 NAB=   506 NAA=   253 NBB=   231.
 DE(Corr)=  -1.3191024     E(CORR)=     -419.29957333     Delta=-8.71D-06
 NORM(A)=   0.12332164D+01
 Iteration Nr.  17
 **********************
 DD1Dir will call FoFMem   1 times, MxPair=      1496
 NAB=   506 NAA=   253 NBB=   231.
 DE(Corr)=  -1.3191012     E(CORR)=     -419.29957217     Delta= 1.15D-06
 NORM(A)=   0.12332138D+01
 Iteration Nr.  18
 **********************
 DD1Dir will call FoFMem   1 times, MxPair=      1496
 NAB=   506 NAA=   253 NBB=   231.
 DE(Corr)=  -1.3191008     E(CORR)=     -419.29957176     Delta= 4.09D-07
 NORM(A)=   0.12332079D+01
 Iteration Nr.  19
 **********************
 DD1Dir will call FoFMem   1 times, MxPair=      1496
 NAB=   506 NAA=   253 NBB=   231.
 DE(Corr)=  -1.3190991     E(CORR)=     -419.29957003     Delta= 1.73D-06
 NORM(A)=   0.12332032D+01
 Iteration Nr.  20
 **********************
 DD1Dir will call FoFMem   1 times, MxPair=      1496
 NAB=   506 NAA=   253 NBB=   231.
 DE(Corr)=  -1.3190979     E(CORR)=     -419.29956883     Delta= 1.20D-06
 NORM(A)=   0.12331998D+01
 Iteration Nr.  21
 **********************
 DD1Dir will call FoFMem   1 times, MxPair=      1496
 NAB=   506 NAA=   253 NBB=   231.
 DE(Corr)=  -1.3190972     E(CORR)=     -419.29956810     Delta= 7.30D-07
 NORM(A)=   0.12331994D+01
 Iteration Nr.  22
 **********************
 DD1Dir will call FoFMem   1 times, MxPair=      1496
 NAB=   506 NAA=   253 NBB=   231.
 DE(Corr)=  -1.3190969     E(CORR)=     -419.29956787     Delta= 2.30D-07
 NORM(A)=   0.12332012D+01
 Iteration Nr.  23
 **********************
 DD1Dir will call FoFMem   1 times, MxPair=      1496
 NAB=   506 NAA=   253 NBB=   231.
 DE(Corr)=  -1.3190973     E(CORR)=     -419.29956821     Delta=-3.38D-07
 NORM(A)=   0.12332049D+01
 Iteration Nr.  24
 **********************
 DD1Dir will call FoFMem   1 times, MxPair=      1496
 NAB=   506 NAA=   253 NBB=   231.
 DE(Corr)=  -1.3190978     E(CORR)=     -419.29956879     Delta=-5.79D-07
 NORM(A)=   0.12332089D+01
 Iteration Nr.  25
 **********************
 DD1Dir will call FoFMem   1 times, MxPair=      1496
 NAB=   506 NAA=   253 NBB=   231.
 DE(Corr)=  -1.3190985     E(CORR)=     -419.29956948     Delta=-6.90D-07
 NORM(A)=   0.12332116D+01
 Iteration Nr.  26
 **********************
 DD1Dir will call FoFMem   1 times, MxPair=      1496
 NAB=   506 NAA=   253 NBB=   231.
 DE(Corr)=  -1.3190988     E(CORR)=     -419.29956977     Delta=-2.95D-07
 NORM(A)=   0.12332125D+01
 Iteration Nr.  27
 **********************
 DD1Dir will call FoFMem   1 times, MxPair=      1496
 NAB=   506 NAA=   253 NBB=   231.
 DE(Corr)=  -1.3190989     E(CORR)=     -419.29956984     Delta=-7.09D-08
 NORM(A)=   0.12332120D+01
 Wavefunction amplitudes converged. E(Corr)=     -419.29956984    
 Largest amplitude= 6.54D-02
 Time for triples=    37191.61 seconds.
 T4(CCSD)= -0.58092494D-01
 T5(CCSD)=  0.40844090D-02
 CCSD(T)= -0.41935357793D+03

 S**2, projected HF & approx projected MPn energies after annihilation of
 unwanted spin states (see manual for definitions):

 spins       (S**2,0) (S**2,1)    PUHF        PMP2        PMP3        PMP4
 annihilated
 s+1         0.73006  0.74253 -418.000098 -419.254667 -419.280026
 s+1,s+2     0.75032  0.74994 -417.998693 -419.253339 -419.278798
 s+1 to s+3  0.75000  0.75000 -417.998720 -419.253359 -419.278806
 s+1 to s+4  0.75000  0.75000 -417.998720 -419.253359 -419.278806
 s+1 to s+5  0.75000  0.75000 -417.998720
 s+1 to s+6  0.75000  0.75000 -417.998720

 Discarding MO integrals.

 **********************************************************************

            Population analysis using the SCF density.

 **********************************************************************

 Orbital symmetries:
 Alpha Orbitals:
       Occupied  (A) (A) (A) (A) (A) (A) (A) (A) (A) (A) (A) (A)
                 (A) (A) (A) (A) (A) (A) (A) (A) (A) (A) (A) (A)
                 (A) (A) (A) (A) (A) (A) (A)
       Virtual   (A) (A) (A) (A) (A) (A) (A) (A) (A) (A) (A) (A)
                 (A) (A) (A) (A) (A) (A) (A) (A) (A) (A) (A) (A)
                 (A) (A) (A) (A) (A) (A) (A) (A) (A) (A) (A) (A)
                 (A) (A) (A) (A) (A) (A) (A) (A) (A) (A) (A) (A)
                 (A) (A) (A) (A) (A) (A) (A) (A) (A) (A) (A) (A)
                 (A) (A) (A) (A) (A) (A) (A) (A) (A) (A) (A) (A)
                 (A) (A) (A) (A) (A) (A) (A) (A) (A) (A) (A) (A)
                 (A) (A) (A) (A) (A) (A) (A) (A) (A) (A) (A) (A)
                 (A) (A) (A) (A) (A) (A) (A) (A) (A) (A) (A) (A)
                 (A) (A) (A) (A) (A) (A) (A) (A) (A) (A) (A) (A)
                 (A) (A) (A) (A) (A) (A) (A) (A) (A) (A) (A) (A)
                 (A) (A) (A) (A) (A) (A) (A) (A) (A) (A) (A) (A)
                 (A) (A) (A) (A) (A) (A) (A) (A) (A) (A) (A) (A)
                 (A) (A) (A) (A) (A) (A) (A) (A) (A) (A) (A) (A)
                 (A) (A) (A) (A) (A) (A) (A) (A) (A) (A) (A) (A)
                 (A) (A) (A) (A) (A) (A) (A) (A) (A) (A) (A) (A)
                 (A) (A)
 Beta  Orbitals:
       Occupied  (A) (A) (A) (A) (A) (A) (A) (A) (A) (A) (A) (A)
                 (A) (A) (A) (A) (A) (A) (A) (A) (A) (A) (A) (A)
                 (A) (A) (A) (A) (A) (A)
       Virtual   (A) (A) (A) (A) (A) (A) (A) (A) (A) (A) (A) (A)
                 (A) (A) (A) (A) (A) (A) (A) (A) (A) (A) (A) (A)
                 (A) (A) (A) (A) (A) (A) (A) (A) (A) (A) (A) (A)
                 (A) (A) (A) (A) (A) (A) (A) (A) (A) (A) (A) (A)
                 (A) (A) (A) (A) (A) (A) (A) (A) (A) (A) (A) (A)
                 (A) (A) (A) (A) (A) (A) (A) (A) (A) (A) (A) (A)
                 (A) (A) (A) (A) (A) (A) (A) (A) (A) (A) (A) (A)
                 (A) (A) (A) (A) (A) (A) (A) (A) (A) (A) (A) (A)
                 (A) (A) (A) (A) (A) (A) (A) (A) (A) (A) (A) (A)
                 (A) (A) (A) (A) (A) (A) (A) (A) (A) (A) (A) (A)
                 (A) (A) (A) (A) (A) (A) (A) (A) (A) (A) (A) (A)
                 (A) (A) (A) (A) (A) (A) (A) (A) (A) (A) (A) (A)
                 (A) (A) (A) (A) (A) (A) (A) (A) (A) (A) (A) (A)
                 (A) (A) (A) (A) (A) (A) (A) (A) (A) (A) (A) (A)
                 (A) (A) (A) (A) (A) (A) (A) (A) (A) (A) (A) (A)
                 (A) (A) (A) (A) (A) (A) (A) (A) (A) (A) (A) (A)
                 (A) (A) (A)
 The electronic state is 2-A.
 Alpha  occ. eigenvalues --  -20.62429 -20.60948 -20.55485 -11.41324 -11.29419
 Alpha  occ. eigenvalues --  -11.26996 -11.26245 -11.22190  -1.48002  -1.38235
 Alpha  occ. eigenvalues --   -1.37637  -1.07891  -1.04179  -0.92535  -0.83605
 Alpha  occ. eigenvalues --   -0.76311  -0.73081  -0.69256  -0.68843  -0.66033
 Alpha  occ. eigenvalues --   -0.64469  -0.62728  -0.57732  -0.55834  -0.53818
 Alpha  occ. eigenvalues --   -0.53115  -0.50172  -0.47676  -0.45738  -0.43085
 Alpha  occ. eigenvalues --   -0.42236
 Alpha virt. eigenvalues --    0.03709   0.04612   0.05637   0.06822   0.07010
 Alpha virt. eigenvalues --    0.08745   0.09630   0.10432   0.11098   0.11655
 Alpha virt. eigenvalues --    0.13364   0.13906   0.14736   0.15645   0.16802
 Alpha virt. eigenvalues --    0.16977   0.17788   0.18050   0.18982   0.19250
 Alpha virt. eigenvalues --    0.20630   0.21358   0.21827   0.22543   0.23250
 Alpha virt. eigenvalues --    0.23959   0.25047   0.27005   0.27730   0.29312
 Alpha virt. eigenvalues --    0.30112   0.30234   0.32159   0.33250   0.34062
 Alpha virt. eigenvalues --    0.35015   0.35923   0.37468   0.38977   0.39908
 Alpha virt. eigenvalues --    0.40536   0.41490   0.42620   0.43242   0.43619
 Alpha virt. eigenvalues --    0.45022   0.47167   0.47965   0.48634   0.50928
 Alpha virt. eigenvalues --    0.51063   0.54447   0.58039   0.59942   0.60665
 Alpha virt. eigenvalues --    0.62894   0.66148   0.68630   0.68977   0.71825
 Alpha virt. eigenvalues --    0.73440   0.74882   0.78974   0.82563   0.82929
 Alpha virt. eigenvalues --    0.84196   0.87113   0.87585   0.88368   0.89707
 Alpha virt. eigenvalues --    0.90695   0.92014   0.92155   0.95335   0.97356
 Alpha virt. eigenvalues --    1.00287   1.04410   1.08968   1.10579   1.15372
 Alpha virt. eigenvalues --    1.20565   1.23317   1.24727   1.29012   1.29459
 Alpha virt. eigenvalues --    1.33578   1.37596   1.38548   1.39848   1.43187
 Alpha virt. eigenvalues --    1.44804   1.46000   1.49359   1.52718   1.55194
 Alpha virt. eigenvalues --    1.55938   1.57302   1.58782   1.61440   1.66322
 Alpha virt. eigenvalues --    1.68177   1.70551   1.73131   1.74738   1.77449
 Alpha virt. eigenvalues --    1.80862   1.81851   1.84670   1.86148   1.88852
 Alpha virt. eigenvalues --    1.90873   1.91557   1.95081   1.97135   1.98799
 Alpha virt. eigenvalues --    2.03442   2.05712   2.09019   2.12681   2.15151
 Alpha virt. eigenvalues --    2.16412   2.20932   2.25221   2.31182   2.33087
 Alpha virt. eigenvalues --    2.35004   2.38165   2.42594   2.48941   2.60795
 Alpha virt. eigenvalues --    2.64361   2.67593   2.75821   2.82326   2.83247
 Alpha virt. eigenvalues --    2.84608   2.85431   2.89447   2.92721   2.94324
 Alpha virt. eigenvalues --    2.96427   2.97867   3.02619   3.05216   3.06528
 Alpha virt. eigenvalues --    3.12964   3.13576   3.16103   3.18866   3.23520
 Alpha virt. eigenvalues --    3.27193   3.28287   3.31411   3.34674   3.39524
 Alpha virt. eigenvalues --    3.42900   3.45199   3.48154   3.49793   3.54293
 Alpha virt. eigenvalues --    3.60482   3.61587   3.65904   3.71794   3.72924
 Alpha virt. eigenvalues --    3.80674   3.86321   4.01446   4.13982   4.22018
 Alpha virt. eigenvalues --    4.22634   4.24462   4.27866   4.40684   4.50607
 Alpha virt. eigenvalues --    4.58076   4.67580   5.55080   5.55308   5.61435
 Alpha virt. eigenvalues --    5.66287   5.77552   5.93503   6.04329   6.22155
 Alpha virt. eigenvalues --    6.43454  24.69125  25.00263  25.02256  25.14859
 Alpha virt. eigenvalues --   26.16355  51.52636  51.61340  51.72010
  Beta  occ. eigenvalues --  -20.60954 -20.58595 -20.55876 -11.40986 -11.29419
  Beta  occ. eigenvalues --  -11.28014 -11.24938 -11.22192  -1.48156  -1.38275
  Beta  occ. eigenvalues --   -1.24506  -1.07771  -1.03436  -0.91612  -0.83064
  Beta  occ. eigenvalues --   -0.76124  -0.72066  -0.69510  -0.67372  -0.63228
  Beta  occ. eigenvalues --   -0.62845  -0.58095  -0.55514  -0.53901  -0.50251
  Beta  occ. eigenvalues --   -0.50138  -0.48428  -0.46914  -0.44004  -0.42300
  Beta virt. eigenvalues --    0.03776   0.04487   0.04763   0.06645   0.07009
  Beta virt. eigenvalues --    0.08106   0.08894   0.09740   0.10755   0.11766
  Beta virt. eigenvalues --    0.12049   0.13556   0.14426   0.15420   0.15902
  Beta virt. eigenvalues --    0.17104   0.17149   0.17938   0.18611   0.19238
  Beta virt. eigenvalues --    0.19681   0.21026   0.21693   0.21832   0.22776
  Beta virt. eigenvalues --    0.23432   0.24058   0.25155   0.26597   0.27895
  Beta virt. eigenvalues --    0.29552   0.30130   0.30872   0.32866   0.33767
  Beta virt. eigenvalues --    0.34791   0.35726   0.36020   0.37661   0.39358
  Beta virt. eigenvalues --    0.39937   0.40866   0.41426   0.43218   0.43537
  Beta virt. eigenvalues --    0.43711   0.44950   0.47288   0.48022   0.48898
  Beta virt. eigenvalues --    0.50859   0.51370   0.54372   0.58099   0.60145
  Beta virt. eigenvalues --    0.60816   0.63109   0.66223   0.68934   0.69468
  Beta virt. eigenvalues --    0.73965   0.74833   0.76073   0.79928   0.82365
  Beta virt. eigenvalues --    0.83060   0.86463   0.86823   0.87590   0.88196
  Beta virt. eigenvalues --    0.89631   0.89901   0.91780   0.92369   0.94906
  Beta virt. eigenvalues --    0.97105   1.00456   1.04456   1.08772   1.11491
  Beta virt. eigenvalues --    1.15449   1.20594   1.23690   1.25110   1.29632
  Beta virt. eigenvalues --    1.32253   1.35462   1.38020   1.40318   1.41582
  Beta virt. eigenvalues --    1.43805   1.45156   1.46625   1.49649   1.54628
  Beta virt. eigenvalues --    1.55614   1.56865   1.58391   1.60188   1.62843
  Beta virt. eigenvalues --    1.67510   1.69097   1.71199   1.73817   1.75530
  Beta virt. eigenvalues --    1.78827   1.80986   1.81874   1.84814   1.85783
  Beta virt. eigenvalues --    1.88645   1.90632   1.91406   1.94997   1.97022
  Beta virt. eigenvalues --    1.98793   2.03506   2.05718   2.09110   2.12694
  Beta virt. eigenvalues --    2.15402   2.16728   2.21345   2.25254   2.31423
  Beta virt. eigenvalues --    2.33419   2.36299   2.38369   2.42606   2.48968
  Beta virt. eigenvalues --    2.60811   2.64370   2.67585   2.75827   2.82216
  Beta virt. eigenvalues --    2.83247   2.84657   2.85532   2.89927   2.92774
  Beta virt. eigenvalues --    2.94513   2.96473   2.98016   3.03099   3.05251
  Beta virt. eigenvalues --    3.07112   3.13093   3.15501   3.20203   3.23081
  Beta virt. eigenvalues --    3.25677   3.27584   3.28887   3.31836   3.37475
  Beta virt. eigenvalues --    3.40575   3.45316   3.49076   3.50752   3.51762
  Beta virt. eigenvalues --    3.55230   3.61262   3.62513   3.65888   3.72297
  Beta virt. eigenvalues --    3.72655   3.80156   3.87328   4.01328   4.13756
  Beta virt. eigenvalues --    4.22105   4.22720   4.27292   4.27914   4.40643
  Beta virt. eigenvalues --    4.50456   4.58026   4.67575   5.56980   5.61074
  Beta virt. eigenvalues --    5.65626   5.67493   5.77481   5.93485   6.06761
  Beta virt. eigenvalues --    6.22069   6.43370  24.69044  25.00478  25.02302
  Beta virt. eigenvalues --   25.14858  26.16584  51.54687  51.61457  51.71799
          Condensed to atoms (all electrons):
               1          2          3          4          5          6
     1  O    8.054714   0.254797  -0.107501  -0.001107   0.368087  -0.400821
     2  H    0.254797   0.476837  -0.106483  -0.002564   0.069165   0.066524
     3  C   -0.107501  -0.106483  26.689938   0.649216  -9.607128 -10.314574
     4  H   -0.001107  -0.002564   0.649216   0.406449  -0.202019  -0.054216
     5  C    0.368087   0.069165  -9.607128  -0.202019  16.345187  -1.857148
     6  C   -0.400821   0.066524 -10.314574  -0.054216  -1.857148  18.416632
     7  O   -0.006059  -0.000703  -0.043345  -0.001903   0.165537   0.301902
     8  O    0.004161  -0.000145  -0.073389  -0.002922  -0.160312   0.124885
     9  C   -0.021237   0.003798  -0.177835  -0.000791  -0.354947   0.405149
    10  C    0.024053  -0.004216   0.101412   0.000179   0.140234  -0.342444
    11  H    0.000520   0.000066  -0.004253  -0.000003  -0.007534   0.011393
    12  H   -0.001769   0.000185  -0.031026  -0.000246  -0.067530   0.086458
    13  H    0.001208   0.000055  -0.005907  -0.000029  -0.004320   0.012268
    14  H   -0.002260  -0.000037  -0.006418  -0.000002  -0.005439   0.007198
    15  H    0.000666  -0.000268   0.033620  -0.000043   0.030190  -0.077372
               7          8          9         10         11         12
     1  O   -0.006059   0.004161  -0.021237   0.024053   0.000520  -0.001769
     2  H   -0.000703  -0.000145   0.003798  -0.004216   0.000066   0.000185
     3  C   -0.043345  -0.073389  -0.177835   0.101412  -0.004253  -0.031026
     4  H   -0.001903  -0.002922  -0.000791   0.000179  -0.000003  -0.000246
     5  C    0.165537  -0.160312  -0.354947   0.140234  -0.007534  -0.067530
     6  C    0.301902   0.124885   0.405149  -0.342444   0.011393   0.086458
     7  O    8.030236  -0.120186   0.030912  -0.055807   0.003707  -0.021700
     8  O   -0.120186   8.271797   0.153236  -0.065883  -0.081952  -0.016176
     9  C    0.030912   0.153236   5.404504  -0.064195   0.444157   0.452705
    10  C   -0.055807  -0.065883  -0.064195   5.526001  -0.050039  -0.051811
    11  H    0.003707  -0.081952   0.444157  -0.050039   0.553093  -0.036405
    12  H   -0.021700  -0.016176   0.452705  -0.051811  -0.036405   0.520677
    13  H   -0.001661   0.015098  -0.046886   0.404480   0.000813  -0.003475
    14  H    0.002529  -0.003980  -0.023765   0.409200  -0.006054   0.000678
    15  H   -0.003953  -0.014219  -0.045106   0.416314   0.006688  -0.003029
              13         14         15
     1  O    0.001208  -0.002260   0.000666
     2  H    0.000055  -0.000037  -0.000268
     3  C   -0.005907  -0.006418   0.033620
     4  H   -0.000029  -0.000002  -0.000043
     5  C   -0.004320  -0.005439   0.030190
     6  C    0.012268   0.007198  -0.077372
     7  O   -0.001661   0.002529  -0.003953
     8  O    0.015098  -0.003980  -0.014219
     9  C   -0.046886  -0.023765  -0.045106
    10  C    0.404480   0.409200   0.416314
    11  H    0.000813  -0.006054   0.006688
    12  H   -0.003475   0.000678  -0.003029
    13  H    0.559957  -0.031160  -0.039232
    14  H   -0.031160   0.552884  -0.043265
    15  H   -0.039232  -0.043265   0.560620
          Atomic-Atomic Spin Densities.
               1          2          3          4          5          6
     1  O    0.945643   0.016036  -0.364546  -0.004412   0.049208   0.259246
     2  H    0.016036  -0.046247   0.050290   0.000835  -0.025614  -0.029912
     3  C   -0.364546   0.050290  -0.779767  -0.043449   0.596508   1.577373
     4  H   -0.004412   0.000835  -0.043449  -0.065594   0.024549   0.013855
     5  C    0.049208  -0.025614   0.596508   0.024549  -1.480240  -0.139802
     6  C    0.259246  -0.029912   1.577373   0.013855  -0.139802  -1.478356
     7  O    0.001380  -0.000082  -0.005688  -0.000095   0.017194   0.010745
     8  O    0.000157   0.000623  -0.024782  -0.000590   0.028733  -0.010604
     9  C    0.004041  -0.000435   0.008706   0.000089  -0.003887  -0.005445
    10  C   -0.003371   0.000619  -0.005338  -0.000228   0.013973  -0.006296
    11  H    0.000157  -0.000030   0.000093  -0.000022  -0.000473   0.000727
    12  H    0.000814  -0.000093   0.008248   0.000054   0.008235  -0.016894
    13  H   -0.000125   0.000032  -0.000230  -0.000011   0.000712  -0.000171
    14  H   -0.000132  -0.000048  -0.000381   0.000022  -0.001358   0.001161
    15  H    0.000210  -0.000128  -0.005612  -0.000018  -0.009756   0.015477
               7          8          9         10         11         12
     1  O    0.001380   0.000157   0.004041  -0.003371   0.000157   0.000814
     2  H   -0.000082   0.000623  -0.000435   0.000619  -0.000030  -0.000093
     3  C   -0.005688  -0.024782   0.008706  -0.005338   0.000093   0.008248
     4  H   -0.000095  -0.000590   0.000089  -0.000228  -0.000022   0.000054
     5  C    0.017194   0.028733  -0.003887   0.013973  -0.000473   0.008235
     6  C    0.010745  -0.010604  -0.005445  -0.006296   0.000727  -0.016894
     7  O   -0.106535   0.000638   0.001863   0.000734   0.000112  -0.000205
     8  O    0.000638   0.008885  -0.004312   0.003041   0.000604   0.000719
     9  C    0.001863  -0.004312   0.009346  -0.007868  -0.000757  -0.000608
    10  C    0.000734   0.003041  -0.007868   0.005922  -0.000057   0.000043
    11  H    0.000112   0.000604  -0.000757  -0.000057  -0.000224  -0.000080
    12  H   -0.000205   0.000719  -0.000608   0.000043  -0.000080  -0.000350
    13  H    0.000033   0.000237  -0.002000   0.001948  -0.000148   0.000140
    14  H   -0.000106  -0.000204   0.001252  -0.000826   0.000003  -0.000008
    15  H   -0.000262  -0.000814   0.001550  -0.000798   0.000153   0.000254
              13         14         15
     1  O   -0.000125  -0.000132   0.000210
     2  H    0.000032  -0.000048  -0.000128
     3  C   -0.000230  -0.000381  -0.005612
     4  H   -0.000011   0.000022  -0.000018
     5  C    0.000712  -0.001358  -0.009756
     6  C   -0.000171   0.001161   0.015477
     7  O    0.000033  -0.000106  -0.000262
     8  O    0.000237  -0.000204  -0.000814
     9  C   -0.002000   0.001252   0.001550
    10  C    0.001948  -0.000826  -0.000798
    11  H   -0.000148   0.000003   0.000153
    12  H    0.000140  -0.000008   0.000254
    13  H   -0.000219  -0.000061  -0.000340
    14  H   -0.000061   0.000071   0.000021
    15  H   -0.000340   0.000021  -0.000209
 Mulliken charges and spin densities:
               1          2
     1  O   -0.167451   0.904308
     2  H    0.242990  -0.034153
     3  C   -0.996327   1.011423
     4  H    0.209999  -0.075016
     5  C    1.147976  -0.922017
     6  C   -0.385833   0.191104
     7  O   -0.279505  -0.080275
     8  O   -0.030012   0.002332
     9  C   -0.159700   0.001534
    10  C   -0.387478   0.001498
    11  H    0.165804   0.000061
    12  H    0.172465   0.000269
    13  H    0.138790  -0.000201
    14  H    0.149891  -0.000595
    15  H    0.178389  -0.000273
 Sum of Mulliken charges =  -0.00000   1.00000
 Mulliken charges and spin densities with hydrogens summed into heavy atoms:
               1          2
     1  O    0.075539   0.870155
     3  C   -0.786328   0.936407
     5  C    1.147976  -0.922017
     6  C   -0.385833   0.191104
     7  O   -0.279505  -0.080275
     8  O   -0.030012   0.002332
     9  C    0.178569   0.001863
    10  C    0.079593   0.000429
 Electronic spatial extent (au):  <R**2>=           1064.1661
 Charge=              0.0000 electrons
 Dipole moment (field-independent basis, Debye):
    X=             -0.7818    Y=              0.5242    Z=             -0.7097  Tot=              1.1789
 Quadrupole moment (field-independent basis, Debye-Ang):
   XX=            -30.4377   YY=            -48.1402   ZZ=            -51.6612
   XY=             -0.9991   XZ=             -2.0524   YZ=              5.4970
 Traceless Quadrupole moment (field-independent basis, Debye-Ang):
   XX=             12.9754   YY=             -4.7272   ZZ=             -8.2482
   XY=             -0.9991   XZ=             -2.0524   YZ=              5.4970
 Octapole moment (field-independent basis, Debye-Ang**2):
  XXX=            -34.0073  YYY=              6.3012  ZZZ=             -1.7269  XYY=             -0.6926
  XXY=             -0.3448  XXZ=             -5.2242  XZZ=             -0.1193  YZZ=              7.9823
  YYZ=              3.5010  XYZ=             -7.1097
 Hexadecapole moment (field-independent basis, Debye-Ang**3):
 XXXX=           -750.1348 YYYY=           -254.8918 ZZZZ=           -174.2225 XXXY=             -9.9900
 XXXZ=             18.0230 YYYX=            -25.6473 YYYZ=             10.9956 ZZZX=            -11.3934
 ZZZY=              8.3634 XXYY=           -197.9947 XXZZ=           -180.7079 YYZZ=            -71.7510
 XXYZ=             20.5771 YYXZ=            -13.5823 ZZXY=             -9.6498
 N-N= 3.623178756599D+02 E-N=-1.707885276167D+03  KE= 4.177458686620D+02
 1\1\GINC-AJ\SP\UCCSD(T)-FC\6-311++G(d,p)\C5H7O3(2)\AAYUSH\03-Aug-2025\
 0\\# ccsd(t)/6-311++g(d,p) sp\\Title Card Required\\0,2\O,0,-1.406856,
 1.686632,0.098244\H,0,-2.035169,1.799293,0.828691\C,0,-2.783513,-0.491
 356,-0.442275\H,0,-3.809864,-0.565948,-0.717986\C,0,-1.622093,-0.31648
 8,-0.142075\C,0,-0.221743,-0.564111,0.230322\O,0,0.110224,-0.911451,1.
 327749\O,0,0.580882,-0.363667,-0.805785\C,0,1.995253,-0.449461,-0.5347
 13\C,0,2.48428,0.820272,0.133009\H,0,2.444354,-0.590967,-1.515941\H,0,
 2.182076,-1.328785,0.082676\H,0,3.566182,0.769746,0.270248\H,0,2.24873
 7,1.687456,-0.48508\H,0,2.016582,0.943957,1.11012\\Version=ES64L-G16Re
 vA.03\State=2-A\HF=-417.980471\MP2=-419.2375487\MP3=-419.2672074\MP4D=
 -419.2975975\MP4DQ=-419.2730213\PUHF=-418.000098\PMP2-0=-419.2546673\P
 MP3-0=-419.2800256\MP4SDQ=-419.2941388\CCSD=-419.2995698\CCSD(T)=-419.
 3535779\S2=0.989652\S2-1=0.9233\S2A=0.783859\RMSD=6.084e-09\PG=C01 [X(
 C5H7O3)]\\@


 THE PROBLEM WITH THE LADDER OF SUCCESS IS YOU CAN'T
 CLIMB IT WHILE YOU'RE TWIDDLING YOUR THUMBS.
 Job cpu time:       0 days 20 hours  3 minutes 36.8 seconds.
 Elapsed time:       0 days  0 hours 50 minutes 26.1 seconds.
 File lengths (MBytes):  RWF=  44733 Int=      0 D2E=      0 Chk=      6 Scr=      1
 Normal termination of Gaussian 16 at Sun Aug  3 05:45:42 2025.
