 Entering Gaussian System, Link 0=g16
 Initial command:
 /opt/g16/l1.exe "/home/aayush/scratches/g16/Gau-45857.inp" -scrdir="/home/aayush/scratches/g16/"
 Entering Link 1 = /opt/g16/l1.exe PID=     45860.
  
 Copyright (c) 1988,1990,1992,1993,1995,1998,2003,2009,2016,
            Gaussian, Inc.  All Rights Reserved.
  
 This is part of the Gaussian(R) 16 program.  It is based on
 the Gaussian(R) 09 system (copyright 2009, Gaussian, Inc.),
 the Gaussian(R) 03 system (copyright 2003, Gaussian, Inc.),
 the Gaussian(R) 98 system (copyright 1998, Gaussian, Inc.),
 the Gaussian(R) 94 system (copyright 1995, Gaussian, Inc.),
 the Gaussian 92(TM) system (copyright 1992, Gaussian, Inc.),
 the Gaussian 90(TM) system (copyright 1990, Gaussian, Inc.),
 the Gaussian 88(TM) system (copyright 1988, Gaussian, Inc.),
 the Gaussian 86(TM) system (copyright 1986, Carnegie Mellon
 University), and the Gaussian 82(TM) system (copyright 1983,
 Carnegie Mellon University). Gaussian is a federally registered
 trademark of Gaussian, Inc.
  
 This software contains proprietary and confidential information,
 including trade secrets, belonging to Gaussian, Inc.
  
 This software is provided under written license and may be
 used, copied, transmitted, or stored only in accord with that
 written license.
  
 The following legend is applicable only to US Government
 contracts under FAR:
  
                    RESTRICTED RIGHTS LEGEND
  
 Use, reproduction and disclosure by the US Government is
 subject to restrictions as set forth in subparagraphs (a)
 and (c) of the Commercial Computer Software - Restricted
 Rights clause in FAR 52.227-19.
  
 Gaussian, Inc.
 340 Quinnipiac St., Bldg. 40, Wallingford CT 06492
  
  
 ---------------------------------------------------------------
 Warning -- This program may not be used in any manner that
 competes with the business of Gaussian, Inc. or will provide
 assistance to any competitor of Gaussian, Inc.  The licensee
 of this program is prohibited from giving any competitor of
 Gaussian, Inc. access to this program.  By using this program,
 the user acknowledges that Gaussian, Inc. is engaged in the
 business of creating and licensing software in the field of
 computational chemistry and represents and warrants to the
 licensee that it is not a competitor of Gaussian, Inc. and that
 it will not use this program in any manner prohibited above.
 ---------------------------------------------------------------
  

 Cite this work as:
 Gaussian 16, Revision A.03,
 M. J. Frisch, G. W. Trucks, H. B. Schlegel, G. E. Scuseria, 
 M. A. Robb, J. R. Cheeseman, G. Scalmani, V. Barone, 
 G. A. Petersson, H. Nakatsuji, X. Li, M. Caricato, A. V. Marenich, 
 J. Bloino, B. G. Janesko, R. Gomperts, B. Mennucci, H. P. Hratchian, 
 J. V. Ortiz, A. F. Izmaylov, J. L. Sonnenberg, D. Williams-Young, 
 F. Ding, F. Lipparini, F. Egidi, J. Goings, B. Peng, A. Petrone, 
 T. Henderson, D. Ranasinghe, V. G. Zakrzewski, J. Gao, N. Rega, 
 G. Zheng, W. Liang, M. Hada, M. Ehara, K. Toyota, R. Fukuda, 
 J. Hasegawa, M. Ishida, T. Nakajima, Y. Honda, O. Kitao, H. Nakai, 
 T. Vreven, K. Throssell, J. A. Montgomery, Jr., J. E. Peralta, 
 F. Ogliaro, M. J. Bearpark, J. J. Heyd, E. N. Brothers, K. N. Kudin, 
 V. N. Staroverov, T. A. Keith, R. Kobayashi, J. Normand, 
 K. Raghavachari, A. P. Rendell, J. C. Burant, S. S. Iyengar, 
 J. Tomasi, M. Cossi, J. M. Millam, M. Klene, C. Adamo, R. Cammi, 
 J. W. Ochterski, R. L. Martin, K. Morokuma, O. Farkas, 
 J. B. Foresman, and D. J. Fox, Gaussian, Inc., Wallingford CT, 2016.
 
 ******************************************
 Gaussian 16:  ES64L-G16RevA.03 25-Dec-2016
                16-Aug-2025 
 ******************************************
 %nprocshared=24
 Will use up to   24 processors via shared memory.
 %mem=12GB
 %chk=ethyl_propiolate_ts1.chk
 --------------------------
 # freq 6-311++g(d,p) m062x
 --------------------------
 1/10=4,30=1,38=1/1,3;
 2/12=2,17=6,18=5,40=1/2;
 3/5=4,6=6,7=1111,11=2,25=1,30=1,71=2,74=-55,140=1/1,2,3;
 4//1;
 5/5=2,38=5,98=1/2;
 8/6=4,10=90,11=11/1;
 11/6=1,8=1,9=11,15=111,16=1/1,2,10;
 10/6=1/2;
 6/7=2,8=2,9=2,10=2,28=1/1;
 7/8=1,10=1,25=1/1,2,3,16;
 1/10=4,30=1/3;
 99//99;
 -------------------
 Title Card Required
 -------------------
 Symbolic Z-matrix:
 Charge =  0 Multiplicity = 2
 O                    -1.34446   1.76571   0.10649 
 H                    -1.97871   1.83617   0.83843 
 C                    -2.73309  -0.46505  -0.44955 
 H                    -3.76198  -0.51061  -0.72102 
 C                    -1.56834  -0.37296  -0.15826 
 C                    -0.1663   -0.55215   0.2232 
 O                     0.17069  -0.88709   1.3239 
 O                     0.63803  -0.3368   -0.80991 
 C                     2.05177  -0.4228   -0.53871 
 C                     2.54183   0.84452   0.13241 
 H                     2.50137  -0.56209  -1.5201 
 H                     2.23829  -1.30364   0.07676 
 H                     3.62378   0.79353   0.26914 
 H                     2.30673   1.71352  -0.4834 
 H                     2.07439   0.96532   1.10995 
 

 GradGradGradGradGradGradGradGradGradGradGradGradGradGradGradGradGradGrad
 Berny optimization.
 Initialization pass.
 Trust Radius=3.00D-01 FncErr=1.00D-07 GrdErr=1.00D-07 EigMax=2.50D+02 EigMin=1.00D-04
 Number of steps in this run=      2 maximum allowed number of steps=      2.
 GradGradGradGradGradGradGradGradGradGradGradGradGradGradGradGradGradGrad

                          Input orientation:                          
 ---------------------------------------------------------------------
 Center     Atomic      Atomic             Coordinates (Angstroms)
 Number     Number       Type             X           Y           Z
 ---------------------------------------------------------------------
      1          8           0       -1.344460    1.765708    0.106493
      2          1           0       -1.978710    1.836166    0.838426
      3          6           0       -2.733094   -0.465050   -0.449550
      4          1           0       -3.761976   -0.510612   -0.721015
      5          6           0       -1.568335   -0.372960   -0.158260
      6          6           0       -0.166304   -0.552154    0.223199
      7          8           0        0.170690   -0.887091    1.323895
      8          8           0        0.638031   -0.336803   -0.809906
      9          6           0        2.051768   -0.422800   -0.538709
     10          6           0        2.541831    0.844523    0.132411
     11          1           0        2.501374   -0.562093   -1.520099
     12          1           0        2.238292   -1.303640    0.076756
     13          1           0        3.623779    0.793531    0.269137
     14          1           0        2.306725    1.713523   -0.483398
     15          1           0        2.074389    0.965317    1.109946
 ---------------------------------------------------------------------
                    Distance matrix (angstroms):
                    1          2          3          4          5
     1  O    0.000000
     2  H    0.971063   0.000000
     3  C    2.685846   2.742913   0.000000
     4  H    3.422103   3.334556   1.065067   0.000000
     5  C    2.166591   2.458054   1.204157   2.268855   0.000000
     6  C    2.602721   3.060620   2.654918   3.717812   1.464006
     7  O    3.288630   3.503103   3.428584   4.448512   2.342076
     8  O    3.031602   3.779699   3.392755   4.404336   2.300870
     9  C    4.091481   4.821222   4.785879   5.817264   3.640381
    10  C    3.994059   4.681571   5.466122   6.504053   4.296536
    11  H    4.780680   5.602271   5.343702   6.314328   4.295685
    12  H    4.717827   5.312403   5.069015   6.104797   3.925787
    13  H    5.065075   5.727046   6.519998   7.565089   5.338672
    14  H    3.698898   4.486336   5.490638   6.467795   4.413073
    15  H    3.651859   4.154481   5.252606   6.292372   4.082740
                    6          7          8          9         10
     6  C    0.000000
     7  O    1.198866   0.000000
     8  O    1.326890   2.252628   0.000000
     9  C    2.348846   2.687622   1.442080   0.000000
    10  C    3.048433   3.168664   2.430627   1.515477   0.000000
    11  H    3.186800   3.691343   2.006783   1.088428   2.170483
    12  H    2.523541   2.450275   2.069246   1.090627   2.170216
    13  H    4.022152   3.982566   3.369967   2.145529   1.091744
    14  H    3.427600   3.819967   2.663641   2.152194   1.090714
    15  H    2.847761   2.664819   2.728456   2.155329   1.090260
                   11         12         13         14         15
    11  H    0.000000
    12  H    1.780183   0.000000
    13  H    2.509756   2.520855   0.000000
    14  H    2.508200   3.069483   1.774070   0.000000
    15  H    3.071227   2.498502   1.771180   1.775539   0.000000
 Stoichiometry    C5H7O3(2)
 Framework group  C1[X(C5H7O3)]
 Deg. of freedom    39
 Full point group                 C1      NOp   1
 Largest Abelian subgroup         C1      NOp   1
 Largest concise Abelian subgroup C1      NOp   1
                         Standard orientation:                         
 ---------------------------------------------------------------------
 Center     Atomic      Atomic             Coordinates (Angstroms)
 Number     Number       Type             X           Y           Z
 ---------------------------------------------------------------------
      1          8           0       -1.399437    1.744684    0.087529
      2          1           0       -2.032937    1.825776    0.819010
      3          6           0       -2.790960   -0.491932   -0.436857
      4          1           0       -3.820140   -0.540073   -0.706745
      5          6           0       -1.625836   -0.397145   -0.147902
      6          6           0       -0.223646   -0.572646    0.234689
      7          8           0        0.114003   -0.892943    1.339534
      8          8           0        0.579967   -0.372236   -0.801978
      9          6           0        1.993860   -0.456061   -0.530917
     10          6           0        2.485892    0.819745    0.122456
     11          1           0        2.442414   -0.609176   -1.510728
     12          1           0        2.180011   -1.328648    0.096305
     13          1           0        3.567910    0.769450    0.258883
     14          1           0        2.251146    1.680540   -0.504904
     15          1           0        2.019479    0.954329    1.098680
 ---------------------------------------------------------------------
 Rotational constants (GHZ):           3.5110847           1.3070987           1.1775327
 Standard basis: 6-311++G(d,p) (5D, 7F)
 There are   233 symmetry adapted cartesian basis functions of A   symmetry.
 There are   225 symmetry adapted basis functions of A   symmetry.
   225 basis functions,   351 primitive gaussians,   233 cartesian basis functions
    31 alpha electrons       30 beta electrons
       nuclear repulsion energy       360.7705107909 Hartrees.
 NAtoms=   15 NActive=   15 NUniq=   15 SFac= 1.00D+00 NAtFMM=   60 NAOKFM=F Big=F
 Integral buffers will be    131072 words long.
 Raffenetti 2 integral format.
 Two-electron integral symmetry is turned on.
 One-electron integrals computed using PRISM.
 NBasis=   225 RedAO= T EigKep=  1.26D-06  NBF=   225
 NBsUse=   225 1.00D-06 EigRej= -1.00D+00 NBFU=   225
 ExpMin= 3.60D-02 ExpMax= 8.59D+03 ExpMxC= 1.30D+03 IAcc=3 IRadAn=         5 AccDes= 0.00D+00
 Harris functional with IExCor= 1009 and IRadAn=       5 diagonalized for initial guess.
 HarFok:  IExCor= 1009 AccDes= 0.00D+00 IRadAn=         5 IDoV= 1 UseB2=F ITyADJ=14
 ICtDFT=  3500011 ScaDFX=  1.000000  1.000000  1.000000  1.000000
 FoFCou: FMM=F IPFlag=           0 FMFlag=      100000 FMFlg1=           0
         NFxFlg=           0 DoJE=T BraDBF=F KetDBF=T FulRan=T
         wScrn=  0.000000 ICntrl=       500 IOpCl=  0 I1Cent=   200000004 NGrid=           0
         NMat0=    1 NMatS0=      1 NMatT0=    0 NMatD0=    1 NMtDS0=    0 NMtDT0=    0
 Petite list used in FoFCou.
 Initial guess <Sx>= 0.0000 <Sy>= 0.0000 <Sz>= 0.5000 <S**2>= 0.7500 S= 0.5000
 Requested convergence on RMS density matrix=1.00D-08 within 128 cycles.
 Requested convergence on MAX density matrix=1.00D-06.
 Requested convergence on             energy=1.00D-06.
 No special actions if energy rises.
 Restarting incremental Fock formation.
 SCF Done:  E(UM062X) =  -420.204970189     A.U. after   24 cycles
            NFock= 24  Conv=0.36D-08     -V/T= 2.0032
 <Sx>= 0.0000 <Sy>= 0.0000 <Sz>= 0.5000 <S**2>= 0.7615 S= 0.5058
 <L.S>=  0.00000000000    
 Annihilation of the first spin contaminant:
 S**2 before annihilation     0.7615,   after     0.7501
 DoSCS=F DFT=T ScalE2(SS,OS)=  1.000000  1.000000
 Range of M.O.s used for correlation:     1   225
 NBasis=   225 NAE=    31 NBE=    30 NFC=     0 NFV=     0
 NROrb=    225 NOA=    31 NOB=    30 NVA=   194 NVB=   195

 **** Warning!!: The largest alpha MO coefficient is  0.30526915D+03


 **** Warning!!: The largest beta MO coefficient is  0.25077041D+03

 Symmetrizing basis deriv contribution to polar:
 IMax=3 JMax=2 DiffMx= 0.00D+00
 G2DrvN: will do    16 centers at a time, making    1 passes.
 Calling FoFCou, ICntrl=  3107 FMM=F I1Cent=   0 AccDes= 0.00D+00.
 End of G2Drv F.D. properties file   721 does not exist.
 End of G2Drv F.D. properties file   722 does not exist.
 End of G2Drv F.D. properties file   788 does not exist.
          IDoAtm=111111111111111
          Differentiating once with respect to electric field.
                with respect to dipole field.
          Differentiating once with respect to nuclear coordinates.
 Keep R1 and R2 ints in memory in canonical form, NReq=671901991.
          There are    48 degrees of freedom in the 1st order CPHF.  IDoFFX=6 NUNeed=     3.
     45 vectors produced by pass  0 Test12= 2.47D-14 2.08D-09 XBig12= 9.44D+01 3.44D+00.
 AX will form    45 AO Fock derivatives at one time.
     45 vectors produced by pass  1 Test12= 2.47D-14 2.08D-09 XBig12= 2.06D+01 5.12D-01.
     45 vectors produced by pass  2 Test12= 2.47D-14 2.08D-09 XBig12= 7.11D-01 1.26D-01.
     45 vectors produced by pass  3 Test12= 2.47D-14 2.08D-09 XBig12= 1.03D-02 1.40D-02.
     45 vectors produced by pass  4 Test12= 2.47D-14 2.08D-09 XBig12= 9.57D-05 1.28D-03.
     45 vectors produced by pass  5 Test12= 2.47D-14 2.08D-09 XBig12= 7.30D-07 8.23D-05.
     38 vectors produced by pass  6 Test12= 2.47D-14 2.08D-09 XBig12= 6.81D-09 1.33D-05.
     20 vectors produced by pass  7 Test12= 2.47D-14 2.08D-09 XBig12= 4.81D-11 6.82D-07.
      4 vectors produced by pass  8 Test12= 2.47D-14 2.08D-09 XBig12= 4.10D-13 5.77D-08.
      3 vectors produced by pass  9 Test12= 2.47D-14 2.08D-09 XBig12= 5.92D-15 8.09D-09.
      2 vectors produced by pass 10 Test12= 2.47D-14 2.08D-09 XBig12= 1.41D-15 6.41D-09.
 InvSVY:  IOpt=1 It=  1 EMax= 1.07D-14
 Solved reduced A of dimension   337 with    48 vectors.
 Isotropic polarizability for W=    0.000000       72.66 Bohr**3.
 End of Minotr F.D. properties file   721 does not exist.
 End of Minotr F.D. properties file   722 does not exist.
 End of Minotr F.D. properties file   788 does not exist.

 **********************************************************************

            Population analysis using the SCF density.

 **********************************************************************

 Orbital symmetries:
 Alpha Orbitals:
       Occupied  (A) (A) (A) (A) (A) (A) (A) (A) (A) (A) (A) (A)
                 (A) (A) (A) (A) (A) (A) (A) (A) (A) (A) (A) (A)
                 (A) (A) (A) (A) (A) (A) (A)
       Virtual   (A) (A) (A) (A) (A) (A) (A) (A) (A) (A) (A) (A)
                 (A) (A) (A) (A) (A) (A) (A) (A) (A) (A) (A) (A)
                 (A) (A) (A) (A) (A) (A) (A) (A) (A) (A) (A) (A)
                 (A) (A) (A) (A) (A) (A) (A) (A) (A) (A) (A) (A)
                 (A) (A) (A) (A) (A) (A) (A) (A) (A) (A) (A) (A)
                 (A) (A) (A) (A) (A) (A) (A) (A) (A) (A) (A) (A)
                 (A) (A) (A) (A) (A) (A) (A) (A) (A) (A) (A) (A)
                 (A) (A) (A) (A) (A) (A) (A) (A) (A) (A) (A) (A)
                 (A) (A) (A) (A) (A) (A) (A) (A) (A) (A) (A) (A)
                 (A) (A) (A) (A) (A) (A) (A) (A) (A) (A) (A) (A)
                 (A) (A) (A) (A) (A) (A) (A) (A) (A) (A) (A) (A)
                 (A) (A) (A) (A) (A) (A) (A) (A) (A) (A) (A) (A)
                 (A) (A) (A) (A) (A) (A) (A) (A) (A) (A) (A) (A)
                 (A) (A) (A) (A) (A) (A) (A) (A) (A) (A) (A) (A)
                 (A) (A) (A) (A) (A) (A) (A) (A) (A) (A) (A) (A)
                 (A) (A) (A) (A) (A) (A) (A) (A) (A) (A) (A) (A)
                 (A) (A)
 Beta  Orbitals:
       Occupied  (A) (A) (A) (A) (A) (A) (A) (A) (A) (A) (A) (A)
                 (A) (A) (A) (A) (A) (A) (A) (A) (A) (A) (A) (A)
                 (A) (A) (A) (A) (A) (A)
       Virtual   (A) (A) (A) (A) (A) (A) (A) (A) (A) (A) (A) (A)
                 (A) (A) (A) (A) (A) (A) (A) (A) (A) (A) (A) (A)
                 (A) (A) (A) (A) (A) (A) (A) (A) (A) (A) (A) (A)
                 (A) (A) (A) (A) (A) (A) (A) (A) (A) (A) (A) (A)
                 (A) (A) (A) (A) (A) (A) (A) (A) (A) (A) (A) (A)
                 (A) (A) (A) (A) (A) (A) (A) (A) (A) (A) (A) (A)
                 (A) (A) (A) (A) (A) (A) (A) (A) (A) (A) (A) (A)
                 (A) (A) (A) (A) (A) (A) (A) (A) (A) (A) (A) (A)
                 (A) (A) (A) (A) (A) (A) (A) (A) (A) (A) (A) (A)
                 (A) (A) (A) (A) (A) (A) (A) (A) (A) (A) (A) (A)
                 (A) (A) (A) (A) (A) (A) (A) (A) (A) (A) (A) (A)
                 (A) (A) (A) (A) (A) (A) (A) (A) (A) (A) (A) (A)
                 (A) (A) (A) (A) (A) (A) (A) (A) (A) (A) (A) (A)
                 (A) (A) (A) (A) (A) (A) (A) (A) (A) (A) (A) (A)
                 (A) (A) (A) (A) (A) (A) (A) (A) (A) (A) (A) (A)
                 (A) (A) (A) (A) (A) (A) (A) (A) (A) (A) (A) (A)
                 (A) (A) (A)
 The electronic state is 2-A.
 Alpha  occ. eigenvalues --  -19.68013 -19.67047 -19.62912 -10.70529 -10.60307
 Alpha  occ. eigenvalues --  -10.58142 -10.57748 -10.53358  -1.25531  -1.16230
 Alpha  occ. eigenvalues --   -1.12943  -0.90696  -0.87222  -0.77978  -0.70520
 Alpha  occ. eigenvalues --   -0.64333  -0.61751  -0.58414  -0.57084  -0.54480
 Alpha  occ. eigenvalues --   -0.53238  -0.50446  -0.48578  -0.46154  -0.45036
 Alpha  occ. eigenvalues --   -0.42018  -0.41703  -0.39486  -0.38258  -0.36456
 Alpha  occ. eigenvalues --   -0.35400
 Alpha virt. eigenvalues --   -0.00909  -0.00203   0.00513   0.01472   0.02526
 Alpha virt. eigenvalues --    0.02793   0.03653   0.04398   0.05635   0.06185
 Alpha virt. eigenvalues --    0.07148   0.07663   0.08467   0.09815   0.10736
 Alpha virt. eigenvalues --    0.10991   0.11566   0.12722   0.12814   0.13719
 Alpha virt. eigenvalues --    0.14351   0.14807   0.15551   0.15738   0.15940
 Alpha virt. eigenvalues --    0.16793   0.17638   0.18637   0.18950   0.20726
 Alpha virt. eigenvalues --    0.21211   0.21796   0.23363   0.24161   0.24376
 Alpha virt. eigenvalues --    0.25655   0.26011   0.28608   0.29316   0.30448
 Alpha virt. eigenvalues --    0.31246   0.32183   0.32308   0.33659   0.34450
 Alpha virt. eigenvalues --    0.34647   0.35540   0.37055   0.38738   0.40437
 Alpha virt. eigenvalues --    0.41022   0.43333   0.45212   0.46823   0.49788
 Alpha virt. eigenvalues --    0.50266   0.53435   0.55352   0.56161   0.58768
 Alpha virt. eigenvalues --    0.59617   0.61032   0.63379   0.66598   0.67213
 Alpha virt. eigenvalues --    0.70072   0.70628   0.70904   0.72315   0.73188
 Alpha virt. eigenvalues --    0.74319   0.75765   0.77383   0.77999   0.80096
 Alpha virt. eigenvalues --    0.84639   0.87845   0.90988   0.95086   0.99048
 Alpha virt. eigenvalues --    1.02399   1.05475   1.06561   1.09305   1.09966
 Alpha virt. eigenvalues --    1.14316   1.17469   1.18871   1.20270   1.23298
 Alpha virt. eigenvalues --    1.24656   1.25956   1.29635   1.32087   1.35123
 Alpha virt. eigenvalues --    1.35450   1.36906   1.37708   1.40793   1.44581
 Alpha virt. eigenvalues --    1.45548   1.49154   1.51638   1.52917   1.54974
 Alpha virt. eigenvalues --    1.58572   1.59872   1.61706   1.62532   1.65352
 Alpha virt. eigenvalues --    1.66693   1.67803   1.70529   1.73045   1.75054
 Alpha virt. eigenvalues --    1.78646   1.81515   1.83730   1.87037   1.89093
 Alpha virt. eigenvalues --    1.91318   1.95806   1.99534   2.03463   2.05384
 Alpha virt. eigenvalues --    2.09528   2.10106   2.14338   2.21441   2.31889
 Alpha virt. eigenvalues --    2.35905   2.40596   2.47162   2.51964   2.52424
 Alpha virt. eigenvalues --    2.54552   2.56193   2.62192   2.62734   2.63766
 Alpha virt. eigenvalues --    2.65347   2.66544   2.71850   2.73646   2.75924
 Alpha virt. eigenvalues --    2.81178   2.82965   2.84385   2.90450   2.93676
 Alpha virt. eigenvalues --    2.94546   2.95716   2.99229   3.02773   3.06366
 Alpha virt. eigenvalues --    3.07004   3.12381   3.15625   3.16974   3.17928
 Alpha virt. eigenvalues --    3.25366   3.27048   3.32038   3.36535   3.38727
 Alpha virt. eigenvalues --    3.44975   3.52752   3.66197   3.77293   3.85608
 Alpha virt. eigenvalues --    3.86326   3.88375   3.91270   4.03716   4.13747
 Alpha virt. eigenvalues --    4.19754   4.28605   5.09774   5.12911   5.16455
 Alpha virt. eigenvalues --    5.20356   5.32899   5.47515   5.57743   5.73919
 Alpha virt. eigenvalues --    5.95101  23.62294  23.93540  23.94519  24.06263
 Alpha virt. eigenvalues --   25.11310  49.94671  50.01254  50.11686
  Beta  occ. eigenvalues --  -19.68018 -19.65516 -19.62928 -10.70512 -10.60307
  Beta  occ. eigenvalues --  -10.58144 -10.57615 -10.53359  -1.25538  -1.16264
  Beta  occ. eigenvalues --   -1.05931  -0.90332  -0.86908  -0.77830  -0.70371
  Beta  occ. eigenvalues --   -0.64272  -0.61423  -0.58367  -0.56590  -0.53216
  Beta  occ. eigenvalues --   -0.51905  -0.49022  -0.46514  -0.45079  -0.41699
  Beta  occ. eigenvalues --   -0.39427  -0.39017  -0.38377  -0.38077  -0.36028
  Beta virt. eigenvalues --   -0.09166  -0.00308   0.00096   0.00565   0.01766
  Beta virt. eigenvalues --    0.02637   0.02825   0.03674   0.04485   0.05706
  Beta virt. eigenvalues --    0.06195   0.07243   0.07661   0.08497   0.09905
  Beta virt. eigenvalues --    0.10821   0.11202   0.11749   0.12748   0.12927
  Beta virt. eigenvalues --    0.13751   0.14402   0.14994   0.15581   0.15770
  Beta virt. eigenvalues --    0.16169   0.16875   0.17782   0.18728   0.19063
  Beta virt. eigenvalues --    0.20836   0.21346   0.21933   0.23234   0.24179
  Beta virt. eigenvalues --    0.24472   0.25735   0.26069   0.28841   0.29148
  Beta virt. eigenvalues --    0.30503   0.31201   0.32238   0.32381   0.33698
  Beta virt. eigenvalues --    0.34492   0.34631   0.35644   0.37062   0.38802
  Beta virt. eigenvalues --    0.40422   0.41121   0.43281   0.45221   0.46843
  Beta virt. eigenvalues --    0.49890   0.50292   0.53457   0.55455   0.56548
  Beta virt. eigenvalues --    0.59237   0.59798   0.61414   0.63402   0.66736
  Beta virt. eigenvalues --    0.67238   0.70078   0.70620   0.70972   0.72281
  Beta virt. eigenvalues --    0.73226   0.74332   0.75759   0.77421   0.78098
  Beta virt. eigenvalues --    0.80128   0.84779   0.87885   0.91233   0.95299
  Beta virt. eigenvalues --    0.99135   1.02590   1.05832   1.07333   1.09663
  Beta virt. eigenvalues --    1.11476   1.14956   1.17653   1.19442   1.20558
  Beta virt. eigenvalues --    1.23824   1.25033   1.26066   1.29811   1.33071
  Beta virt. eigenvalues --    1.35331   1.35708   1.37024   1.38475   1.41233
  Beta virt. eigenvalues --    1.45062   1.46119   1.49277   1.51858   1.53553
  Beta virt. eigenvalues --    1.55391   1.58582   1.59883   1.61791   1.62544
  Beta virt. eigenvalues --    1.65365   1.66711   1.67832   1.70621   1.73371
  Beta virt. eigenvalues --    1.75157   1.79082   1.81537   1.83977   1.87122
  Beta virt. eigenvalues --    1.89361   1.91395   1.96233   1.99549   2.03552
  Beta virt. eigenvalues --    2.05456   2.10017   2.11017   2.14348   2.21450
  Beta virt. eigenvalues --    2.31901   2.35912   2.40935   2.47214   2.51960
  Beta virt. eigenvalues --    2.52394   2.54566   2.56257   2.62272   2.62980
  Beta virt. eigenvalues --    2.64345   2.65471   2.66640   2.72042   2.73754
  Beta virt. eigenvalues --    2.76286   2.82003   2.83081   2.86563   2.90966
  Beta virt. eigenvalues --    2.94798   2.97374   2.97467   2.99641   3.03764
  Beta virt. eigenvalues --    3.07031   3.08874   3.12855   3.16329   3.19034
  Beta virt. eigenvalues --    3.19681   3.26524   3.27201   3.32117   3.36935
  Beta virt. eigenvalues --    3.38693   3.44933   3.53179   3.66188   3.77347
  Beta virt. eigenvalues --    3.85677   3.86408   3.91270   3.91643   4.03711
  Beta virt. eigenvalues --    4.13711   4.19717   4.28602   5.11639   5.15990
  Beta virt. eigenvalues --    5.20505   5.21514   5.32962   5.47542   5.60013
  Beta virt. eigenvalues --    5.73903   5.95091  23.62339  23.93545  23.94525
  Beta virt. eigenvalues --   24.06263  25.11558  49.94217  50.01229  50.11707
          Condensed to atoms (all electrons):
               1          2          3          4          5          6
     1  O    8.065553   0.240218  -0.148812  -0.001390   0.488234  -0.400698
     2  H    0.240218   0.508288  -0.148978  -0.002554   0.089750   0.079496
     3  C   -0.148812  -0.148978  42.090336   0.754088 -15.184591 -19.667766
     4  H   -0.001390  -0.002554   0.754088   0.434738  -0.264216  -0.097611
     5  C    0.488234   0.089750 -15.184591  -0.264216  21.661341  -1.771301
     6  C   -0.400698   0.079496 -19.667766  -0.097611  -1.771301  27.449288
     7  O   -0.010014  -0.000732   0.027890  -0.001447   0.205232   0.176896
     8  O   -0.002446  -0.000519  -0.053609  -0.003469  -0.179596   0.075272
     9  C   -0.029001   0.004832  -0.364037  -0.001188  -0.543908   0.779872
    10  C    0.021460  -0.004639   0.122113   0.000089   0.137209  -0.381249
    11  H    0.000043   0.000151  -0.028444  -0.000011  -0.033629   0.069928
    12  H   -0.000664   0.000156  -0.029692  -0.000268  -0.051501   0.063871
    13  H    0.000639   0.000089  -0.008815  -0.000034  -0.012054   0.024028
    14  H   -0.001304  -0.000232   0.004831   0.000049   0.014399  -0.019167
    15  H    0.001825  -0.000138   0.037247  -0.000085   0.020710  -0.074431
               7          8          9         10         11         12
     1  O   -0.010014  -0.002446  -0.029001   0.021460   0.000043  -0.000664
     2  H   -0.000732  -0.000519   0.004832  -0.004639   0.000151   0.000156
     3  C    0.027890  -0.053609  -0.364037   0.122113  -0.028444  -0.029692
     4  H   -0.001447  -0.003469  -0.001188   0.000089  -0.000011  -0.000268
     5  C    0.205232  -0.179596  -0.543908   0.137209  -0.033629  -0.051501
     6  C    0.176896   0.075272   0.779872  -0.381249   0.069928   0.063871
     7  O    7.984643  -0.144966   0.041901  -0.067802   0.003861  -0.017605
     8  O   -0.144966   8.256302   0.124572  -0.024550  -0.094098  -0.005921
     9  C    0.041901   0.124572   5.475986   0.002127   0.453221   0.415301
    10  C   -0.067802  -0.024550   0.002127   5.503996  -0.059397  -0.034588
    11  H    0.003861  -0.094098   0.453221  -0.059397   0.533025  -0.038035
    12  H   -0.017605  -0.005921   0.415301  -0.034588  -0.038035   0.519330
    13  H   -0.002071   0.015111  -0.042669   0.396098   0.000489  -0.004116
    14  H    0.001570  -0.001598  -0.038043   0.419033  -0.011063   0.004737
    15  H    0.001389  -0.021088  -0.008645   0.386297   0.009089  -0.010127
              13         14         15
     1  O    0.000639  -0.001304   0.001825
     2  H    0.000089  -0.000232  -0.000138
     3  C   -0.008815   0.004831   0.037247
     4  H   -0.000034   0.000049  -0.000085
     5  C   -0.012054   0.014399   0.020710
     6  C    0.024028  -0.019167  -0.074431
     7  O   -0.002071   0.001570   0.001389
     8  O    0.015111  -0.001598  -0.021088
     9  C   -0.042669  -0.038043  -0.008645
    10  C    0.396098   0.419033   0.386297
    11  H    0.000489  -0.011063   0.009089
    12  H   -0.004116   0.004737  -0.010127
    13  H    0.530264  -0.030159  -0.037054
    14  H   -0.030159   0.529740  -0.043904
    15  H   -0.037054  -0.043904   0.549825
          Atomic-Atomic Spin Densities.
               1          2          3          4          5          6
     1  O    0.969947   0.012730  -0.305671  -0.003504  -0.011179   0.212323
     2  H    0.012730  -0.032963   0.015120   0.000183  -0.005644  -0.009317
     3  C   -0.305671   0.015120   1.393795   0.047267  -0.432121  -0.502012
     4  H   -0.003504   0.000183   0.047267  -0.006671  -0.028438  -0.019095
     5  C   -0.011179  -0.005644  -0.432121  -0.028438   0.280247   0.104254
     6  C    0.212323  -0.009317  -0.502012  -0.019095   0.104254   0.238058
     7  O    0.001807  -0.000194   0.007665   0.000006   0.002160  -0.007913
     8  O    0.001430   0.000339  -0.016287  -0.000206   0.003204   0.019245
     9  C    0.005657  -0.000582  -0.017899  -0.000071  -0.022377   0.035028
    10  C   -0.003960   0.000709   0.017744   0.000045   0.026157  -0.037167
    11  H    0.000324  -0.000018  -0.002098  -0.000027  -0.001442   0.003265
    12  H    0.000312  -0.000037   0.000097  -0.000022  -0.000588  -0.000346
    13  H   -0.000083   0.000034   0.001117   0.000007   0.001889  -0.002633
    14  H   -0.000018  -0.000053   0.000278   0.000003  -0.000614   0.000237
    15  H   -0.000007  -0.000197  -0.007041   0.000007  -0.012480   0.020422
               7          8          9         10         11         12
     1  O    0.001807   0.001430   0.005657  -0.003960   0.000324   0.000312
     2  H   -0.000194   0.000339  -0.000582   0.000709  -0.000018  -0.000037
     3  C    0.007665  -0.016287  -0.017899   0.017744  -0.002098   0.000097
     4  H    0.000006  -0.000206  -0.000071   0.000045  -0.000027  -0.000022
     5  C    0.002160   0.003204  -0.022377   0.026157  -0.001442  -0.000588
     6  C   -0.007913   0.019245   0.035028  -0.037167   0.003265  -0.000346
     7  O   -0.011427   0.000166  -0.000031   0.000813   0.000054  -0.000326
     8  O    0.000166  -0.005273  -0.001982   0.000443   0.000028   0.000105
     9  C   -0.000031  -0.001982   0.006512  -0.005769   0.000549   0.001075
    10  C    0.000813   0.000443  -0.005769   0.003254  -0.000917  -0.000934
    11  H    0.000054   0.000028   0.000549  -0.000917  -0.000026   0.000271
    12  H   -0.000326   0.000105   0.001075  -0.000934   0.000271   0.000087
    13  H    0.000031   0.000074  -0.001197   0.001256  -0.000088  -0.000220
    14  H   -0.000052  -0.000018   0.000163  -0.000202   0.000019   0.000050
    15  H   -0.000329  -0.000915   0.000650  -0.000117   0.000224   0.000477
              13         14         15
     1  O   -0.000083  -0.000018  -0.000007
     2  H    0.000034  -0.000053  -0.000197
     3  C    0.001117   0.000278  -0.007041
     4  H    0.000007   0.000003   0.000007
     5  C    0.001889  -0.000614  -0.012480
     6  C   -0.002633   0.000237   0.020422
     7  O    0.000031  -0.000052  -0.000329
     8  O    0.000074  -0.000018  -0.000915
     9  C   -0.001197   0.000163   0.000650
    10  C    0.001256  -0.000202  -0.000117
    11  H   -0.000088   0.000019   0.000224
    12  H   -0.000220   0.000050   0.000477
    13  H    0.000546  -0.000257  -0.000408
    14  H   -0.000257   0.000299  -0.000039
    15  H   -0.000408  -0.000039  -0.001132
 Mulliken charges and spin densities:
               1          2
     1  O   -0.223643   0.880108
     2  H    0.234812  -0.019889
     3  C   -1.401761   0.199956
     4  H    0.183307  -0.010514
     5  C    1.423922  -0.096973
     6  C   -0.306428   0.054350
     7  O   -0.198743  -0.007571
     8  O    0.060602   0.000352
     9  C   -0.270320  -0.000274
    10  C   -0.416195   0.001357
    11  H    0.194869   0.000119
    12  H    0.189123   0.000000
    13  H    0.170253   0.000068
    14  H    0.171111  -0.000204
    15  H    0.189091  -0.000887
 Sum of Mulliken charges =  -0.00000   1.00000
 Mulliken charges and spin densities with hydrogens summed into heavy atoms:
               1          2
     1  O    0.011168   0.860219
     3  C   -1.218454   0.189442
     5  C    1.423922  -0.096973
     6  C   -0.306428   0.054350
     7  O   -0.198743  -0.007571
     8  O    0.060602   0.000352
     9  C    0.113672  -0.000155
    10  C    0.114260   0.000335
 APT charges:
               1
     1  O   -0.188392
     2  H    0.258646
     3  C   -0.188969
     4  H    0.234521
     5  C   -0.386023
     6  C    1.471909
     7  O   -0.778782
     8  O   -0.941897
     9  C    0.534277
    10  C   -0.041764
    11  H   -0.013738
    12  H   -0.011780
    13  H    0.008808
    14  H    0.014971
    15  H    0.028214
 Sum of APT charges =  -0.00000
 APT charges with hydrogens summed into heavy atoms:
               1
     1  O    0.070254
     3  C    0.045552
     5  C   -0.386023
     6  C    1.471909
     7  O   -0.778782
     8  O   -0.941897
     9  C    0.508759
    10  C    0.010229
 Electronic spatial extent (au):  <R**2>=           1072.1045
 Charge=             -0.0000 electrons
 Dipole moment (field-independent basis, Debye):
    X=             -0.6413    Y=              0.1411    Z=             -0.6412  Tot=              0.9178
 Quadrupole moment (field-independent basis, Debye-Ang):
   XX=            -30.2488   YY=            -48.6438   ZZ=            -51.2576
   XY=             -0.3952   XZ=             -1.8659   YZ=              5.1066
 Traceless Quadrupole moment (field-independent basis, Debye-Ang):
   XX=             13.1346   YY=             -5.2604   ZZ=             -7.8742
   XY=             -0.3952   XZ=             -1.8659   YZ=              5.1066
 Octapole moment (field-independent basis, Debye-Ang**2):
  XXX=            -34.8145  YYY=              4.0182  ZZZ=             -1.6581  XYY=              0.7894
  XXY=             -0.8571  XXZ=             -5.6286  XZZ=              0.0564  YZZ=              7.1409
  YYZ=              3.9406  XYZ=             -6.7642
 Hexadecapole moment (field-independent basis, Debye-Ang**3):
 XXXX=           -744.7483 YYYY=           -271.0770 ZZZZ=           -175.3637 XXXY=             -5.8174
 XXXZ=             20.0539 YYYX=            -21.1456 YYYZ=             10.3781 ZZZX=            -10.6693
 ZZZY=              7.7161 XXYY=           -202.6456 XXZZ=           -181.8790 YYZZ=            -73.7895
 XXYZ=             19.8723 YYXZ=            -13.6002 ZZXY=             -9.0017
 N-N= 3.607705107909D+02 E-N=-1.706442030376D+03  KE= 4.188779824028D+02
  Exact polarizability:  91.501   5.686  67.113   4.412   1.563  59.380
 Approx polarizability:  99.073   5.236  71.474   7.449  -1.525  76.706
                          Isotropic Fermi Contact Couplings
        Atom                 a.u.       MegaHertz       Gauss      10(-4) cm-1
     1  O(17)              0.12943     -78.45994     -27.99646     -26.17142
     2  H(1)              -0.01460     -65.27516     -23.29180     -21.77345
     3  C(13)              0.03296      37.05110      13.22075      12.35892
     4  H(1)              -0.00350     -15.66064      -5.58811      -5.22383
     5  C(13)              0.01682      18.91193       6.74825       6.30834
     6  C(13)              0.01018      11.44518       4.08392       3.81770
     7  O(17)             -0.00281       1.70625       0.60883       0.56914
     8  O(17)             -0.00082       0.49808       0.17773       0.16614
     9  C(13)             -0.00002      -0.01908      -0.00681      -0.00636
    10  C(13)             -0.00040      -0.44853      -0.16005      -0.14961
    11  H(1)               0.00001       0.05476       0.01954       0.01827
    12  H(1)              -0.00004      -0.19671      -0.07019      -0.06561
    13  H(1)              -0.00000      -0.00589      -0.00210      -0.00196
    14  H(1)               0.00001       0.03540       0.01263       0.01181
    15  H(1)               0.00001       0.03782       0.01350       0.01262
 --------------------------------------------------------
       Center         ----  Spin Dipole Couplings  ----
                      3XX-RR        3YY-RR        3ZZ-RR
 --------------------------------------------------------
     1   Atom       -1.062071      2.584813     -1.522742
     2   Atom        0.005894     -0.052688      0.046794
     3   Atom       -0.134232      0.232911     -0.098679
     4   Atom        0.018336     -0.003032     -0.015304
     5   Atom        0.029840      0.006679     -0.036519
     6   Atom        0.002963      0.011998     -0.014961
     7   Atom        0.021370     -0.031633      0.010263
     8   Atom        0.006797     -0.008790      0.001993
     9   Atom        0.002392     -0.000466     -0.001926
    10   Atom        0.003631     -0.001662     -0.001969
    11   Atom        0.001228     -0.000389     -0.000839
    12   Atom        0.001065      0.000234     -0.001299
    13   Atom        0.001855     -0.000857     -0.000998
    14   Atom        0.004790     -0.002442     -0.002348
    15   Atom        0.004126     -0.002072     -0.002054
 --------------------------------------------------------
                        XY            XZ            YZ
 --------------------------------------------------------
     1   Atom        1.683368      0.384823      0.962595
     2   Atom        0.006548     -0.132325      0.038186
     3   Atom        0.011422     -0.008087      0.029406
     4   Atom        0.005691      0.009840      0.002656
     5   Atom       -0.003073      0.017338      0.005994
     6   Atom       -0.016639      0.003137     -0.001712
     7   Atom       -0.027191     -0.004071     -0.018198
     8   Atom       -0.008295     -0.005065      0.002830
     9   Atom       -0.002611     -0.000580      0.000407
    10   Atom       -0.001552      0.000076      0.000001
    11   Atom       -0.001303     -0.000905      0.000548
    12   Atom       -0.001697      0.000101     -0.000025
    13   Atom       -0.000549      0.000119     -0.000005
    14   Atom       -0.000250     -0.001193      0.000114
    15   Atom       -0.001650      0.002043     -0.000455
 --------------------------------------------------------


 ---------------------------------------------------------------------------------
              Anisotropic Spin Dipole Couplings in Principal Axis System
 ---------------------------------------------------------------------------------

       Atom             a.u.   MegaHertz   Gauss  10(-4) cm-1        Axes

              Baa    -1.7413   125.998    44.959    42.028 -0.3900 -0.0528  0.9193
     1 O(17)  Bbb    -1.7175   124.276    44.345    41.454  0.8489 -0.4075  0.3368
              Bcc     3.4588  -250.273   -89.304   -83.482  0.3568  0.9117  0.2037
 
              Baa    -0.1210   -64.561   -23.037   -21.535  0.6681 -0.4108  0.6204
     2 H(1)   Bbb    -0.0421   -22.471    -8.018    -7.496  0.3849  0.9044  0.1844
              Bcc     0.1631    87.032    31.055    29.031 -0.6368  0.1156  0.7623
 
              Baa    -0.1368   -18.363    -6.552    -6.125  0.9687 -0.0493  0.2432
     3 C(13)  Bbb    -0.0990   -13.280    -4.739    -4.430 -0.2465 -0.0771  0.9661
              Bcc     0.2358    31.643    11.291    10.555  0.0288  0.9958  0.0868
 
              Baa    -0.0181    -9.632    -3.437    -3.213 -0.2491 -0.0763  0.9655
     4 H(1)   Bbb    -0.0045    -2.375    -0.847    -0.792 -0.2475  0.9688  0.0127
              Bcc     0.0225    12.007     4.284     4.005  0.9363  0.2358  0.2602
 
              Baa    -0.0417    -5.591    -1.995    -1.865 -0.2390 -0.1344  0.9617
     5 C(13)  Bbb     0.0075     1.004     0.358     0.335  0.0241  0.9892  0.1443
              Bcc     0.0342     4.588     1.637     1.530  0.9707 -0.0577  0.2332
 
              Baa    -0.0156    -2.092    -0.746    -0.698 -0.2391 -0.0842  0.9674
     6 C(13)  Bbb    -0.0094    -1.262    -0.450    -0.421  0.7570  0.6078  0.2400
              Bcc     0.0250     3.353     1.197     1.119 -0.6081  0.7896 -0.0816
 
              Baa    -0.0488     3.532     1.260     1.178  0.3599  0.8844  0.2972
     7 O(17)  Bbb     0.0154    -1.113    -0.397    -0.371 -0.2791 -0.2019  0.9388
              Bcc     0.0334    -2.419    -0.863    -0.807  0.8903 -0.4208  0.1741
 
              Baa    -0.0124     0.898     0.320     0.299  0.3861  0.9214 -0.0453
     8 O(17)  Bbb    -0.0009     0.067     0.024     0.022  0.4349 -0.1385  0.8898
              Bcc     0.0133    -0.964    -0.344    -0.322  0.8135 -0.3632 -0.4542
 
              Baa    -0.0021    -0.277    -0.099    -0.092 -0.2959 -0.6589  0.6915
     9 C(13)  Bbb    -0.0020    -0.263    -0.094    -0.088  0.4285  0.5554  0.7127
              Bcc     0.0040     0.540     0.193     0.180  0.8537 -0.5072 -0.1180
 
              Baa    -0.0021    -0.280    -0.100    -0.093  0.2600  0.9489 -0.1788
    10 C(13)  Bbb    -0.0020    -0.264    -0.094    -0.088  0.0354  0.1757  0.9838
              Bcc     0.0041     0.544     0.194     0.181  0.9650 -0.2621  0.0121
 
              Baa    -0.0012    -0.645    -0.230    -0.215  0.0812 -0.4616  0.8834
    11 H(1)   Bbb    -0.0011    -0.586    -0.209    -0.196  0.5569  0.7560  0.3439
              Bcc     0.0023     1.232     0.439     0.411  0.8266 -0.4640 -0.3184
 
              Baa    -0.0013    -0.699    -0.249    -0.233 -0.1402 -0.1379  0.9805
    12 H(1)   Bbb    -0.0011    -0.581    -0.207    -0.194  0.6013  0.7749  0.1950
              Bcc     0.0024     1.280     0.457     0.427  0.7867 -0.6169  0.0257
 
              Baa    -0.0010    -0.539    -0.192    -0.180 -0.1065 -0.3546  0.9289
    13 H(1)   Bbb    -0.0010    -0.510    -0.182    -0.170  0.1632  0.9153  0.3681
              Bcc     0.0020     1.049     0.374     0.350  0.9808 -0.1908  0.0396
 
              Baa    -0.0026    -1.378    -0.492    -0.460  0.1236 -0.4853  0.8656
    14 H(1)   Bbb    -0.0024    -1.287    -0.459    -0.429  0.1089  0.8736  0.4743
              Bcc     0.0050     2.665     0.951     0.889  0.9863 -0.0357 -0.1609
 
              Baa    -0.0027    -1.428    -0.509    -0.476 -0.3238 -0.1864  0.9276
    15 H(1)   Bbb    -0.0025    -1.318    -0.470    -0.440  0.1619  0.9550  0.2484
              Bcc     0.0051     2.746     0.980     0.916  0.9322 -0.2306  0.2791
 

 ---------------------------------------------------------------------------------

 Calling FoFJK, ICntrl=    100127 FMM=F ISym2X=0 I1Cent= 0 IOpClX= 1 NMat=1 NMatS=1 NMatT=0.
 Full mass-weighted force constant matrix:
 Low frequencies ---  -65.4773  -43.6750   -9.1696   -0.0008   -0.0006    0.0002
 Low frequencies ---   21.1523   31.2297   86.6370
 ******    1 imaginary frequencies (negative Signs) ****** 
 Diagonal vibrational polarizability:
     5243.4396312  192223.2366170    2448.0430119
 Harmonic frequencies (cm**-1), IR intensities (KM/Mole), Raman scattering
 activities (A**4/AMU), depolarization ratios for plane and unpolarized
 incident light, reduced masses (AMU), force constants (mDyne/A),
 and normal coordinates:
                      1                      2                      3
                      A                      A                      A
 Frequencies --    -31.4117                 1.1997                86.2688
 Red. masses --      4.5586                 5.1852                 6.0402
 Frc consts  --      0.0027                 0.0000                 0.0265
 IR Inten    --      2.8780                10.6813                 7.7186
  Atom  AN      X      Y      Z        X      Y      Z        X      Y      Z
     1   8    -0.11   0.07   0.29     0.35   0.10   0.03    -0.10   0.39  -0.06
     2   1     0.06  -0.26   0.47     0.30   0.10  -0.01     0.05   0.07   0.11
     3   6     0.04   0.01  -0.19    -0.04   0.06  -0.01    -0.02  -0.07   0.06
     4   1     0.05   0.06  -0.26    -0.05   0.21  -0.00    -0.04   0.06   0.12
     5   6     0.02  -0.09  -0.12    -0.03  -0.20  -0.03    -0.00  -0.37  -0.02
     6   6     0.00   0.01  -0.02    -0.03  -0.13  -0.01     0.02  -0.05  -0.03
     7   8    -0.04   0.20   0.05    -0.03  -0.07   0.01     0.10   0.10  -0.01
     8   8     0.04  -0.13  -0.01    -0.02  -0.13  -0.01    -0.01  -0.00  -0.05
     9   6     0.03  -0.10   0.05    -0.02   0.08   0.05    -0.00   0.00  -0.08
    10   6     0.03   0.01  -0.16    -0.23   0.21  -0.04     0.01  -0.13   0.18
    11   1     0.07  -0.29   0.10     0.03   0.06   0.08    -0.02   0.22  -0.12
    12   1    -0.00   0.01   0.22     0.07   0.16   0.13     0.03  -0.13  -0.27
    13   1     0.02   0.02  -0.10    -0.23   0.36   0.02     0.03  -0.13   0.05
    14   1     0.08  -0.10  -0.33    -0.31   0.12  -0.14    -0.08   0.01   0.40
    15   1    -0.02   0.21  -0.21    -0.31   0.24  -0.09     0.11  -0.38   0.26
                      4                      5                      6
                      A                      A                      A
 Frequencies --    117.0861               131.2690               160.0104
 Red. masses --      4.9895                 4.4293                 2.5586
 Frc consts  --      0.0403                 0.0450                 0.0386
 IR Inten    --      3.4677                10.5771                10.7009
  Atom  AN      X      Y      Z        X      Y      Z        X      Y      Z
     1   8     0.16  -0.19   0.08    -0.22  -0.02  -0.07     0.01   0.01   0.01
     2   1     0.17  -0.10   0.08     0.23  -0.19   0.33     0.14  -0.07   0.13
     3   6    -0.02  -0.10   0.02     0.04   0.25   0.10    -0.09  -0.06   0.22
     4   1    -0.03  -0.22   0.07     0.02   0.40   0.17    -0.15  -0.11   0.46
     5   6    -0.01   0.09  -0.03     0.08   0.12   0.02    -0.02  -0.01  -0.11
     6   6     0.00   0.11  -0.06     0.08  -0.07  -0.04    -0.01   0.02  -0.13
     7   8     0.03   0.31  -0.01     0.07  -0.04  -0.03    -0.08   0.02  -0.10
     8   8    -0.03  -0.08  -0.12     0.08  -0.21  -0.07     0.07   0.03  -0.06
     9   6    -0.03  -0.00  -0.09     0.08  -0.03   0.01     0.05  -0.02   0.11
    10   6    -0.14  -0.10   0.19    -0.18   0.05   0.07     0.05   0.02   0.03
    11   1     0.01   0.23  -0.11     0.16   0.07   0.04     0.15  -0.16   0.18
    12   1     0.03  -0.12  -0.26     0.17  -0.01   0.00    -0.08   0.04   0.23
    13   1    -0.12  -0.02   0.12    -0.17   0.25   0.11    -0.00  -0.13   0.36
    14   1    -0.25   0.02   0.39    -0.32   0.02   0.09     0.36  -0.05  -0.18
    15   1    -0.10  -0.37   0.24    -0.23  -0.07   0.06    -0.22   0.25  -0.13
                      7                      8                      9
                      A                      A                      A
 Frequencies --    207.9454               225.9007               255.3501
 Red. masses --      1.5663                 1.3907                 1.9952
 Frc consts  --      0.0399                 0.0418                 0.0766
 IR Inten    --     38.6071                 2.0953                31.5625
  Atom  AN      X      Y      Z        X      Y      Z        X      Y      Z
     1   8     0.00  -0.09  -0.06    -0.01  -0.04  -0.03     0.01   0.11  -0.03
     2   1     0.59  -0.30   0.48     0.23  -0.10   0.18     0.65  -0.11   0.55
     3   6    -0.04   0.07   0.01     0.02   0.05  -0.05     0.06  -0.17  -0.04
     4   1    -0.06   0.20   0.03     0.03   0.13  -0.13     0.08  -0.39  -0.09
     5   6    -0.02  -0.09  -0.03    -0.00  -0.06   0.06     0.01   0.15   0.04
     6   6    -0.02  -0.01   0.00     0.01  -0.01   0.03    -0.00   0.04   0.02
     7   8    -0.05   0.02   0.02     0.08   0.02   0.02    -0.01  -0.07  -0.01
     8   8    -0.00   0.05   0.03    -0.05   0.04  -0.00    -0.01  -0.00   0.01
     9   6     0.00   0.04   0.00    -0.04   0.02  -0.03    -0.02  -0.03   0.00
    10   6     0.08   0.01  -0.01    -0.02  -0.02   0.02    -0.06  -0.01  -0.01
    11   1    -0.03   0.04  -0.01    -0.05   0.04  -0.04    -0.02  -0.04   0.01
    12   1     0.01   0.03  -0.01    -0.06  -0.00  -0.06    -0.02  -0.02   0.01
    13   1     0.12   0.06  -0.28    -0.09  -0.28   0.50    -0.06   0.04   0.00
    14   1    -0.11   0.05   0.11     0.47  -0.02  -0.17    -0.09  -0.03  -0.02
    15   1     0.32  -0.08   0.12    -0.40   0.19  -0.20    -0.07  -0.01  -0.02
                     10                     11                     12
                      A                      A                      A
 Frequencies --    336.5020               427.4100               557.8356
 Red. masses --      2.9132                 3.7723                 3.2295
 Frc consts  --      0.1944                 0.4060                 0.5921
 IR Inten    --      9.8397                 3.6099                13.4651
  Atom  AN      X      Y      Z        X      Y      Z        X      Y      Z
     1   8     0.00  -0.02  -0.00     0.00  -0.02  -0.00    -0.01  -0.02   0.01
     2   1     0.02   0.02   0.00    -0.06  -0.18  -0.04     0.16   0.53   0.10
     3   6     0.00   0.02  -0.03     0.09   0.03   0.06    -0.16  -0.01  -0.07
     4   1     0.02   0.07  -0.11     0.05   0.10   0.20    -0.10   0.01  -0.29
     5   6    -0.02  -0.05   0.07     0.14  -0.08  -0.14    -0.20  -0.04   0.19
     6   6     0.01   0.04  -0.05     0.06   0.06   0.04    -0.02   0.05  -0.03
     7   8     0.20   0.01  -0.11    -0.09  -0.00   0.07    -0.01   0.01  -0.04
     8   8    -0.03   0.12  -0.06     0.06   0.22   0.09     0.13   0.04   0.04
     9   6    -0.09  -0.11   0.19     0.03  -0.13  -0.09     0.23  -0.08  -0.05
    10   6    -0.07  -0.03   0.01    -0.20  -0.10  -0.07    -0.00  -0.01  -0.02
    11   1     0.07  -0.39   0.31    -0.04  -0.13  -0.12     0.13   0.01  -0.10
    12   1    -0.37   0.00   0.42    -0.05  -0.17  -0.12     0.26  -0.12  -0.12
    13   1    -0.03   0.14  -0.26    -0.21   0.26   0.11    -0.01   0.34   0.17
    14   1    -0.35  -0.12  -0.02    -0.41  -0.20  -0.13    -0.19  -0.11  -0.08
    15   1     0.14  -0.00   0.11    -0.42  -0.22  -0.16    -0.23  -0.12  -0.11
                     13                     14                     15
                      A                      A                      A
 Frequencies --    606.1373               617.5001               722.9866
 Red. masses --      3.3721                 1.4132                 1.3288
 Frc consts  --      0.7300                 0.3175                 0.4092
 IR Inten    --     32.2695                58.6231                36.2003
  Atom  AN      X      Y      Z        X      Y      Z        X      Y      Z
     1   8     0.02   0.04  -0.01    -0.03  -0.03   0.01    -0.00  -0.00  -0.00
     2   1    -0.16  -0.75  -0.09     0.24   0.92   0.15     0.00  -0.02   0.00
     3   6    -0.19   0.00  -0.03    -0.02  -0.01  -0.01     0.03   0.10  -0.11
     4   1    -0.25  -0.17   0.16    -0.06  -0.03   0.17    -0.15  -0.64   0.73
     5   6    -0.12   0.10  -0.21     0.02   0.01  -0.14    -0.01  -0.04   0.06
     6   6    -0.03   0.01   0.08    -0.00  -0.03   0.03     0.00   0.01  -0.00
     7   8     0.22  -0.02   0.00     0.07  -0.00   0.02    -0.01  -0.00   0.00
     8   8     0.01  -0.02   0.14    -0.01  -0.00   0.04    -0.00  -0.00  -0.01
     9   6     0.05  -0.03   0.00    -0.03   0.01   0.01     0.00   0.00  -0.00
    10   6    -0.00  -0.00  -0.01    -0.01  -0.00  -0.00     0.00   0.00   0.00
    11   1    -0.09   0.10  -0.08    -0.06   0.03  -0.01     0.01  -0.01   0.00
    12   1     0.18  -0.08  -0.11     0.00  -0.00  -0.02    -0.01   0.01   0.01
    13   1    -0.00   0.08   0.05    -0.01  -0.04  -0.02     0.00   0.00   0.00
    14   1    -0.04  -0.05  -0.06     0.01  -0.00  -0.01     0.00   0.01   0.01
    15   1    -0.06   0.01  -0.04     0.01   0.02   0.00    -0.00  -0.01   0.00
                     16                     17                     18
                      A                      A                      A
 Frequencies --    747.5473               775.9667               803.0557
 Red. masses --      1.3272                 7.5753                 1.2081
 Frc consts  --      0.4370                 2.6874                 0.4590
 IR Inten    --     20.9311                56.5139                 5.3371
  Atom  AN      X      Y      Z        X      Y      Z        X      Y      Z
     1   8     0.00   0.01   0.00    -0.00  -0.03  -0.00     0.00  -0.00   0.00
     2   1    -0.02  -0.04  -0.02     0.03   0.10   0.02    -0.01  -0.00  -0.00
     3   6     0.03  -0.11  -0.09     0.01  -0.03  -0.01     0.03   0.01   0.01
     4   1    -0.20   0.74   0.61    -0.06   0.46   0.16     0.04  -0.03  -0.01
     5   6    -0.01   0.05   0.05     0.02  -0.18  -0.04     0.02  -0.00   0.02
     6   6    -0.00  -0.03  -0.01     0.03   0.66   0.15    -0.02  -0.03  -0.04
     7   8    -0.00   0.01   0.00    -0.01  -0.18  -0.08    -0.01   0.02  -0.04
     8   8    -0.00   0.01   0.00    -0.00  -0.18  -0.02     0.01   0.01   0.03
     9   6     0.01  -0.00   0.00    -0.04  -0.00   0.03    -0.03  -0.02   0.07
    10   6     0.00  -0.00   0.00    -0.02   0.01   0.01    -0.01  -0.02   0.03
    11   1     0.00  -0.00  -0.00    -0.05   0.22  -0.01    -0.08   0.52  -0.04
    12   1     0.00  -0.01  -0.00     0.12  -0.08  -0.12     0.12  -0.31  -0.38
    13   1     0.00   0.02   0.01    -0.01  -0.12  -0.10     0.02   0.03  -0.19
    14   1    -0.01  -0.01  -0.00     0.08  -0.03  -0.08    -0.05  -0.29  -0.34
    15   1    -0.01  -0.00  -0.00     0.12   0.19   0.05     0.11   0.44   0.02
                     19                     20                     21
                      A                      A                      A
 Frequencies --    897.6455               929.4327              1076.4393
 Red. masses --      3.2291                 2.7571                 4.1330
 Frc consts  --      1.5330                 1.4033                 2.8216
 IR Inten    --     15.7263                 5.7298                22.6367
  Atom  AN      X      Y      Z        X      Y      Z        X      Y      Z
     1   8     0.00  -0.00   0.00     0.00  -0.01  -0.00     0.00  -0.00  -0.00
     2   1    -0.01  -0.01  -0.01    -0.01   0.00  -0.01     0.00   0.00   0.00
     3   6     0.05   0.01   0.01     0.11   0.01   0.03     0.07   0.00   0.02
     4   1     0.06  -0.00  -0.02     0.12   0.00   0.03     0.07   0.00   0.04
     5   6     0.01  -0.02   0.07     0.07  -0.02   0.00     0.04  -0.01  -0.03
     6   6    -0.04   0.01  -0.11    -0.15   0.02  -0.05    -0.15   0.01   0.03
     7   8    -0.00   0.05  -0.16     0.01   0.03  -0.13     0.02   0.00  -0.02
     8   8     0.13  -0.04   0.24    -0.14  -0.04   0.12    -0.22   0.02  -0.04
     9   6    -0.09   0.09   0.02     0.03  -0.10  -0.02     0.31   0.16   0.14
    10   6    -0.12  -0.06  -0.10     0.15   0.10   0.04    -0.06  -0.17  -0.09
    11   1    -0.23  -0.01  -0.03    -0.34  -0.21  -0.17     0.32   0.29   0.13
    12   1     0.25   0.27   0.17     0.04  -0.11  -0.04     0.40   0.25   0.21
    13   1    -0.13  -0.58  -0.12     0.12   0.60   0.38    -0.06  -0.26  -0.12
    14   1     0.18   0.23   0.21    -0.15   0.08   0.12    -0.05  -0.23  -0.15
    15   1     0.04  -0.33   0.01    -0.22  -0.15  -0.10    -0.07  -0.29  -0.09
                     22                     23                     24
                      A                      A                      A
 Frequencies --   1129.8253              1204.5630              1292.2996
 Red. masses --      2.0929                 1.7710                 3.5975
 Frc consts  --      1.5740                 1.5140                 3.5398
 IR Inten    --     22.6244                 5.4416               537.6376
  Atom  AN      X      Y      Z        X      Y      Z        X      Y      Z
     1   8    -0.00   0.00   0.00    -0.00   0.00   0.00    -0.00   0.00   0.00
     2   1    -0.00  -0.00  -0.00     0.00   0.00   0.00     0.01   0.02   0.00
     3   6    -0.02  -0.00  -0.00    -0.02  -0.00  -0.00    -0.08  -0.00  -0.02
     4   1    -0.02  -0.00  -0.01    -0.02  -0.00  -0.01    -0.08  -0.01  -0.05
     5   6    -0.01   0.00   0.01    -0.01   0.00  -0.00    -0.01   0.01   0.01
     6   6     0.03   0.00  -0.00     0.06  -0.00  -0.01     0.37   0.02  -0.14
     7   8    -0.00  -0.00   0.00    -0.01  -0.01   0.04    -0.05   0.00  -0.01
     8   8     0.06  -0.05  -0.01    -0.00   0.02  -0.07    -0.18  -0.02   0.08
     9   6    -0.12   0.19   0.04    -0.04  -0.06   0.18     0.10   0.04   0.03
    10   6     0.11  -0.15  -0.03     0.03   0.05  -0.13    -0.02  -0.02   0.06
    11   1    -0.09   0.10   0.08    -0.33   0.37  -0.02    -0.69  -0.28  -0.27
    12   1    -0.22   0.17   0.03     0.30  -0.26  -0.21     0.05   0.13   0.15
    13   1     0.09   0.46   0.20    -0.03  -0.07   0.28     0.00  -0.03  -0.13
    14   1    -0.40  -0.37  -0.15    -0.02   0.32   0.28     0.01  -0.19  -0.18
    15   1    -0.36  -0.20  -0.25    -0.07  -0.46  -0.10     0.01   0.09   0.05
                     25                     26                     27
                      A                      A                      A
 Frequencies --   1346.8283              1402.0944              1431.5286
 Red. masses --      1.2595                 1.2856                 1.3855
 Frc consts  --      1.3461                 1.4891                 1.6729
 IR Inten    --    104.7251                28.8785                12.5293
  Atom  AN      X      Y      Z        X      Y      Z        X      Y      Z
     1   8     0.00  -0.00  -0.00    -0.00   0.00   0.00    -0.00   0.00   0.00
     2   1    -0.00  -0.00   0.00     0.00   0.00   0.00     0.00   0.00   0.00
     3   6     0.01   0.00   0.00    -0.01  -0.00  -0.00    -0.01  -0.00  -0.00
     4   1     0.01   0.00   0.01    -0.01  -0.00  -0.01    -0.01  -0.00  -0.01
     5   6     0.00  -0.00  -0.00    -0.00   0.00   0.00    -0.00  -0.00   0.00
     6   6    -0.07  -0.01   0.03     0.06  -0.00  -0.01     0.06   0.00  -0.01
     7   8     0.01  -0.01   0.02    -0.01   0.00  -0.01    -0.01   0.00  -0.01
     8   8     0.05   0.03  -0.08    -0.04   0.01   0.03    -0.04   0.01   0.02
     9   6    -0.04  -0.01  -0.00    -0.04  -0.04  -0.02    -0.08  -0.08  -0.05
    10   6    -0.00  -0.03   0.05    -0.02  -0.11  -0.05     0.07   0.07   0.04
    11   1    -0.50  -0.21  -0.18     0.32   0.24   0.10     0.44   0.28   0.13
    12   1     0.69   0.28   0.21     0.24   0.18   0.19     0.41   0.24   0.25
    13   1     0.01   0.07  -0.04    -0.02   0.48   0.21     0.07  -0.32  -0.10
    14   1    -0.02  -0.11  -0.05     0.18   0.25   0.34    -0.31  -0.17  -0.14
    15   1     0.02   0.19   0.03     0.22   0.39   0.00    -0.29  -0.18  -0.10
                     28                     29                     30
                      A                      A                      A
 Frequencies --   1491.0798              1502.4974              1515.0860
 Red. masses --      1.0401                 1.0553                 1.0930
 Frc consts  --      1.3624                 1.4036                 1.4783
 IR Inten    --     10.8421                 1.0621                21.2860
  Atom  AN      X      Y      Z        X      Y      Z        X      Y      Z
     1   8    -0.00  -0.00   0.00     0.00  -0.00   0.00    -0.00  -0.00  -0.00
     2   1     0.00   0.00  -0.00    -0.00  -0.00  -0.00     0.00  -0.00   0.00
     3   6    -0.00  -0.00  -0.00     0.00   0.00   0.00     0.00   0.00   0.00
     4   1    -0.00   0.00   0.00     0.00   0.00   0.00     0.01   0.00   0.00
     5   6     0.00  -0.00   0.00    -0.00   0.00   0.00    -0.00  -0.00  -0.00
     6   6     0.00  -0.00   0.00    -0.01   0.00  -0.00    -0.03   0.00  -0.00
     7   8    -0.00   0.00  -0.01     0.00  -0.00   0.01     0.01  -0.00   0.01
     8   8    -0.00  -0.00   0.00     0.01  -0.00  -0.00     0.02  -0.00  -0.01
     9   6     0.01   0.02  -0.02     0.00  -0.04  -0.03     0.05  -0.04  -0.01
    10   6     0.01   0.01  -0.04    -0.03   0.03  -0.01     0.02  -0.02   0.00
    11   1    -0.00  -0.12  -0.01    -0.13   0.39  -0.14    -0.29   0.42  -0.23
    12   1    -0.00  -0.00  -0.04    -0.20   0.20   0.35    -0.38   0.14   0.36
    13   1    -0.08  -0.35   0.56    -0.04   0.14   0.28     0.03  -0.18  -0.17
    14   1    -0.55  -0.09   0.05     0.17  -0.19  -0.37    -0.20   0.14   0.29
    15   1     0.36   0.28   0.10     0.36  -0.35   0.23    -0.25   0.30  -0.17
                     31                     32                     33
                      A                      A                      A
 Frequencies --   1843.4661              2219.7994              3075.7547
 Red. masses --     11.9978                 5.9377                 1.0353
 Frc consts  --     24.0227                17.2384                 5.7705
 IR Inten    --    338.9628                69.1117                 9.6910
  Atom  AN      X      Y      Z        X      Y      Z        X      Y      Z
     1   8    -0.00   0.01  -0.00     0.00   0.01   0.00    -0.00   0.00  -0.00
     2   1     0.03  -0.00   0.02    -0.00   0.00  -0.00    -0.00  -0.00   0.00
     3   6    -0.07  -0.00  -0.02    -0.37  -0.03  -0.09     0.00   0.00   0.00
     4   1    -0.11  -0.02  -0.00    -0.72  -0.06  -0.19    -0.00  -0.00  -0.00
     5   6     0.05   0.00  -0.00     0.52   0.01   0.13    -0.00   0.00   0.00
     6   6     0.21  -0.21   0.73    -0.10   0.02  -0.04     0.00   0.00  -0.00
     7   8    -0.15   0.14  -0.47     0.00  -0.00   0.01     0.00   0.00   0.00
     8   8     0.02   0.02  -0.07    -0.00  -0.00   0.00    -0.00  -0.00   0.00
     9   6     0.03  -0.01   0.02     0.00   0.00  -0.00    -0.00   0.00   0.00
    10   6    -0.01   0.01   0.00    -0.00  -0.00  -0.00    -0.02  -0.04  -0.02
    11   1    -0.18   0.08  -0.09     0.01  -0.00  -0.00     0.00  -0.00  -0.01
    12   1    -0.14  -0.02   0.09     0.00  -0.00  -0.00     0.00  -0.02   0.01
    13   1     0.00  -0.04  -0.06     0.00   0.00   0.00     0.62  -0.03   0.08
    14   1     0.04   0.01  -0.01     0.00   0.00  -0.00    -0.13   0.45  -0.34
    15   1    -0.04  -0.05  -0.00     0.00   0.00   0.00    -0.23   0.06   0.47
                     34                     35                     36
                      A                      A                      A
 Frequencies --   3107.0484              3152.3116              3154.2374
 Red. masses --      1.0607                 1.1021                 1.1044
 Frc consts  --      6.0332                 6.4524                 6.4737
 IR Inten    --     19.8890                12.8160                 4.4413
  Atom  AN      X      Y      Z        X      Y      Z        X      Y      Z
     1   8     0.00  -0.00   0.00    -0.00   0.00   0.00     0.00   0.00  -0.00
     2   1     0.00   0.00  -0.00     0.00   0.00   0.00    -0.00  -0.00  -0.00
     3   6    -0.00   0.00  -0.00     0.00   0.00   0.00    -0.00   0.00  -0.00
     4   1     0.00   0.00   0.00    -0.00   0.00  -0.00    -0.00   0.00   0.00
     5   6     0.00  -0.00  -0.00    -0.00  -0.00  -0.00     0.00  -0.00  -0.00
     6   6    -0.00  -0.00   0.00     0.00   0.00  -0.00     0.00  -0.00   0.00
     7   8    -0.00   0.00  -0.00    -0.00   0.00   0.00    -0.00   0.00  -0.00
     8   8     0.00   0.00  -0.00     0.00  -0.00   0.00    -0.00  -0.00  -0.00
     9   6     0.03  -0.06  -0.00    -0.01  -0.00   0.03    -0.01  -0.02   0.05
    10   6    -0.01   0.01  -0.00    -0.06   0.05  -0.05     0.06  -0.00  -0.05
    11   1    -0.23   0.06   0.50     0.16  -0.05  -0.34     0.16  -0.05  -0.35
    12   1    -0.13   0.65  -0.48    -0.02   0.08  -0.06    -0.06   0.28  -0.20
    13   1     0.12  -0.01   0.01     0.57  -0.02   0.06    -0.49   0.02  -0.07
    14   1     0.01  -0.05   0.04     0.15  -0.56   0.41     0.03  -0.05   0.03
    15   1     0.01  -0.00  -0.03    -0.05   0.02   0.07    -0.29   0.08   0.61
                     37                     38                     39
                      A                      A                      A
 Frequencies --   3174.9016              3485.4861              3804.1775
 Red. masses --      1.1073                 1.1634                 1.0673
 Frc consts  --      6.5762                 8.3271                 9.1005
 IR Inten    --     14.9217                68.5441                39.8714
  Atom  AN      X      Y      Z        X      Y      Z        X      Y      Z
     1   8    -0.00  -0.00   0.00     0.00   0.00   0.00     0.04  -0.01  -0.05
     2   1     0.00   0.00  -0.00    -0.00  -0.00  -0.00    -0.65   0.08   0.75
     3   6    -0.00  -0.00  -0.00    -0.11  -0.01  -0.03    -0.00   0.00  -0.00
     4   1     0.00   0.00   0.00     0.96   0.04   0.25    -0.00   0.00   0.00
     5   6     0.00  -0.00   0.00     0.03   0.00   0.01     0.00   0.00   0.00
     6   6    -0.00   0.00  -0.00    -0.00   0.00  -0.00     0.00  -0.00  -0.00
     7   8     0.00  -0.00   0.00     0.00   0.00  -0.00    -0.00   0.00  -0.00
     8   8     0.00  -0.00   0.00     0.00  -0.00   0.00    -0.00  -0.00   0.00
     9   6     0.02   0.02  -0.07    -0.00   0.00   0.00     0.00  -0.00   0.00
    10   6     0.02   0.02  -0.05     0.00  -0.00   0.00    -0.00   0.00  -0.00
    11   1    -0.26   0.09   0.57     0.00  -0.00  -0.00    -0.00   0.00   0.00
    12   1     0.07  -0.34   0.24     0.00   0.00   0.00    -0.00  -0.00  -0.00
    13   1    -0.06   0.01  -0.02     0.00   0.00   0.00    -0.00  -0.00   0.00
    14   1     0.09  -0.31   0.22    -0.00   0.00  -0.00    -0.00  -0.00   0.00
    15   1    -0.22   0.07   0.45    -0.00  -0.00  -0.00     0.00   0.00   0.00

 -------------------
 - Thermochemistry -
 -------------------
 Temperature   298.150 Kelvin.  Pressure   1.00000 Atm.
 Atom     1 has atomic number  8 and mass  15.99491
 Atom     2 has atomic number  1 and mass   1.00783
 Atom     3 has atomic number  6 and mass  12.00000
 Atom     4 has atomic number  1 and mass   1.00783
 Atom     5 has atomic number  6 and mass  12.00000
 Atom     6 has atomic number  6 and mass  12.00000
 Atom     7 has atomic number  8 and mass  15.99491
 Atom     8 has atomic number  8 and mass  15.99491
 Atom     9 has atomic number  6 and mass  12.00000
 Atom    10 has atomic number  6 and mass  12.00000
 Atom    11 has atomic number  1 and mass   1.00783
 Atom    12 has atomic number  1 and mass   1.00783
 Atom    13 has atomic number  1 and mass   1.00783
 Atom    14 has atomic number  1 and mass   1.00783
 Atom    15 has atomic number  1 and mass   1.00783
 Molecular mass:   115.03952 amu.
 Principal axes and moments of inertia in atomic units:
                           1         2         3
     Eigenvalues --   514.012431380.722981532.64639
           X            0.99994   0.01060  -0.00098
           Y           -0.01050   0.99740   0.07131
           Z            0.00174  -0.07129   0.99745
 This molecule is an asymmetric top.
 Rotational symmetry number  1.
 Warning -- assumption of classical behavior for rotation
           may cause significant error
 Rotational temperatures (Kelvin)      0.16851     0.06273     0.05651
 Rotational constants (GHZ):           3.51108     1.30710     1.17753
    1 imaginary frequencies ignored.
 Zero-point vibrational energy     293183.6 (Joules/Mol)
                                   70.07257 (Kcal/Mol)
 Warning -- explicit consideration of  13 degrees of freedom as
           vibrations may cause significant error
 Vibrational temperatures:      1.73   124.12   168.46   188.87   230.22
          (Kelvin)            299.19   325.02   367.39   484.15   614.95
                              802.60   872.10   888.44  1040.22  1075.55
                             1116.44  1155.42  1291.51  1337.25  1548.76
                             1625.57  1733.10  1859.33  1937.79  2017.30
                             2059.65  2145.33  2161.76  2179.87  2652.34
                             3193.80  4425.33  4470.35  4535.47  4538.24
                             4567.98  5014.84  5473.36
 
 Zero-point correction=                           0.111668 (Hartree/Particle)
 Thermal correction to Energy=                    0.121490
 Thermal correction to Enthalpy=                  0.122434
 Thermal correction to Gibbs Free Energy=         0.072426
 Sum of electronic and zero-point Energies=           -420.093302
 Sum of electronic and thermal Energies=              -420.083480
 Sum of electronic and thermal Enthalpies=            -420.082536
 Sum of electronic and thermal Free Energies=         -420.132545
 
                     E (Thermal)             CV                S
                      KCal/Mol        Cal/Mol-Kelvin    Cal/Mol-Kelvin
 Total                   76.236             32.504            105.252
 Electronic               0.000              0.000              1.377
 Translational            0.889              2.981             40.136
 Rotational               0.889              2.981             28.477
 Vibrational             74.459             26.542             35.262
 Vibration     1          0.592              1.987             12.225
 Vibration     2          0.601              1.959              3.743
 Vibration     3          0.608              1.935              3.148
 Vibration     4          0.612              1.922              2.927
 Vibration     5          0.622              1.891              2.550
 Vibration     6          0.641              1.829              2.062
 Vibration     7          0.650              1.802              1.911
 Vibration     8          0.666              1.754              1.693
 Vibration     9          0.717              1.603              1.229
 Vibration    10          0.789              1.411              0.867
 Vibration    11          0.913              1.123              0.528
 Vibration    12          0.965              1.019              0.439
 Vibration    13          0.977              0.995              0.421
                       Q            Log10(Q)             Ln(Q)
 Total Bot       0.485905D-33        -33.313448        -76.707049
 Total V=0       0.112229D+19         18.050103         41.561899
 Vib (Bot)       0.134181D-46        -46.872309       -107.927481
 Vib (Bot)    1  0.172725D+03          2.237355          5.151700
 Vib (Bot)    2  0.238482D+01          0.377456          0.869124
 Vib (Bot)    3  0.174652D+01          0.242174          0.557627
 Vib (Bot)    4  0.155254D+01          0.191042          0.439890
 Vib (Bot)    5  0.126345D+01          0.101557          0.233844
 Vib (Bot)    6  0.955918D+00         -0.019579         -0.045083
 Vib (Bot)    7  0.873431D+00         -0.058771         -0.135326
 Vib (Bot)    8  0.762374D+00         -0.117832         -0.271317
 Vib (Bot)    9  0.553024D+00         -0.257256         -0.592353
 Vib (Bot)   10  0.408484D+00         -0.388825         -0.895304
 Vib (Bot)   11  0.279203D+00         -0.554079         -1.275815
 Vib (Bot)   12  0.244790D+00         -0.611207         -1.407356
 Vib (Bot)   13  0.237451D+00         -0.624426         -1.437794
 Vib (V=0)       0.309915D+05          4.491242         10.341467
 Vib (V=0)    1  0.173226D+03          2.238612          5.154594
 Vib (V=0)    2  0.293667D+01          0.467856          1.077277
 Vib (V=0)    3  0.231668D+01          0.364867          0.840137
 Vib (V=0)    4  0.213106D+01          0.328597          0.756621
 Vib (V=0)    5  0.185879D+01          0.269229          0.619923
 Vib (V=0)    6  0.157879D+01          0.198323          0.456656
 Vib (V=0)    7  0.150642D+01          0.177946          0.409736
 Vib (V=0)    8  0.141171D+01          0.149745          0.344802
 Vib (V=0)    9  0.124554D+01          0.095359          0.219572
 Vib (V=0)   10  0.114565D+01          0.059050          0.135969
 Vib (V=0)   11  0.107267D+01          0.030467          0.070154
 Vib (V=0)   12  0.105671D+01          0.023954          0.055157
 Vib (V=0)   13  0.105352D+01          0.022642          0.052136
 Electronic      0.200000D+01          0.301030          0.693147
 Translational   0.484981D+08          7.685724         17.697035
 Rotational      0.373342D+06          5.572107         12.830250
 ***** Axes restored to original set *****
 -------------------------------------------------------------------
 Center     Atomic                   Forces (Hartrees/Bohr)
 Number     Number              X              Y              Z
 -------------------------------------------------------------------
      1        8           0.001095386    0.011210850    0.001627573
      2        1           0.000129333    0.000134387    0.000004782
      3        6          -0.001168248   -0.000066121   -0.000413142
      4        1          -0.000067886    0.000435479    0.000048494
      5        6          -0.000465073   -0.011204936   -0.001694352
      6        6          -0.000189513   -0.002254375   -0.000350921
      7        8           0.000764764    0.001085943    0.000457196
      8        8          -0.000133687    0.000106344    0.000096366
      9        6          -0.000105350    0.000305045    0.000108296
     10        6           0.000113286    0.000169058    0.000083503
     11        1          -0.000010443    0.000018487    0.000004905
     12        1          -0.000012839    0.000021747    0.000015395
     13        1           0.000011999    0.000003531   -0.000005542
     14        1           0.000016823    0.000018498    0.000009543
     15        1           0.000021449    0.000016060    0.000007903
 -------------------------------------------------------------------
 Cartesian Forces:  Max     0.011210850 RMS     0.002437491

 GradGradGradGradGradGradGradGradGradGradGradGradGradGradGradGradGradGrad
 Berny optimization.
 Search for a local minimum.
 Step number   1 out of a maximum of    2
 All quantities printed in internal units (Hartrees-Bohrs-Radians)
 Second derivative matrix not updated -- analytic derivatives used.
 ITU=  0
     Eigenvalues ---   -0.00026  -0.00008   0.00149   0.00218   0.00336
     Eigenvalues ---    0.00433   0.00461   0.00554   0.01066   0.02050
     Eigenvalues ---    0.02305   0.03218   0.03518   0.05254   0.06339
     Eigenvalues ---    0.07599   0.07856   0.08764   0.09438   0.10205
     Eigenvalues ---    0.11499   0.14138   0.17058   0.17365   0.19904
     Eigenvalues ---    0.28825   0.29516   0.43764   0.49448   0.62826
     Eigenvalues ---    0.70984   0.76569   0.79236   0.86805   0.89964
     Eigenvalues ---    0.92938   0.97687   1.73229   2.62770
 Eigenvalue     1 is  -2.61D-04 should be greater than     0.000000 Eigenvector:
                          Z2        Z1        Z14       Y11       Z4
   1                    0.47489   0.34950  -0.31463  -0.26674  -0.26491
                          Y2        Z12       Y15       Z3        Z15
   1                   -0.24853   0.22861   0.21943  -0.20339  -0.19078
 Eigenvalue     2 is  -8.16D-05 should be greater than     0.000000 Eigenvector:
                          X1        X2        X14       Y13       X15
   1                    0.45222   0.35605  -0.29699   0.29652  -0.29197
                          Y4        X13       X10       Y5        Y6
   1                    0.23775  -0.21780  -0.21638  -0.20477  -0.17612
 Quadratic step=5.136D+01 exceeds max=3.000D-01 adjusted using Lamda=-4.966D-02.
 Angle between NR and scaled steps=  67.72 degrees.
 Angle between quadratic step and forces=   7.94 degrees.
 Linear search not attempted -- first point.
 B after Tr=     0.001392    0.000333   -0.000354
         Rot=    1.000000    0.000351    0.000053   -0.000018 Ang=   0.04 deg.
 Variable       Old X    -DE/DX   Delta X   Delta X   Delta X     New X
                                 (Linear)    (Quad)   (Total)
    X1       -2.54066   0.00110   0.00000   0.02698   0.02822  -2.51244
    Y1        3.33670   0.01121   0.00000   0.20075   0.20115   3.53786
    Z1        0.20124   0.00163   0.00000   0.02785   0.02475   0.22599
    X2       -3.73922   0.00013   0.00000  -0.00448  -0.00338  -3.74260
    Y2        3.46985   0.00013   0.00000   0.01485   0.01617   3.48602
    Z2        1.58440   0.00000   0.00000   0.01852   0.01532   1.59972
    X3       -5.16480  -0.00117   0.00000  -0.01403  -0.01252  -5.17732
    Y3       -0.87882  -0.00007   0.00000  -0.02185  -0.02230  -0.90112
    Z3       -0.84953  -0.00041   0.00000  -0.01129  -0.01156  -0.86109
    X4       -7.10910  -0.00007   0.00000  -0.01649  -0.01492  -7.12403
    Y4       -0.96492   0.00044   0.00000   0.02255   0.02167  -0.94324
    Z4       -1.36252   0.00005   0.00000  -0.00114  -0.00159  -1.36411
    X5       -2.96372  -0.00047   0.00000  -0.00820  -0.00674  -2.97046
    Y5       -0.70479  -0.01120   0.00000  -0.20643  -0.20644  -0.91123
    Z5       -0.29907  -0.00169   0.00000  -0.03332  -0.03335  -0.33242
    X6       -0.31427  -0.00019   0.00000  -0.00463  -0.00324  -0.31751
    Y6       -1.04342  -0.00225   0.00000  -0.04372  -0.04310  -1.08652
    Z6        0.42178  -0.00035   0.00000  -0.00748  -0.00710   0.41469
    X7        0.32256   0.00076   0.00000   0.01277   0.01395   0.33651
    Y7       -1.67636   0.00109   0.00000   0.01963   0.02174  -1.65462
    Z7        2.50180   0.00046   0.00000   0.00857   0.00942   2.51122
    X8        1.20570  -0.00013   0.00000  -0.00320  -0.00162   1.20408
    Y8       -0.63647   0.00011   0.00000  -0.00726  -0.00796  -0.64443
    Z8       -1.53050   0.00010   0.00000  -0.00097  -0.00075  -1.53125
    X9        3.87728  -0.00011   0.00000  -0.00324  -0.00171   3.87557
    Y9       -0.79898   0.00031   0.00000   0.00400   0.00375  -0.79522
    Z9       -1.01801   0.00011   0.00000   0.00046   0.00108  -1.01694
   X10        4.80336   0.00011   0.00000  -0.00164  -0.00033   4.80304
   Y10        1.59592   0.00017   0.00000   0.00236   0.00304   1.59896
   Z10        0.25022   0.00008   0.00000   0.00185   0.00088   0.25110
   X11        4.72691  -0.00001   0.00000  -0.00199  -0.00025   4.72666
   Y11       -1.06220   0.00002   0.00000   0.00395   0.00244  -1.05977
   Z11       -2.87257   0.00000   0.00000   0.00059   0.00148  -2.87109
   X12        4.22976  -0.00001   0.00000  -0.00056   0.00091   4.23067
   Y12       -2.46352   0.00002   0.00000   0.00323   0.00381  -2.45971
   Z12        0.14505   0.00002   0.00000  -0.00047   0.00135   0.14640
   X13        6.84795   0.00001   0.00000  -0.00130  -0.00002   6.84793
   Y13        1.49956   0.00000   0.00000   0.00002   0.00095   1.50051
   Z13        0.50860  -0.00001   0.00000  -0.00029  -0.00098   0.50762
   X14        4.35908   0.00002   0.00000  -0.00048   0.00090   4.35997
   Y14        3.23809   0.00002   0.00000   0.00282   0.00267   3.24076
   Z14       -0.91349   0.00001   0.00000   0.00226   0.00009  -0.91340
   X15        3.92003   0.00002   0.00000  -0.00034   0.00076   3.92079
   Y15        1.82418   0.00002   0.00000   0.00046   0.00240   1.82659
   Z15        2.09749   0.00001   0.00000   0.00217   0.00095   2.09844
         Item               Value     Threshold  Converged?
 Maximum Force            0.011211     0.000450     NO 
 RMS     Force            0.002437     0.000300     NO 
 Maximum Displacement     0.206436     0.001800     NO 
 RMS     Displacement     0.044832     0.001200     NO 
 Predicted change in Energy=-4.685348D-03
 GradGradGradGradGradGradGradGradGradGradGradGradGradGradGradGradGradGrad


 ----------------------------------------------------------------------

 Electric dipole moment (input orientation):
 (Debye = 10**-18 statcoulomb cm , SI units = C m)
                  (au)            (Debye)         (10**-30 SI)
   Tot        0.361082D+00      0.917780D+00      0.306138D+01
   x         -0.252147D+00     -0.640893D+00     -0.213779D+01
   y          0.586531D-01      0.149081D+00      0.497282D+00
   z         -0.251719D+00     -0.639806D+00     -0.213416D+01

 Dipole polarizability, Alpha (input orientation).
 (esu units = cm**3 , SI units = C**2 m**2 J**-1)
 Alpha(0;0):
               (au)            (10**-24 esu)      (10**-40 SI)
   iso        0.726648D+02      0.107678D+02      0.119808D+02
   aniso      0.317159D+02      0.469981D+01      0.522924D+01
   xx         0.914811D+02      0.135561D+02      0.150832D+02
   yx         0.564987D+01      0.837225D+00      0.931538D+00
   yy         0.670806D+02      0.994033D+01      0.110601D+02
   zx         0.451652D+01      0.669279D+00      0.744674D+00
   zy         0.167788D+01      0.248636D+00      0.276645D+00
   zz         0.594326D+02      0.880700D+01      0.979911D+01

 ----------------------------------------------------------------------

 Dipole orientation:
     8         -1.72816782         -3.14770640          2.17587578
     1         -3.53931243         -3.42334937          2.07023835
     6         -3.14630707          1.34834864          4.05609079
     1         -4.17948279          1.64639072          5.75744849
     6         -1.95042331          0.94050110          2.16359380
     6         -0.58824512          0.97968889         -0.24406946
     8         -1.62919115          1.22235308         -2.24160881
     8          1.88549023          0.79459393          0.12160987
     6          3.42070749          0.69277069         -2.12763682
     6          3.35515196         -1.93279311         -3.26942473
     1          5.30367425          1.19636542         -1.47084332
     1          2.74848173          2.11895530         -3.45495572
     1          4.62540224         -2.01655415         -4.89294581
     1          3.96090832         -3.33070953         -1.88117778
     1          1.45091513         -2.39853720         -3.90328167

 Electric dipole moment (dipole orientation):
 (Debye = 10**-18 statcoulomb cm , SI units = C m)
                  (au)            (Debye)         (10**-30 SI)
   Tot        0.361082D+00      0.917780D+00      0.306138D+01
   x          0.000000D+00      0.000000D+00      0.000000D+00
   y          0.000000D+00      0.000000D+00      0.000000D+00
   z          0.361082D+00      0.917780D+00      0.306138D+01

 Dipole polarizability, Alpha (dipole orientation).
 (esu units = cm**3 , SI units = C**2 m**2 J**-1)
 Alpha(0;0):
               (au)            (10**-24 esu)      (10**-40 SI)
   iso        0.726648D+02      0.107678D+02      0.119808D+02
   aniso      0.317159D+02      0.469981D+01      0.522924D+01
   xx         0.716303D+02      0.106145D+02      0.118102D+02
   yx        -0.519573D+01     -0.769928D+00     -0.856661D+00
   yy         0.683660D+02      0.101308D+02      0.112720D+02
   zx        -0.157860D+02     -0.233924D+01     -0.260275D+01
   zy         0.592544D+01      0.878059D+00      0.976973D+00
   zz         0.779979D+02      0.115581D+02      0.128601D+02

 ----------------------------------------------------------------------
 1\1\GINC-AJ\Freq\UM062X\6-311++G(d,p)\C5H7O3(2)\AAYUSH\16-Aug-2025\0\\
 # freq 6-311++g(d,p) m062x\\Title Card Required\\0,2\O,-1.34446,1.7657
 08,0.106493\H,-1.97871,1.836166,0.838426\C,-2.733094,-0.46505,-0.44955
 \H,-3.761976,-0.510612,-0.721015\C,-1.568335,-0.37296,-0.15826\C,-0.16
 6304,-0.552154,0.223199\O,0.17069,-0.887091,1.323895\O,0.638031,-0.336
 803,-0.809906\C,2.051768,-0.4228,-0.538709\C,2.541831,0.844523,0.13241
 1\H,2.501374,-0.562093,-1.520099\H,2.238292,-1.30364,0.076756\H,3.6237
 79,0.793531,0.269137\H,2.306725,1.713523,-0.483398\H,2.074389,0.965317
 ,1.109946\\Version=ES64L-G16RevA.03\State=2-A\HF=-420.2049702\S2=0.761
 547\S2-1=0.\S2A=0.750069\RMSD=3.648e-09\RMSF=2.437e-03\ZeroPoint=0.111
 6677\Thermal=0.1214899\Dipole=-0.2521466,0.0586531,-0.251719\DipoleDer
 iv=-0.3105984,0.1714441,-0.049798,0.0815682,-0.0059089,0.0922912,-0.08
 44048,-0.0044797,-0.2486696,0.2135814,-0.0606951,0.0538254,-0.0095993,
 0.3315513,0.0119459,0.0797032,0.0657184,0.2308056,-0.2882604,0.2762654
 ,0.018315,0.0321681,-0.1500263,0.0062049,0.0155405,0.0642459,-0.128620
 4,0.2763081,0.0235996,0.0186387,0.0136,0.2020899,-0.0037775,0.010288,-
 0.0012778,0.2251657,-0.5021187,-0.3030179,-0.1384228,-0.0534581,-0.503
 7443,-0.0957065,-0.1114781,-0.0941223,-0.1522072,2.1575726,-0.2201257,
 -0.0965482,0.0232049,0.5986641,-0.3406165,-0.473131,-0.4627611,1.65949
 02,-0.8219168,0.1361419,-0.2088503,0.0179857,-0.4558589,0.2300477,0.00
 77827,0.3080398,-1.0585716,-1.6363334,-0.099771,0.3747039,-0.0979242,-
 0.3432774,0.0744606,0.5096923,0.1141445,-0.8460813,0.9909297,0.0858546
 ,-0.0689297,0.024483,0.3214272,0.0725596,0.0688608,0.0281031,0.2904749
 ,-0.0619212,-0.0226609,0.0361328,-0.0459547,-0.0535209,-0.0798502,-0.0
 265306,-0.0502691,-0.0098487,-0.0251586,-0.0040188,0.0307871,-0.008724
 3,0.0558851,-0.029597,0.070705,-0.0546035,-0.0719394,-0.017402,-0.0356
 516,0.0196444,0.0228851,-0.0571741,0.0251562,-0.066092,0.0627068,0.039
 2353,-0.1322343,-0.007285,-0.0234017,0.0051843,0.0638963,0.0011014,-0.
 0251118,-0.0121701,0.0947617,0.0830969,0.0425331,-0.0384571,-0.001681,
 -0.0450299,0.0391757,-0.0303494,0.0694814,0.0068456,0.0744551,0.017387
 2,0.0723606,-0.0037376,0.0410269,-0.0033954,0.0545249,-0.0327563,-0.03
 08408\Polar=91.4810696,5.6498732,67.080643,4.5165209,1.6778788,59.4325
 664\Quadrupole=9.7683844,-4.0152022,-5.7531821,-0.263723,-1.3809056,3.
 8199275\PG=C01 [X(C5H7O3)]\NImag=1\\0.22773265,-0.02207080,0.02010560,
 -0.25685973,0.02787400,0.29646927,-0.22440216,0.02359200,0.25619944,0.
 22486529,0.01669746,-0.01029577,-0.02326557,-0.02030125,0.01480454,0.2
 5450611,-0.02986316,-0.29525287,-0.25459594,0.02824413,0.29469477,-0.0
 0428148,-0.02579026,-0.00220837,0.00099945,0.00065593,-0.00115482,1.42
 637721,-0.00306187,-0.01142066,-0.00239968,-0.00105737,-0.00071693,-0.
 00003803,0.08104457,0.06476377,-0.00089476,-0.00693194,-0.00000692,-0.
 00053480,-0.00059174,-0.00031653,0.34933965,0.02268194,0.14392377,0.00
 010049,0.00031591,0.00008839,0.00004285,-0.00027520,-0.00015981,-0.397
 24240,-0.01730216,-0.09756702,0.38770501,0.00021679,-0.00005768,0.0001
 4971,-0.00039861,0.00010453,-0.00024730,-0.01250319,-0.02740124,-0.004
 21655,0.01654737,0.01705668,-0.00014021,0.00002676,-0.00000845,-0.0001
 3793,-0.00010792,-0.00008979,-0.09806832,-0.00538862,-0.05194647,0.097
 91838,0.00497606,0.04209404,0.00259659,0.01915113,0.00313040,-0.001227
 53,0.00220366,0.00027933,-1.02889806,-0.06360231,-0.24909142,0.0091354
 0,-0.00400883,0.00215348,1.34517781,0.00396176,0.01429285,-0.00187454,
 -0.00239881,-0.00310074,0.00234783,-0.03392333,-0.02753356,-0.00809826
 ,0.00098351,0.00678767,0.00107550,0.00734595,0.04205008,0.00416417,0.0
 0817453,-0.00066287,-0.00201494,-0.00403739,0.00017144,-0.24831374,-0.
 01533646,-0.09630104,0.00103247,-0.00036391,0.00478483,0.30352938,-0.0
 1043503,0.18470280,-0.00238500,0.00763576,-0.00149684,-0.00053053,0.00
 256303,0.00311899,0.01523111,0.00392155,0.00094228,-0.00074246,0.00018
 108,-0.00201441,-0.25370462,0.00832989,-0.04758076,0.66289547,0.001753
 30,-0.01287857,0.00054203,0.00029005,-0.00033518,-0.00082053,-0.012254
 81,0.00113975,-0.00324509,-0.00049228,0.00474221,-0.00016491,0.0271015
 3,-0.06025898,0.00448206,-0.05623276,0.27435145,-0.00234901,0.00240177
 ,-0.00366210,0.00281964,-0.00129832,0.00213239,0.00019024,0.00106414,0
 .00292023,-0.00122754,0.00019259,0.00519691,-0.03387836,-0.00263487,-0
 .06770834,0.11186401,-0.20667974,0.92263731,0.00042318,-0.00091138,0.0
 0074256,-0.00016393,-0.00078665,-0.00096469,-0.00527006,-0.00013845,-0
 .00020717,0.00020374,-0.00030785,0.00153264,-0.01959601,0.01750279,-0.
 04669835,-0.17065591,0.06020702,-0.18819593,0.16738036,0.00105905,0.00
 024057,0.00054166,-0.00026406,0.00015235,0.00015146,0.00175173,0.00061
 163,0.00006927,0.00015864,-0.00068305,-0.00047814,0.01202864,0.0134606
 3,0.01628625,0.05559190,-0.13293135,0.17450241,-0.06551321,0.10171057,
 0.00080702,-0.00204921,0.00277455,-0.00113923,0.00054482,-0.00165365,-
 0.00111395,-0.00052882,0.00119945,0.00000570,-0.00035802,0.00037260,-0
 .03848930,0.01792456,-0.02793803,-0.17789245,0.17350624,-0.64922144,0.
 19840544,-0.22106237,0.77443793,-0.00068875,-0.00146519,0.00074926,0.0
 0041556,-0.00099748,-0.00124365,-0.00799159,0.00027819,-0.00220034,0.0
 0101192,0.00024333,-0.00115040,-0.05385210,-0.00038249,0.03377338,-0.1
 9644671,-0.02085937,0.10072659,0.02672430,-0.00629740,0.03078252,0.504
 25595,0.00166545,-0.00083641,-0.00156377,0.00055537,-0.00061174,0.0002
 3332,0.00041182,0.00071931,0.00022517,0.00002203,-0.00036230,0.0000636
 8,0.00039149,0.00975763,-0.00013656,-0.01530153,-0.07572754,0.03617389
 ,-0.00813164,0.02282108,0.03211553,0.01229665,0.10555674,0.00093448,-0
 .00003240,0.00048984,-0.00062787,0.00046478,0.00021506,0.00030439,-0.0
 0001523,-0.00007224,-0.00006782,-0.00006721,-0.00060478,0.00903384,0.0
 0008367,0.00606033,0.07766844,0.03642097,-0.22142532,0.03044426,0.0316
 8220,-0.09775920,-0.09470318,-0.07661244,0.40334395,0.00059488,-0.0002
 5769,-0.00063290,0.00010883,0.00042281,0.00044862,0.00233159,-0.000207
 81,0.00052546,-0.00036349,0.00002955,-0.00000422,0.00211566,-0.0021667
 4,0.00019564,-0.05496838,-0.00491282,0.03426101,-0.00053686,0.00581097
 ,-0.01965552,-0.17746152,0.01235511,-0.01978787,0.45379869,-0.00022853
 ,0.00096578,-0.00004982,-0.00001698,0.00000168,0.00001922,0.00072132,-
 0.00014911,0.00011109,0.00004410,-0.00018593,0.00001017,-0.00042243,0.
 00460984,0.00138369,-0.00543918,0.00260950,-0.00826738,0.00237819,-0.0
 0566901,0.00063400,0.01609021,-0.06920795,0.01187670,-0.02250882,0.561
 58030,-0.00026747,0.00045116,-0.00007705,-0.00000938,0.00011096,0.0000
 8689,0.00114625,0.00001382,0.00067655,-0.00003163,-0.00006224,0.000237
 09,0.00426461,0.00127821,-0.00357517,0.03424829,-0.00543445,0.01281573
 ,0.00115971,-0.00055246,-0.00409153,-0.04200130,0.01138271,-0.09729082
 ,-0.06077889,-0.03948085,0.63127867,0.00002000,0.00010324,-0.00000074,
 -0.00004176,-0.00011223,-0.00008441,-0.00028276,-0.00001398,-0.0000277
 0,0.00009078,-0.00005363,-0.00002652,-0.00055446,0.00154902,0.00074384
 ,0.00194185,-0.00099219,-0.00906666,0.00079443,-0.00163020,0.00267495,
 -0.03738082,-0.03499419,-0.01774955,-0.07989693,-0.02163144,-0.0081819
 0,0.57789366,0.00001410,-0.00012802,0.00008470,-0.00006301,0.00005593,
 0.00002154,0.00018619,-0.00005444,0.00006227,-0.00001327,0.00000623,-0
 .00001299,-0.00026393,-0.00026987,-0.00020929,-0.00066930,-0.00043640,
 0.00354929,-0.00108410,-0.00022588,-0.00181920,-0.00139479,0.00597388,
 -0.00101922,-0.03299906,-0.18476581,-0.05129317,-0.02920026,0.52192059
 ,-0.00009074,0.00001281,-0.00024100,0.00015062,-0.00008845,0.00005658,
 0.00001876,-0.00002361,-0.00004808,0.00000997,-0.00001601,0.00000457,-
 0.00036778,0.00037503,0.00010844,0.00143100,0.00096166,0.00232085,-0.0
 0122784,-0.00159936,-0.00053858,-0.00805131,-0.00441580,-0.00149877,-0
 .01306102,-0.04992257,-0.11094933,-0.01529959,-0.03487386,0.57036817,-
 0.00001936,-0.00006944,0.00003484,-0.00000356,-0.00007146,-0.00006562,
 -0.00064321,0.00005664,-0.00024490,0.00004846,0.00002443,-0.00004769,-
 0.00116399,-0.00043992,0.00110033,-0.00370451,0.00350386,-0.00557548,0
 .00152802,-0.00057157,0.00133523,-0.03424849,0.00192982,0.03408739,-0.
 08593226,0.01367406,0.09230181,0.00684420,-0.00084723,-0.01112371,0.11
 272676,0.00003380,0.00003379,0.00003402,-0.00001687,-0.00002557,-0.000
 00819,-0.00003133,-0.00000489,0.00001694,0.00000832,-0.00000960,0.0000
 0099,0.00015854,0.00018574,-0.00003641,-0.00001287,-0.00068209,0.00250
 234,-0.00165463,0.00065595,-0.00041047,0.00301438,0.00066988,-0.002608
 16,0.01349180,-0.05687681,-0.02695842,0.01138689,-0.00359177,-0.027475
 38,-0.01331247,0.05671853,0.00005306,-0.00007427,0.00003801,-0.0000251
 0,0.00001067,-0.00001821,-0.00006713,0.00003240,-0.00005923,-0.0000145
 9,0.00000396,-0.00002457,-0.00020850,-0.00027528,0.00026363,-0.0025082
 2,0.00064847,-0.00101903,0.00142099,-0.00046205,0.00095798,-0.00629301
 ,0.00172856,0.00950317,0.10604487,-0.02823511,-0.28268361,0.00423549,-
 0.00119743,-0.01123721,-0.10733230,0.03333947,0.29669967,-0.00008054,-
 0.00012764,0.00013457,-0.00003318,0.00001516,-0.00005233,-0.00023561,0
 .00009798,-0.00001465,0.00003068,0.00003815,-0.00001880,-0.00013566,-0
 .00075694,0.00003459,0.00272802,0.00344317,-0.00875382,0.00043704,-0.0
 0102354,0.00395489,-0.02717076,0.02983211,-0.02031334,-0.05465851,0.02
 638090,-0.01622637,0.00382779,-0.00951371,0.00721362,0.00420733,-0.011
 22583,0.00638025,0.07106948,-0.00000569,-0.00000080,-0.00002619,0.0000
 1056,-0.00002768,-0.00001384,-0.00014302,0.00002703,-0.00001936,-0.000
 00400,0.00000966,0.00001661,0.00013627,-0.00015800,-0.00023314,-0.0005
 1457,-0.00004192,0.00358668,-0.00222322,0.00055906,-0.00097146,0.00491
 642,0.00219918,-0.00083379,0.03488992,-0.22789820,0.12304537,0.0031618
 2,-0.02189907,0.01544323,-0.00201200,0.00549379,-0.00308306,-0.0362143
 3,0.24346890,0.00000051,0.00008860,0.00001539,0.00000313,-0.00005424,-
 0.00001468,-0.00009697,-0.00007135,-0.00000400,0.00002436,-0.00000650,
 0.00000300,-0.00028996,0.00056202,-0.00003624,0.00271331,-0.00031415,-
 0.00025158,0.00155753,-0.00076885,-0.00072968,-0.00754006,0.00262406,-
 0.00265985,-0.02447800,0.12600327,-0.14026192,0.00329446,-0.01437650,0
 .01037449,-0.00438622,0.02269667,-0.01377745,0.02956638,-0.13422475,0.
 14730038,-0.00013234,0.00005841,-0.00001609,0.00002316,-0.00002258,-0.
 00001102,-0.00007381,0.00000904,0.00000144,0.00003542,0.00000262,0.000
 00838,-0.00013132,0.00015107,-0.00001244,0.00146896,0.00050580,-0.0012
 8487,-0.00008091,-0.00043235,0.00040906,-0.00057596,-0.00275120,-0.000
 34180,-0.01009264,0.00314716,0.00030950,-0.31398100,0.01293843,-0.0336
 9721,0.00028357,-0.00017882,-0.00034471,0.00019256,-0.00042112,0.00014
 600,0.34021947,0.00008273,0.00005025,0.00003893,0.00000371,-0.00006889
 ,-0.00005174,-0.00022218,0.00001484,-0.00005161,0.00001853,-0.00001042
 ,-0.00000785,-0.00006896,0.00047720,0.00028931,0.00103684,0.00001490,-
 0.00288984,0.00021951,-0.00038202,0.00104305,-0.00631131,-0.00551516,-
 0.00236142,-0.02625146,0.00483583,-0.00057752,0.01477475,-0.04859420,0
 .00109812,0.00064527,0.00104427,-0.00014245,0.00060940,0.00045481,0.00
 107806,-0.01365411,0.04903427,0.00006232,-0.00000726,0.00008505,-0.000
 04539,-0.00000796,-0.00002486,-0.00007426,0.00002026,0.00000698,0.0000
 0827,-0.00000082,-0.00000552,-0.00006623,0.00004047,0.00009197,0.00043
 924,0.00000045,-0.00281102,0.00055350,0.00030393,0.00113229,-0.0039798
 8,-0.00371351,0.00014794,-0.01332163,0.00383811,-0.00247162,-0.0325341
 2,0.00063392,-0.05029573,0.00041465,0.00061122,-0.00005980,0.00020900,
 0.00009799,0.00043051,0.03743314,0.00007074,0.05055944,0.00013042,0.00
 000227,-0.00003465,0.00002705,-0.00003773,-0.00001322,-0.00008715,0.00
 001753,-0.00001881,-0.00002476,-0.00000922,0.00000050,0.00015164,0.000
 13127,-0.00000423,-0.00029793,-0.00048052,0.00151284,-0.00051284,-0.00
 000921,-0.00070984,0.00209459,0.00056602,0.00044914,0.00055943,-0.0104
 7564,0.00626007,-0.06015699,0.04879958,-0.03353448,0.00010126,0.000796
 74,0.00003027,-0.00019405,-0.00222241,-0.00105083,-0.00505470,0.025930
 15,-0.01821164,0.06015819,-0.00001073,-0.00000642,-0.00001952,0.000026
 99,-0.00001780,-0.00002249,-0.00009040,0.00002383,-0.00002909,-0.00000
 189,-0.00000303,0.00000435,0.00000049,0.00003799,0.00002255,-0.0000899
 7,-0.00040659,0.00074185,-0.00016229,0.00022320,-0.00039019,0.00102804
 ,0.00298562,0.00015462,0.00692407,-0.02562164,0.01692337,0.04638611,-0
 .21745293,0.12298828,0.00025137,0.00104279,-0.00007810,-0.00211098,-0.
 00331114,-0.00361287,0.00001928,0.00015110,-0.00083889,-0.05039369,0.2
 3861124,-0.00008672,-0.00002777,-0.00003990,0.00000534,0.00008730,0.00
 003515,0.00012722,-0.00002293,0.00002406,0.00000393,0.00000606,0.00000
 130,-0.00006119,-0.00026901,-0.00001710,-0.00044206,0.00048044,-0.0004
 8291,0.00053810,0.00031507,0.00042902,0.00159814,0.00101235,0.00034734
 ,0.00390200,-0.01530859,0.01002767,-0.03398285,0.12541560,-0.13908691,
 0.00056778,0.00057628,0.00091860,-0.00178771,-0.00303105,-0.00105290,-
 0.00003181,0.00140472,-0.00278169,0.03780962,-0.13317230,0.14622981,0.
 00039144,-0.00016631,0.00016987,-0.00007955,0.00004652,-0.00000756,0.0
 0006677,-0.00004157,-0.00000725,-0.00003164,-0.00000200,-0.00000489,0.
 00008667,0.00011297,0.00005066,-0.00082935,-0.00057997,-0.00104267,-0.
 00067455,-0.00065937,0.00062548,0.00131438,0.00115270,0.00066950,0.004
 40151,-0.00171292,-0.01219331,-0.09911798,0.01411035,0.10762972,-0.000
 02422,-0.00245765,-0.00137140,0.00001541,0.00064538,0.00053635,-0.0121
 0047,0.00318712,0.02911303,0.00310587,-0.00177640,-0.00815979,0.103475
 73,-0.00010681,-0.00006451,-0.00006594,0.00003829,0.00008126,0.0000477
 9,0.00018695,-0.00001933,0.00001698,-0.00000961,0.00000625,-0.00001368
 ,-0.00015124,-0.00033848,0.00014980,-0.00099986,0.00084081,-0.00294482
 ,0.00060591,-0.00054374,0.00182156,-0.00015917,0.00157779,0.00286693,0
 .01538016,-0.00422846,-0.02884649,0.01126629,-0.05053824,-0.02246409,-
 0.00276136,-0.00465399,-0.00221577,0.00055609,0.00112438,0.00037653,0.
 00062837,-0.00150677,-0.00104862,-0.01261514,0.00374378,0.02253384,-0.
 01185886,0.05451923,0.00016098,-0.00004360,0.00007906,-0.00004758,-0.0
 0001105,-0.00002170,-0.00002896,0.00001220,0.00000346,-0.00002308,0.00
 001018,-0.00001475,0.00006170,-0.00010031,0.00005534,-0.00049082,-0.00
 038344,-0.00144167,0.00093925,0.00107100,0.00062828,-0.00046675,0.0008
 8281,0.00120336,0.00634244,-0.00261192,-0.01372157,0.10600531,-0.02496
 565,-0.26933748,-0.00106614,-0.00228088,0.00049805,-0.00032629,0.00024
 676,0.00066452,-0.00256758,0.00105949,0.00599608,0.00751526,-0.0026715
 7,-0.01455153,-0.11600773,0.02978599,0.28996055\\-0.00109539,-0.011210
 85,-0.00162757,-0.00012933,-0.00013439,-0.00000478,0.00116825,0.000066
 12,0.00041314,0.00006789,-0.00043548,-0.00004849,0.00046507,0.01120494
 ,0.00169435,0.00018951,0.00225437,0.00035092,-0.00076476,-0.00108594,-
 0.00045720,0.00013369,-0.00010634,-0.00009637,0.00010535,-0.00030504,-
 0.00010830,-0.00011329,-0.00016906,-0.00008350,0.00001044,-0.00001849,
 -0.00000490,0.00001284,-0.00002175,-0.00001540,-0.00001200,-0.00000353
 ,0.00000554,-0.00001682,-0.00001850,-0.00000954,-0.00002145,-0.0000160
 6,-0.00000790\\\@


 I LOVE MANKIND - IT'S PEOPLE I CAN'T STAND.
     -- LINUS OF PEANUTS
 Job cpu time:       0 days  0 hours 56 minutes 41.1 seconds.
 Elapsed time:       0 days  0 hours  2 minutes 21.8 seconds.
 File lengths (MBytes):  RWF=    153 Int=      0 D2E=      0 Chk=      5 Scr=      1
 Normal termination of Gaussian 16 at Sat Aug 16 16:51:46 2025.
