 Entering Gaussian System, Link 0=g16
 Initial command:
 /opt/g16/l1.exe "/home/aayush/scratches/g16/Gau-55571.inp" -scrdir="/home/aayush/scratches/g16/"
 Entering Link 1 = /opt/g16/l1.exe PID=     55574.
  
 Copyright (c) 1988,1990,1992,1993,1995,1998,2003,2009,2016,
            Gaussian, Inc.  All Rights Reserved.
  
 This is part of the Gaussian(R) 16 program.  It is based on
 the Gaussian(R) 09 system (copyright 2009, Gaussian, Inc.),
 the Gaussian(R) 03 system (copyright 2003, Gaussian, Inc.),
 the Gaussian(R) 98 system (copyright 1998, Gaussian, Inc.),
 the Gaussian(R) 94 system (copyright 1995, Gaussian, Inc.),
 the Gaussian 92(TM) system (copyright 1992, Gaussian, Inc.),
 the Gaussian 90(TM) system (copyright 1990, Gaussian, Inc.),
 the Gaussian 88(TM) system (copyright 1988, Gaussian, Inc.),
 the Gaussian 86(TM) system (copyright 1986, Carnegie Mellon
 University), and the Gaussian 82(TM) system (copyright 1983,
 Carnegie Mellon University). Gaussian is a federally registered
 trademark of Gaussian, Inc.
  
 This software contains proprietary and confidential information,
 including trade secrets, belonging to Gaussian, Inc.
  
 This software is provided under written license and may be
 used, copied, transmitted, or stored only in accord with that
 written license.
  
 The following legend is applicable only to US Government
 contracts under FAR:
  
                    RESTRICTED RIGHTS LEGEND
  
 Use, reproduction and disclosure by the US Government is
 subject to restrictions as set forth in subparagraphs (a)
 and (c) of the Commercial Computer Software - Restricted
 Rights clause in FAR 52.227-19.
  
 Gaussian, Inc.
 340 Quinnipiac St., Bldg. 40, Wallingford CT 06492
  
  
 ---------------------------------------------------------------
 Warning -- This program may not be used in any manner that
 competes with the business of Gaussian, Inc. or will provide
 assistance to any competitor of Gaussian, Inc.  The licensee
 of this program is prohibited from giving any competitor of
 Gaussian, Inc. access to this program.  By using this program,
 the user acknowledges that Gaussian, Inc. is engaged in the
 business of creating and licensing software in the field of
 computational chemistry and represents and warrants to the
 licensee that it is not a competitor of Gaussian, Inc. and that
 it will not use this program in any manner prohibited above.
 ---------------------------------------------------------------
  

 Cite this work as:
 Gaussian 16, Revision A.03,
 M. J. Frisch, G. W. Trucks, H. B. Schlegel, G. E. Scuseria, 
 M. A. Robb, J. R. Cheeseman, G. Scalmani, V. Barone, 
 G. A. Petersson, H. Nakatsuji, X. Li, M. Caricato, A. V. Marenich, 
 J. Bloino, B. G. Janesko, R. Gomperts, B. Mennucci, H. P. Hratchian, 
 J. V. Ortiz, A. F. Izmaylov, J. L. Sonnenberg, D. Williams-Young, 
 F. Ding, F. Lipparini, F. Egidi, J. Goings, B. Peng, A. Petrone, 
 T. Henderson, D. Ranasinghe, V. G. Zakrzewski, J. Gao, N. Rega, 
 G. Zheng, W. Liang, M. Hada, M. Ehara, K. Toyota, R. Fukuda, 
 J. Hasegawa, M. Ishida, T. Nakajima, Y. Honda, O. Kitao, H. Nakai, 
 T. Vreven, K. Throssell, J. A. Montgomery, Jr., J. E. Peralta, 
 F. Ogliaro, M. J. Bearpark, J. J. Heyd, E. N. Brothers, K. N. Kudin, 
 V. N. Staroverov, T. A. Keith, R. Kobayashi, J. Normand, 
 K. Raghavachari, A. P. Rendell, J. C. Burant, S. S. Iyengar, 
 J. Tomasi, M. Cossi, J. M. Millam, M. Klene, C. Adamo, R. Cammi, 
 J. W. Ochterski, R. L. Martin, K. Morokuma, O. Farkas, 
 J. B. Foresman, and D. J. Fox, Gaussian, Inc., Wallingford CT, 2016.
 
 ******************************************
 Gaussian 16:  ES64L-G16RevA.03 25-Dec-2016
                20-Jun-2025 
 ******************************************
 %nprocshared=24
 Will use up to   24 processors via shared memory.
 %mem=12GB
 %chk=ethyl_propiolate_ts1.chk
 -------------------
 # freq 6-31+g m062x
 -------------------
 1/10=4,30=1,38=1/1,3;
 2/12=2,17=6,18=5,40=1/2;
 3/5=1,6=6,7=10,11=2,25=1,30=1,71=2,74=-55,140=1/1,2,3;
 4//1;
 5/5=2,38=5,98=1/2;
 8/6=4,10=90,11=11/1;
 11/6=1,8=1,9=11,15=111,16=1/1,2,10;
 10/6=1/2;
 6/7=2,8=2,9=2,10=2,28=1/1;
 7/8=1,10=1,25=1/1,2,3,16;
 1/10=4,30=1/3;
 99//99;
 -------------------
 Title Card Required
 -------------------
 Symbolic Z-matrix:
 Charge =  0 Multiplicity = 2
 O                    -1.33963   1.81006   0.11262 
 H                    -1.97397   1.84476   0.84764 
 C                    -2.73819  -0.46661  -0.45182 
 H                    -3.76902  -0.48322  -0.71908 
 C                    -1.57112  -0.42922  -0.16723 
 C                    -0.16763  -0.56544   0.2209 
 O                     0.17384  -0.8827    1.32596 
 O                     0.6372   -0.33736  -0.80964 
 C                     2.05104  -0.42086  -0.53813 
 C                     2.54228   0.84583   0.13295 
 H                     2.50072  -0.56028  -1.51952 
 H                     2.23792  -1.30156   0.07754 
 H                     3.62435   0.79383   0.2685 
 H                     2.3076    1.71523  -0.48249 
 H                     2.07574   0.9666    1.11082 
 

 GradGradGradGradGradGradGradGradGradGradGradGradGradGradGradGradGradGrad
 Berny optimization.
 Initialization pass.
 Trust Radius=3.00D-01 FncErr=1.00D-07 GrdErr=1.00D-07 EigMax=2.50D+02 EigMin=1.00D-04
 Number of steps in this run=      2 maximum allowed number of steps=      2.
 GradGradGradGradGradGradGradGradGradGradGradGradGradGradGradGradGradGrad

                          Input orientation:                          
 ---------------------------------------------------------------------
 Center     Atomic      Atomic             Coordinates (Angstroms)
 Number     Number       Type             X           Y           Z
 ---------------------------------------------------------------------
      1          8           0       -1.339631    1.810060    0.112620
      2          1           0       -1.973971    1.844764    0.847640
      3          6           0       -2.738187   -0.466613   -0.451816
      4          1           0       -3.769019   -0.483218   -0.719077
      5          6           0       -1.571120   -0.429216   -0.167234
      6          6           0       -0.167631   -0.565438    0.220900
      7          8           0        0.173836   -0.882699    1.325962
      8          8           0        0.637202   -0.337356   -0.809638
      9          6           0        2.051041   -0.420858   -0.538129
     10          6           0        2.542280    0.845832    0.132947
     11          1           0        2.500717   -0.560281   -1.519519
     12          1           0        2.237924   -1.301560    0.077537
     13          1           0        3.624354    0.793825    0.268504
     14          1           0        2.307603    1.715232   -0.482485
     15          1           0        2.075736    0.966602    1.110822
 ---------------------------------------------------------------------
                    Distance matrix (angstroms):
                    1          2          3          4          5
     1  O    0.000000
     2  H    0.971517   0.000000
     3  C    2.730895   2.759543   0.000000
     4  H    3.442785   3.331111   1.065044   0.000000
     5  C    2.268538   2.522547   1.201845   2.266761   0.000000
     6  C    2.651094   3.076482   2.658961   3.722944   1.462527
     7  O    3.318694   3.504415   3.437077   4.459582   2.340973
     8  O    3.061017   3.785029   3.396762   4.409565   2.301697
     9  C    4.110611   4.822253   4.790224   5.823206   3.641110
    10  C    3.999923   4.680296   5.472458   6.505752   4.316934
    11  H    4.799028   5.604509   5.347418   6.321094   4.292518
    12  H    4.741551   5.313424   5.073365   6.114543   3.915318
    13  H    5.069337   5.725479   6.526063   7.567570   5.355245
    14  H    3.696682   4.485297   5.497398   6.466413   4.443257
    15  H    3.656851   4.152175   5.260209   6.293780   4.108685
                    6          7          8          9         10
     6  C    0.000000
     7  O    1.199340   0.000000
     8  O    1.327323   2.252309   0.000000
     9  C    2.349369   2.685522   1.442092   0.000000
    10  C    3.056638   3.165538   2.432637   1.515309   0.000000
    11  H    3.185776   3.689863   2.006568   1.088473   2.170144
    12  H    2.519747   2.448360   2.068594   1.090691   2.169561
    13  H    4.028525   3.979325   3.371207   2.145093   1.091771
    14  H    3.438457   3.817419   2.666531   2.152162   1.090727
    15  H    2.858637   2.661470   2.730907   2.155155   1.090178
                   11         12         13         14         15
    11  H    0.000000
    12  H    1.780209   0.000000
    13  H    2.508623   2.519781   0.000000
    14  H    2.508125   3.069123   1.773925   0.000000
    15  H    3.070940   2.497707   1.771318   1.775623   0.000000
 Stoichiometry    C5H7O3(2)
 Framework group  C1[X(C5H7O3)]
 Deg. of freedom    39
 Full point group                 C1      NOp   1
 Largest Abelian subgroup         C1      NOp   1
 Largest concise Abelian subgroup C1      NOp   1
                         Standard orientation:                         
 ---------------------------------------------------------------------
 Center     Atomic      Atomic             Coordinates (Angstroms)
 Number     Number       Type             X           Y           Z
 ---------------------------------------------------------------------
      1          8           0       -1.392778    1.790820    0.078660
      2          1           0       -2.025797    1.843109    0.813778
      3          6           0       -2.796857   -0.494945   -0.432836
      4          1           0       -3.828173   -0.515364   -0.697957
      5          6           0       -1.629236   -0.453633   -0.151084
      6          6           0       -0.225365   -0.584084    0.237653
      7          8           0        0.117341   -0.877462    1.348913
      8          8           0        0.578172   -0.380553   -0.799019
      9          6           0        1.992299   -0.460905   -0.528064
     10          6           0        2.487219    0.819346    0.113943
     11          1           0        2.440027   -0.622972   -1.506864
     12          1           0        2.178460   -1.328120    0.106671
     13          1           0        3.569415    0.768146    0.248830
     14          1           0        2.253242    1.675365   -0.520228
     15          1           0        2.022581    0.962722    1.089670
 ---------------------------------------------------------------------
 Rotational constants (GHZ):           3.4317367           1.3054851           1.1683121
 Standard basis: 6-31+G (6D, 7F)
 There are   118 symmetry adapted cartesian basis functions of A   symmetry.
 There are   118 symmetry adapted basis functions of A   symmetry.
   118 basis functions,   236 primitive gaussians,   118 cartesian basis functions
    31 alpha electrons       30 beta electrons
       nuclear repulsion energy       359.5401012127 Hartrees.
 NAtoms=   15 NActive=   15 NUniq=   15 SFac= 1.00D+00 NAtFMM=   60 NAOKFM=F Big=F
 Integral buffers will be    131072 words long.
 Raffenetti 2 integral format.
 Two-electron integral symmetry is turned on.
 One-electron integrals computed using PRISM.
 NBasis=   118 RedAO= T EigKep=  1.71D-06  NBF=   118
 NBsUse=   118 1.00D-06 EigRej= -1.00D+00 NBFU=   118
 ExpMin= 4.38D-02 ExpMax= 5.48D+03 ExpMxC= 8.25D+02 IAcc=3 IRadAn=         5 AccDes= 0.00D+00
 Harris functional with IExCor= 1009 and IRadAn=       5 diagonalized for initial guess.
 HarFok:  IExCor= 1009 AccDes= 0.00D+00 IRadAn=         5 IDoV= 1 UseB2=F ITyADJ=14
 ICtDFT=  3500011 ScaDFX=  1.000000  1.000000  1.000000  1.000000
 FoFCou: FMM=F IPFlag=           0 FMFlag=      100000 FMFlg1=           0
         NFxFlg=           0 DoJE=T BraDBF=F KetDBF=T FulRan=T
         wScrn=  0.000000 ICntrl=       500 IOpCl=  0 I1Cent=   200000004 NGrid=           0
         NMat0=    1 NMatS0=      1 NMatT0=    0 NMatD0=    1 NMtDS0=    0 NMtDT0=    0
 Petite list used in FoFCou.
 Initial guess <Sx>= 0.0000 <Sy>= 0.0000 <Sz>= 0.5000 <S**2>= 0.7500 S= 0.5000
 Requested convergence on RMS density matrix=1.00D-08 within 128 cycles.
 Requested convergence on MAX density matrix=1.00D-06.
 Requested convergence on             energy=1.00D-06.
 No special actions if energy rises.
 Restarting incremental Fock formation.
 SCF Done:  E(UM062X) =  -419.959812981     A.U. after   24 cycles
            NFock= 24  Conv=0.39D-08     -V/T= 2.0049
 <Sx>= 0.0000 <Sy>= 0.0000 <Sz>= 0.5000 <S**2>= 0.7571 S= 0.5035
 <L.S>=  0.00000000000    
 Annihilation of the first spin contaminant:
 S**2 before annihilation     0.7571,   after     0.7500
 DoSCS=F DFT=T ScalE2(SS,OS)=  1.000000  1.000000
 Range of M.O.s used for correlation:     1   118
 NBasis=   118 NAE=    31 NBE=    30 NFC=     0 NFV=     0
 NROrb=    118 NOA=    31 NOB=    30 NVA=    87 NVB=    88

 **** Warning!!: The largest alpha MO coefficient is  0.21552510D+03


 **** Warning!!: The largest beta MO coefficient is  0.19379873D+03

 Symmetrizing basis deriv contribution to polar:
 IMax=3 JMax=2 DiffMx= 0.00D+00
 G2DrvN: will do    16 centers at a time, making    1 passes.
 Calling FoFCou, ICntrl=  3107 FMM=F I1Cent=   0 AccDes= 0.00D+00.
 End of G2Drv F.D. properties file   721 does not exist.
 End of G2Drv F.D. properties file   722 does not exist.
 End of G2Drv F.D. properties file   788 does not exist.
          IDoAtm=111111111111111
          Differentiating once with respect to electric field.
                with respect to dipole field.
          Differentiating once with respect to nuclear coordinates.
 Keep R1 and R2 ints in memory in canonical form, NReq=71861349.
          There are    48 degrees of freedom in the 1st order CPHF.  IDoFFX=6 NUNeed=     3.
     45 vectors produced by pass  0 Test12= 1.11D-14 2.08D-09 XBig12= 9.10D+01 3.46D+00.
 AX will form    45 AO Fock derivatives at one time.
     45 vectors produced by pass  1 Test12= 1.11D-14 2.08D-09 XBig12= 1.94D+01 6.66D-01.
     45 vectors produced by pass  2 Test12= 1.11D-14 2.08D-09 XBig12= 5.23D-01 1.43D-01.
     45 vectors produced by pass  3 Test12= 1.11D-14 2.08D-09 XBig12= 2.84D-03 8.41D-03.
     45 vectors produced by pass  4 Test12= 1.11D-14 2.08D-09 XBig12= 1.90D-05 7.42D-04.
     45 vectors produced by pass  5 Test12= 1.11D-14 2.08D-09 XBig12= 1.96D-07 5.62D-05.
     32 vectors produced by pass  6 Test12= 1.11D-14 2.08D-09 XBig12= 1.36D-09 3.83D-06.
     12 vectors produced by pass  7 Test12= 1.11D-14 2.08D-09 XBig12= 7.77D-12 2.14D-07.
      3 vectors produced by pass  8 Test12= 1.11D-14 2.08D-09 XBig12= 5.75D-14 2.09D-08.
      3 vectors produced by pass  9 Test12= 1.11D-14 2.08D-09 XBig12= 1.86D-15 7.14D-09.
      2 vectors produced by pass 10 Test12= 1.11D-14 2.08D-09 XBig12= 5.47D-16 3.34D-09.
 InvSVY:  IOpt=1 It=  1 EMax= 7.11D-15
 Solved reduced A of dimension   322 with    48 vectors.
 Isotropic polarizability for W=    0.000000       67.78 Bohr**3.
 End of Minotr F.D. properties file   721 does not exist.
 End of Minotr F.D. properties file   722 does not exist.
 End of Minotr F.D. properties file   788 does not exist.

 **********************************************************************

            Population analysis using the SCF density.

 **********************************************************************

 Orbital symmetries:
 Alpha Orbitals:
       Occupied  (A) (A) (A) (A) (A) (A) (A) (A) (A) (A) (A) (A)
                 (A) (A) (A) (A) (A) (A) (A) (A) (A) (A) (A) (A)
                 (A) (A) (A) (A) (A) (A) (A)
       Virtual   (A) (A) (A) (A) (A) (A) (A) (A) (A) (A) (A) (A)
                 (A) (A) (A) (A) (A) (A) (A) (A) (A) (A) (A) (A)
                 (A) (A) (A) (A) (A) (A) (A) (A) (A) (A) (A) (A)
                 (A) (A) (A) (A) (A) (A) (A) (A) (A) (A) (A) (A)
                 (A) (A) (A) (A) (A) (A) (A) (A) (A) (A) (A) (A)
                 (A) (A) (A) (A) (A) (A) (A) (A) (A) (A) (A) (A)
                 (A) (A) (A) (A) (A) (A) (A) (A) (A) (A) (A) (A)
                 (A) (A) (A)
 Beta  Orbitals:
       Occupied  (A) (A) (A) (A) (A) (A) (A) (A) (A) (A) (A) (A)
                 (A) (A) (A) (A) (A) (A) (A) (A) (A) (A) (A) (A)
                 (A) (A) (A) (A) (A) (A)
       Virtual   (A) (A) (A) (A) (A) (A) (A) (A) (A) (A) (A) (A)
                 (A) (A) (A) (A) (A) (A) (A) (A) (A) (A) (A) (A)
                 (A) (A) (A) (A) (A) (A) (A) (A) (A) (A) (A) (A)
                 (A) (A) (A) (A) (A) (A) (A) (A) (A) (A) (A) (A)
                 (A) (A) (A) (A) (A) (A) (A) (A) (A) (A) (A) (A)
                 (A) (A) (A) (A) (A) (A) (A) (A) (A) (A) (A) (A)
                 (A) (A) (A) (A) (A) (A) (A) (A) (A) (A) (A) (A)
                 (A) (A) (A) (A)
 The electronic state is 2-A.
 Alpha  occ. eigenvalues --  -19.70298 -19.70203 -19.66017 -10.72854 -10.61238
 Alpha  occ. eigenvalues --  -10.59526 -10.59143 -10.54098  -1.27789  -1.18434
 Alpha  occ. eigenvalues --   -1.14556  -0.91280  -0.87808  -0.78366  -0.71040
 Alpha  occ. eigenvalues --   -0.64400  -0.61980  -0.58405  -0.57049  -0.54622
 Alpha  occ. eigenvalues --   -0.53668  -0.50503  -0.48704  -0.46378  -0.44954
 Alpha  occ. eigenvalues --   -0.42410  -0.41657  -0.39426  -0.37971  -0.36698
 Alpha  occ. eigenvalues --   -0.36196
 Alpha virt. eigenvalues --   -0.01132   0.01988   0.02496   0.03658   0.03770
 Alpha virt. eigenvalues --    0.04505   0.05467   0.05903   0.07703   0.08342
 Alpha virt. eigenvalues --    0.08852   0.08916   0.10063   0.11857   0.12294
 Alpha virt. eigenvalues --    0.13486   0.14472   0.15389   0.16340   0.16772
 Alpha virt. eigenvalues --    0.17865   0.18757   0.19230   0.20104   0.21592
 Alpha virt. eigenvalues --    0.23004   0.24232   0.25007   0.26047   0.26446
 Alpha virt. eigenvalues --    0.29299   0.29707   0.30445   0.30620   0.32112
 Alpha virt. eigenvalues --    0.32519   0.33648   0.34986   0.35623   0.36948
 Alpha virt. eigenvalues --    0.38801   0.39939   0.40780   0.43272   0.44383
 Alpha virt. eigenvalues --    0.47796   0.58686   0.60328   0.69293   0.70224
 Alpha virt. eigenvalues --    0.72359   0.73569   0.75072   0.76639   0.77868
 Alpha virt. eigenvalues --    0.80995   0.85049   0.86046   0.88386   0.92257
 Alpha virt. eigenvalues --    0.94838   0.96633   1.00766   1.08427   1.10735
 Alpha virt. eigenvalues --    1.11979   1.12619   1.13644   1.17690   1.21411
 Alpha virt. eigenvalues --    1.23173   1.24150   1.28260   1.28776   1.32731
 Alpha virt. eigenvalues --    1.35944   1.38799   1.39573   1.45433   1.45546
 Alpha virt. eigenvalues --    1.47822   1.61158   1.68749   1.74559   1.82899
 Alpha virt. eigenvalues --    2.03443   2.05543
  Beta  occ. eigenvalues --  -19.70302 -19.68567 -19.66031 -10.72840 -10.61238
  Beta  occ. eigenvalues --  -10.59518 -10.59045 -10.54098  -1.27797  -1.18459
  Beta  occ. eigenvalues --   -1.07360  -0.91026  -0.87611  -0.78279  -0.70948
  Beta  occ. eigenvalues --   -0.64362  -0.61727  -0.58298  -0.56718  -0.53654
  Beta  occ. eigenvalues --   -0.51656  -0.49214  -0.46578  -0.44997  -0.41655
  Beta  occ. eigenvalues --   -0.39386  -0.39016  -0.38400  -0.38000  -0.36394
  Beta virt. eigenvalues --   -0.09199  -0.00611   0.02037   0.02508   0.03766
  Beta virt. eigenvalues --    0.03805   0.04692   0.05535   0.05988   0.07761
  Beta virt. eigenvalues --    0.08289   0.08920   0.09020   0.10141   0.11967
  Beta virt. eigenvalues --    0.12387   0.13669   0.14614   0.15375   0.16424
  Beta virt. eigenvalues --    0.16692   0.18138   0.18962   0.19526   0.20094
  Beta virt. eigenvalues --    0.21526   0.23106   0.24263   0.25127   0.26233
  Beta virt. eigenvalues --    0.26598   0.29376   0.29699   0.30550   0.30776
  Beta virt. eigenvalues --    0.32244   0.32521   0.33657   0.34827   0.35650
  Beta virt. eigenvalues --    0.36988   0.38830   0.40116   0.40587   0.43328
  Beta virt. eigenvalues --    0.44477   0.47827   0.58670   0.60422   0.69396
  Beta virt. eigenvalues --    0.70381   0.72588   0.73801   0.75207   0.77080
  Beta virt. eigenvalues --    0.77968   0.81024   0.85346   0.85953   0.88361
  Beta virt. eigenvalues --    0.92256   0.95193   0.96900   1.01090   1.08398
  Beta virt. eigenvalues --    1.10795   1.12152   1.13496   1.15272   1.18061
  Beta virt. eigenvalues --    1.21436   1.23611   1.26557   1.28486   1.29581
  Beta virt. eigenvalues --    1.33622   1.36722   1.39688   1.40586   1.45628
  Beta virt. eigenvalues --    1.45869   1.47853   1.61551   1.69216   1.74820
  Beta virt. eigenvalues --    1.84493   2.03572   2.05577
          Condensed to atoms (all electrons):
               1          2          3          4          5          6
     1  O    8.312219   0.139671  -0.048563   0.000746   0.567497  -0.527979
     2  H    0.139671   0.443644   0.100773  -0.000055  -0.049421  -0.038901
     3  C   -0.048563   0.100773  51.475589   0.547465 -16.478058 -28.364868
     4  H    0.000746  -0.000055   0.547465   0.341724  -0.182197  -0.047444
     5  C    0.567497  -0.049421 -16.478058  -0.182197  28.211294  -4.245634
     6  C   -0.527979  -0.038901 -28.364868  -0.047444  -4.245634  37.135000
     7  O   -0.011171  -0.000787   0.082967  -0.000173   0.291916  -0.201808
     8  O   -0.011634   0.000385  -0.636216  -0.000245  -1.059731   1.110440
     9  C   -0.023367   0.000054  -0.576576  -0.000064  -0.939768   1.218224
    10  C    0.018100  -0.000408   0.121949  -0.000115   0.071227  -0.315700
    11  H    0.000001   0.000000  -0.005439   0.000000  -0.022844   0.040415
    12  H   -0.000011   0.000002   0.002152  -0.000000   0.016137  -0.023014
    13  H    0.000070   0.000000   0.000409   0.000000   0.004147   0.002796
    14  H   -0.000211   0.000003   0.005880  -0.000000   0.020125  -0.021178
    15  H   -0.000196   0.000017   0.000413  -0.000000  -0.011224   0.008161
               7          8          9         10         11         12
     1  O   -0.011171  -0.011634  -0.023367   0.018100   0.000001  -0.000011
     2  H   -0.000787   0.000385   0.000054  -0.000408   0.000000   0.000002
     3  C    0.082967  -0.636216  -0.576576   0.121949  -0.005439   0.002152
     4  H   -0.000173  -0.000245  -0.000064  -0.000115   0.000000  -0.000000
     5  C    0.291916  -1.059731  -0.939768   0.071227  -0.022844   0.016137
     6  C   -0.201808   1.110440   1.218224  -0.315700   0.040415  -0.023014
     7  O    8.484486  -0.246680  -0.025873  -0.041833  -0.000447   0.003995
     8  O   -0.246680   9.053964   0.039997   0.024246  -0.072870  -0.034426
     9  C   -0.025873   0.039997   6.034424  -0.166190   0.431525   0.420914
    10  C   -0.041833   0.024246  -0.166190   5.785575  -0.057233  -0.076152
    11  H   -0.000447  -0.072870   0.431525  -0.057233   0.502289  -0.032846
    12  H    0.003995  -0.034426   0.420914  -0.076152  -0.032846   0.493210
    13  H   -0.000158   0.007382  -0.072292   0.397473  -0.000845  -0.000667
    14  H   -0.000205  -0.000812  -0.055955   0.396313  -0.004497   0.003769
    15  H    0.001193  -0.009598  -0.047715   0.405773   0.003566  -0.004654
              13         14         15
     1  O    0.000070  -0.000211  -0.000196
     2  H    0.000000   0.000003   0.000017
     3  C    0.000409   0.005880   0.000413
     4  H    0.000000  -0.000000  -0.000000
     5  C    0.004147   0.020125  -0.011224
     6  C    0.002796  -0.021178   0.008161
     7  O   -0.000158  -0.000205   0.001193
     8  O    0.007382  -0.000812  -0.009598
     9  C   -0.072292  -0.055955  -0.047715
    10  C    0.397473   0.396313   0.405773
    11  H   -0.000845  -0.004497   0.003566
    12  H   -0.000667   0.003769  -0.004654
    13  H    0.506376  -0.025301  -0.023928
    14  H   -0.025301   0.480710  -0.026094
    15  H   -0.023928  -0.026094   0.467458
          Atomic-Atomic Spin Densities.
               1          2          3          4          5          6
     1  O    1.011390   0.001633  -0.121090  -0.000468  -0.037435   0.076838
     2  H    0.001633  -0.035980  -0.002104   0.000022  -0.000979   0.002818
     3  C   -0.121090  -0.002104  -0.948579  -0.002312   0.394983   0.770378
     4  H   -0.000468   0.000022  -0.002312  -0.004398   0.001612  -0.000397
     5  C   -0.037435  -0.000979   0.394983   0.001612  -0.519444   0.116043
     6  C    0.076838   0.002818   0.770378  -0.000397   0.116043  -0.903596
     7  O    0.001382   0.000057   0.005097   0.000000   0.000611  -0.004732
     8  O   -0.000249   0.000120   0.008057   0.000005   0.002472  -0.004628
     9  C    0.001091   0.000256   0.005513   0.000001   0.000869  -0.009759
    10  C   -0.001802  -0.000080  -0.004949   0.000003  -0.004269   0.013612
    11  H    0.000010  -0.000000   0.000089  -0.000000   0.000239  -0.000315
    12  H    0.000006  -0.000000   0.000201   0.000000   0.000527  -0.000587
    13  H   -0.000003  -0.000000  -0.000036   0.000000  -0.000148   0.000128
    14  H   -0.000023  -0.000000   0.000132   0.000000   0.000214  -0.000131
    15  H   -0.000036  -0.000002  -0.000350   0.000000  -0.001616   0.002534
               7          8          9         10         11         12
     1  O    0.001382  -0.000249   0.001091  -0.001802   0.000010   0.000006
     2  H    0.000057   0.000120   0.000256  -0.000080  -0.000000  -0.000000
     3  C    0.005097   0.008057   0.005513  -0.004949   0.000089   0.000201
     4  H    0.000000   0.000005   0.000001   0.000003  -0.000000   0.000000
     5  C    0.000611   0.002472   0.000869  -0.004269   0.000239   0.000527
     6  C   -0.004732  -0.004628  -0.009759   0.013612  -0.000315  -0.000587
     7  O   -0.008857  -0.000217   0.000692  -0.000306   0.000006  -0.000024
     8  O   -0.000217  -0.004733  -0.001164   0.000123   0.000084   0.000001
     9  C    0.000692  -0.001164   0.006250  -0.004562  -0.000118  -0.000188
    10  C   -0.000306   0.000123  -0.004562   0.002486   0.000054   0.000059
    11  H    0.000006   0.000084  -0.000118   0.000054  -0.000061  -0.000002
    12  H   -0.000024   0.000001  -0.000188   0.000059  -0.000002  -0.000050
    13  H    0.000003  -0.000022   0.000107   0.000011   0.000000  -0.000000
    14  H   -0.000019  -0.000033  -0.000163   0.000030  -0.000001  -0.000002
    15  H   -0.000093  -0.000204   0.000076  -0.000274   0.000000  -0.000002
              13         14         15
     1  O   -0.000003  -0.000023  -0.000036
     2  H   -0.000000  -0.000000  -0.000002
     3  C   -0.000036   0.000132  -0.000350
     4  H    0.000000   0.000000   0.000000
     5  C   -0.000148   0.000214  -0.001616
     6  C    0.000128  -0.000131   0.002534
     7  O    0.000003  -0.000019  -0.000093
     8  O   -0.000022  -0.000033  -0.000204
     9  C    0.000107  -0.000163   0.000076
    10  C    0.000011   0.000030  -0.000274
    11  H    0.000000  -0.000001   0.000000
    12  H   -0.000000  -0.000002  -0.000002
    13  H   -0.000074   0.000001   0.000007
    14  H    0.000001  -0.000039  -0.000025
    15  H    0.000007  -0.000025  -0.000093
 Mulliken charges and spin densities:
               1          2
     1  O   -0.415172   0.931243
     2  H    0.405022  -0.034238
     3  C   -0.227878   0.105029
     4  H    0.340357  -0.005932
     5  C   -0.193467  -0.046321
     6  C    0.271489   0.058207
     7  O   -0.335423  -0.006400
     8  O   -0.164203  -0.000389
     9  C   -0.237339  -0.001099
    10  C   -0.563026   0.000136
    11  H    0.219225  -0.000014
    12  H    0.231591  -0.000061
    13  H    0.204537  -0.000025
    14  H    0.227456  -0.000059
    15  H    0.236830  -0.000078
 Sum of Mulliken charges =  -0.00000   1.00000
 Mulliken charges and spin densities with hydrogens summed into heavy atoms:
               1          2
     1  O   -0.010150   0.897005
     3  C    0.112479   0.099097
     5  C   -0.193467  -0.046321
     6  C    0.271489   0.058207
     7  O   -0.335423  -0.006400
     8  O   -0.164203  -0.000389
     9  C    0.213477  -0.001174
    10  C    0.105797  -0.000026
 APT charges:
               1
     1  O   -0.219672
     2  H    0.263972
     3  C   -0.240530
     4  H    0.255440
     5  C   -0.327593
     6  C    1.442314
     7  O   -0.754057
     8  O   -0.932384
     9  C    0.503873
    10  C   -0.057958
    11  H   -0.004114
    12  H   -0.005988
    13  H    0.013207
    14  H    0.025615
    15  H    0.037875
 Sum of APT charges =  -0.00000
 APT charges with hydrogens summed into heavy atoms:
               1
     1  O    0.044300
     3  C    0.014910
     5  C   -0.327593
     6  C    1.442314
     7  O   -0.754057
     8  O   -0.932384
     9  C    0.493771
    10  C    0.018740
 Electronic spatial extent (au):  <R**2>=           1079.3815
 Charge=             -0.0000 electrons
 Dipole moment (field-independent basis, Debye):
    X=             -0.7866    Y=              0.2160    Z=             -0.3546  Tot=              0.8895
 Quadrupole moment (field-independent basis, Debye-Ang):
   XX=            -29.9021   YY=            -48.7604   ZZ=            -52.4961
   XY=             -1.0044   XZ=             -2.3905   YZ=              5.6847
 Traceless Quadrupole moment (field-independent basis, Debye-Ang):
   XX=             13.8174   YY=             -5.0409   ZZ=             -8.7765
   XY=             -1.0044   XZ=             -2.3905   YZ=              5.6847
 Octapole moment (field-independent basis, Debye-Ang**2):
  XXX=            -34.6129  YYY=              4.7446  ZZZ=             -2.3415  XYY=              0.3328
  XXY=              0.9443  XXZ=             -5.2255  XZZ=             -0.2852  YZZ=              8.0546
  YYZ=              4.8297  XYZ=             -7.0807
 Hexadecapole moment (field-independent basis, Debye-Ang**3):
 XXXX=           -749.8182 YYYY=           -279.0255 ZZZZ=           -179.8299 XXXY=            -11.7256
 XXXZ=             17.8998 YYYX=            -22.8848 YYYZ=             13.0712 ZZZX=            -10.4279
 ZZZY=              8.6757 XXYY=           -203.2971 XXZZ=           -183.2720 YYZZ=            -75.9449
 XXYZ=             20.4712 YYXZ=            -15.3938 ZZXY=             -9.0799
 N-N= 3.595401012127D+02 E-N=-1.701974548517D+03  KE= 4.178931157964D+02
  Exact polarizability:  87.287   4.302  59.242   3.698  -0.023  56.817
 Approx polarizability:  93.120   3.469  58.557   7.438  -3.563  71.371
                          Isotropic Fermi Contact Couplings
        Atom                 a.u.       MegaHertz       Gauss      10(-4) cm-1
     1  O(17)              0.13328     -80.79398     -28.82930     -26.94997
     2  H(1)              -0.01587     -70.95779     -25.31950     -23.66897
     3  C(13)              0.01834      20.61701       7.35666       6.87709
     4  H(1)              -0.00245     -10.94149      -3.90420      -3.64969
     5  C(13)              0.00891      10.01364       3.57312       3.34019
     6  C(13)              0.00638       7.17351       2.55969       2.39282
     7  O(17)             -0.00183       1.10674       0.39491       0.36917
     8  O(17)             -0.00080       0.48700       0.17377       0.16244
     9  C(13)              0.00000       0.00163       0.00058       0.00054
    10  C(13)             -0.00026      -0.29566      -0.10550      -0.09862
    11  H(1)               0.00000       0.01504       0.00537       0.00502
    12  H(1)              -0.00004      -0.17489      -0.06241      -0.05834
    13  H(1)              -0.00000      -0.01277      -0.00456      -0.00426
    14  H(1)              -0.00000      -0.01439      -0.00513      -0.00480
    15  H(1)              -0.00001      -0.02315      -0.00826      -0.00772
 --------------------------------------------------------
       Center         ----  Spin Dipole Couplings  ----
                      3XX-RR        3YY-RR        3ZZ-RR
 --------------------------------------------------------
     1   Atom       -1.066640      2.481983     -1.415343
     2   Atom        0.008844     -0.061261      0.052417
     3   Atom       -0.085400      0.153078     -0.067678
     4   Atom        0.013832     -0.002269     -0.011563
     5   Atom        0.009235      0.023362     -0.032596
     6   Atom        0.001574      0.011712     -0.013286
     7   Atom        0.016426     -0.024194      0.007768
     8   Atom        0.005094     -0.005159      0.000065
     9   Atom        0.002326     -0.000373     -0.001953
    10   Atom        0.003765     -0.001704     -0.002061
    11   Atom        0.001216     -0.000343     -0.000873
    12   Atom        0.001029      0.000305     -0.001334
    13   Atom        0.001921     -0.000881     -0.001040
    14   Atom        0.005052     -0.002566     -0.002486
    15   Atom        0.004271     -0.002129     -0.002142
 --------------------------------------------------------
                        XY            XZ            YZ
 --------------------------------------------------------
     1   Atom        1.548268      0.382447      1.004053
     2   Atom        0.008585     -0.136364      0.029208
     3   Atom        0.023991     -0.002880      0.019753
     4   Atom        0.005404      0.007284      0.002058
     5   Atom       -0.001897      0.011061      0.006329
     6   Atom       -0.014504      0.002846     -0.001608
     7   Atom       -0.017934     -0.001716     -0.013686
     8   Atom       -0.006872     -0.003691      0.002448
     9   Atom       -0.002658     -0.000597      0.000428
    10   Atom       -0.001578      0.000120     -0.000006
    11   Atom       -0.001405     -0.000939      0.000587
    12   Atom       -0.001799      0.000103     -0.000037
    13   Atom       -0.000611      0.000123     -0.000010
    14   Atom       -0.000364     -0.001267      0.000137
    15   Atom       -0.001794      0.002157     -0.000501
 --------------------------------------------------------


 ---------------------------------------------------------------------------------
              Anisotropic Spin Dipole Couplings in Principal Axis System
 ---------------------------------------------------------------------------------

       Atom             a.u.   MegaHertz   Gauss  10(-4) cm-1        Axes

              Baa    -1.6618   120.248    42.907    40.110 -0.3996 -0.0721  0.9139
     1 O(17)  Bbb    -1.6452   119.042    42.477    39.708  0.8503 -0.4017  0.3401
              Bcc     3.3070  -239.290   -85.385   -79.819  0.3426  0.9129  0.2218
 
              Baa    -0.1189   -63.450   -22.640   -21.165  0.6784 -0.4099  0.6098
     2 H(1)   Bbb    -0.0510   -27.220    -9.713    -9.080  0.3571  0.9092  0.2140
              Bcc     0.1699    90.670    32.353    30.244 -0.6421  0.0726  0.7631
 
              Baa    -0.0890   -11.939    -4.260    -3.982  0.9646 -0.1150  0.2372
     3 C(13)  Bbb    -0.0682    -9.148    -3.264    -3.051 -0.2450 -0.0598  0.9677
              Bcc     0.1571    21.086     7.524     7.034  0.0971  0.9916  0.0859
 
              Baa    -0.0135    -7.224    -2.578    -2.410 -0.2459 -0.0588  0.9675
     4 H(1)   Bbb    -0.0039    -2.088    -0.745    -0.696 -0.2859  0.9582 -0.0144
              Bcc     0.0175     9.311     3.322     3.106  0.9262  0.2802  0.2524
 
              Baa    -0.0361    -4.841    -1.727    -1.615 -0.2401 -0.1104  0.9645
     5 C(13)  Bbb     0.0120     1.606     0.573     0.536  0.9694  0.0258  0.2442
              Bcc     0.0241     3.234     1.154     1.079 -0.0518  0.9936  0.1008
 
              Baa    -0.0139    -1.866    -0.666    -0.622 -0.2565 -0.0848  0.9628
     6 C(13)  Bbb    -0.0084    -1.121    -0.400    -0.374  0.7733  0.5796  0.2571
              Bcc     0.0223     2.986     1.066     0.996 -0.5799  0.8105 -0.0831
 
              Baa    -0.0352     2.546     0.908     0.849  0.3221  0.8982  0.2991
     7 O(17)  Bbb     0.0112    -0.808    -0.288    -0.269 -0.3359 -0.1869  0.9231
              Bcc     0.0240    -1.738    -0.620    -0.580  0.8851 -0.3978  0.2416
 
              Baa    -0.0086     0.625     0.223     0.209  0.4312  0.8995 -0.0701
     8 O(17)  Bbb    -0.0018     0.128     0.046     0.043  0.3818 -0.1115  0.9175
              Bcc     0.0104    -0.753    -0.269    -0.251  0.8175 -0.4223 -0.3915
 
              Baa    -0.0021    -0.279    -0.100    -0.093 -0.2179 -0.5431  0.8109
     9 C(13)  Bbb    -0.0020    -0.264    -0.094    -0.088  0.4876  0.6592  0.5725
              Bcc     0.0040     0.543     0.194     0.181  0.8455 -0.5201 -0.1212
 
              Baa    -0.0021    -0.287    -0.102    -0.096  0.2502  0.9108 -0.3284
    10 C(13)  Bbb    -0.0021    -0.276    -0.098    -0.092  0.0678  0.3218  0.9444
              Bcc     0.0042     0.562     0.201     0.188  0.9658 -0.2586  0.0188
 
              Baa    -0.0013    -0.669    -0.239    -0.223  0.1015 -0.4234  0.9003
    11 H(1)   Bbb    -0.0012    -0.619    -0.221    -0.207  0.5700  0.7664  0.2962
              Bcc     0.0024     1.289     0.460     0.430  0.8154 -0.4831 -0.3191
 
              Baa    -0.0013    -0.717    -0.256    -0.239 -0.1477 -0.1390  0.9792
    12 H(1)   Bbb    -0.0012    -0.619    -0.221    -0.207  0.6161  0.7615  0.2011
              Bcc     0.0025     1.336     0.477     0.446  0.7737 -0.6330  0.0268
 
              Baa    -0.0011    -0.560    -0.200    -0.187 -0.1057 -0.3248  0.9399
    13 H(1)   Bbb    -0.0010    -0.535    -0.191    -0.179  0.1787  0.9236  0.3393
              Bcc     0.0021     1.096     0.391     0.365  0.9782 -0.2038  0.0395
 
              Baa    -0.0027    -1.458    -0.520    -0.486  0.1220 -0.4568  0.8811
    14 H(1)   Bbb    -0.0025    -1.358    -0.485    -0.453  0.1167  0.8882  0.4444
              Bcc     0.0053     2.816     1.005     0.939  0.9856 -0.0486 -0.1617
 
              Baa    -0.0028    -1.498    -0.535    -0.500 -0.3295 -0.1874  0.9254
    15 H(1)   Bbb    -0.0026    -1.378    -0.492    -0.460  0.1697  0.9524  0.2533
              Bcc     0.0054     2.876     1.026     0.959  0.9288 -0.2404  0.2820
 

 ---------------------------------------------------------------------------------

 Calling FoFJK, ICntrl=    100127 FMM=F ISym2X=0 I1Cent= 0 IOpClX= 1 NMat=1 NMatS=1 NMatT=0.
 Full mass-weighted force constant matrix:
 Low frequencies --- -460.5105 -159.3845 -134.8496  -85.0125  -55.9257  -49.4297
 Low frequencies ---   -0.0012   -0.0011   -0.0009
 ******    4 imaginary frequencies (negative Signs) ****** 
 Diagonal vibrational polarizability:
       49.6973525     161.3808684      40.7561257
 Harmonic frequencies (cm**-1), IR intensities (KM/Mole), Raman scattering
 activities (A**4/AMU), depolarization ratios for plane and unpolarized
 incident light, reduced masses (AMU), force constants (mDyne/A),
 and normal coordinates:
                      1                      2                      3
                      A                      A                      A
 Frequencies --   -459.6681              -149.1982               -71.9883
 Red. masses --      1.0898                 2.8773                 4.6141
 Frc consts  --      0.1357                 0.0377                 0.0141
 IR Inten    --    123.1143                44.7466                 9.2140
  Atom  AN      X      Y      Z        X      Y      Z        X      Y      Z
     1   8    -0.05   0.02  -0.04     0.08  -0.12  -0.20     0.28  -0.12   0.11
     2   1     0.70  -0.30   0.64     0.39   0.79   0.01     0.36   0.23   0.15
     3   6     0.00   0.01  -0.00    -0.03   0.01   0.09    -0.02   0.11  -0.04
     4   1     0.00   0.04  -0.00    -0.03  -0.01   0.10    -0.03   0.25  -0.03
     5   6     0.00  -0.01  -0.01    -0.02   0.05   0.08    -0.02  -0.07  -0.04
     6   6    -0.00  -0.00  -0.01    -0.01  -0.00   0.02    -0.02  -0.08  -0.04
     7   8    -0.00   0.01   0.00     0.02  -0.16  -0.03    -0.02   0.10   0.01
     8   8     0.00  -0.01   0.00    -0.03   0.11   0.02    -0.01  -0.19  -0.05
     9   6     0.00  -0.00   0.01    -0.03   0.07  -0.01    -0.01   0.05   0.03
    10   6     0.00  -0.00   0.00    -0.01   0.02   0.07    -0.24   0.16  -0.01
    11   1     0.01  -0.01   0.01    -0.05   0.15  -0.04     0.07   0.08   0.06
    12   1     0.00  -0.00   0.01    -0.02   0.02  -0.08     0.10   0.11   0.07
    13   1     0.00   0.00   0.00    -0.01   0.01   0.05    -0.24   0.33   0.07
    14   1    -0.00  -0.00   0.00    -0.02   0.07   0.14    -0.33   0.09  -0.06
    15   1     0.00  -0.00   0.01    -0.00  -0.05   0.09    -0.33   0.14  -0.04
                      4                      5                      6
                      A                      A                      A
 Frequencies --    -14.3268                82.6361                91.1741
 Red. masses --      2.7126                 3.2417                 3.6902
 Frc consts  --      0.0003                 0.0130                 0.0181
 IR Inten    --      0.2435                 2.9736                 5.5347
  Atom  AN      X      Y      Z        X      Y      Z        X      Y      Z
     1   8    -0.00  -0.03  -0.02    -0.09   0.12  -0.09    -0.06   0.14  -0.09
     2   1     0.01   0.08  -0.01    -0.19  -0.18  -0.15    -0.21  -0.29  -0.20
     3   6    -0.01  -0.06   0.03     0.08   0.18  -0.11    -0.06   0.07   0.30
     4   1    -0.01  -0.11   0.05     0.13   0.36  -0.29    -0.13   0.12   0.58
     5   6    -0.00  -0.02   0.01     0.04  -0.05   0.11     0.03  -0.02  -0.07
     6   6     0.01   0.05  -0.03     0.04  -0.10   0.10     0.04  -0.06  -0.12
     7   8     0.07   0.20  -0.00     0.11  -0.11   0.07    -0.01  -0.07  -0.10
     8   8    -0.03  -0.03  -0.07    -0.04  -0.09   0.04     0.09  -0.09  -0.08
     9   6    -0.02   0.00  -0.11    -0.01   0.03  -0.08     0.08  -0.00   0.06
    10   6    -0.04  -0.14   0.20    -0.10   0.03   0.01    -0.08   0.03   0.11
    11   1    -0.03   0.27  -0.16    -0.08   0.18  -0.13     0.18   0.03   0.10
    12   1     0.04  -0.15  -0.33     0.14  -0.01  -0.18     0.07   0.01   0.08
    13   1    -0.01  -0.09   0.01    -0.06   0.21  -0.26    -0.11   0.08   0.31
    14   1    -0.20   0.03   0.48    -0.41   0.08   0.19    -0.01   0.01   0.05
    15   1     0.10  -0.47   0.31     0.10  -0.21   0.14    -0.26   0.04   0.03
                      7                      8                      9
                      A                      A                      A
 Frequencies --    146.6140               174.6009               217.3505
 Red. masses --      3.9657                 1.3629                 3.2736
 Frc consts  --      0.0502                 0.0245                 0.0911
 IR Inten    --     16.1431                 2.4215                 3.1197
  Atom  AN      X      Y      Z        X      Y      Z        X      Y      Z
     1   8     0.27   0.23  -0.05     0.02   0.05  -0.01    -0.05   0.10   0.06
     2   1     0.09  -0.64  -0.14     0.01  -0.04  -0.01     0.09   0.51   0.15
     3   6    -0.03  -0.23   0.00     0.03  -0.03  -0.04     0.07  -0.16  -0.04
     4   1    -0.03  -0.37   0.01     0.05  -0.04  -0.12     0.10  -0.51  -0.11
     5   6    -0.04  -0.08  -0.00    -0.00  -0.02   0.06     0.04   0.28   0.04
     6   6    -0.04  -0.01   0.02     0.01   0.00   0.02     0.03   0.10   0.01
     7   8    -0.06  -0.07   0.01     0.09   0.00  -0.00     0.01  -0.08  -0.03
     8   8    -0.06   0.07   0.04    -0.04   0.01  -0.02     0.03  -0.11  -0.03
     9   6    -0.05   0.05  -0.02    -0.04   0.00  -0.03     0.03  -0.09   0.02
    10   6    -0.02   0.02   0.01    -0.06  -0.02   0.03    -0.14  -0.00  -0.02
    11   1    -0.10   0.10  -0.05    -0.03   0.03  -0.03     0.08  -0.10   0.05
    12   1    -0.02   0.02  -0.07    -0.05  -0.02  -0.06     0.04  -0.05   0.07
    13   1     0.01   0.09  -0.22    -0.13  -0.26   0.56    -0.12   0.21  -0.07
    14   1    -0.21   0.07   0.14     0.44  -0.04  -0.17    -0.34  -0.06  -0.02
    15   1     0.17  -0.10   0.12    -0.49   0.19  -0.21    -0.12  -0.07   0.00
                     10                     11                     12
                      A                      A                      A
 Frequencies --    299.1794               312.5854               424.0229
 Red. masses --      2.2061                 2.6605                 3.7681
 Frc consts  --      0.1163                 0.1532                 0.3992
 IR Inten    --     56.8075                30.9772                 0.9659
  Atom  AN      X      Y      Z        X      Y      Z        X      Y      Z
     1   8    -0.03   0.15   0.05     0.03  -0.07  -0.02    -0.00   0.01   0.01
     2   1     0.12   0.86   0.13    -0.07  -0.48  -0.08     0.04   0.19   0.03
     3   6    -0.03  -0.04  -0.03     0.00   0.03  -0.01     0.10   0.02   0.04
     4   1    -0.03   0.08  -0.03     0.02   0.04  -0.08     0.06   0.14   0.19
     5   6    -0.03  -0.20  -0.01    -0.02   0.02   0.07     0.13  -0.12  -0.12
     6   6    -0.02  -0.07  -0.04     0.00   0.06  -0.03     0.06   0.03   0.03
     7   8     0.07   0.03  -0.04     0.18   0.01  -0.10    -0.08   0.02   0.07
     8   8    -0.01   0.01  -0.03    -0.04   0.11  -0.06     0.06   0.23   0.08
     9   6    -0.02  -0.02   0.08    -0.08  -0.09   0.17     0.03  -0.14  -0.08
    10   6     0.04   0.00   0.00    -0.08  -0.02   0.02    -0.20  -0.10  -0.07
    11   1     0.04  -0.13   0.13     0.07  -0.34   0.28    -0.03  -0.15  -0.10
    12   1    -0.11   0.03   0.17    -0.33   0.01   0.37    -0.07  -0.18  -0.10
    13   1     0.05  -0.00  -0.12    -0.05   0.12  -0.20    -0.21   0.26   0.09
    14   1    -0.02  -0.02  -0.00    -0.31  -0.10  -0.01    -0.42  -0.21  -0.13
    15   1     0.14   0.03   0.05     0.09  -0.00   0.09    -0.41  -0.21  -0.15
                     13                     14                     15
                      A                      A                      A
 Frequencies --    572.2450               623.6316               758.8071
 Red. masses --      4.2371                 5.3705                 3.8691
 Frc consts  --      0.8175                 1.2306                 1.3126
 IR Inten    --      2.8973                13.0330                81.5910
  Atom  AN      X      Y      Z        X      Y      Z        X      Y      Z
     1   8     0.01   0.00  -0.00     0.00  -0.00  -0.01     0.00  -0.00   0.01
     2   1    -0.01  -0.08  -0.01    -0.03  -0.03  -0.03     0.00   0.02   0.01
     3   6    -0.24  -0.00  -0.06     0.17  -0.01   0.06     0.00  -0.08   0.01
     4   1    -0.18   0.04  -0.34     0.34   0.23  -0.60    -0.02   0.84   0.02
     5   6    -0.26  -0.03   0.17     0.06  -0.10   0.40     0.01  -0.15  -0.05
     6   6    -0.03   0.05  -0.02     0.04   0.02  -0.12     0.01   0.43   0.10
     7   8     0.05   0.01  -0.06    -0.28   0.02  -0.03    -0.00  -0.10  -0.04
     8   8     0.15   0.04   0.08     0.02   0.04  -0.20    -0.00  -0.11  -0.01
     9   6     0.27  -0.09  -0.05     0.03   0.01  -0.01    -0.02   0.00   0.01
    10   6     0.01  -0.01  -0.02     0.01   0.01   0.01    -0.00   0.00   0.01
    11   1     0.12   0.05  -0.14     0.20  -0.14   0.09    -0.03   0.09  -0.01
    12   1     0.34  -0.16  -0.17    -0.16   0.06   0.12     0.06  -0.03  -0.05
    13   1    -0.01   0.40   0.20     0.01   0.02   0.01    -0.00  -0.07  -0.04
    14   1    -0.21  -0.12  -0.09    -0.00   0.04   0.06     0.05   0.00  -0.01
    15   1    -0.26  -0.12  -0.12     0.01  -0.05   0.02     0.06   0.07   0.03
                     16                     17                     18
                      A                      A                      A
 Frequencies --    778.7007               811.0123               818.9906
 Red. masses --      1.5495                 1.4373                 1.3182
 Frc consts  --      0.5536                 0.5570                 0.5209
 IR Inten    --     44.9727                28.9831                 4.5133
  Atom  AN      X      Y      Z        X      Y      Z        X      Y      Z
     1   8    -0.00  -0.00  -0.00    -0.00   0.00  -0.00     0.00  -0.00  -0.00
     2   1     0.01  -0.01   0.01    -0.01  -0.01  -0.01    -0.01  -0.01  -0.01
     3   6     0.03   0.10  -0.12     0.01  -0.11  -0.09     0.05  -0.03  -0.04
     4   1    -0.17  -0.61   0.74    -0.18   0.65   0.58    -0.03   0.21   0.27
     5   6    -0.01  -0.09   0.08    -0.02   0.08   0.04     0.02   0.02   0.06
     6   6     0.01   0.08   0.01     0.01  -0.07   0.00    -0.03  -0.04  -0.05
     7   8    -0.02  -0.02  -0.00     0.00   0.01   0.03    -0.01   0.03  -0.05
     8   8    -0.00  -0.02  -0.03    -0.01   0.02  -0.03     0.01   0.01   0.04
     9   6     0.01  -0.00  -0.01     0.03   0.01  -0.03    -0.03  -0.02   0.07
    10   6     0.01   0.00   0.00     0.01   0.01  -0.01    -0.01  -0.02   0.03
    11   1     0.03  -0.03   0.01     0.06  -0.22   0.02    -0.09   0.48  -0.05
    12   1    -0.01   0.02   0.02    -0.07   0.12   0.16     0.13  -0.30  -0.35
    13   1     0.00   0.01   0.02     0.00   0.03   0.09     0.01   0.03  -0.17
    14   1     0.00   0.02   0.02     0.00   0.11   0.13    -0.05  -0.27  -0.31
    15   1    -0.00  -0.02   0.00    -0.06  -0.18  -0.01     0.11   0.41   0.01
                     19                     20                     21
                      A                      A                      A
 Frequencies --    899.4567               946.0178              1112.6082
 Red. masses --      3.4172                 2.5214                 4.1608
 Frc consts  --      1.6289                 1.3295                 3.0347
 IR Inten    --     20.8898                 5.5320                 8.4307
  Atom  AN      X      Y      Z        X      Y      Z        X      Y      Z
     1   8     0.00  -0.00   0.00     0.00  -0.00   0.00     0.00  -0.00  -0.00
     2   1    -0.01  -0.01  -0.01    -0.00  -0.00  -0.00    -0.00  -0.01   0.00
     3   6     0.08  -0.00   0.00     0.10   0.00   0.03     0.07   0.00   0.02
     4   1     0.08   0.03   0.06     0.11  -0.00   0.02     0.07  -0.00   0.03
     5   6     0.03  -0.01   0.08     0.07  -0.01  -0.01     0.04  -0.00  -0.03
     6   6    -0.09   0.01  -0.12    -0.14   0.01  -0.02    -0.16   0.00   0.04
     7   8    -0.00   0.05  -0.19     0.01   0.02  -0.09     0.01   0.00  -0.01
     8   8     0.10  -0.04   0.25    -0.15  -0.03   0.05    -0.18   0.01  -0.05
     9   6    -0.08   0.07  -0.01     0.05  -0.11  -0.03     0.28   0.21   0.15
    10   6    -0.08  -0.04  -0.09     0.16   0.11   0.05    -0.03  -0.21  -0.11
    11   1    -0.28  -0.17  -0.05    -0.25  -0.21  -0.15     0.26   0.32   0.14
    12   1     0.20   0.29   0.22    -0.01  -0.14  -0.05     0.38   0.27   0.18
    13   1    -0.10  -0.41  -0.00     0.14   0.67   0.37    -0.04  -0.09  -0.02
    14   1     0.15   0.28   0.28    -0.17   0.03   0.07    -0.13  -0.27  -0.13
    15   1    -0.04  -0.40  -0.01    -0.22  -0.10  -0.09    -0.15  -0.35  -0.16
                     22                     23                     24
                      A                      A                      A
 Frequencies --   1159.5189              1228.7842              1329.5354
 Red. masses --      2.0897                 1.7541                 1.8273
 Frc consts  --      1.6553                 1.5605                 1.9031
 IR Inten    --     18.7644                 4.5765               286.1264
  Atom  AN      X      Y      Z        X      Y      Z        X      Y      Z
     1   8    -0.00   0.00  -0.00    -0.00   0.00   0.00    -0.00   0.00   0.00
     2   1    -0.00  -0.00  -0.00     0.00   0.00  -0.00     0.00   0.01   0.00
     3   6    -0.02  -0.00  -0.01    -0.02  -0.00  -0.01    -0.04  -0.00  -0.01
     4   1    -0.03   0.00  -0.01    -0.02  -0.00  -0.01    -0.04  -0.00  -0.02
     5   6    -0.01   0.00   0.01    -0.01   0.00  -0.00    -0.01   0.00   0.00
     6   6     0.06   0.00  -0.01     0.07  -0.00  -0.01     0.20   0.01  -0.07
     7   8    -0.00  -0.00   0.00    -0.01  -0.01   0.03    -0.02   0.00  -0.01
     8   8     0.08  -0.05   0.01     0.01   0.02  -0.07    -0.10  -0.00   0.02
     9   6    -0.15   0.17   0.02    -0.05  -0.05   0.17     0.07   0.03   0.01
    10   6     0.11  -0.13  -0.01     0.03   0.04  -0.12    -0.02  -0.03   0.06
    11   1    -0.13   0.03   0.06    -0.41   0.32  -0.05    -0.69  -0.31  -0.27
    12   1    -0.32   0.13   0.00     0.30  -0.24  -0.19     0.31   0.22   0.20
    13   1     0.09   0.52   0.20    -0.02  -0.03   0.27     0.00   0.01  -0.11
    14   1    -0.37  -0.35  -0.15    -0.01   0.31   0.28     0.01  -0.18  -0.14
    15   1    -0.32  -0.12  -0.21    -0.10  -0.45  -0.10     0.04   0.18   0.06
                     25                     26                     27
                      A                      A                      A
 Frequencies --   1373.2758              1443.5894              1457.4871
 Red. masses --      1.8597                 1.3890                 1.2682
 Frc consts  --      2.0663                 1.7055                 1.5873
 IR Inten    --    306.0648                41.7423                17.3605
  Atom  AN      X      Y      Z        X      Y      Z        X      Y      Z
     1   8     0.00  -0.00  -0.00    -0.00   0.00   0.00     0.00  -0.00  -0.00
     2   1    -0.00  -0.01   0.00     0.00   0.00   0.00    -0.00  -0.00  -0.00
     3   6     0.03   0.00   0.01    -0.02  -0.00  -0.00     0.01  -0.00   0.00
     4   1     0.03   0.00   0.02    -0.02  -0.00  -0.01     0.01  -0.00   0.00
     5   6     0.00  -0.00  -0.00    -0.00  -0.00   0.00     0.00   0.00  -0.00
     6   6    -0.16  -0.01   0.06     0.09   0.00  -0.02    -0.03  -0.00   0.01
     7   8     0.02  -0.01   0.03    -0.01   0.01  -0.02     0.00  -0.00   0.00
     8   8     0.11   0.04  -0.11    -0.06   0.01   0.04     0.02  -0.00  -0.01
     9   6    -0.08  -0.02  -0.02    -0.08  -0.07  -0.04     0.03   0.04   0.02
    10   6     0.01  -0.03   0.05     0.02  -0.05  -0.02    -0.07  -0.11  -0.05
    11   1    -0.35  -0.17  -0.12     0.50   0.35   0.17    -0.18  -0.14  -0.05
    12   1     0.75   0.31   0.21     0.46   0.28   0.28    -0.17  -0.11  -0.12
    13   1     0.02   0.07  -0.03     0.02   0.27   0.13    -0.05   0.50   0.18
    14   1    -0.05  -0.11  -0.04     0.01   0.12   0.20     0.34   0.30   0.32
    15   1    -0.01   0.18   0.01     0.05   0.21  -0.04     0.34   0.40   0.07
                     28                     29                     30
                      A                      A                      A
 Frequencies --   1525.9154              1536.6206              1544.4006
 Red. masses --      1.0415                 1.0598                 1.0856
 Frc consts  --      1.4287                 1.4743                 1.5256
 IR Inten    --     14.7038                 2.0946                27.1760
  Atom  AN      X      Y      Z        X      Y      Z        X      Y      Z
     1   8    -0.00  -0.00   0.00     0.00  -0.00   0.00    -0.00  -0.00  -0.00
     2   1     0.00   0.00  -0.00    -0.00  -0.00  -0.00     0.00   0.00   0.00
     3   6     0.00   0.00   0.00     0.00  -0.00   0.00     0.00  -0.00   0.00
     4   1     0.00  -0.00   0.00     0.00   0.00   0.00     0.00   0.00   0.00
     5   6     0.00  -0.00  -0.00    -0.00   0.00  -0.00    -0.00   0.00  -0.00
     6   6     0.00  -0.00   0.00    -0.02  -0.00  -0.00    -0.02   0.00  -0.00
     7   8    -0.00   0.00  -0.00     0.00  -0.00   0.01     0.00  -0.00   0.01
     8   8    -0.00  -0.00   0.00     0.02  -0.00  -0.01     0.02  -0.00  -0.01
     9   6     0.01   0.02  -0.02     0.01  -0.04  -0.02     0.05  -0.04  -0.01
    10   6     0.02   0.01  -0.05    -0.03   0.02  -0.01     0.03  -0.02   0.00
    11   1     0.01  -0.10  -0.00    -0.15   0.42  -0.16    -0.25   0.40  -0.21
    12   1     0.00  -0.00  -0.04    -0.24   0.20   0.36    -0.35   0.14   0.34
    13   1    -0.08  -0.35   0.58    -0.04   0.16   0.26     0.03  -0.18  -0.17
    14   1    -0.55  -0.09   0.05     0.20  -0.17  -0.32    -0.23   0.16   0.33
    15   1     0.36   0.26   0.10     0.36  -0.31   0.22    -0.28   0.34  -0.19
                     31                     32                     33
                      A                      A                      A
 Frequencies --   1908.0379              2303.4933              3107.7746
 Red. masses --     12.2580                 5.6594                 1.0351
 Frc consts  --     26.2933                17.6928                 5.8900
 IR Inten    --    310.6071                62.5154                13.1182
  Atom  AN      X      Y      Z        X      Y      Z        X      Y      Z
     1   8    -0.00   0.00  -0.00     0.00   0.00   0.00     0.00   0.00  -0.00
     2   1     0.02  -0.00   0.02    -0.00  -0.00  -0.00    -0.00  -0.00   0.00
     3   6    -0.07  -0.00  -0.01    -0.36  -0.01  -0.09     0.00  -0.00   0.00
     4   1    -0.11  -0.01  -0.01    -0.74  -0.03  -0.19    -0.00   0.00  -0.00
     5   6     0.05   0.00  -0.01     0.51  -0.00   0.12    -0.00   0.00   0.00
     6   6     0.20  -0.19   0.75    -0.09   0.01  -0.04     0.00   0.00  -0.00
     7   8    -0.16   0.13  -0.48     0.00  -0.00   0.01     0.00   0.00   0.00
     8   8     0.04   0.01  -0.07    -0.00  -0.00   0.00    -0.00  -0.00   0.00
     9   6     0.02  -0.01   0.01     0.00   0.00  -0.00     0.00   0.00   0.00
    10   6    -0.01   0.01  -0.00    -0.00  -0.00  -0.00    -0.02  -0.04  -0.02
    11   1    -0.15   0.07  -0.08     0.01  -0.00  -0.00     0.00  -0.00  -0.00
    12   1    -0.13  -0.01   0.08     0.00  -0.00  -0.00     0.00  -0.01   0.01
    13   1    -0.00  -0.03  -0.05     0.00   0.00   0.00     0.63  -0.04   0.08
    14   1     0.03   0.01  -0.01     0.00   0.00  -0.00    -0.13   0.44  -0.34
    15   1    -0.03  -0.05   0.00     0.00   0.00   0.00    -0.23   0.06   0.46
                     34                     35                     36
                      A                      A                      A
 Frequencies --   3136.5013              3188.0144              3190.2360
 Red. masses --      1.0601                 1.1022                 1.1008
 Frc consts  --      6.1446                 6.6003                 6.6012
 IR Inten    --     21.7321                 6.2905                14.6662
  Atom  AN      X      Y      Z        X      Y      Z        X      Y      Z
     1   8     0.00  -0.00  -0.00     0.00  -0.00   0.00    -0.00  -0.00   0.00
     2   1     0.00   0.00   0.00    -0.00  -0.00   0.00     0.00   0.00  -0.00
     3   6    -0.00   0.00   0.00    -0.00   0.00  -0.00     0.00  -0.00   0.00
     4   1     0.00  -0.00   0.00     0.00  -0.00   0.00    -0.00  -0.00   0.00
     5   6     0.00  -0.00  -0.00     0.00   0.00   0.00    -0.00   0.00   0.00
     6   6    -0.00  -0.00   0.00    -0.00  -0.00   0.00    -0.00   0.00  -0.00
     7   8    -0.00   0.00  -0.00     0.00  -0.00   0.00     0.00  -0.00   0.00
     8   8     0.00   0.00  -0.00    -0.00   0.00  -0.00     0.00   0.00   0.00
     9   6     0.03  -0.06  -0.00     0.02   0.01  -0.06     0.00   0.02  -0.03
    10   6    -0.01   0.01  -0.00     0.02  -0.04   0.05    -0.08   0.03   0.02
    11   1    -0.23   0.07   0.50    -0.24   0.09   0.53    -0.09   0.03   0.21
    12   1    -0.13   0.64  -0.49     0.06  -0.24   0.17     0.05  -0.24   0.17
    13   1     0.11  -0.01   0.01    -0.30   0.01  -0.02     0.69  -0.03   0.09
    14   1     0.01  -0.05   0.04    -0.13   0.48  -0.35     0.05  -0.24   0.19
    15   1     0.01  -0.00  -0.03     0.14  -0.05  -0.27     0.21  -0.06  -0.48
                     37                     38                     39
                      A                      A                      A
 Frequencies --   3211.0761              3529.4951              3808.2107
 Red. masses --      1.1051                 1.1742                 1.0672
 Frc consts  --      6.7135                 8.6181                 9.1186
 IR Inten    --     17.6588                60.5859                11.0914
  Atom  AN      X      Y      Z        X      Y      Z        X      Y      Z
     1   8    -0.00  -0.00   0.00     0.00   0.00   0.00     0.04  -0.00  -0.05
     2   1     0.00   0.00  -0.00     0.00  -0.00  -0.00    -0.65   0.05   0.75
     3   6    -0.00   0.00  -0.00    -0.11  -0.00  -0.03    -0.00   0.00  -0.00
     4   1     0.00  -0.00  -0.00     0.96   0.02   0.25     0.00  -0.00   0.00
     5   6     0.00  -0.00   0.00     0.04   0.00   0.01     0.00   0.00   0.00
     6   6    -0.00   0.00  -0.00    -0.00   0.00  -0.00     0.00  -0.00  -0.00
     7   8     0.00   0.00   0.00     0.00   0.00  -0.00    -0.00   0.00  -0.00
     8   8    -0.00   0.00  -0.00     0.00   0.00  -0.00    -0.00  -0.00   0.00
     9   6     0.01   0.02  -0.06    -0.00   0.00   0.00     0.00   0.00   0.00
    10   6     0.02   0.02  -0.06     0.00  -0.00   0.00    -0.00   0.00  -0.00
    11   1    -0.22   0.08   0.49     0.00  -0.00  -0.00    -0.00   0.00   0.00
    12   1     0.06  -0.29   0.21     0.00  -0.00   0.00    -0.00  -0.00   0.00
    13   1    -0.08   0.01  -0.03     0.00   0.00   0.00    -0.00  -0.00   0.00
    14   1     0.10  -0.35   0.25    -0.00   0.00  -0.00    -0.00  -0.00   0.00
    15   1    -0.25   0.08   0.53    -0.00  -0.00  -0.00     0.00   0.00  -0.00

 -------------------
 - Thermochemistry -
 -------------------
 Temperature   298.150 Kelvin.  Pressure   1.00000 Atm.
 Atom     1 has atomic number  8 and mass  15.99491
 Atom     2 has atomic number  1 and mass   1.00783
 Atom     3 has atomic number  6 and mass  12.00000
 Atom     4 has atomic number  1 and mass   1.00783
 Atom     5 has atomic number  6 and mass  12.00000
 Atom     6 has atomic number  6 and mass  12.00000
 Atom     7 has atomic number  8 and mass  15.99491
 Atom     8 has atomic number  8 and mass  15.99491
 Atom     9 has atomic number  6 and mass  12.00000
 Atom    10 has atomic number  6 and mass  12.00000
 Atom    11 has atomic number  1 and mass   1.00783
 Atom    12 has atomic number  1 and mass   1.00783
 Atom    13 has atomic number  1 and mass   1.00783
 Atom    14 has atomic number  1 and mass   1.00783
 Atom    15 has atomic number  1 and mass   1.00783
 Molecular mass:   115.03952 amu.
 Principal axes and moments of inertia in atomic units:
                           1         2         3
     Eigenvalues --   525.897351382.429551544.74236
           X            0.99995   0.01019  -0.00128
           Y           -0.01009   0.99779   0.06575
           Z            0.00195  -0.06574   0.99784
 This molecule is an asymmetric top.
 Rotational symmetry number  1.
 Warning -- assumption of classical behavior for rotation
           may cause significant error
 Rotational temperatures (Kelvin)      0.16470     0.06265     0.05607
 Rotational constants (GHZ):           3.43174     1.30549     1.16831
    4 imaginary frequencies ignored.
 Zero-point vibrational energy     293393.7 (Joules/Mol)
                                   70.12278 (Kcal/Mol)
 Warning -- explicit consideration of   9 degrees of freedom as
           vibrations may cause significant error
 Vibrational temperatures:    118.89   131.18   210.94   251.21   312.72
          (Kelvin)            430.45   449.74   610.07   823.33   897.27
                             1091.75  1120.38  1166.87  1178.34  1294.12
                             1361.11  1600.80  1668.29  1767.95  1912.90
                             1975.84  2077.00  2097.00  2195.45  2210.85
                             2222.05  2745.24  3314.21  4471.39  4512.73
                             4586.84  4590.04  4620.02  5078.16  5479.17
 
 Zero-point correction=                           0.111748 (Hartree/Particle)
 Thermal correction to Energy=                    0.119847
 Thermal correction to Enthalpy=                  0.120791
 Thermal correction to Gibbs Free Energy=         0.077796
 Sum of electronic and zero-point Energies=           -419.848065
 Sum of electronic and thermal Energies=              -419.839966
 Sum of electronic and thermal Enthalpies=            -419.839022
 Sum of electronic and thermal Free Energies=         -419.882017
 
                     E (Thermal)             CV                S
                      KCal/Mol        Cal/Mol-Kelvin    Cal/Mol-Kelvin
 Total                   75.205             27.227             90.492
 Electronic               0.000              0.000              1.377
 Translational            0.889              2.981             40.136
 Rotational               0.889              2.981             28.509
 Vibrational             73.428             21.265             20.470
 Vibration     1          0.600              1.961              3.827
 Vibration     2          0.602              1.955              3.635
 Vibration     3          0.617              1.906              2.716
 Vibration     4          0.627              1.874              2.385
 Vibration     5          0.646              1.815              1.981
 Vibration     6          0.692              1.675              1.421
 Vibration     7          0.701              1.650              1.349
 Vibration     8          0.786              1.418              0.878
 Vibration     9          0.928              1.091              0.500
                       Q            Log10(Q)             Ln(Q)
 Total Bot       0.164614D-35        -35.783533        -82.394630
 Total V=0       0.413834D+16         15.616826         35.959071
 Vib (Bot)       0.447370D-49        -49.349333       -113.631039
 Vib (Bot)    1  0.249114D+01          0.396398          0.912740
 Vib (Bot)    2  0.225462D+01          0.353073          0.812980
 Vib (Bot)    3  0.138435D+01          0.141245          0.325229
 Vib (Bot)    4  0.115245D+01          0.061624          0.141894
 Vib (Bot)    5  0.911072D+00         -0.040447         -0.093133
 Vib (Bot)    6  0.635954D+00         -0.196574         -0.452629
 Vib (Bot)    7  0.604021D+00         -0.218948         -0.504147
 Vib (Bot)    8  0.412826D+00         -0.384232         -0.884728
 Vib (Bot)    9  0.268353D+00         -0.571294         -1.315452
 Vib (V=0)       0.112467D+03          2.051026          4.722661
 Vib (V=0)    1  0.304082D+01          0.482991          1.112128
 Vib (V=0)    2  0.280939D+01          0.448612          1.032968
 Vib (V=0)    3  0.197188D+01          0.294880          0.678986
 Vib (V=0)    4  0.175624D+01          0.244585          0.563178
 Vib (V=0)    5  0.153926D+01          0.187311          0.431299
 Vib (V=0)    6  0.130897D+01          0.116931          0.269243
 Vib (V=0)    7  0.128412D+01          0.108605          0.250072
 Vib (V=0)    8  0.114840D+01          0.060094          0.138372
 Vib (V=0)    9  0.106746D+01          0.028352          0.065284
 Electronic      0.200000D+01          0.301030          0.693147
 Translational   0.484981D+08          7.685724         17.697035
 Rotational      0.379355D+06          5.579046         12.846227
 ***** Axes restored to original set *****
 -------------------------------------------------------------------
 Center     Atomic                   Forces (Hartrees/Bohr)
 Number     Number              X              Y              Z
 -------------------------------------------------------------------
      1        8           0.012688482    0.008232939   -0.010565047
      2        1          -0.011230455    0.001814322    0.012836114
      3        6          -0.021883200    0.000884415   -0.005535240
      4        1          -0.000788427   -0.000205042   -0.000175069
      5        6           0.024649224   -0.011822607    0.004207411
      6        6          -0.043497404    0.010301595   -0.031655196
      7        8           0.018264216   -0.012395463    0.045975426
      8        8           0.002476388    0.002461653   -0.014348102
      9        6           0.017266843   -0.000612326   -0.002900587
     10        6           0.000415572    0.000502811    0.000193333
     11        1           0.000369539   -0.000135826   -0.000718808
     12        1           0.000542093   -0.001152550    0.001129612
     13        1           0.001403921    0.000340394    0.000491926
     14        1          -0.000374093    0.001045915   -0.000480275
     15        1          -0.000302699    0.000739768    0.001544504
 -------------------------------------------------------------------
 Cartesian Forces:  Max     0.045975426 RMS     0.013372975

 GradGradGradGradGradGradGradGradGradGradGradGradGradGradGradGradGradGrad
 Berny optimization.
 Search for a local minimum.
 Step number   1 out of a maximum of    2
 All quantities printed in internal units (Hartrees-Bohrs-Radians)
 Second derivative matrix not updated -- analytic derivatives used.
 ITU=  0
     Eigenvalues ---   -0.01432  -0.00535  -0.00143  -0.00053   0.00087
     Eigenvalues ---    0.00143   0.00229   0.00484   0.00841   0.01777
     Eigenvalues ---    0.02513   0.03372   0.03591   0.05560   0.06674
     Eigenvalues ---    0.07654   0.08150   0.09260   0.09661   0.10559
     Eigenvalues ---    0.12120   0.14906   0.17930   0.18558   0.21430
     Eigenvalues ---    0.28031   0.29958   0.43486   0.50084   0.64694
     Eigenvalues ---    0.73816   0.77883   0.80470   0.88671   0.93767
     Eigenvalues ---    0.97329   0.98170   1.85682   2.82540
 Eigenvalue     1 is  -1.43D-02 should be greater than     0.000000 Eigenvector:
                          Z2        X2        X1        Z1        Y2
   1                    0.55088   0.51938  -0.43926  -0.30080  -0.27957
                          Y1        Y4        Y15       Z14       X15
   1                    0.16771   0.06763  -0.06130   0.05475   0.04735
 Eigenvalue     2 is  -5.35D-03 should be greater than     0.000000 Eigenvector:
                          Y7        Y2        Z1        Y8        Z2
   1                    0.60728  -0.39498   0.38013  -0.27950   0.19978
                          X2        Z5        Z3        Z8        Z4
   1                   -0.18733  -0.14741  -0.13970  -0.12680  -0.10988
 Eigenvalue     3 is  -1.43D-03 should be greater than     0.000000 Eigenvector:
                          X2        Y2        X14       X1        Z14
   1                    0.42108   0.39844  -0.30219   0.26285   0.23005
                          Y11       X10       X15       Y1        Y7
   1                    0.22516  -0.19494  -0.19224  -0.19107   0.18944
 Eigenvalue     4 is  -5.34D-04 should be greater than     0.000000 Eigenvector:
                          Y15       Z14       Z12       Y4        Y13
   1                    0.35794  -0.33440   0.27694   0.26693   0.25249
                          X2        X15       X1        Y7        Z15
   1                    0.23919  -0.23738   0.23142  -0.21718  -0.20233
 Quadratic step=1.978D+00 exceeds max=3.000D-01 adjusted using Lamda=-2.609D-02.
 Angle between NR and scaled steps=  61.10 degrees.
 Angle between quadratic step and forces=  68.16 degrees.
 Linear search not attempted -- first point.
 B after Tr=     0.000944   -0.001371    0.000572
         Rot=    1.000000    0.000801   -0.000084    0.000247 Ang=   0.10 deg.
 Variable       Old X    -DE/DX   Delta X   Delta X   Delta X     New X
                                 (Linear)    (Quad)   (Total)
    X1       -2.53154   0.01269   0.00000   0.04555   0.04831  -2.48322
    Y1        3.42052   0.00823   0.00000   0.17444   0.17469   3.59521
    Z1        0.21282  -0.01057   0.00000   0.03518   0.03041   0.24323
    X2       -3.73026  -0.01123   0.00000  -0.02296  -0.02001  -3.75027
    Y2        3.48610   0.00181   0.00000   0.00636   0.00945   3.49555
    Z2        1.60181   0.01284   0.00000   0.02649   0.02209   1.62390
    X3       -5.17442  -0.02188   0.00000  -0.03894  -0.03858  -5.21301
    Y3       -0.88177   0.00088   0.00000  -0.01302  -0.01322  -0.89499
    Z3       -0.85381  -0.00554   0.00000  -0.02456  -0.02168  -0.87549
    X4       -7.12241  -0.00079   0.00000  -0.04214  -0.04186  -7.16427
    Y4       -0.91315  -0.00021   0.00000   0.03280   0.03278  -0.88037
    Z4       -1.35886  -0.00018   0.00000  -0.01395  -0.01076  -1.36962
    X5       -2.96899   0.02465   0.00000  -0.02275  -0.02236  -2.99134
    Y5       -0.81110  -0.01182   0.00000  -0.18126  -0.18169  -0.99279
    Z5       -0.31603   0.00421   0.00000  -0.02283  -0.02017  -0.33619
    X6       -0.31678  -0.04350   0.00000  -0.05165  -0.05120  -0.36798
    Y6       -1.06852   0.01030   0.00000  -0.05885  -0.05939  -1.12791
    Z6        0.41744  -0.03166   0.00000  -0.01540  -0.01296   0.40448
    X7        0.32850   0.01826   0.00000   0.02718   0.02774   0.35625
    Y7       -1.66806  -0.01240   0.00000   0.02970   0.03223  -1.63583
    Z7        2.50571   0.04598   0.00000   0.04327   0.04640   2.55210
    X8        1.20414   0.00248   0.00000  -0.00816  -0.00781   1.19632
    Y8       -0.63751   0.00246   0.00000  -0.03182  -0.03628  -0.67379
    Z8       -1.52999  -0.01435   0.00000  -0.02552  -0.02408  -1.55407
    X9        3.87591   0.01727   0.00000   0.03729   0.03767   3.91357
    Y9       -0.79531  -0.00061   0.00000   0.00327  -0.00168  -0.79698
    Z9       -1.01692  -0.00290   0.00000  -0.00784  -0.00666  -1.02357
   X10        4.80421   0.00042   0.00000   0.00588   0.00767   4.81188
   Y10        1.59839   0.00050   0.00000   0.01282   0.00947   1.60786
   Z10        0.25123   0.00019   0.00000   0.00304   0.00023   0.25146
   X11        4.72567   0.00037   0.00000   0.02013   0.02007   4.74574
   Y11       -1.05878  -0.00014   0.00000   0.00893   0.00058  -1.05819
   Z11       -2.87147  -0.00072   0.00000  -0.01609  -0.01463  -2.88611
   X12        4.22906   0.00054   0.00000   0.02706   0.02681   4.25587
   Y12       -2.45959  -0.00115   0.00000   0.00256  -0.00068  -2.46027
   Z12        0.14652   0.00113   0.00000   0.00023   0.00402   0.15054
   X13        6.84904   0.00140   0.00000   0.00972   0.01150   6.86054
   Y13        1.50011   0.00034   0.00000   0.02379   0.01985   1.51996
   Z13        0.50740   0.00049   0.00000   0.01006   0.00704   0.51444
   X14        4.36074  -0.00037   0.00000  -0.00182   0.00058   4.36132
   Y14        3.24132   0.00105   0.00000   0.01481   0.00982   3.25114
   Z14       -0.91176  -0.00048   0.00000   0.00437  -0.00100  -0.91276
   X15        3.92257  -0.00030   0.00000  -0.00073   0.00147   3.92404
   Y15        1.82661   0.00074   0.00000   0.00401   0.00406   1.83067
   Z15        2.09915   0.00154   0.00000   0.00476   0.00174   2.10089
         Item               Value     Threshold  Converged?
 Maximum Force            0.045975     0.000450     NO 
 RMS     Force            0.013373     0.000300     NO 
 Maximum Displacement     0.181694     0.001800     NO 
 RMS     Displacement     0.044634     0.001200     NO 
 Predicted change in Energy=-6.221295D-03
 GradGradGradGradGradGradGradGradGradGradGradGradGradGradGradGradGradGrad


 ----------------------------------------------------------------------

 Electric dipole moment (input orientation):
 (Debye = 10**-18 statcoulomb cm , SI units = C m)
                  (au)            (Debye)         (10**-30 SI)
   Tot        0.349948D+00      0.889479D+00      0.296698D+01
   x         -0.309426D+00     -0.786483D+00     -0.262342D+01
   y          0.874518D-01      0.222280D+00      0.741447D+00
   z         -0.138099D+00     -0.351012D+00     -0.117085D+01

 Dipole polarizability, Alpha (input orientation).
 (esu units = cm**3 , SI units = C**2 m**2 J**-1)
 Alpha(0;0):
               (au)            (10**-24 esu)      (10**-40 SI)
   iso        0.677819D+02      0.100442D+02      0.111757D+02
   aniso      0.309349D+02      0.458408D+01      0.510048D+01
   xx         0.872569D+02      0.129301D+02      0.143867D+02
   yx         0.427514D+01      0.633511D+00      0.704876D+00
   yy         0.592591D+02      0.878129D+01      0.977050D+01
   zx         0.384441D+01      0.569683D+00      0.633857D+00
   zy         0.454035D-01      0.672811D-02      0.748603D-02
   zz         0.568298D+02      0.842131D+01      0.936997D+01

 ----------------------------------------------------------------------

 Dipole orientation:
     8         -0.75860650         -2.91944242          3.00919907
     1         -2.50309398         -3.13926885          3.53737993
     6         -1.65843321          1.87547979          4.69183782
     1         -2.07279384          2.34030172          6.60572699
     6         -1.15366561          1.32415692          2.54721457
     6         -0.67759184          0.96654734         -0.15166041
     8         -2.33549831          0.91514444         -1.69612849
     8          1.78092812          0.80052633         -0.62024240
     6          2.47625025          0.39972782         -3.22454323
     6          2.14210133         -2.35077182         -3.94762043
     1          4.44770889          0.98021864         -3.30989330
     1          1.33902215          1.64279216         -4.41183555
     1          2.79853341         -2.64488785         -5.88131519
     1          3.23586854         -3.55923558         -2.68598055
     1          0.15692469         -2.89088169         -3.84027295

 Electric dipole moment (dipole orientation):
 (Debye = 10**-18 statcoulomb cm , SI units = C m)
                  (au)            (Debye)         (10**-30 SI)
   Tot        0.349948D+00      0.889479D+00      0.296698D+01
   x          0.000000D+00      0.000000D+00      0.000000D+00
   y          0.000000D+00      0.000000D+00      0.000000D+00
   z          0.349948D+00      0.889479D+00      0.296698D+01

 Dipole polarizability, Alpha (dipole orientation).
 (esu units = cm**3 , SI units = C**2 m**2 J**-1)
 Alpha(0;0):
               (au)            (10**-24 esu)      (10**-40 SI)
   iso        0.677819D+02      0.100442D+02      0.111757D+02
   aniso      0.309349D+02      0.458408D+01      0.510048D+01
   xx         0.603608D+02      0.894455D+01      0.995215D+01
   yx        -0.423469D+01     -0.627516D+00     -0.698206D+00
   yy         0.614303D+02      0.910303D+01      0.101285D+02
   zx        -0.952883D+01     -0.141203D+01     -0.157109D+01
   zy         0.822840D+01      0.121932D+01      0.135668D+01
   zz         0.815547D+02      0.120852D+02      0.134465D+02

 ----------------------------------------------------------------------
 1\1\GINC-AJ\Freq\UM062X\6-31+G\C5H7O3(2)\AAYUSH\20-Jun-2025\0\\# freq 
 6-31+g m062x\\Title Card Required\\0,2\O,-1.339631,1.81006,0.11262\H,-
 1.973971,1.844764,0.84764\C,-2.738187,-0.466613,-0.451816\H,-3.769019,
 -0.483218,-0.719077\C,-1.57112,-0.429216,-0.167234\C,-0.167631,-0.5654
 38,0.2209\O,0.173836,-0.882699,1.325962\O,0.637202,-0.337356,-0.809638
 \C,2.051041,-0.420858,-0.538129\C,2.54228,0.845832,0.132947\H,2.500717
 ,-0.560281,-1.519519\H,2.237924,-1.30156,0.077537\H,3.624354,0.793825,
 0.268504\H,2.307603,1.715232,-0.482485\H,2.075736,0.966602,1.110822\\V
 ersion=ES64L-G16RevA.03\State=2-A\HF=-419.959813\S2=0.757087\S2-1=0.\S
 2A=0.750033\RMSD=3.854e-09\RMSF=1.337e-02\ZeroPoint=0.1117478\Thermal=
 0.1198473\Dipole=-0.3094262,0.0874518,-0.1380988\DipoleDeriv=-0.283154
 7,0.1377027,-0.1256528,0.04965,-0.1740141,0.0731433,-0.1576271,0.00127
 55,-0.2018462,0.2111557,-0.0450901,0.1245076,-0.0133839,0.3863044,0.01
 04853,0.1470942,0.0424207,0.1944547,-0.2916139,0.2047352,0.0251601,0.0
 142016,-0.2367841,0.0055929,0.0372483,0.0421127,-0.1931935,0.2667795,0
 .0146312,0.0062163,0.0054342,0.238345,-0.006738,-0.0049206,-0.0039133,
 0.2611959,-0.5335675,-0.2212816,-0.1304077,0.0129142,-0.313743,-0.0650
 927,-0.1375435,-0.0453927,-0.1354672,2.1273416,-0.1430117,-0.0878008,0
 .0558854,0.5999471,-0.3098809,-0.4550492,-0.4273193,1.5996532,-0.78571
 6,0.103265,-0.1862125,-0.0068259,-0.4552977,0.2040588,0.0353343,0.2692
 141,-1.0211577,-1.5537047,-0.1219654,0.3657161,-0.1221405,-0.4085302,0
 .0579115,0.5139447,0.1030742,-0.8349175,0.8973767,0.081102,-0.0965038,
 0.0127643,0.3300033,0.0661573,0.0252515,0.0159745,0.2842377,-0.0844258
 ,-0.0272381,0.0331968,-0.0487168,-0.0731712,-0.0870156,-0.0279332,-0.0
 538313,-0.0162756,-0.0120966,-0.0057194,0.0338276,-0.0064436,0.0724416
 ,-0.0309517,0.0810851,-0.0562556,-0.0726875,-0.0083923,-0.0383612,0.02
 06473,0.0268088,-0.0584539,0.0334237,-0.0671381,0.0751475,0.048883,-0.
 1495414,-0.0089536,-0.0273442,0.0181101,0.0793512,0.0021304,-0.0268988
 ,-0.0130038,0.1098114,0.1077573,0.0492519,-0.0425339,0.0027091,-0.0459
 086,0.0462912,-0.0287005,0.0876665,0.0149976,0.091802,0.0209333,0.0871
 84,-0.000967,0.0595101,0.0004842,0.0658529,-0.0371697,-0.0376881\Polar
 =87.2569109,4.2751429,59.2590718,3.8444083,0.0454035,56.8298125\Quadru
 pole=10.2817907,-3.93934,-6.3424507,-0.685919,-1.7737427,4.2790764\PG=
 C01 [X(C5H7O3)]\NImag=4\\0.22150280,-0.00960085,0.01602007,-0.26189896
 ,0.01713389,0.29451402,-0.21938965,0.01205863,0.26137407,0.21990471,0.
 00695378,0.00419067,-0.01095546,-0.00972467,0.00136911,0.26062247,-0.0
 1618562,-0.29345244,-0.26061370,0.01513238,0.29311246,-0.00295845,-0.0
 1408766,-0.00074113,0.00046546,0.00076770,-0.00113487,1.52796501,-0.00
 200507,-0.00777337,-0.00243246,-0.00072814,-0.00116249,0.00039203,0.02
 977640,0.06399239,-0.00033781,-0.00361812,0.00003602,-0.00043785,-0.00
 060366,-0.00016059,0.36517447,0.01049295,0.15149391,0.00015198,0.00027
 510,0.00003443,0.00001326,-0.00027958,-0.00011675,-0.40824525,-0.00629
 026,-0.09738803,0.39780284,0.00032284,0.00007818,0.00037160,-0.0005050
 6,0.00011057,-0.00048137,-0.00357626,-0.03160072,-0.00211632,0.0061333
 3,0.01837218,-0.00019119,-0.00001361,-0.00000271,-0.00014773,-0.000139
 36,-0.00010730,-0.09804992,-0.00291196,-0.05679007,0.09837113,0.002452
 33,0.04371031,0.00261276,0.00874686,0.00142123,-0.00079760,0.00085506,
 0.00017348,-1.12316704,-0.02332513,-0.26536636,0.01084510,-0.00270127,
 0.00162354,1.45063664,0.00064790,-0.00380450,-0.00303191,-0.00152430,-
 0.00317519,0.00125996,-0.00413934,-0.03242390,-0.00210307,0.00013701,0
 .01004127,0.00124387,-0.01443915,0.07649963,0.00272791,0.00239678,-0.0
 0019471,-0.00157893,-0.00303299,-0.00008626,-0.26509932,-0.00572109,-0
 .10581590,0.00028917,0.00003025,0.00933997,0.32580600,-0.01404748,0.20
 580273,-0.00312881,0.00445072,-0.00154755,-0.00037430,0.00322263,0.003
 21717,0.01656342,0.00328479,-0.00120842,-0.00138713,0.00015243,-0.0016
 2957,-0.26194096,0.00559415,-0.04635341,0.68413839,0.00167307,-0.00853
 139,-0.00019073,-0.00004831,-0.00076876,-0.00020402,-0.01093006,0.0098
 6378,-0.00156817,-0.00019036,0.00416844,-0.00043847,0.02185328,-0.0823
 0745,0.00117005,-0.04544514,0.25833052,-0.00289836,0.00204240,-0.00370
 027,0.00390674,-0.00161621,0.00174724,0.00013496,0.00192364,0.01032104
 ,-0.00095775,0.00003896,0.00384415,-0.03773385,-0.00541994,-0.08137790
 ,0.11054406,-0.22054257,0.99660341,0.00066376,-0.00052621,0.00081024,-
 0.00036129,-0.00084705,-0.00095024,-0.00521339,-0.00168334,0.00132010,
 0.00009132,-0.00003821,0.00121166,-0.02291379,0.01968139,-0.05424510,-
 0.15911957,0.06119016,-0.21202266,0.16066471,0.00090348,0.00006062,0.0
 0052249,-0.00027150,0.00006807,0.00003349,0.00128484,-0.00108121,-0.00
 026887,0.00012785,-0.00060128,-0.00030337,0.01017841,0.01916469,0.0156
 7091,0.05842912,-0.11374008,0.18482053,-0.06735416,0.07873871,0.001261
 03,-0.00184718,0.00256255,-0.00166167,0.00060596,-0.00149245,-0.000254
 06,-0.00003483,0.00053687,-0.00006311,-0.00047551,0.00049050,-0.035930
 04,0.01636125,-0.02829512,-0.20176583,0.18396031,-0.70192854,0.2249628
 5,-0.22981746,0.82654825,-0.00038318,-0.00057894,0.00065193,0.00052894
 ,-0.00129435,-0.00122260,-0.00659875,0.00021550,-0.00240972,0.00086047
 ,0.00034290,-0.00106756,-0.05703020,-0.00330204,0.03664762,-0.21357264
 ,-0.03117090,0.13568153,0.02431322,-0.00428879,0.02364160,0.55182068,0
 .00140930,-0.00076758,-0.00131716,0.00072944,-0.00064050,0.00000614,0.
 00038330,0.00048163,-0.00031605,0.00005740,-0.00032964,0.00013671,-0.0
 0054622,0.01035746,0.00184913,-0.02095665,-0.06978241,0.04047301,-0.00
 848563,0.02239496,0.03170301,0.02086008,0.09659369,0.00085693,-0.00023
 102,0.00034456,-0.00086192,0.00057254,0.00036506,-0.00076884,-0.001249
 93,0.00000892,-0.00016359,0.00019148,-0.00064872,0.00706388,0.00310536
 ,0.00322034,0.09696797,0.04078138,-0.22892771,0.03373452,0.03108465,-0
 .09763105,-0.12059620,-0.08095607,0.40515474,0.00051520,-0.00071878,-0
 .00041238,0.00010048,0.00058680,0.00029978,0.00221298,0.00043549,0.001
 12209,-0.00029411,-0.00009263,-0.00007252,0.00351357,-0.00296213,-0.00
 052528,-0.06134082,-0.00272932,0.02628608,-0.00015943,0.00507564,-0.01
 760575,-0.20090210,0.01096823,-0.01057850,0.48746570,-0.00032183,0.000
 68160,-0.00015205,0.00001521,-0.00003732,0.00007605,0.00059974,-0.0004
 2105,0.00001366,0.00004398,-0.00023659,-0.00000980,-0.00050553,0.00618
 209,0.00197248,-0.00724932,0.00330945,-0.00706354,0.00225770,-0.005285
 80,0.00055566,0.01730654,-0.06585299,0.01074194,-0.02127758,0.56641737
 ,-0.00024031,0.00034229,-0.00007672,-0.00003139,0.00009751,0.00007992,
 0.00080915,-0.00048810,0.00051477,-0.00000268,-0.00000472,0.00018562,0
 .00372002,0.00262966,-0.00325992,0.04177436,-0.00412814,0.00617855,0.0
 0173566,-0.00074255,-0.00253407,-0.04588361,0.00998171,-0.08735204,-0.
 06490336,-0.03883494,0.63552254,-0.00005107,0.00008985,-0.00004400,-0.
 00002499,-0.00013589,-0.00008381,-0.00031525,0.00008708,-0.00008376,0.
 00010029,-0.00009515,-0.00003279,-0.00063693,0.00151452,0.00092522,0.0
 0231535,-0.00050019,-0.00871276,0.00066089,-0.00164906,0.00265719,-0.0
 3753983,-0.03627032,-0.01899046,-0.08347554,-0.02077535,-0.00768680,0.
 59026825,0.00001543,-0.00016975,0.00006757,-0.00009328,0.00008218,0.00
 005466,0.00017721,0.00006443,0.00010152,-0.00002277,-0.00001719,-0.000
 00924,-0.00018676,-0.00050786,-0.00029592,-0.00043058,-0.00031347,0.00
 388585,-0.00118924,-0.00038964,-0.00162631,-0.00031183,0.00560850,-0.0
 0217183,-0.03271523,-0.18585974,-0.04964560,-0.02994353,0.53398430,-0.
 00012740,0.00006508,-0.00026651,0.00020476,-0.00012256,0.00004956,-0.0
 0000393,-0.00004784,-0.00009768,0.00000054,0.00000326,0.00000915,-0.00
 039676,0.00044113,0.00019802,0.00146459,0.00075247,0.00219543,-0.00123
 781,-0.00153208,-0.00035394,-0.00815314,-0.00514059,-0.00103004,-0.012
 49164,-0.04859223,-0.11400915,-0.01594585,-0.03561992,0.58374424,-0.00
 001349,-0.00000783,0.00001922,0.00000395,-0.00008726,-0.00005564,-0.00
 058428,0.00007956,-0.00026885,0.00004566,0.00003487,-0.00003196,-0.001
 11983,-0.00055511,0.00112264,-0.00428075,0.00349831,-0.00496931,0.0015
 9043,-0.00050081,0.00091943,-0.03558733,0.00179209,0.03437520,-0.08702
 310,0.01427864,0.09464943,0.00702388,-0.00205269,-0.01148406,0.1151137
 2,0.00003836,0.00002273,0.00004466,-0.00002408,-0.00002530,-0.00001152
 ,-0.00002255,-0.00002305,0.00003329,0.00001148,0.00000035,0.00000034,0
 .00017590,0.00023549,-0.00009722,-0.00003327,-0.00058191,0.00251562,-0
 .00157751,0.00058564,-0.00039116,0.00293589,0.00095687,-0.00280787,0.0
 1404608,-0.05788332,-0.02717300,0.01110070,-0.00505840,-0.02947352,-0.
 01338105,0.05928366,0.00006175,-0.00005892,0.00004742,-0.00003286,0.00
 001599,-0.00001958,-0.00000549,0.00018459,-0.00003621,-0.00000511,-0.0
 0002116,-0.00001938,-0.00000514,-0.00058219,0.00029909,-0.00336784,0.0
 0053804,-0.00060650,0.00146172,-0.00035807,0.00074591,-0.00809285,0.00
 203912,0.00826275,0.10907224,-0.02859238,-0.28609500,0.00461671,-0.001
 20846,-0.01177168,-0.10961862,0.03388322,0.30275438,-0.00004181,-0.000
 02649,0.00012111,-0.00004340,-0.00000912,-0.00003866,-0.00010334,0.000
 16424,-0.00009412,0.00004335,0.00003441,0.00000768,-0.00006851,-0.0009
 0065,0.00024487,0.00225512,0.00335866,-0.00886745,0.00077920,-0.000901
 72,0.00368779,-0.02914517,0.03078643,-0.02163078,-0.05543632,0.0278531
 6,-0.01655957,0.00425940,-0.01053767,0.00680033,0.00451831,-0.01158638
 ,0.00739002,0.07309147,0.00001695,0.00002573,-0.00000727,0.00001609,-0
 .00003895,-0.00002871,-0.00016383,0.00004895,0.00001350,-0.00000494,0.
 00001545,0.00000857,0.00006892,-0.00029089,-0.00037278,-0.00034408,0.0
 0010637,0.00355542,-0.00244950,0.00054588,-0.00105939,0.00345593,0.001
 72762,0.00029286,0.03694459,-0.23032968,0.12427010,0.00291034,-0.02365
 793,0.01603503,-0.00132125,0.00486638,-0.00377153,-0.03734479,0.248515
 04,0.00000026,0.00009208,0.00001464,-0.00000602,-0.00006343,-0.0000071
 4,-0.00013940,-0.00017792,-0.00001649,0.00001606,0.00000493,0.00000058
 ,-0.00036367,0.00075787,-0.00002953,0.00296392,-0.00014932,-0.00007320
 ,0.00123685,-0.00084781,-0.00060561,-0.00707098,0.00310719,-0.00282034
 ,-0.02520765,0.12754610,-0.14223527,0.00271861,-0.01613381,0.00971540,
 -0.00453162,0.02454310,-0.01493202,0.03076020,-0.13657813,0.15096913,-
 0.00013490,0.00006064,-0.00005306,0.00002294,-0.00003572,0.00001065,-0
 .00009809,-0.00002893,-0.00000967,0.00003643,0.00000502,0.00000872,-0.
 00020393,0.00025490,0.00001455,0.00168460,0.00060532,-0.00121365,-0.00
 012830,-0.00049676,0.00042175,-0.00028038,-0.00292857,-0.00031661,-0.0
 1116373,0.00410683,0.00032314,-0.31832914,0.01306958,-0.03374012,0.000
 30057,-0.00008678,-0.00038707,0.00014796,-0.00046056,0.00022164,0.3481
 2032,0.00011655,0.00009438,0.00007104,0.00000359,-0.00008154,-0.000077
 35,-0.00017034,-0.00000558,-0.00004766,0.00001484,-0.00001073,-0.00000
 910,-0.00012438,0.00049882,0.00031713,0.00079774,-0.00012256,-0.002680
 77,0.00030725,-0.00035358,0.00094302,-0.00557267,-0.00558827,-0.002430
 67,-0.02905555,0.00302746,-0.00235374,0.01554553,-0.05010371,0.0014232
 9,0.00062491,0.00118342,-0.00001677,0.00057303,0.00048486,0.00112762,-
 0.01418211,0.05174209,0.00007510,0.00000532,0.00009755,-0.00006079,-0.
 00000572,-0.00002844,-0.00006190,0.00003776,0.00000179,0.00000827,-0.0
 0000478,-0.00000363,-0.00007659,-0.00004591,0.00009629,0.00033260,-0.0
 0000627,-0.00247544,0.00051638,0.00036287,0.00096611,-0.00347407,-0.00
 367551,-0.00021565,-0.01502501,0.00263845,-0.00208989,-0.03231095,0.00
 076583,-0.05214659,0.00038152,0.00062717,-0.00017484,0.00023940,0.0002
 7907,0.00045668,0.03789375,0.00024763,0.05290474,0.00018161,0.00005337
 ,0.00002908,0.00005727,-0.00004844,-0.00006133,-0.00003179,0.00000105,
 -0.00000667,-0.00002811,-0.00000664,-0.00000258,0.00012862,0.00009510,
 -0.00001838,-0.00056396,-0.00071909,0.00156375,-0.00043121,0.00002689,
 -0.00073937,0.00205429,0.00091037,0.00046243,0.00120978,-0.01240699,0.
 00550307,-0.06259634,0.04970653,-0.03369960,0.00006940,0.00085019,0.00
 022275,-0.00026019,-0.00214804,-0.00107314,-0.00633930,0.02763985,-0.0
 1964284,0.06305287,0.00000158,0.00001071,-0.00000722,0.00004241,-0.000
 01722,-0.00004627,-0.00007830,0.00002949,-0.00003949,-0.00000490,-0.00
 000501,0.00000694,-0.00002765,-0.00000930,0.00002234,-0.00002440,-0.00
 045788,0.00076767,-0.00019715,0.00019019,-0.00048013,0.00126182,0.0032
 6097,0.00032466,0.00676243,-0.02795813,0.01752382,0.04678519,-0.221321
 46,0.12427150,0.00023527,0.00111630,-0.00000605,-0.00199146,-0.0031763
 6,-0.00357055,-0.00074386,-0.00018557,0.00010034,-0.05134669,0.2451060
 0,-0.00012745,-0.00012483,-0.00010366,0.00001345,0.00012792,0.00007580
 ,0.00012675,0.00000065,-0.00000330,-0.00000073,0.00000118,0.00000590,-
 0.00001192,-0.00033029,0.00003042,-0.00054902,0.00051150,-0.00028469,0
 .00055279,0.00036200,0.00026893,0.00209008,0.00114946,0.00018199,0.002
 44734,-0.01753999,0.00963225,-0.03411162,0.12726332,-0.14189607,0.0005
 6922,0.00051832,0.00094381,-0.00168591,-0.00302461,-0.00110329,0.00044
 318,0.00235788,-0.00260309,0.03858171,-0.13568155,0.15069042,0.0004732
 5,-0.00018842,0.00023577,-0.00010578,0.00007613,-0.00004596,0.00010876
 ,0.00001678,-0.00000542,-0.00003611,-0.00001058,0.00000310,0.00014210,
 -0.00010224,0.00004243,-0.00124795,-0.00044541,-0.00074133,-0.00043656
 ,-0.00056344,0.00046821,0.00146199,0.00129075,0.00044597,0.00477744,-0
 .00392521,-0.01320710,-0.10165897,0.01451484,0.10881011,-0.00005715,-0
 .00244695,-0.00131021,0.00000394,0.00082417,0.00047494,-0.01363505,0.0
 0348176,0.03120511,0.00349706,-0.00067430,-0.00833785,0.10671302,-0.00
 017148,-0.00013808,-0.00011699,0.00005398,0.00012666,0.00008015,0.0001
 7915,0.00001070,0.00002650,-0.00000818,0.00001472,-0.00001385,-0.00002
 233,-0.00046036,0.00013841,-0.00144815,0.00082737,-0.00270006,0.000911
 50,-0.00029716,0.00160277,0.00014087,0.00157969,0.00275251,0.01473195,
 -0.00575335,-0.03147430,0.01133629,-0.05234026,-0.02246302,-0.00263767
 ,-0.00467885,-0.00204542,0.00052837,0.00115754,0.00034207,0.00086102,-
 0.00057948,-0.00132625,-0.01260745,0.00341729,0.02440902,-0.01184787,0
 .05711359,0.00021604,0.00000146,0.00018026,-0.00006616,-0.00001292,-0.
 00007584,0.00001354,0.00003252,0.00000692,-0.00002185,0.00000986,-0.00
 001435,0.00007617,-0.00023832,0.00007249,-0.00084305,-0.00048605,-0.00
 151558,0.00091304,0.00101327,0.00072167,-0.00074203,0.00095990,0.00108
 721,0.00759456,-0.00275943,-0.01446157,0.10708506,-0.02542766,-0.27434
 012,-0.00107661,-0.00221143,0.00060186,-0.00037491,0.00038789,0.000666
 48,-0.00361718,0.00112845,0.00521441,0.00888113,-0.00318602,-0.0158354
 2,-0.11803776,0.03078847,0.29769159\\-0.01268848,-0.00823294,0.0105650
 5,0.01123045,-0.00181432,-0.01283611,0.02188320,-0.00088442,0.00553524
 ,0.00078843,0.00020504,0.00017507,-0.02464922,0.01182261,-0.00420741,0
 .04349740,-0.01030160,0.03165520,-0.01826422,0.01239546,-0.04597543,-0
 .00247639,-0.00246165,0.01434810,-0.01726684,0.00061233,0.00290059,-0.
 00041557,-0.00050281,-0.00019333,-0.00036954,0.00013583,0.00071881,-0.
 00054209,0.00115255,-0.00112961,-0.00140392,-0.00034039,-0.00049193,0.
 00037409,-0.00104592,0.00048028,0.00030270,-0.00073977,-0.00154450\\\@


 HONESTY IN A LAWYER IS LIKE A HEN'S HIND LEGS.
  -- MAGNUS OLESON, LAKE WOBEGON PATRIARCH, C.1875
 Job cpu time:       0 days  0 hours 19 minutes 58.7 seconds.
 Elapsed time:       0 days  0 hours  0 minutes 50.0 seconds.
 File lengths (MBytes):  RWF=     59 Int=      0 D2E=      0 Chk=      8 Scr=      1
 Normal termination of Gaussian 16 at Fri Jun 20 13:37:04 2025.
