 Entering Gaussian System, Link 0=g16
 Initial command:
 /opt/g16/l1.exe "/home/aayush/scratches/g16/Gau-56059.inp" -scrdir="/home/aayush/scratches/g16/"
 Entering Link 1 = /opt/g16/l1.exe PID=     56062.
  
 Copyright (c) 1988,1990,1992,1993,1995,1998,2003,2009,2016,
            Gaussian, Inc.  All Rights Reserved.
  
 This is part of the Gaussian(R) 16 program.  It is based on
 the Gaussian(R) 09 system (copyright 2009, Gaussian, Inc.),
 the Gaussian(R) 03 system (copyright 2003, Gaussian, Inc.),
 the Gaussian(R) 98 system (copyright 1998, Gaussian, Inc.),
 the Gaussian(R) 94 system (copyright 1995, Gaussian, Inc.),
 the Gaussian 92(TM) system (copyright 1992, Gaussian, Inc.),
 the Gaussian 90(TM) system (copyright 1990, Gaussian, Inc.),
 the Gaussian 88(TM) system (copyright 1988, Gaussian, Inc.),
 the Gaussian 86(TM) system (copyright 1986, Carnegie Mellon
 University), and the Gaussian 82(TM) system (copyright 1983,
 Carnegie Mellon University). Gaussian is a federally registered
 trademark of Gaussian, Inc.
  
 This software contains proprietary and confidential information,
 including trade secrets, belonging to Gaussian, Inc.
  
 This software is provided under written license and may be
 used, copied, transmitted, or stored only in accord with that
 written license.
  
 The following legend is applicable only to US Government
 contracts under FAR:
  
                    RESTRICTED RIGHTS LEGEND
  
 Use, reproduction and disclosure by the US Government is
 subject to restrictions as set forth in subparagraphs (a)
 and (c) of the Commercial Computer Software - Restricted
 Rights clause in FAR 52.227-19.
  
 Gaussian, Inc.
 340 Quinnipiac St., Bldg. 40, Wallingford CT 06492
  
  
 ---------------------------------------------------------------
 Warning -- This program may not be used in any manner that
 competes with the business of Gaussian, Inc. or will provide
 assistance to any competitor of Gaussian, Inc.  The licensee
 of this program is prohibited from giving any competitor of
 Gaussian, Inc. access to this program.  By using this program,
 the user acknowledges that Gaussian, Inc. is engaged in the
 business of creating and licensing software in the field of
 computational chemistry and represents and warrants to the
 licensee that it is not a competitor of Gaussian, Inc. and that
 it will not use this program in any manner prohibited above.
 ---------------------------------------------------------------
  

 Cite this work as:
 Gaussian 16, Revision A.03,
 M. J. Frisch, G. W. Trucks, H. B. Schlegel, G. E. Scuseria, 
 M. A. Robb, J. R. Cheeseman, G. Scalmani, V. Barone, 
 G. A. Petersson, H. Nakatsuji, X. Li, M. Caricato, A. V. Marenich, 
 J. Bloino, B. G. Janesko, R. Gomperts, B. Mennucci, H. P. Hratchian, 
 J. V. Ortiz, A. F. Izmaylov, J. L. Sonnenberg, D. Williams-Young, 
 F. Ding, F. Lipparini, F. Egidi, J. Goings, B. Peng, A. Petrone, 
 T. Henderson, D. Ranasinghe, V. G. Zakrzewski, J. Gao, N. Rega, 
 G. Zheng, W. Liang, M. Hada, M. Ehara, K. Toyota, R. Fukuda, 
 J. Hasegawa, M. Ishida, T. Nakajima, Y. Honda, O. Kitao, H. Nakai, 
 T. Vreven, K. Throssell, J. A. Montgomery, Jr., J. E. Peralta, 
 F. Ogliaro, M. J. Bearpark, J. J. Heyd, E. N. Brothers, K. N. Kudin, 
 V. N. Staroverov, T. A. Keith, R. Kobayashi, J. Normand, 
 K. Raghavachari, A. P. Rendell, J. C. Burant, S. S. Iyengar, 
 J. Tomasi, M. Cossi, J. M. Millam, M. Klene, C. Adamo, R. Cammi, 
 J. W. Ochterski, R. L. Martin, K. Morokuma, O. Farkas, 
 J. B. Foresman, and D. J. Fox, Gaussian, Inc., Wallingford CT, 2016.
 
 ******************************************
 Gaussian 16:  ES64L-G16RevA.03 25-Dec-2016
                20-Jun-2025 
 ******************************************
 %nprocshared=24
 Will use up to   24 processors via shared memory.
 %mem=12GB
 %chk=ethyl_propiolate_ts1.chk
 -------------------
 # freq 6-31+g m062x
 -------------------
 1/10=4,30=1,38=1/1,3;
 2/12=2,17=6,18=5,40=1/2;
 3/5=1,6=6,7=10,11=2,25=1,30=1,71=2,74=-55,140=1/1,2,3;
 4//1;
 5/5=2,38=5,98=1/2;
 8/6=4,10=90,11=11/1;
 11/6=1,8=1,9=11,15=111,16=1/1,2,10;
 10/6=1/2;
 6/7=2,8=2,9=2,10=2,28=1/1;
 7/8=1,10=1,25=1/1,2,3,16;
 1/10=4,30=1/3;
 99//99;
 -------------------
 Title Card Required
 -------------------
 Symbolic Z-matrix:
 Charge =  0 Multiplicity = 2
 O                    -1.33806   1.82537   0.11481 
 H                    -1.97088   1.84776   0.85173 
 C                    -2.73957  -0.46755  -0.45269 
 H                    -3.77084  -0.47474  -0.71865 
 C                    -1.57197  -0.44711  -0.17029 
 C                    -0.16806  -0.57068   0.22004 
 O                     0.17486  -0.88119   1.3267 
 O                     0.63675  -0.3382   -0.8096 
 C                     2.05073  -0.42002  -0.53794 
 C                     2.54225   0.84651   0.13315 
 H                     2.50037  -0.55926  -1.51939 
 H                     2.23809  -1.30065   0.07772 
 H                     3.6244    0.79405   0.26807 
 H                     2.30763   1.71613  -0.48199 
 H                     2.07631   0.96722   1.11129 
 

 GradGradGradGradGradGradGradGradGradGradGradGradGradGradGradGradGradGrad
 Berny optimization.
 Initialization pass.
 Trust Radius=3.00D-01 FncErr=1.00D-07 GrdErr=1.00D-07 EigMax=2.50D+02 EigMin=1.00D-04
 Number of steps in this run=      2 maximum allowed number of steps=      2.
 GradGradGradGradGradGradGradGradGradGradGradGradGradGradGradGradGradGrad

                          Input orientation:                          
 ---------------------------------------------------------------------
 Center     Atomic      Atomic             Coordinates (Angstroms)
 Number     Number       Type             X           Y           Z
 ---------------------------------------------------------------------
      1          8           0       -1.338057    1.825365    0.114805
      2          1           0       -1.970876    1.847763    0.851728
      3          6           0       -2.739566   -0.467548   -0.452691
      4          1           0       -3.770838   -0.474735   -0.718652
      5          6           0       -1.571973   -0.447110   -0.170291
      6          6           0       -0.168063   -0.570683    0.220039
      7          8           0        0.174858   -0.881186    1.326701
      8          8           0        0.636748   -0.338201   -0.809595
      9          6           0        2.050733   -0.420020   -0.537942
     10          6           0        2.542250    0.846508    0.133149
     11          1           0        2.500366   -0.559258   -1.519391
     12          1           0        2.238086   -1.300646    0.077722
     13          1           0        3.624399    0.794049    0.268068
     14          1           0        2.307627    1.716127   -0.481986
     15          1           0        2.076308    0.967218    1.111288
 ---------------------------------------------------------------------
                    Distance matrix (angstroms):
                    1          2          3          4          5
     1  O    0.000000
     2  H    0.971605   0.000000
     3  C    2.746585   2.766416   0.000000
     4  H    3.450150   3.331659   1.065039   0.000000
     5  C    2.302203   2.543637   1.201433   2.266378   0.000000
     6  C    2.668521   3.081890   2.660043   3.724290   1.462392
     7  O    3.329117   3.503846   3.439651   4.462868   2.341116
     8  O    3.071708   3.786573   3.397588   4.410638   2.301960
     9  C    4.117248   4.821552   4.791293   5.824632   3.641415
    10  C    4.001910   4.678373   5.474261   6.505869   4.323466
    11  H    4.805259   5.604281   5.348191   6.322684   4.291456
    12  H    4.749960   5.312902   5.074683   6.117476   3.912363
    13  H    5.070806   5.723467   6.527723   7.567890   5.360496
    14  H    3.695823   4.483493   5.499405   6.465572   4.452869
    15  H    3.658864   4.149991   5.262815   6.294206   4.117368
                    6          7          8          9         10
     6  C    0.000000
     7  O    1.199461   0.000000
     8  O    1.327371   2.252096   0.000000
     9  C    2.349530   2.684860   1.442166   0.000000
    10  C    3.059702   3.164496   2.433771   1.515271   0.000000
    11  H    3.185320   3.689426   2.006427   1.088485   2.169982
    12  H    2.518462   2.448021   2.068312   1.090709   2.169299
    13  H    4.030827   3.978247   3.371855   2.144770   1.091788
    14  H    3.442583   3.816554   2.668226   2.152266   1.090723
    15  H    2.862982   2.660547   2.732443   2.155236   1.090151
                   11         12         13         14         15
    11  H    0.000000
    12  H    1.780229   0.000000
    13  H    2.507967   2.519096   0.000000
    14  H    2.508134   3.069044   1.773893   0.000000
    15  H    3.070900   2.497526   1.771325   1.775639   0.000000
 Stoichiometry    C5H7O3(2)
 Framework group  C1[X(C5H7O3)]
 Deg. of freedom    39
 Full point group                 C1      NOp   1
 Largest Abelian subgroup         C1      NOp   1
 Largest concise Abelian subgroup C1      NOp   1
                         Standard orientation:                         
 ---------------------------------------------------------------------
 Center     Atomic      Atomic             Coordinates (Angstroms)
 Number     Number       Type             X           Y           Z
 ---------------------------------------------------------------------
      1          8           0       -1.390533    1.806765    0.075306
      2          1           0       -2.021846    1.849263    0.812635
      3          6           0       -2.798540   -0.496366   -0.431484
      4          1           0       -3.830347   -0.507786   -0.695211
      5          6           0       -1.630348   -0.471611   -0.151918
      6          6           0       -0.225967   -0.588666    0.238727
      7          8           0        0.118400   -0.871975    1.352214
      8          8           0        0.577360   -0.384162   -0.797979
      9          6           0        1.991681   -0.462494   -0.527046
     10          6           0        2.487492    0.819377    0.110938
     11          1           0        2.439053   -0.627524   -1.505525
     12          1           0        2.178175   -1.327756    0.110282
     13          1           0        3.569778    0.767742    0.245073
     14          1           0        2.253703    1.673762   -0.525493
     15          1           0        2.023761    0.965840    1.086607
 ---------------------------------------------------------------------
 Rotational constants (GHZ):           3.4040653           1.3050983           1.1651876
 Standard basis: 6-31+G (6D, 7F)
 There are   118 symmetry adapted cartesian basis functions of A   symmetry.
 There are   118 symmetry adapted basis functions of A   symmetry.
   118 basis functions,   236 primitive gaussians,   118 cartesian basis functions
    31 alpha electrons       30 beta electrons
       nuclear repulsion energy       359.1252495180 Hartrees.
 NAtoms=   15 NActive=   15 NUniq=   15 SFac= 1.00D+00 NAtFMM=   60 NAOKFM=F Big=F
 Integral buffers will be    131072 words long.
 Raffenetti 2 integral format.
 Two-electron integral symmetry is turned on.
 One-electron integrals computed using PRISM.
 NBasis=   118 RedAO= T EigKep=  1.63D-06  NBF=   118
 NBsUse=   118 1.00D-06 EigRej= -1.00D+00 NBFU=   118
 ExpMin= 4.38D-02 ExpMax= 5.48D+03 ExpMxC= 8.25D+02 IAcc=3 IRadAn=         5 AccDes= 0.00D+00
 Harris functional with IExCor= 1009 and IRadAn=       5 diagonalized for initial guess.
 HarFok:  IExCor= 1009 AccDes= 0.00D+00 IRadAn=         5 IDoV= 1 UseB2=F ITyADJ=14
 ICtDFT=  3500011 ScaDFX=  1.000000  1.000000  1.000000  1.000000
 FoFCou: FMM=F IPFlag=           0 FMFlag=      100000 FMFlg1=           0
         NFxFlg=           0 DoJE=T BraDBF=F KetDBF=T FulRan=T
         wScrn=  0.000000 ICntrl=       500 IOpCl=  0 I1Cent=   200000004 NGrid=           0
         NMat0=    1 NMatS0=      1 NMatT0=    0 NMatD0=    1 NMtDS0=    0 NMtDT0=    0
 Petite list used in FoFCou.
 Initial guess <Sx>= 0.0000 <Sy>= 0.0000 <Sz>= 0.5000 <S**2>= 0.7500 S= 0.5000
 Requested convergence on RMS density matrix=1.00D-08 within 128 cycles.
 Requested convergence on MAX density matrix=1.00D-06.
 Requested convergence on             energy=1.00D-06.
 No special actions if energy rises.
 Restarting incremental Fock formation.
 SCF Done:  E(UM062X) =  -419.960485269     A.U. after   24 cycles
            NFock= 24  Conv=0.33D-08     -V/T= 2.0050
 <Sx>= 0.0000 <Sy>= 0.0000 <Sz>= 0.5000 <S**2>= 0.7564 S= 0.5032
 <L.S>=  0.00000000000    
 Annihilation of the first spin contaminant:
 S**2 before annihilation     0.7564,   after     0.7500
 DoSCS=F DFT=T ScalE2(SS,OS)=  1.000000  1.000000
 Range of M.O.s used for correlation:     1   118
 NBasis=   118 NAE=    31 NBE=    30 NFC=     0 NFV=     0
 NROrb=    118 NOA=    31 NOB=    30 NVA=    87 NVB=    88

 **** Warning!!: The largest alpha MO coefficient is  0.20641043D+03


 **** Warning!!: The largest beta MO coefficient is  0.18682622D+03

 Symmetrizing basis deriv contribution to polar:
 IMax=3 JMax=2 DiffMx= 0.00D+00
 G2DrvN: will do    16 centers at a time, making    1 passes.
 Calling FoFCou, ICntrl=  3107 FMM=F I1Cent=   0 AccDes= 0.00D+00.
 End of G2Drv F.D. properties file   721 does not exist.
 End of G2Drv F.D. properties file   722 does not exist.
 End of G2Drv F.D. properties file   788 does not exist.
          IDoAtm=111111111111111
          Differentiating once with respect to electric field.
                with respect to dipole field.
          Differentiating once with respect to nuclear coordinates.
 Keep R1 and R2 ints in memory in canonical form, NReq=71861349.
          There are    48 degrees of freedom in the 1st order CPHF.  IDoFFX=6 NUNeed=     3.
     45 vectors produced by pass  0 Test12= 1.11D-14 2.08D-09 XBig12= 9.11D+01 3.51D+00.
 AX will form    45 AO Fock derivatives at one time.
     45 vectors produced by pass  1 Test12= 1.11D-14 2.08D-09 XBig12= 1.94D+01 6.54D-01.
     45 vectors produced by pass  2 Test12= 1.11D-14 2.08D-09 XBig12= 5.29D-01 1.51D-01.
     45 vectors produced by pass  3 Test12= 1.11D-14 2.08D-09 XBig12= 2.84D-03 8.79D-03.
     45 vectors produced by pass  4 Test12= 1.11D-14 2.08D-09 XBig12= 1.85D-05 7.29D-04.
     45 vectors produced by pass  5 Test12= 1.11D-14 2.08D-09 XBig12= 1.88D-07 5.57D-05.
     32 vectors produced by pass  6 Test12= 1.11D-14 2.08D-09 XBig12= 1.29D-09 3.74D-06.
     11 vectors produced by pass  7 Test12= 1.11D-14 2.08D-09 XBig12= 7.47D-12 1.96D-07.
      3 vectors produced by pass  8 Test12= 1.11D-14 2.08D-09 XBig12= 5.83D-14 1.90D-08.
      3 vectors produced by pass  9 Test12= 1.11D-14 2.08D-09 XBig12= 1.90D-15 8.80D-09.
      1 vectors produced by pass 10 Test12= 1.11D-14 2.08D-09 XBig12= 3.32D-16 3.24D-09.
 InvSVY:  IOpt=1 It=  1 EMax= 7.11D-15
 Solved reduced A of dimension   320 with    48 vectors.
 Isotropic polarizability for W=    0.000000       67.48 Bohr**3.
 End of Minotr F.D. properties file   721 does not exist.
 End of Minotr F.D. properties file   722 does not exist.
 End of Minotr F.D. properties file   788 does not exist.

 **********************************************************************

            Population analysis using the SCF density.

 **********************************************************************

 Orbital symmetries:
 Alpha Orbitals:
       Occupied  (A) (A) (A) (A) (A) (A) (A) (A) (A) (A) (A) (A)
                 (A) (A) (A) (A) (A) (A) (A) (A) (A) (A) (A) (A)
                 (A) (A) (A) (A) (A) (A) (A)
       Virtual   (A) (A) (A) (A) (A) (A) (A) (A) (A) (A) (A) (A)
                 (A) (A) (A) (A) (A) (A) (A) (A) (A) (A) (A) (A)
                 (A) (A) (A) (A) (A) (A) (A) (A) (A) (A) (A) (A)
                 (A) (A) (A) (A) (A) (A) (A) (A) (A) (A) (A) (A)
                 (A) (A) (A) (A) (A) (A) (A) (A) (A) (A) (A) (A)
                 (A) (A) (A) (A) (A) (A) (A) (A) (A) (A) (A) (A)
                 (A) (A) (A) (A) (A) (A) (A) (A) (A) (A) (A) (A)
                 (A) (A) (A)
 Beta  Orbitals:
       Occupied  (A) (A) (A) (A) (A) (A) (A) (A) (A) (A) (A) (A)
                 (A) (A) (A) (A) (A) (A) (A) (A) (A) (A) (A) (A)
                 (A) (A) (A) (A) (A) (A)
       Virtual   (A) (A) (A) (A) (A) (A) (A) (A) (A) (A) (A) (A)
                 (A) (A) (A) (A) (A) (A) (A) (A) (A) (A) (A) (A)
                 (A) (A) (A) (A) (A) (A) (A) (A) (A) (A) (A) (A)
                 (A) (A) (A) (A) (A) (A) (A) (A) (A) (A) (A) (A)
                 (A) (A) (A) (A) (A) (A) (A) (A) (A) (A) (A) (A)
                 (A) (A) (A) (A) (A) (A) (A) (A) (A) (A) (A) (A)
                 (A) (A) (A) (A) (A) (A) (A) (A) (A) (A) (A) (A)
                 (A) (A) (A) (A)
 The electronic state is 2-A.
 Alpha  occ. eigenvalues --  -19.70336 -19.70298 -19.66018 -10.72855 -10.61237
 Alpha  occ. eigenvalues --  -10.59453 -10.59091 -10.54091  -1.27783  -1.18424
 Alpha  occ. eigenvalues --   -1.14648  -0.91244  -0.87784  -0.78350  -0.71028
 Alpha  occ. eigenvalues --   -0.64391  -0.61943  -0.58372  -0.57024  -0.54723
 Alpha  occ. eigenvalues --   -0.53671  -0.50491  -0.48728  -0.46388  -0.44944
 Alpha  occ. eigenvalues --   -0.42512  -0.41658  -0.39411  -0.37974  -0.36699
 Alpha  occ. eigenvalues --   -0.36343
 Alpha virt. eigenvalues --   -0.01186   0.01985   0.02497   0.03653   0.03777
 Alpha virt. eigenvalues --    0.04523   0.05466   0.05911   0.07702   0.08377
 Alpha virt. eigenvalues --    0.08854   0.08907   0.10073   0.11859   0.12287
 Alpha virt. eigenvalues --    0.13469   0.14508   0.15255   0.16374   0.16898
 Alpha virt. eigenvalues --    0.17977   0.18705   0.19159   0.20018   0.21613
 Alpha virt. eigenvalues --    0.22881   0.24210   0.25059   0.25951   0.26454
 Alpha virt. eigenvalues --    0.29303   0.29701   0.30395   0.30679   0.32171
 Alpha virt. eigenvalues --    0.32430   0.33698   0.35000   0.35679   0.36949
 Alpha virt. eigenvalues --    0.38828   0.39857   0.40774   0.43344   0.44355
 Alpha virt. eigenvalues --    0.47836   0.58667   0.60393   0.69320   0.70192
 Alpha virt. eigenvalues --    0.72407   0.73628   0.75121   0.76651   0.77876
 Alpha virt. eigenvalues --    0.81008   0.84758   0.86179   0.88114   0.92315
 Alpha virt. eigenvalues --    0.94995   0.96634   1.00809   1.08683   1.10680
 Alpha virt. eigenvalues --    1.12025   1.12712   1.13509   1.17743   1.21428
 Alpha virt. eigenvalues --    1.22959   1.24091   1.28353   1.28823   1.32594
 Alpha virt. eigenvalues --    1.35635   1.38945   1.39575   1.45514   1.45664
 Alpha virt. eigenvalues --    1.47971   1.61089   1.69499   1.75318   1.83010
 Alpha virt. eigenvalues --    2.03552   2.05761
  Beta  occ. eigenvalues --  -19.70302 -19.68693 -19.66031 -10.72842 -10.61237
  Beta  occ. eigenvalues --  -10.59440 -10.59004 -10.54091  -1.27790  -1.18448
  Beta  occ. eigenvalues --   -1.07356  -0.91013  -0.87602  -0.78271  -0.70944
  Beta  occ. eigenvalues --   -0.64358  -0.61714  -0.58274  -0.56700  -0.53658
  Beta  occ. eigenvalues --   -0.51710  -0.49217  -0.46572  -0.44983  -0.41656
  Beta  occ. eigenvalues --   -0.39386  -0.39037  -0.38379  -0.38000  -0.36415
  Beta virt. eigenvalues --   -0.09196  -0.00721   0.02036   0.02508   0.03766
  Beta virt. eigenvalues --    0.03818   0.04703   0.05535   0.06003   0.07762
  Beta virt. eigenvalues --    0.08327   0.08910   0.09027   0.10147   0.11981
  Beta virt. eigenvalues --    0.12380   0.13639   0.14644   0.15252   0.16455
  Beta virt. eigenvalues --    0.16819   0.18217   0.18936   0.19439   0.20025
  Beta virt. eigenvalues --    0.21540   0.22995   0.24235   0.25147   0.26155
  Beta virt. eigenvalues --    0.26618   0.29377   0.29691   0.30519   0.30831
  Beta virt. eigenvalues --    0.32293   0.32437   0.33708   0.34821   0.35722
  Beta virt. eigenvalues --    0.36986   0.38852   0.40039   0.40582   0.43393
  Beta virt. eigenvalues --    0.44450   0.47869   0.58651   0.60480   0.69427
  Beta virt. eigenvalues --    0.70328   0.72616   0.73846   0.75258   0.77022
  Beta virt. eigenvalues --    0.77968   0.81038   0.85115   0.86095   0.88124
  Beta virt. eigenvalues --    0.92318   0.95330   0.96902   1.01144   1.08671
  Beta virt. eigenvalues --    1.10746   1.12190   1.13589   1.15096   1.18122
  Beta virt. eigenvalues --    1.21460   1.23523   1.26421   1.28627   1.29603
  Beta virt. eigenvalues --    1.33460   1.36474   1.39652   1.40687   1.45760
  Beta virt. eigenvalues --    1.45935   1.47982   1.61522   1.69878   1.75785
  Beta virt. eigenvalues --    1.84436   2.03696   2.05774
          Condensed to atoms (all electrons):
               1          2          3          4          5          6
     1  O    8.304655   0.139775  -0.023670   0.000786   0.543895  -0.523631
     2  H    0.139775   0.444882   0.102285  -0.000037  -0.052312  -0.038042
     3  C   -0.023670   0.102285  50.847113   0.544708 -15.720401 -28.360698
     4  H    0.000786  -0.000037   0.544708   0.340042  -0.178050  -0.049132
     5  C    0.543895  -0.052312 -15.720401  -0.178050  27.874491  -4.577796
     6  C   -0.523631  -0.038042 -28.360698  -0.049132  -4.577796  37.261921
     7  O   -0.010854  -0.000840   0.076652  -0.000187   0.300029  -0.204861
     8  O   -0.012086   0.000324  -0.723661  -0.000262  -1.126080   1.260875
     9  C   -0.022812   0.000141  -0.572438  -0.000068  -0.938471   1.197301
    10  C    0.017183  -0.000496   0.091505  -0.000126   0.036166  -0.250074
    11  H   -0.000004   0.000000  -0.004643   0.000000  -0.021209   0.037926
    12  H   -0.000013   0.000002   0.002340  -0.000000   0.017073  -0.023860
    13  H    0.000071   0.000000   0.000368   0.000000   0.003902   0.003323
    14  H   -0.000197   0.000003   0.005969  -0.000000   0.020473  -0.021455
    15  H   -0.000207   0.000016   0.000761   0.000000  -0.010592   0.006984
               7          8          9         10         11         12
     1  O   -0.010854  -0.012086  -0.022812   0.017183  -0.000004  -0.000013
     2  H   -0.000840   0.000324   0.000141  -0.000496   0.000000   0.000002
     3  C    0.076652  -0.723661  -0.572438   0.091505  -0.004643   0.002340
     4  H   -0.000187  -0.000262  -0.000068  -0.000126   0.000000  -0.000000
     5  C    0.300029  -1.126080  -0.938471   0.036166  -0.021209   0.017073
     6  C   -0.204861   1.260875   1.197301  -0.250074   0.037926  -0.023860
     7  O    8.484130  -0.245882  -0.026143  -0.041837  -0.000456   0.003999
     8  O   -0.245882   9.051829   0.046959   0.023182  -0.072750  -0.034731
     9  C   -0.026143   0.046959   6.029400  -0.158221   0.431393   0.421259
    10  C   -0.041837   0.023182  -0.158221   5.782251  -0.057118  -0.076348
    11  H   -0.000456  -0.072750   0.431393  -0.057118   0.502378  -0.032814
    12  H    0.003999  -0.034731   0.421259  -0.076348  -0.032814   0.493429
    13  H   -0.000169   0.007261  -0.071839   0.396813  -0.000850  -0.000672
    14  H   -0.000204  -0.000857  -0.055878   0.396029  -0.004485   0.003770
    15  H    0.001166  -0.009442  -0.048090   0.406241   0.003567  -0.004639
              13         14         15
     1  O    0.000071  -0.000197  -0.000207
     2  H    0.000000   0.000003   0.000016
     3  C    0.000368   0.005969   0.000761
     4  H    0.000000  -0.000000   0.000000
     5  C    0.003902   0.020473  -0.010592
     6  C    0.003323  -0.021455   0.006984
     7  O   -0.000169  -0.000204   0.001166
     8  O    0.007261  -0.000857  -0.009442
     9  C   -0.071839  -0.055878  -0.048090
    10  C    0.396813   0.396029   0.406241
    11  H   -0.000850  -0.004485   0.003567
    12  H   -0.000672   0.003770  -0.004639
    13  H    0.506519  -0.025285  -0.023948
    14  H   -0.025285   0.480774  -0.026067
    15  H   -0.023948  -0.026067   0.467232
          Atomic-Atomic Spin Densities.
               1          2          3          4          5          6
     1  O    1.015290   0.001375  -0.098209  -0.000420  -0.038676   0.061383
     2  H    0.001375  -0.036071  -0.003897   0.000018  -0.000429   0.003932
     3  C   -0.098209  -0.003897  -1.023810  -0.001793   0.409346   0.797729
     4  H   -0.000420   0.000018  -0.001793  -0.003961   0.001171  -0.000412
     5  C   -0.038676  -0.000429   0.409346   0.001171  -0.527245   0.116550
     6  C    0.061383   0.003932   0.797729  -0.000412   0.116550  -0.921283
     7  O    0.001437   0.000067   0.004991  -0.000000  -0.000178  -0.003915
     8  O   -0.000286   0.000113   0.009619   0.000004   0.003239  -0.007008
     9  C    0.000639   0.000272   0.005628   0.000002   0.000863  -0.009434
    10  C   -0.001462  -0.000093  -0.004815   0.000002  -0.004264   0.013006
    11  H    0.000011  -0.000000   0.000091  -0.000000   0.000259  -0.000338
    12  H    0.000006  -0.000000   0.000189   0.000000   0.000516  -0.000556
    13  H   -0.000004  -0.000000  -0.000033   0.000000  -0.000130   0.000098
    14  H   -0.000020  -0.000000   0.000119   0.000000   0.000184  -0.000077
    15  H   -0.000034  -0.000002  -0.000353   0.000000  -0.001607   0.002532
               7          8          9         10         11         12
     1  O    0.001437  -0.000286   0.000639  -0.001462   0.000011   0.000006
     2  H    0.000067   0.000113   0.000272  -0.000093  -0.000000  -0.000000
     3  C    0.004991   0.009619   0.005628  -0.004815   0.000091   0.000189
     4  H   -0.000000   0.000004   0.000002   0.000002  -0.000000   0.000000
     5  C   -0.000178   0.003239   0.000863  -0.004264   0.000259   0.000516
     6  C   -0.003915  -0.007008  -0.009434   0.013006  -0.000338  -0.000556
     7  O   -0.008256  -0.000255   0.000698  -0.000343   0.000007  -0.000023
     8  O   -0.000255  -0.004620  -0.001184   0.000174   0.000086   0.000001
     9  C    0.000698  -0.001184   0.005752  -0.004124  -0.000129  -0.000199
    10  C   -0.000343   0.000174  -0.004124   0.002191   0.000063   0.000065
    11  H    0.000007   0.000086  -0.000129   0.000063  -0.000060  -0.000003
    12  H   -0.000023   0.000001  -0.000199   0.000065  -0.000003  -0.000049
    13  H    0.000004  -0.000019   0.000116   0.000000   0.000001   0.000000
    14  H   -0.000021  -0.000031  -0.000180   0.000035  -0.000001  -0.000002
    15  H   -0.000096  -0.000201   0.000041  -0.000244   0.000001  -0.000002
              13         14         15
     1  O   -0.000004  -0.000020  -0.000034
     2  H   -0.000000  -0.000000  -0.000002
     3  C   -0.000033   0.000119  -0.000353
     4  H    0.000000   0.000000   0.000000
     5  C   -0.000130   0.000184  -0.001607
     6  C    0.000098  -0.000077   0.002532
     7  O    0.000004  -0.000021  -0.000096
     8  O   -0.000019  -0.000031  -0.000201
     9  C    0.000116  -0.000180   0.000041
    10  C    0.000000   0.000035  -0.000244
    11  H    0.000001  -0.000001   0.000001
    12  H    0.000000  -0.000002  -0.000002
    13  H   -0.000073   0.000003   0.000010
    14  H    0.000003  -0.000046  -0.000028
    15  H    0.000010  -0.000028  -0.000101
 Mulliken charges and spin densities:
               1          2
     1  O   -0.412889   0.941030
     2  H    0.404299  -0.034715
     3  C   -0.266191   0.094803
     4  H    0.342327  -0.005389
     5  C   -0.171117  -0.040401
     6  C    0.281221   0.052209
     7  O   -0.334543  -0.005883
     8  O   -0.164677  -0.000366
     9  C   -0.232492  -0.001240
    10  C   -0.565149   0.000193
    11  H    0.219067  -0.000014
    12  H    0.231205  -0.000055
    13  H    0.204506  -0.000026
    14  H    0.227411  -0.000062
    15  H    0.237020  -0.000084
 Sum of Mulliken charges =  -0.00000   1.00000
 Mulliken charges and spin densities with hydrogens summed into heavy atoms:
               1          2
     1  O   -0.008590   0.906315
     3  C    0.076137   0.089414
     5  C   -0.171117  -0.040401
     6  C    0.281221   0.052209
     7  O   -0.334543  -0.005883
     8  O   -0.164677  -0.000366
     9  C    0.217781  -0.001309
    10  C    0.103788   0.000021
 APT charges:
               1
     1  O   -0.226820
     2  H    0.266170
     3  C   -0.246533
     4  H    0.255926
     5  C   -0.314606
     6  C    1.440313
     7  O   -0.753810
     8  O   -0.933528
     9  C    0.504676
    10  C   -0.057884
    11  H   -0.004261
    12  H   -0.006238
    13  H    0.012984
    14  H    0.025499
    15  H    0.038114
 Sum of APT charges =   0.00000
 APT charges with hydrogens summed into heavy atoms:
               1
     1  O    0.039350
     3  C    0.009393
     5  C   -0.314606
     6  C    1.440313
     7  O   -0.753810
     8  O   -0.933528
     9  C    0.494176
    10  C    0.018712
 Electronic spatial extent (au):  <R**2>=           1081.6454
 Charge=              0.0000 electrons
 Dipole moment (field-independent basis, Debye):
    X=             -0.7832    Y=              0.2328    Z=             -0.3415  Tot=              0.8856
 Quadrupole moment (field-independent basis, Debye-Ang):
   XX=            -29.9569   YY=            -48.7274   ZZ=            -52.5202
   XY=             -1.0914   XZ=             -2.4243   YZ=              5.6817
 Traceless Quadrupole moment (field-independent basis, Debye-Ang):
   XX=             13.7780   YY=             -4.9926   ZZ=             -8.7853
   XY=             -1.0914   XZ=             -2.4243   YZ=              5.6817
 Octapole moment (field-independent basis, Debye-Ang**2):
  XXX=            -34.4988  YYY=              4.8684  ZZZ=             -2.3709  XYY=              0.3813
  XXY=              1.1803  XXZ=             -5.1720  XZZ=             -0.2707  YZZ=              8.1205
  YYZ=              4.9889  XYZ=             -7.0821
 Hexadecapole moment (field-independent basis, Debye-Ang**3):
 XXXX=           -750.3686 YYYY=           -281.4479 ZZZZ=           -180.0591 XXXY=            -12.5653
 XXXZ=             17.8205 YYYX=            -23.1888 YYYZ=             13.2689 ZZZX=            -10.4466
 ZZZY=              8.6984 XXYY=           -203.9888 XXZZ=           -183.4577 YYZZ=            -76.3128
 XXYZ=             20.3763 YYXZ=            -15.5762 ZZXY=             -9.1997
 N-N= 3.591252495180D+02 E-N=-1.701141212580D+03  KE= 4.178894384625D+02
  Exact polarizability:  87.312   3.978  58.344   3.646  -0.233  56.790
 Approx polarizability:  93.183   2.858  57.712   7.399  -3.730  71.371
                          Isotropic Fermi Contact Couplings
        Atom                 a.u.       MegaHertz       Gauss      10(-4) cm-1
     1  O(17)              0.13421     -81.35722     -29.03028     -27.13785
     2  H(1)              -0.01597     -71.37825     -25.46954     -23.80922
     3  C(13)              0.01695      19.05361       6.79880       6.35560
     4  H(1)              -0.00220      -9.81656      -3.50279      -3.27445
     5  C(13)              0.00851       9.56317       3.41238       3.18993
     6  C(13)              0.00563       6.33292       2.25974       2.11243
     7  O(17)             -0.00170       1.03241       0.36839       0.34438
     8  O(17)             -0.00089       0.54141       0.19319       0.18060
     9  C(13)              0.00000       0.00186       0.00066       0.00062
    10  C(13)             -0.00024      -0.27371      -0.09767      -0.09130
    11  H(1)               0.00000       0.00997       0.00356       0.00332
    12  H(1)              -0.00004      -0.16659      -0.05944      -0.05557
    13  H(1)              -0.00000      -0.01913      -0.00683      -0.00638
    14  H(1)              -0.00001      -0.02458      -0.00877      -0.00820
    15  H(1)              -0.00001      -0.03298      -0.01177      -0.01100
 --------------------------------------------------------
       Center         ----  Spin Dipole Couplings  ----
                      3XX-RR        3YY-RR        3ZZ-RR
 --------------------------------------------------------
     1   Atom       -1.089017      2.499265     -1.410248
     2   Atom        0.008145     -0.062002      0.053857
     3   Atom       -0.076173      0.138268     -0.062095
     4   Atom        0.012713     -0.001977     -0.010736
     5   Atom        0.005351      0.026611     -0.031962
     6   Atom        0.001225      0.011491     -0.012716
     7   Atom        0.014951     -0.022208      0.007257
     8   Atom        0.004855     -0.004649     -0.000206
     9   Atom        0.002275     -0.000334     -0.001940
    10   Atom        0.003781     -0.001705     -0.002077
    11   Atom        0.001206     -0.000327     -0.000879
    12   Atom        0.001016      0.000318     -0.001334
    13   Atom        0.001929     -0.000883     -0.001047
    14   Atom        0.005090     -0.002584     -0.002506
    15   Atom        0.004289     -0.002131     -0.002158
 --------------------------------------------------------
                        XY            XZ            YZ
 --------------------------------------------------------
     1   Atom        1.540585      0.391182      1.041450
     2   Atom        0.010348     -0.137319      0.027494
     3   Atom        0.025815     -0.001931      0.017991
     4   Atom        0.005316      0.006696      0.001937
     5   Atom       -0.001614      0.009864      0.006035
     6   Atom       -0.013949      0.002693     -0.001652
     7   Atom       -0.015808     -0.001125     -0.012595
     8   Atom       -0.006529     -0.003456      0.002253
     9   Atom       -0.002647     -0.000606      0.000435
    10   Atom       -0.001584      0.000125     -0.000010
    11   Atom       -0.001422     -0.000940      0.000592
    12   Atom       -0.001813      0.000103     -0.000037
    13   Atom       -0.000627      0.000121     -0.000011
    14   Atom       -0.000401     -0.001285      0.000145
    15   Atom       -0.001828      0.002167     -0.000512
 --------------------------------------------------------


 ---------------------------------------------------------------------------------
              Anisotropic Spin Dipole Couplings in Principal Axis System
 ---------------------------------------------------------------------------------

       Atom             a.u.   MegaHertz   Gauss  10(-4) cm-1        Axes

              Baa    -1.6731   121.064    43.199    40.383 -0.3982 -0.0810  0.9137
     1 O(17)  Bbb    -1.6579   119.963    42.806    40.015  0.8526 -0.4002  0.3361
              Bcc     3.3310  -241.027   -86.004   -80.398  0.3384  0.9129  0.2284
 
              Baa    -0.1198   -63.896   -22.800   -21.313  0.6826 -0.4102  0.6048
     2 H(1)   Bbb    -0.0513   -27.391    -9.774    -9.137  0.3513  0.9099  0.2207
              Bcc     0.1711    91.287    32.574    30.450 -0.6409  0.0618  0.7652
 
              Baa    -0.0802   -10.764    -3.841    -3.590  0.9629 -0.1331  0.2348
     3 C(13)  Bbb    -0.0626    -8.405    -2.999    -2.804 -0.2438 -0.0554  0.9683
              Bcc     0.1429    19.169     6.840     6.394  0.1159  0.9896  0.0858
 
              Baa    -0.0125    -6.691    -2.388    -2.232 -0.2453 -0.0541  0.9679
     4 H(1)   Bbb    -0.0037    -1.971    -0.703    -0.657 -0.2998  0.9537 -0.0226
              Bcc     0.0162     8.662     3.091     2.889  0.9220  0.2957  0.2501
 
              Baa    -0.0350    -4.702    -1.678    -1.569 -0.2398 -0.1008  0.9656
     5 C(13)  Bbb     0.0078     1.046     0.373     0.349  0.9704  0.0057  0.2416
              Bcc     0.0272     3.656     1.305     1.219 -0.0299  0.9949  0.0964
 
              Baa    -0.0133    -1.784    -0.637    -0.595 -0.2549 -0.0793  0.9637
     6 C(13)  Bbb    -0.0082    -1.097    -0.391    -0.366  0.7789  0.5738  0.2532
              Bcc     0.0215     2.881     1.028     0.961 -0.5730  0.8152 -0.0845
 
              Baa    -0.0319     2.305     0.822     0.769  0.3118  0.9018  0.2994
     7 O(17)  Bbb     0.0101    -0.734    -0.262    -0.245 -0.3666 -0.1765  0.9135
              Bcc     0.0217    -1.571    -0.561    -0.524  0.8766 -0.3945  0.2755
 
              Baa    -0.0080     0.579     0.207     0.193  0.4379  0.8967 -0.0650
     8 O(17)  Bbb    -0.0019     0.134     0.048     0.045  0.3667 -0.1121  0.9235
              Bcc     0.0099    -0.713    -0.254    -0.238  0.8208 -0.4283 -0.3779
 
              Baa    -0.0021    -0.277    -0.099    -0.092 -0.1811 -0.4916  0.8518
     9 C(13)  Bbb    -0.0020    -0.262    -0.093    -0.087  0.5081  0.6948  0.5090
              Bcc     0.0040     0.539     0.192     0.180  0.8420 -0.5250 -0.1240
 
              Baa    -0.0021    -0.287    -0.102    -0.096  0.2484  0.8999 -0.3583
    10 C(13)  Bbb    -0.0021    -0.278    -0.099    -0.093  0.0751  0.3509  0.9334
              Bcc     0.0042     0.565     0.201     0.188  0.9657 -0.2588  0.0196
 
              Baa    -0.0013    -0.672    -0.240    -0.224  0.1114 -0.4062  0.9070
    11 H(1)   Bbb    -0.0012    -0.623    -0.222    -0.208  0.5719  0.7726  0.2758
              Bcc     0.0024     1.295     0.462     0.432  0.8127 -0.4880 -0.3184
 
              Baa    -0.0013    -0.717    -0.256    -0.239 -0.1584 -0.1508  0.9758
    12 H(1)   Bbb    -0.0012    -0.625    -0.223    -0.208  0.6169  0.7565  0.2171
              Bcc     0.0025     1.342     0.479     0.448  0.7709 -0.6364  0.0267
 
              Baa    -0.0011    -0.564    -0.201    -0.188 -0.1046 -0.3166  0.9428
    13 H(1)   Bbb    -0.0010    -0.539    -0.192    -0.180  0.1836  0.9255  0.3312
              Bcc     0.0021     1.103     0.394     0.368  0.9774 -0.2077  0.0387
 
              Baa    -0.0028    -1.471    -0.525    -0.491  0.1211 -0.4556  0.8819
    14 H(1)   Bbb    -0.0026    -1.369    -0.489    -0.457  0.1208  0.8886  0.4425
              Bcc     0.0053     2.840     1.014     0.947  0.9853 -0.0530 -0.1626
 
              Baa    -0.0028    -1.508    -0.538    -0.503 -0.3290 -0.1823  0.9266
    15 H(1)   Bbb    -0.0026    -1.387    -0.495    -0.463  0.1744  0.9526  0.2493
              Bcc     0.0054     2.895     1.033     0.966  0.9281 -0.2436  0.2816
 

 ---------------------------------------------------------------------------------

 Calling FoFJK, ICntrl=    100127 FMM=F ISym2X=0 I1Cent= 0 IOpClX= 1 NMat=1 NMatS=1 NMatT=0.
 Full mass-weighted force constant matrix:
 Low frequencies --- -460.9359 -175.9820 -134.7464  -84.9124  -54.9191  -46.4633
 Low frequencies ---    0.0006    0.0007    0.0012
 ******    4 imaginary frequencies (negative Signs) ****** 
 Diagonal vibrational polarizability:
       42.1571964     175.4025236      39.2698348
 Harmonic frequencies (cm**-1), IR intensities (KM/Mole), Raman scattering
 activities (A**4/AMU), depolarization ratios for plane and unpolarized
 incident light, reduced masses (AMU), force constants (mDyne/A),
 and normal coordinates:
                      1                      2                      3
                      A                      A                      A
 Frequencies --   -460.1052              -164.6641               -74.2249
 Red. masses --      1.0896                 2.1874                 5.0121
 Frc consts  --      0.1359                 0.0349                 0.0163
 IR Inten    --    124.2285                68.2013                 8.2918
  Atom  AN      X      Y      Z        X      Y      Z        X      Y      Z
     1   8    -0.05   0.02  -0.04     0.07  -0.13  -0.15     0.27  -0.14   0.16
     2   1     0.71  -0.30   0.63     0.38   0.85   0.07     0.35   0.26   0.20
     3   6     0.00   0.01  -0.00    -0.02   0.02   0.06    -0.02   0.09  -0.06
     4   1     0.00   0.04  -0.00    -0.02   0.01   0.07    -0.02   0.21  -0.05
     5   6     0.00  -0.01  -0.01    -0.02   0.04   0.06    -0.01  -0.06  -0.06
     6   6    -0.00  -0.00  -0.01    -0.01   0.00   0.01    -0.02  -0.06  -0.05
     7   8    -0.00   0.01   0.00     0.02  -0.12  -0.02    -0.03   0.16   0.01
     8   8     0.00  -0.01   0.00    -0.03   0.08   0.01    -0.00  -0.21  -0.07
     9   6     0.00  -0.00   0.01    -0.02   0.06  -0.01    -0.00   0.04   0.03
    10   6     0.00  -0.00   0.00    -0.02   0.02   0.06    -0.23   0.15  -0.01
    11   1     0.01  -0.01   0.01    -0.04   0.12  -0.03     0.08   0.05   0.06
    12   1     0.00  -0.00   0.01    -0.01   0.02  -0.06     0.09   0.10   0.08
    13   1     0.00   0.00   0.00    -0.02   0.02   0.05    -0.24   0.31   0.07
    14   1    -0.00  -0.00   0.00    -0.02   0.06   0.11    -0.31   0.08  -0.08
    15   1     0.00  -0.00   0.01    -0.01  -0.04   0.07    -0.33   0.14  -0.06
                      4                      5                      6
                      A                      A                      A
 Frequencies --    -15.9018                76.9462                90.0647
 Red. masses --      2.7988                 3.2855                 3.2281
 Frc consts  --      0.0004                 0.0115                 0.0154
 IR Inten    --      0.2467                 2.3501                 7.3939
  Atom  AN      X      Y      Z        X      Y      Z        X      Y      Z
     1   8    -0.02  -0.03  -0.01    -0.03   0.16  -0.13     0.03   0.06  -0.04
     2   1    -0.00   0.09  -0.00    -0.18  -0.33  -0.24    -0.05  -0.18  -0.10
     3   6    -0.00  -0.08   0.03     0.04   0.16   0.04    -0.09  -0.05   0.30
     4   1    -0.01  -0.13   0.05     0.05   0.33   0.02    -0.17  -0.10   0.62
     5   6    -0.00  -0.01   0.00     0.04  -0.05   0.07     0.00   0.01  -0.10
     6   6     0.01   0.06  -0.03     0.04  -0.12   0.03     0.01   0.00  -0.14
     7   8     0.07   0.21  -0.01     0.09  -0.13   0.01    -0.07  -0.01  -0.11
     8   8    -0.02  -0.02  -0.07    -0.01  -0.12  -0.00     0.08  -0.02  -0.08
     9   6    -0.01  -0.00  -0.11     0.01   0.05  -0.05     0.06  -0.01   0.08
    10   6    -0.02  -0.15   0.19    -0.16   0.05   0.08    -0.03   0.02   0.10
    11   1    -0.04   0.25  -0.16     0.00   0.22  -0.09     0.18  -0.04   0.14
    12   1     0.03  -0.16  -0.33     0.15  -0.00  -0.16    -0.02   0.02   0.14
    13   1     0.01  -0.12   0.01    -0.13   0.25  -0.09    -0.07  -0.03   0.38
    14   1    -0.17   0.02   0.48    -0.43   0.10   0.24     0.18  -0.02  -0.03
    15   1     0.13  -0.47   0.31    -0.04  -0.20   0.17    -0.27   0.12  -0.03
                      7                      8                      9
                      A                      A                      A
 Frequencies --    131.1233               174.0573               222.1016
 Red. masses --      4.3792                 1.3387                 2.8737
 Frc consts  --      0.0444                 0.0239                 0.0835
 IR Inten    --     14.3481                 2.0218                 7.9450
  Atom  AN      X      Y      Z        X      Y      Z        X      Y      Z
     1   8     0.32   0.16  -0.05     0.01   0.04  -0.01    -0.04   0.15   0.06
     2   1     0.19  -0.61  -0.12     0.01  -0.02  -0.01     0.10   0.60   0.16
     3   6    -0.04  -0.25  -0.03     0.03  -0.02  -0.04     0.06  -0.17  -0.04
     4   1    -0.03  -0.41  -0.05     0.05  -0.02  -0.13     0.08  -0.49  -0.10
     5   6    -0.06  -0.06   0.01     0.00  -0.01   0.06     0.03   0.21   0.03
     6   6    -0.06   0.01   0.04     0.01   0.00   0.02     0.02   0.08   0.00
     7   8    -0.06  -0.05   0.02     0.09   0.00   0.00     0.01  -0.07  -0.03
     8   8    -0.08   0.11   0.05    -0.04   0.01  -0.02     0.03  -0.10  -0.03
     9   6    -0.07   0.07  -0.03    -0.04   0.00  -0.03     0.02  -0.08   0.02
    10   6    -0.01   0.02   0.01    -0.05  -0.02   0.03    -0.12  -0.01  -0.02
    11   1    -0.13   0.11  -0.07    -0.03   0.03  -0.03     0.07  -0.11   0.05
    12   1    -0.06   0.02  -0.10    -0.05  -0.02  -0.06     0.02  -0.04   0.08
    13   1     0.01   0.04  -0.17    -0.13  -0.26   0.57    -0.10   0.19  -0.08
    14   1    -0.14   0.07   0.12     0.44  -0.04  -0.17    -0.31  -0.06  -0.02
    15   1     0.14  -0.08   0.09    -0.49   0.19  -0.21    -0.09  -0.06   0.01
                     10                     11                     12
                      A                      A                      A
 Frequencies --    291.4983               311.7108               423.9931
 Red. masses --      2.7779                 2.9948                 3.8281
 Frc consts  --      0.1391                 0.1714                 0.4055
 IR Inten    --     47.5515                17.7698                 0.9477
  Atom  AN      X      Y      Z        X      Y      Z        X      Y      Z
     1   8     0.03  -0.19  -0.04     0.02  -0.01  -0.00    -0.00   0.01   0.01
     2   1    -0.10  -0.86  -0.12    -0.02  -0.15  -0.03     0.03   0.15   0.02
     3   6     0.04   0.03   0.02    -0.01   0.02  -0.02     0.10   0.02   0.04
     4   1     0.05  -0.15  -0.01     0.01   0.09  -0.09     0.06   0.16   0.19
     5   6     0.03   0.27   0.04    -0.03  -0.06   0.06     0.13  -0.13  -0.12
     6   6     0.02   0.12   0.03    -0.00   0.02  -0.05     0.06   0.02   0.02
     7   8    -0.01  -0.04   0.00     0.21   0.02  -0.12    -0.08   0.02   0.07
     8   8     0.00   0.01   0.00    -0.04   0.11  -0.07     0.06   0.24   0.08
     9   6     0.00  -0.03  -0.02    -0.09  -0.10   0.20     0.02  -0.14  -0.08
    10   6    -0.08  -0.01  -0.00    -0.06  -0.02   0.02    -0.20  -0.11  -0.07
    11   1    -0.00   0.00  -0.03     0.08  -0.38   0.33    -0.03  -0.16  -0.10
    12   1     0.01  -0.04  -0.04    -0.37   0.02   0.44    -0.08  -0.18  -0.09
    13   1    -0.09   0.08   0.05    -0.02   0.12  -0.24    -0.21   0.26   0.09
    14   1    -0.13  -0.03  -0.01    -0.31  -0.11  -0.00    -0.42  -0.21  -0.13
    15   1    -0.14  -0.05  -0.02     0.15   0.01   0.11    -0.41  -0.21  -0.15
                     13                     14                     15
                      A                      A                      A
 Frequencies --    572.2803               624.2511               762.6523
 Red. masses --      4.2300                 5.3347                 3.4139
 Frc consts  --      0.8162                 1.2248                 1.1699
 IR Inten    --      2.8426                13.0485                82.7957
  Atom  AN      X      Y      Z        X      Y      Z        X      Y      Z
     1   8     0.01   0.00  -0.00     0.00  -0.00  -0.00     0.00  -0.00   0.01
     2   1    -0.00  -0.06  -0.00    -0.02  -0.03  -0.03     0.00   0.01   0.00
     3   6    -0.24   0.00  -0.06     0.17  -0.01   0.06    -0.00  -0.09   0.01
     4   1    -0.18   0.05  -0.33     0.34   0.22  -0.61    -0.01   0.87  -0.00
     5   6    -0.26  -0.04   0.16     0.05  -0.10   0.40     0.01  -0.14  -0.05
     6   6    -0.03   0.05  -0.02     0.04   0.02  -0.12     0.00   0.39   0.09
     7   8     0.05   0.01  -0.05    -0.28   0.02  -0.03    -0.00  -0.09  -0.04
     8   8     0.15   0.05   0.08     0.02   0.04  -0.20    -0.00  -0.10  -0.01
     9   6     0.27  -0.09  -0.05     0.04   0.01  -0.01    -0.02  -0.00   0.01
    10   6     0.01  -0.01  -0.02     0.01   0.01   0.02    -0.00   0.00   0.01
    11   1     0.12   0.05  -0.14     0.20  -0.14   0.09    -0.03   0.09  -0.01
    12   1     0.34  -0.16  -0.17    -0.15   0.06   0.12     0.06  -0.03  -0.05
    13   1    -0.01   0.40   0.20     0.01   0.02   0.01    -0.00  -0.06  -0.04
    14   1    -0.21  -0.12  -0.09    -0.00   0.04   0.06     0.04  -0.00  -0.02
    15   1    -0.26  -0.12  -0.12     0.01  -0.05   0.02     0.05   0.06   0.02
                     16                     17                     18
                      A                      A                      A
 Frequencies --    786.8657               816.5575               825.1143
 Red. masses --      1.5414                 1.2935                 1.5760
 Frc consts  --      0.5623                 0.5082                 0.6322
 IR Inten    --     51.7123                10.1332                15.3433
  Atom  AN      X      Y      Z        X      Y      Z        X      Y      Z
     1   8    -0.00  -0.00  -0.00     0.00  -0.00   0.00    -0.00   0.00  -0.00
     2   1     0.01  -0.01   0.01     0.00  -0.00   0.00    -0.02  -0.01  -0.02
     3   6     0.04   0.08  -0.13     0.04   0.05   0.03     0.04  -0.12  -0.08
     4   1    -0.20  -0.45   0.84     0.08  -0.31  -0.12    -0.12   0.71   0.52
     5   6    -0.02  -0.08   0.08     0.03  -0.04   0.02    -0.00   0.10   0.07
     6   6     0.01   0.08   0.01    -0.02   0.03  -0.04    -0.01  -0.10  -0.04
     7   8    -0.02  -0.02   0.00    -0.01   0.01  -0.06    -0.01   0.03  -0.01
     8   8    -0.00  -0.01  -0.03     0.01  -0.01   0.04    -0.00   0.02   0.01
     9   6     0.02  -0.00  -0.01    -0.04  -0.02   0.07    -0.00  -0.01   0.03
    10   6     0.01   0.00   0.00    -0.02  -0.02   0.02    -0.00  -0.01   0.01
    11   1     0.04  -0.05   0.01    -0.11   0.49  -0.05    -0.03   0.20  -0.02
    12   1    -0.01   0.02   0.03     0.14  -0.29  -0.35     0.04  -0.13  -0.15
    13   1     0.00   0.02   0.02     0.01  -0.00  -0.18     0.01   0.04  -0.06
    14   1     0.00   0.02   0.03    -0.04  -0.26  -0.31    -0.04  -0.13  -0.14
    15   1    -0.01  -0.03   0.00     0.12   0.40   0.02     0.04   0.18   0.00
                     19                     20                     21
                      A                      A                      A
 Frequencies --    899.4549               945.7750              1112.9721
 Red. masses --      3.4192                 2.5259                 4.1599
 Frc consts  --      1.6298                 1.3312                 3.0360
 IR Inten    --     20.9463                 5.5401                 8.2508
  Atom  AN      X      Y      Z        X      Y      Z        X      Y      Z
     1   8     0.00  -0.00   0.00     0.00  -0.00   0.00     0.00  -0.00  -0.00
     2   1    -0.01  -0.01  -0.01    -0.00  -0.01  -0.00    -0.00  -0.01   0.00
     3   6     0.08  -0.00   0.00     0.10   0.00   0.03     0.07   0.00   0.02
     4   1     0.07   0.03   0.06     0.11  -0.01   0.02     0.07  -0.00   0.03
     5   6     0.03  -0.01   0.08     0.07  -0.01  -0.01     0.04  -0.00  -0.03
     6   6    -0.09   0.01  -0.12    -0.14   0.01  -0.02    -0.16   0.00   0.04
     7   8    -0.00   0.05  -0.19     0.01   0.02  -0.09     0.01   0.00  -0.01
     8   8     0.10  -0.04   0.25    -0.15  -0.03   0.06    -0.18   0.01  -0.05
     9   6    -0.08   0.07  -0.01     0.05  -0.11  -0.03     0.28   0.21   0.15
    10   6    -0.08  -0.04  -0.09     0.16   0.11   0.05    -0.03  -0.21  -0.11
    11   1    -0.27  -0.17  -0.05    -0.25  -0.21  -0.15     0.26   0.32   0.14
    12   1     0.20   0.29   0.22    -0.01  -0.14  -0.05     0.38   0.27   0.18
    13   1    -0.10  -0.41  -0.00     0.14   0.67   0.37    -0.04  -0.10  -0.02
    14   1     0.15   0.28   0.28    -0.17   0.04   0.07    -0.13  -0.27  -0.13
    15   1    -0.03  -0.40  -0.01    -0.22  -0.11  -0.09    -0.15  -0.35  -0.16
                     22                     23                     24
                      A                      A                      A
 Frequencies --   1159.4860              1228.7081              1329.8010
 Red. masses --      2.0887                 1.7539                 1.8313
 Frc consts  --      1.6545                 1.5601                 1.9080
 IR Inten    --     18.7897                 4.5416               287.8433
  Atom  AN      X      Y      Z        X      Y      Z        X      Y      Z
     1   8    -0.00   0.00  -0.00    -0.00   0.00   0.00    -0.00   0.00   0.00
     2   1    -0.00  -0.00  -0.00     0.00   0.00  -0.00     0.00   0.01   0.00
     3   6    -0.02  -0.00  -0.01    -0.02   0.00  -0.01    -0.04  -0.00  -0.01
     4   1    -0.03   0.00  -0.01    -0.02  -0.00  -0.01    -0.05  -0.00  -0.02
     5   6    -0.01   0.00   0.01    -0.01   0.00  -0.00    -0.01   0.00   0.00
     6   6     0.06   0.00  -0.01     0.07  -0.00  -0.01     0.20   0.01  -0.07
     7   8    -0.00  -0.00   0.00    -0.01  -0.01   0.03    -0.02   0.00  -0.01
     8   8     0.08  -0.05   0.01     0.01   0.02  -0.07    -0.10  -0.00   0.02
     9   6    -0.15   0.17   0.02    -0.05  -0.05   0.17     0.07   0.03   0.01
    10   6     0.12  -0.13  -0.01     0.03   0.04  -0.12    -0.02  -0.03   0.06
    11   1    -0.13   0.03   0.06    -0.41   0.32  -0.05    -0.69  -0.31  -0.27
    12   1    -0.32   0.13   0.00     0.30  -0.24  -0.19     0.31   0.22   0.20
    13   1     0.09   0.52   0.20    -0.02  -0.03   0.27     0.00   0.00  -0.11
    14   1    -0.37  -0.35  -0.15    -0.01   0.31   0.28     0.01  -0.18  -0.14
    15   1    -0.32  -0.12  -0.21    -0.10  -0.45  -0.10     0.04   0.18   0.06
                     25                     26                     27
                      A                      A                      A
 Frequencies --   1373.7325              1443.8767              1457.4493
 Red. masses --      1.8537                 1.3871                 1.2698
 Frc consts  --      2.0611                 1.7038                 1.5892
 IR Inten    --    305.6429                42.0007                17.0857
  Atom  AN      X      Y      Z        X      Y      Z        X      Y      Z
     1   8     0.00  -0.00  -0.00    -0.00   0.00   0.00     0.00  -0.00  -0.00
     2   1    -0.00  -0.01  -0.00     0.00   0.00   0.00    -0.00  -0.00  -0.00
     3   6     0.03  -0.00   0.01    -0.02   0.00  -0.00     0.01  -0.00   0.00
     4   1     0.03   0.00   0.02    -0.02   0.00  -0.01     0.01  -0.00   0.00
     5   6     0.00  -0.00  -0.00    -0.00  -0.00   0.00     0.00   0.00  -0.00
     6   6    -0.16  -0.01   0.06     0.09   0.00  -0.02    -0.03  -0.00   0.01
     7   8     0.02  -0.01   0.03    -0.01   0.01  -0.02     0.00  -0.00   0.00
     8   8     0.11   0.04  -0.11    -0.06   0.01   0.04     0.02  -0.00  -0.01
     9   6    -0.08  -0.02  -0.02    -0.08  -0.07  -0.04     0.04   0.04   0.02
    10   6     0.01  -0.03   0.05     0.02  -0.06  -0.02    -0.07  -0.11  -0.05
    11   1    -0.35  -0.17  -0.12     0.50   0.35   0.17    -0.18  -0.15  -0.05
    12   1     0.75   0.31   0.21     0.46   0.28   0.27    -0.18  -0.12  -0.12
    13   1     0.02   0.07  -0.03     0.02   0.28   0.13    -0.05   0.50   0.18
    14   1    -0.05  -0.11  -0.04     0.01   0.12   0.21     0.34   0.29   0.32
    15   1    -0.01   0.18   0.01     0.05   0.22  -0.04     0.34   0.40   0.07
                     28                     29                     30
                      A                      A                      A
 Frequencies --   1525.8053              1536.5509              1544.3419
 Red. masses --      1.0415                 1.0605                 1.0849
 Frc consts  --      1.4286                 1.4752                 1.5246
 IR Inten    --     14.6568                 2.0851                27.0126
  Atom  AN      X      Y      Z        X      Y      Z        X      Y      Z
     1   8    -0.00  -0.00   0.00     0.00  -0.00   0.00    -0.00  -0.00  -0.00
     2   1    -0.00   0.00  -0.00    -0.00  -0.00  -0.00     0.00   0.00   0.00
     3   6     0.00   0.00   0.00     0.00  -0.00   0.00     0.00  -0.00   0.00
     4   1     0.00  -0.00   0.00     0.00   0.00   0.00     0.00   0.00   0.00
     5   6     0.00  -0.00  -0.00    -0.00   0.00  -0.00    -0.00   0.00  -0.00
     6   6     0.00  -0.00   0.00    -0.02  -0.00  -0.00    -0.02   0.00  -0.00
     7   8    -0.00   0.00  -0.00     0.00  -0.00   0.01     0.00  -0.00   0.01
     8   8    -0.00  -0.00   0.00     0.02  -0.00  -0.01     0.02  -0.00  -0.01
     9   6     0.01   0.02  -0.02     0.01  -0.04  -0.02     0.05  -0.04  -0.01
    10   6     0.02   0.01  -0.05    -0.03   0.02  -0.01     0.03  -0.02   0.00
    11   1     0.01  -0.10  -0.00    -0.16   0.42  -0.16    -0.24   0.39  -0.21
    12   1     0.00  -0.00  -0.04    -0.25   0.21   0.37    -0.34   0.14   0.33
    13   1    -0.08  -0.35   0.58    -0.04   0.16   0.26     0.03  -0.18  -0.18
    14   1    -0.55  -0.09   0.05     0.19  -0.17  -0.32    -0.23   0.17   0.33
    15   1     0.36   0.25   0.10     0.36  -0.30   0.22    -0.28   0.34  -0.19
                     31                     32                     33
                      A                      A                      A
 Frequencies --   1907.5715              2307.1136              3107.7509
 Red. masses --     12.2573                 5.6447                 1.0351
 Frc consts  --     26.2789                17.7023                 5.8900
 IR Inten    --    309.4684                61.4020                13.2497
  Atom  AN      X      Y      Z        X      Y      Z        X      Y      Z
     1   8    -0.00   0.00  -0.00     0.00   0.00   0.00     0.00   0.00  -0.00
     2   1     0.02  -0.00   0.02    -0.00  -0.00  -0.00    -0.00  -0.00   0.00
     3   6    -0.07  -0.00  -0.01    -0.36  -0.00  -0.09     0.00  -0.00   0.00
     4   1    -0.10  -0.01  -0.01    -0.74  -0.02  -0.19    -0.00   0.00  -0.00
     5   6     0.05   0.00  -0.01     0.51  -0.01   0.12    -0.00   0.00  -0.00
     6   6     0.20  -0.19   0.75    -0.09   0.01  -0.04     0.00   0.00  -0.00
     7   8    -0.16   0.12  -0.48     0.00  -0.00   0.01     0.00   0.00   0.00
     8   8     0.04   0.01  -0.07    -0.00  -0.00   0.00    -0.00  -0.00   0.00
     9   6     0.02  -0.01   0.01     0.00   0.00  -0.00     0.00   0.00   0.00
    10   6    -0.01   0.01  -0.00    -0.00  -0.00  -0.00    -0.02  -0.04  -0.02
    11   1    -0.15   0.07  -0.08     0.01  -0.00  -0.00    -0.00  -0.00  -0.00
    12   1    -0.13  -0.01   0.08     0.00  -0.00  -0.00     0.00  -0.01   0.01
    13   1    -0.00  -0.03  -0.05     0.00   0.00   0.00     0.63  -0.04   0.08
    14   1     0.03   0.01  -0.01     0.00   0.00   0.00    -0.13   0.44  -0.34
    15   1    -0.03  -0.05   0.00     0.00   0.00   0.00    -0.23   0.06   0.46
                     34                     35                     36
                      A                      A                      A
 Frequencies --   3136.2140              3187.9160              3190.1768
 Red. masses --      1.0601                 1.1022                 1.1009
 Frc consts  --      6.1435                 6.5995                 6.6015
 IR Inten    --     21.7508                 6.7566                14.2642
  Atom  AN      X      Y      Z        X      Y      Z        X      Y      Z
     1   8     0.00  -0.00  -0.00     0.00  -0.00   0.00    -0.00  -0.00   0.00
     2   1     0.00   0.00   0.00    -0.00  -0.00   0.00     0.00   0.00  -0.00
     3   6    -0.00   0.00   0.00    -0.00   0.00  -0.00     0.00  -0.00   0.00
     4   1     0.00  -0.00   0.00     0.00  -0.00   0.00    -0.00  -0.00   0.00
     5   6     0.00  -0.00  -0.00     0.00   0.00   0.00    -0.00   0.00   0.00
     6   6    -0.00  -0.00   0.00    -0.00  -0.00   0.00    -0.00   0.00  -0.00
     7   8    -0.00   0.00  -0.00     0.00  -0.00   0.00     0.00  -0.00   0.00
     8   8     0.00   0.00  -0.00    -0.00   0.00  -0.00     0.00   0.00   0.00
     9   6     0.03  -0.06  -0.00     0.02   0.01  -0.06     0.00   0.02  -0.03
    10   6    -0.01   0.01  -0.00     0.02  -0.04   0.05    -0.08   0.03   0.02
    11   1    -0.22   0.07   0.50    -0.24   0.09   0.53    -0.10   0.04   0.22
    12   1    -0.13   0.64  -0.49     0.05  -0.24   0.17     0.05  -0.24   0.17
    13   1     0.11  -0.01   0.01    -0.31   0.01  -0.03     0.68  -0.03   0.09
    14   1     0.01  -0.05   0.04    -0.13   0.48  -0.36     0.04  -0.23   0.18
    15   1     0.01  -0.00  -0.03     0.14  -0.05  -0.26     0.21  -0.06  -0.48
                     37                     38                     39
                      A                      A                      A
 Frequencies --   3211.0752              3529.8989              3806.6879
 Red. masses --      1.1050                 1.1748                 1.0672
 Frc consts  --      6.7132                 8.6246                 9.1112
 IR Inten    --     17.6631                60.3975                10.3711
  Atom  AN      X      Y      Z        X      Y      Z        X      Y      Z
     1   8    -0.00  -0.00   0.00     0.00   0.00   0.00     0.04  -0.00  -0.05
     2   1     0.00   0.00  -0.00     0.00  -0.00  -0.00    -0.65   0.04   0.76
     3   6    -0.00   0.00  -0.00    -0.11  -0.00  -0.03    -0.00   0.00  -0.00
     4   1     0.00  -0.00  -0.00     0.96   0.01   0.25     0.00  -0.00   0.00
     5   6     0.00  -0.00   0.00     0.04  -0.00   0.01     0.00   0.00   0.00
     6   6    -0.00   0.00  -0.00    -0.00   0.00  -0.00     0.00  -0.00  -0.00
     7   8     0.00   0.00   0.00     0.00   0.00  -0.00    -0.00   0.00  -0.00
     8   8    -0.00   0.00  -0.00     0.00   0.00  -0.00    -0.00  -0.00   0.00
     9   6     0.01   0.02  -0.06    -0.00   0.00   0.00     0.00   0.00  -0.00
    10   6     0.02   0.02  -0.06     0.00  -0.00   0.00    -0.00   0.00  -0.00
    11   1    -0.22   0.08   0.49     0.00  -0.00  -0.00    -0.00   0.00   0.00
    12   1     0.06  -0.29   0.21     0.00  -0.00   0.00    -0.00  -0.00   0.00
    13   1    -0.08   0.01  -0.03     0.00   0.00   0.00    -0.00  -0.00   0.00
    14   1     0.10  -0.35   0.26    -0.00   0.00  -0.00    -0.00  -0.00   0.00
    15   1    -0.26   0.09   0.53    -0.00  -0.00  -0.00     0.00   0.00  -0.00

 -------------------
 - Thermochemistry -
 -------------------
 Temperature   298.150 Kelvin.  Pressure   1.00000 Atm.
 Atom     1 has atomic number  8 and mass  15.99491
 Atom     2 has atomic number  1 and mass   1.00783
 Atom     3 has atomic number  6 and mass  12.00000
 Atom     4 has atomic number  1 and mass   1.00783
 Atom     5 has atomic number  6 and mass  12.00000
 Atom     6 has atomic number  6 and mass  12.00000
 Atom     7 has atomic number  8 and mass  15.99491
 Atom     8 has atomic number  8 and mass  15.99491
 Atom     9 has atomic number  6 and mass  12.00000
 Atom    10 has atomic number  6 and mass  12.00000
 Atom    11 has atomic number  1 and mass   1.00783
 Atom    12 has atomic number  1 and mass   1.00783
 Atom    13 has atomic number  1 and mass   1.00783
 Atom    14 has atomic number  1 and mass   1.00783
 Atom    15 has atomic number  1 and mass   1.00783
 Molecular mass:   115.03952 amu.
 Principal axes and moments of inertia in atomic units:
                           1         2         3
     Eigenvalues --   530.172321382.839311548.88471
           X            0.99995   0.01008  -0.00138
           Y           -0.00997   0.99790   0.06398
           Z            0.00202  -0.06396   0.99795
 This molecule is an asymmetric top.
 Rotational symmetry number  1.
 Warning -- assumption of classical behavior for rotation
           may cause significant error
 Rotational temperatures (Kelvin)      0.16337     0.06263     0.05592
 Rotational constants (GHZ):           3.40407     1.30510     1.16519
    4 imaginary frequencies ignored.
 Zero-point vibrational energy     293393.6 (Joules/Mol)
                                   70.12275 (Kcal/Mol)
 Warning -- explicit consideration of   9 degrees of freedom as
           vibrations may cause significant error
 Vibrational temperatures:    110.71   129.58   188.66   250.43   319.55
          (Kelvin)            419.40   448.48   610.03   823.38   898.16
                             1097.29  1132.12  1174.84  1187.16  1294.12
                             1360.76  1601.32  1668.24  1767.84  1913.29
                             1976.49  2077.42  2096.94  2195.29  2210.75
                             2221.96  2744.57  3319.42  4471.36  4512.31
                             4586.70  4589.95  4620.02  5078.74  5476.97
 
 Zero-point correction=                           0.111748 (Hartree/Particle)
 Thermal correction to Energy=                    0.119885
 Thermal correction to Enthalpy=                  0.120830
 Thermal correction to Gibbs Free Energy=         0.077652
 Sum of electronic and zero-point Energies=           -419.848738
 Sum of electronic and thermal Energies=              -419.840600
 Sum of electronic and thermal Enthalpies=            -419.839656
 Sum of electronic and thermal Free Energies=         -419.882833
 
                     E (Thermal)             CV                S
                      KCal/Mol        Cal/Mol-Kelvin    Cal/Mol-Kelvin
 Total                   75.229             27.216             90.875
 Electronic               0.000              0.000              1.377
 Translational            0.889              2.981             40.136
 Rotational               0.889              2.981             28.520
 Vibrational             73.452             21.254             20.842
 Vibration     1          0.599              1.965              3.967
 Vibration     2          0.602              1.956              3.659
 Vibration     3          0.612              1.922              2.930
 Vibration     4          0.627              1.874              2.391
 Vibration     5          0.648              1.807              1.942
 Vibration     6          0.687              1.690              1.465
 Vibration     7          0.700              1.651              1.353
 Vibration     8          0.786              1.418              0.879
 Vibration     9          0.928              1.091              0.500
                       Q            Log10(Q)             Ln(Q)
 Total Bot       0.191713D-35        -35.717349        -82.242236
 Total V=0       0.481930D+16         15.682984         36.111405
 Vib (Bot)       0.518140D-49        -49.285553       -113.484180
 Vib (Bot)    1  0.267770D+01          0.427762          0.984958
 Vib (Bot)    2  0.228283D+01          0.358474          0.825417
 Vib (Bot)    3  0.155432D+01          0.191540          0.441038
 Vib (Bot)    4  0.115626D+01          0.063057          0.145194
 Vib (Bot)    5  0.889812D+00         -0.050702         -0.116746
 Vib (Bot)    6  0.655498D+00         -0.183429         -0.422360
 Vib (Bot)    7  0.606025D+00         -0.217509         -0.500834
 Vib (Bot)    8  0.412865D+00         -0.384192         -0.884635
 Vib (Bot)    9  0.268327D+00         -0.571336         -1.315549
 Vib (V=0)       0.130251D+03          2.114780          4.869461
 Vib (V=0)    1  0.322398D+01          0.508393          1.170617
 Vib (V=0)    2  0.283695D+01          0.452851          1.042728
 Vib (V=0)    3  0.213276D+01          0.328942          0.757417
 Vib (V=0)    4  0.175974D+01          0.245449          0.565166
 Vib (V=0)    5  0.152067D+01          0.182035          0.419150
 Vib (V=0)    6  0.132443D+01          0.122028          0.280979
 Vib (V=0)    7  0.128566D+01          0.109127          0.251275
 Vib (V=0)    8  0.114843D+01          0.060103          0.138393
 Vib (V=0)    9  0.106745D+01          0.028348          0.065273
 Electronic      0.200000D+01          0.301030          0.693147
 Translational   0.484981D+08          7.685724         17.697035
 Rotational      0.381460D+06          5.581450         12.851762
 ***** Axes restored to original set *****
 -------------------------------------------------------------------
 Center     Atomic                   Forces (Hartrees/Bohr)
 Number     Number              X              Y              Z
 -------------------------------------------------------------------
      1        8           0.012587419    0.007500033   -0.010767901
      2        1          -0.011210083    0.001514522    0.012903723
      3        6          -0.021547636    0.000691409   -0.005546239
      4        1          -0.000789722   -0.000156638   -0.000157430
      5        6           0.024614154   -0.010219519    0.004473717
      6        6          -0.043632431    0.009616595   -0.031802273
      7        8           0.018269433   -0.012127294    0.045987722
      8        8           0.002501874    0.002369988   -0.014349371
      9        6           0.017207637   -0.000556084   -0.002884961
     10        6           0.000357440    0.000527043    0.000195563
     11        1           0.000378490   -0.000133677   -0.000724355
     12        1           0.000555717   -0.001156527    0.001135411
     13        1           0.001404059    0.000349087    0.000484434
     14        1          -0.000382402    0.001049207   -0.000484406
     15        1          -0.000313948    0.000731854    0.001536366
 -------------------------------------------------------------------
 Cartesian Forces:  Max     0.045987722 RMS     0.013323647

 GradGradGradGradGradGradGradGradGradGradGradGradGradGradGradGradGradGrad
 Berny optimization.
 Search for a local minimum.
 Step number   1 out of a maximum of    2
 All quantities printed in internal units (Hartrees-Bohrs-Radians)
 Second derivative matrix not updated -- analytic derivatives used.
 ITU=  0
     Eigenvalues ---   -0.01438  -0.00531  -0.00163  -0.00048   0.00087
     Eigenvalues ---    0.00124   0.00231   0.00412   0.00852   0.01775
     Eigenvalues ---    0.02550   0.03401   0.03627   0.05569   0.06689
     Eigenvalues ---    0.07663   0.08308   0.09337   0.10000   0.10565
     Eigenvalues ---    0.12127   0.14913   0.17975   0.18564   0.21516
     Eigenvalues ---    0.28651   0.29991   0.43499   0.50087   0.64699
     Eigenvalues ---    0.73825   0.77891   0.80444   0.88667   0.93681
     Eigenvalues ---    0.97345   0.98069   1.85582   2.83379
 Eigenvalue     1 is  -1.44D-02 should be greater than     0.000000 Eigenvector:
                          Z2        X2        X1        Z1        Y2
   1                    0.54594   0.52025  -0.44242  -0.29773  -0.28302
                          Y1        Y4        Y15       Z14       X15
   1                    0.17190   0.06805  -0.06106   0.05384   0.04738
 Eigenvalue     2 is  -5.31D-03 should be greater than     0.000000 Eigenvector:
                          Y7        Y2        Z1        Y8        X2
   1                    0.60203  -0.41979   0.37811  -0.27505  -0.19197
                          Z2        Z5        Z3        Z8        Z4
   1                    0.18815  -0.14445  -0.13455  -0.12573  -0.10454
 Eigenvalue     3 is  -1.63D-03 should be greater than     0.000000 Eigenvector:
                          Y2        X2        X14       X1        Y7
   1                    0.45783   0.41315  -0.27449   0.23805   0.23208
                          Y1        Z14       Y11       Y15       X10
   1                   -0.22242   0.22139   0.21008  -0.18285  -0.18050
 Eigenvalue     4 is  -4.80D-04 should be greater than     0.000000 Eigenvector:
                          Y15       Z14       Z12       Y4        Y13
   1                    0.35429  -0.33123   0.27292   0.25804   0.25319
                          X2        X15       X1        Y7        Z15
   1                    0.25179  -0.24802   0.24091  -0.20640  -0.20148
 Quadratic step=1.808D+00 exceeds max=3.000D-01 adjusted using Lamda=-1.935D-02.
 Angle between NR and scaled steps=  61.66 degrees.
 Angle between quadratic step and forces=  69.29 degrees.
 Linear search not attempted -- first point.
 B after Tr=     0.000742   -0.001420    0.000876
         Rot=    1.000000    0.000847   -0.000097    0.000364 Ang=   0.11 deg.
 Variable       Old X    -DE/DX   Delta X   Delta X   Delta X     New X
                                 (Linear)    (Quad)   (Total)
    X1       -2.52856   0.01259   0.00000   0.04925   0.05268  -2.47588
    Y1        3.44944   0.00750   0.00000   0.17902   0.17984   3.62928
    Z1        0.21695  -0.01077   0.00000   0.04204   0.03725   0.25420
    X2       -3.72442  -0.01121   0.00000  -0.02201  -0.01841  -3.74282
    Y2        3.49177   0.00151   0.00000   0.00441   0.00848   3.50025
    Z2        1.60953   0.01290   0.00000   0.02888   0.02455   1.63408
    X3       -5.17703  -0.02155   0.00000  -0.03758  -0.03766  -5.21469
    Y3       -0.88354   0.00069   0.00000  -0.02188  -0.02100  -0.90454
    Z3       -0.85546  -0.00555   0.00000  -0.02783  -0.02440  -0.87986
    X4       -7.12585  -0.00079   0.00000  -0.04107  -0.04122  -7.16708
    Y4       -0.89712  -0.00016   0.00000   0.03094   0.03241  -0.86471
    Z4       -1.35806  -0.00016   0.00000  -0.01749  -0.01375  -1.37180
    X5       -2.97060   0.02461   0.00000  -0.02368  -0.02374  -2.99434
    Y5       -0.84492  -0.01022   0.00000  -0.16493  -0.16475  -1.00967
    Z5       -0.32180   0.00447   0.00000  -0.02139  -0.01822  -0.34002
    X6       -0.31759  -0.04363   0.00000  -0.05266  -0.05267  -0.37026
    Y6       -1.07843   0.00962   0.00000  -0.06164  -0.06211  -1.14055
    Z6        0.41581  -0.03180   0.00000  -0.01593  -0.01305   0.40276
    X7        0.33043   0.01827   0.00000   0.02336   0.02342   0.35385
    Y7       -1.66520  -0.01213   0.00000   0.03207   0.03471  -1.63049
    Z7        2.50710   0.04599   0.00000   0.04433   0.04790   2.55500
    X8        1.20328   0.00250   0.00000  -0.00776  -0.00781   1.19546
    Y8       -0.63911   0.00237   0.00000  -0.04464  -0.04956  -0.68867
    Z8       -1.52991  -0.01435   0.00000  -0.02783  -0.02602  -1.55594
    X9        3.87532   0.01721   0.00000   0.03938   0.03935   3.91467
    Y9       -0.79372  -0.00056   0.00000   0.00185  -0.00415  -0.79788
    Z9       -1.01656  -0.00288   0.00000  -0.00887  -0.00741  -1.02398
   X10        4.80416   0.00036   0.00000   0.00267   0.00463   4.80879
   Y10        1.59967   0.00053   0.00000   0.01439   0.00990   1.60957
   Z10        0.25162   0.00020   0.00000   0.00193  -0.00087   0.25075
   X11        4.72501   0.00038   0.00000   0.02324   0.02265   4.74766
   Y11       -1.05684  -0.00013   0.00000   0.01025   0.00048  -1.05636
   Z11       -2.87123  -0.00072   0.00000  -0.01731  -0.01558  -2.88681
   X12        4.22937   0.00056   0.00000   0.03542   0.03440   4.26377
   Y12       -2.45786  -0.00116   0.00000   0.00261  -0.00166  -2.45952
   Z12        0.14687   0.00114   0.00000  -0.00046   0.00375   0.15062
   X13        6.84912   0.00140   0.00000   0.00700   0.00895   6.85807
   Y13        1.50054   0.00035   0.00000   0.02883   0.02329   1.52383
   Z13        0.50658   0.00048   0.00000   0.00975   0.00670   0.51328
   X14        4.36078  -0.00038   0.00000  -0.00628  -0.00334   4.35744
   Y14        3.24301   0.00105   0.00000   0.01641   0.01028   3.25329
   Z14       -0.91082  -0.00048   0.00000   0.00373  -0.00176  -0.91259
   X15        3.92365  -0.00031   0.00000  -0.00371  -0.00122   3.92243
   Y15        1.82778   0.00073   0.00000   0.00454   0.00383   1.83161
   Z15        2.10003   0.00154   0.00000   0.00391   0.00092   2.10095
         Item               Value     Threshold  Converged?
 Maximum Force            0.045988     0.000450     NO 
 RMS     Force            0.013324     0.000300     NO 
 Maximum Displacement     0.179836     0.001800     NO 
 RMS     Displacement     0.044596     0.001200     NO 
 Predicted change in Energy=-5.660541D-03
 GradGradGradGradGradGradGradGradGradGradGradGradGradGradGradGradGradGrad


 ----------------------------------------------------------------------

 Electric dipole moment (input orientation):
 (Debye = 10**-18 statcoulomb cm , SI units = C m)
                  (au)            (Debye)         (10**-30 SI)
   Tot        0.348425D+00      0.885607D+00      0.295407D+01
   x         -0.308115D+00     -0.783151D+00     -0.261231D+01
   y          0.942361D-01      0.239524D+00      0.798967D+00
   z         -0.132606D+00     -0.337050D+00     -0.112428D+01

 Dipole polarizability, Alpha (input orientation).
 (esu units = cm**3 , SI units = C**2 m**2 J**-1)
 Alpha(0;0):
               (au)            (10**-24 esu)      (10**-40 SI)
   iso        0.674823D+02      0.999984D+01      0.111263D+02
   aniso      0.312103D+02      0.462489D+01      0.514589D+01
   xx         0.872788D+02      0.129334D+02      0.143903D+02
   yx         0.395343D+01      0.585838D+00      0.651832D+00
   yy         0.583735D+02      0.865006D+01      0.962449D+01
   zx         0.380585D+01      0.563969D+00      0.627500D+00
   zy        -0.177179D+00     -0.262552D-01     -0.292128D-01
   zz         0.567945D+02      0.841608D+01      0.936415D+01

 ----------------------------------------------------------------------

 Dipole orientation:
     8         -0.69057959         -2.88729914          3.08641033
     1         -2.43320950         -3.09685470          3.62536637
     6         -1.64118142          1.96496542          4.66471032
     1         -2.04403872          2.45137510          6.57567919
     6         -1.14976534          1.40181140          2.52088459
     6         -0.69223557          0.96385136         -0.16907915
     8         -2.36226800          0.84164604         -1.69674928
     8          1.76390484          0.81057277         -0.65466327
     6          2.44168019          0.35524750         -3.25476993
     6          2.13756487         -2.41523668         -3.91147213
     1          4.40459768          0.95884831         -3.37145640
     1          1.27804936          1.55521293         -4.46073317
     1          2.78156525         -2.74458413         -5.84370103
     1          3.25797848         -3.58029925         -2.63252199
     1          0.16075063         -2.97864885         -3.77462076

 Electric dipole moment (dipole orientation):
 (Debye = 10**-18 statcoulomb cm , SI units = C m)
                  (au)            (Debye)         (10**-30 SI)
   Tot        0.348425D+00      0.885607D+00      0.295407D+01
   x          0.000000D+00      0.000000D+00      0.000000D+00
   y          0.000000D+00      0.000000D+00      0.000000D+00
   z          0.348425D+00      0.885607D+00      0.295407D+01

 Dipole polarizability, Alpha (dipole orientation).
 (esu units = cm**3 , SI units = C**2 m**2 J**-1)
 Alpha(0;0):
               (au)            (10**-24 esu)      (10**-40 SI)
   iso        0.674823D+02      0.999984D+01      0.111263D+02
   aniso      0.312103D+02      0.462489D+01      0.514589D+01
   xx         0.603022D+02      0.893587D+01      0.994249D+01
   yx        -0.429403D+01     -0.636309D+00     -0.707989D+00
   yy         0.606886D+02      0.899312D+01      0.100062D+02
   zx        -0.935384D+01     -0.138610D+01     -0.154224D+01
   zy         0.850157D+01      0.125980D+01      0.140172D+01
   zz         0.814559D+02      0.120705D+02      0.134303D+02

 ----------------------------------------------------------------------
 1\1\GINC-AJ\Freq\UM062X\6-31+G\C5H7O3(2)\AAYUSH\20-Jun-2025\0\\# freq 
 6-31+g m062x\\Title Card Required\\0,2\O,-1.338057,1.825365,0.114805\H
 ,-1.970876,1.847763,0.851728\C,-2.739566,-0.467548,-0.452691\H,-3.7708
 38,-0.474735,-0.718652\C,-1.571973,-0.44711,-0.170291\C,-0.168063,-0.5
 70683,0.220039\O,0.174858,-0.881186,1.326701\O,0.636748,-0.338201,-0.8
 09595\C,2.050733,-0.42002,-0.537942\C,2.54225,0.846508,0.133149\H,2.50
 0366,-0.559258,-1.519391\H,2.238086,-1.300646,0.077722\H,3.624399,0.79
 4049,0.268068\H,2.307627,1.716127,-0.481986\H,2.076308,0.967218,1.1112
 88\\Version=ES64L-G16RevA.03\State=2-A\HF=-419.9604853\S2=0.756369\S2-
 1=0.\S2A=0.750028\RMSD=3.311e-09\RMSF=1.332e-02\ZeroPoint=0.1117477\Th
 ermal=0.1198855\Dipole=-0.3081153,0.0942361,-0.1326056\DipoleDeriv=-0.
 2804607,0.130757,-0.126351,0.0480644,-0.201716,0.0654418,-0.1581274,-0
 .0021282,-0.1982825,0.2138798,-0.0436259,0.1253452,-0.0165364,0.390876
 5,0.013219,0.1468362,0.0436572,0.193754,-0.2937226,0.1854429,0.022419,
 0.0137975,-0.2487628,0.0027614,0.0375796,0.0350577,-0.1971132,0.266437
 4,0.0139644,0.0059408,0.0035259,0.239795,-0.006973,-0.0053682,-0.00365
 61,0.2615447,-0.5371333,-0.2020133,-0.129429,0.0172911,-0.2729901,-0.0
 570971,-0.1383627,-0.0378042,-0.1336953,2.12937,-0.1241229,-0.0824556,
 0.0666927,0.5914681,-0.3086279,-0.4521149,-0.4238855,1.6001007,-0.7858
 724,0.0977175,-0.1884616,-0.0101617,-0.4525414,0.2009965,0.0347107,0.2
 649306,-1.0230158,-1.5551689,-0.1295968,0.3647071,-0.1289476,-0.411151
 4,0.0602853,0.5130433,0.1046696,-0.8342633,0.8978989,0.0829347,-0.0964
 361,0.0146441,0.3318644,0.0656698,0.024981,0.0165479,0.2842639,-0.0842
 664,-0.0273712,0.0329745,-0.0486907,-0.072978,-0.0870286,-0.0275645,-0
 .0536573,-0.016409,-0.0123698,-0.0061654,0.0339268,-0.0064354,0.072368
 8,-0.0310263,0.0812564,-0.0563248,-0.0727829,-0.0086726,-0.0387632,0.0
 207126,0.0266675,-0.0588166,0.0334486,-0.0669146,0.0753198,0.0487747,-
 0.1497353,-0.0087715,-0.0272154,0.0181876,0.0789384,0.0020371,-0.02679
 64,-0.0131742,0.1097481,0.1076777,0.0488718,-0.0425947,0.0026223,-0.04
 6297,0.0463223,-0.0286153,0.0881046,0.0151152,0.0921383,0.020742,0.086
 9174,-0.0007216,0.0599419,0.0005713,0.0654567,-0.0376572,-0.0377392\Po
 lar=87.278758,3.9534289,58.3734895,3.8058498,-0.1771787,56.7945137\Qua
 drupole=10.2542385,-3.9302977,-6.3239408,-0.7408563,-1.7997787,4.28421
 74\PG=C01 [X(C5H7O3)]\NImag=4\\0.21986830,-0.00526844,0.01482174,-0.26
 156605,0.01213439,0.29581316,-0.21796070,0.00764985,0.26108401,0.21853
 005,0.00303118,0.00494435,-0.00625825,-0.00557344,0.00028930,0.2604339
 2,-0.01103618,-0.29469895,-0.26043086,0.01012580,0.29438612,-0.0025765
 4,-0.01190969,-0.00054391,0.00035767,0.00067482,-0.00106608,1.53303393
 ,-0.00171767,-0.00672487,-0.00225888,-0.00068372,-0.00112790,0.0004285
 3,0.01260752,0.06690697,-0.00021232,-0.00298654,0.00002651,-0.00044036
 ,-0.00060280,-0.00017594,0.36371736,0.00639317,0.15161520,0.00014422,0
 .00026888,0.00003827,0.00000677,-0.00027697,-0.00012401,-0.40857021,-0
 .00271631,-0.09685773,0.39817305,0.00033918,0.00008564,0.00037499,-0.0
 0050622,0.00010663,-0.00048513,-0.00059014,-0.03256474,-0.00137090,0.0
 0261885,0.01865554,-0.00018186,-0.00002212,-0.00000266,-0.00015366,-0.
 00013597,-0.00010529,-0.09762797,-0.00199288,-0.05684537,0.09790428,0.
 00154140,0.04358278,0.00240451,0.00705190,0.00118568,-0.00074602,0.000
 70878,0.00010669,-1.12823439,-0.00960936,-0.26440335,0.01084746,-0.002
 15354,0.00165333,1.45606048,0.00017535,-0.00550745,-0.00299303,-0.0013
 2883,-0.00289649,0.00110226,0.00659654,-0.03711768,0.00006341,0.000047
 60,0.01095942,0.00123194,-0.02343655,0.08449695,0.00242280,0.00168953,
 -0.00015535,-0.00146298,-0.00273221,-0.00007606,-0.26446263,-0.0029035
 5,-0.10620110,0.00022059,0.00025076,0.00958042,0.32572417,-0.01530024,
 0.20664991,-0.00314359,0.00381120,-0.00154131,-0.00031453,0.00324207,0
 .00320439,0.01654389,0.00267325,-0.00150347,-0.00142106,0.00013548,-0.
 00160304,-0.26192459,0.00567866,-0.04616359,0.68475718,0.00148840,-0.0
 0720629,-0.00013364,-0.00001384,-0.00076214,-0.00021011,-0.00917886,0.
 01199254,-0.00093589,-0.00014561,0.00388684,-0.00042230,0.01916083,-0.
 08644637,0.00005047,-0.04200989,0.25781976,-0.00284875,0.00196320,-0.0
 0371682,0.00392892,-0.00159733,0.00173151,0.00040806,0.00205328,0.0107
 0610,-0.00093254,-0.00003239,0.00377157,-0.03814964,-0.00580925,-0.081
 95949,0.11177935,-0.21678040,0.99789186,0.00068250,-0.00044974,0.00078
 408,-0.00037756,-0.00085968,-0.00094262,-0.00528797,-0.00152944,0.0014
 3201,0.00008734,-0.00006809,0.00119215,-0.02299754,0.01885835,-0.05459
 616,-0.15966681,0.05982611,-0.21299172,0.16132256,0.00089918,-0.000065
 51,0.00053508,-0.00029078,0.00006625,0.00001405,0.00105052,-0.00138082
 ,-0.00033899,0.00011537,-0.00058037,-0.00029471,0.00989087,0.02014859,
 0.01520397,0.05712107,-0.11179028,0.18077690,-0.06550306,0.07613714,0.
 00127136,-0.00175219,0.00250103,-0.00168788,0.00058964,-0.00147718,-0.
 00019897,-0.00013111,0.00046549,-0.00006824,-0.00044561,0.00052052,-0.
 03621782,0.01604824,-0.02846170,-0.20269854,0.17983575,-0.70329814,0.2
 2624783,-0.22524200,0.82829631,-0.00033119,-0.00038071,0.00066472,0.00
 049991,-0.00130604,-0.00121198,-0.00649203,0.00032282,-0.00238238,0.00
 086174,0.00033530,-0.00106494,-0.05716422,-0.00414125,0.03648507,-0.21
 362782,-0.03209618,0.13552879,0.02434885,-0.00420621,0.02356440,0.5516
 8912,0.00136424,-0.00079405,-0.00129174,0.00072432,-0.00063332,0.00000
 978,0.00031028,0.00038440,-0.00026246,0.00006321,-0.00031672,0.0001262
 7,-0.00095190,0.01052850,0.00192035,-0.02168937,-0.07017155,0.04101082
 ,-0.00831262,0.02248030,0.03161986,0.02230896,0.09678619,0.00081032,-0
 .00028704,0.00033983,-0.00086006,0.00057836,0.00034622,-0.00090824,-0.
 00114023,0.00005453,-0.00017336,0.00018709,-0.00066036,0.00716984,0.00
 299761,0.00317909,0.09679052,0.04142932,-0.22862097,0.03368646,0.03105
 779,-0.09773863,-0.12034962,-0.08149036,0.40501410,0.00048621,-0.00078
 866,-0.00041372,0.00010156,0.00060856,0.00030537,0.00223488,0.00038011
 ,0.00112557,-0.00029314,-0.00008160,-0.00007457,0.00354642,-0.00278859
 ,-0.00050115,-0.06131383,-0.00285001,0.02619822,-0.00016210,0.00500115
 ,-0.01764253,-0.20083809,0.01068535,-0.01053979,0.48738035,-0.00032446
 ,0.00058972,-0.00016088,0.00002574,-0.00003230,0.00007848,0.00051309,-
 0.00052835,-0.00005108,0.00003847,-0.00022701,-0.00001587,-0.00055099,
 0.00644883,0.00211894,-0.00746569,0.00314174,-0.00689435,0.00222327,-0
 .00527327,0.00048935,0.01733275,-0.06586476,0.01063189,-0.02096826,0.5
 6643523,-0.00022868,0.00031829,-0.00007822,-0.00002896,0.00008903,0.00
 007612,0.00074961,-0.00046802,0.00050655,-0.00000361,-0.00001411,0.000
 17869,0.00371705,0.00265042,-0.00323686,0.04172312,-0.00392979,0.00627
 524,0.00174509,-0.00075303,-0.00256107,-0.04581273,0.00984920,-0.08738
 487,-0.06474503,-0.03885994,0.63542325,-0.00005333,0.00008144,-0.00004
 771,-0.00002381,-0.00013654,-0.00008137,-0.00033057,0.00008319,-0.0000
 9298,0.00010020,-0.00009703,-0.00003392,-0.00065648,0.00152337,0.00093
 954,0.00231089,-0.00045756,-0.00864638,0.00065210,-0.00166090,0.002659
 14,-0.03731225,-0.03626061,-0.01897633,-0.08352613,-0.02080572,-0.0077
 4518,0.58999381,0.00001076,-0.00016672,0.00006753,-0.00009447,0.000082
 81,0.00005515,0.00018617,0.00008989,0.00010060,-0.00002266,-0.00001864
 ,-0.00000766,-0.00018353,-0.00055566,-0.00029895,-0.00042815,-0.000299
 00,0.00386456,-0.00118501,-0.00040086,-0.00162643,-0.00031456,0.005675
 03,-0.00212849,-0.03270925,-0.18591068,-0.04967654,-0.03005544,0.53410
 309,-0.00013085,0.00006832,-0.00026331,0.00020777,-0.00012072,0.000047
 71,-0.00000608,-0.00004850,-0.00010124,-0.00000092,0.00000324,0.000008
 95,-0.00039725,0.00043895,0.00020617,0.00144874,0.00072860,0.00217663,
 -0.00124042,-0.00153019,-0.00034377,-0.00810762,-0.00508073,-0.0010133
 7,-0.01250235,-0.04865189,-0.11402124,-0.01608445,-0.03556866,0.583837
 08,-0.00001334,0.00000814,0.00002209,0.00000391,-0.00008874,-0.0000566
 7,-0.00057295,0.00006707,-0.00027023,0.00004645,0.00003880,-0.00002958
 ,-0.00112267,-0.00055301,0.00111832,-0.00427771,0.00347866,-0.00497777
 ,0.00159348,-0.00050167,0.00092495,-0.03564732,0.00173721,0.03436040,-
 0.08698081,0.01428629,0.09464231,0.00701971,-0.00204758,-0.01146877,0.
 11511101,0.00003874,0.00002168,0.00004522,-0.00002435,-0.00002568,-0.0
 0001208,-0.00002482,-0.00003203,0.00003021,0.00001134,0.00000180,0.000
 00052,0.00017188,0.00025273,-0.00009043,-0.00003538,-0.00058273,0.0025
 1180,-0.00158178,0.00058340,-0.00039131,0.00289884,0.00096746,-0.00277
 854,0.01405188,-0.05787803,-0.02714090,0.01109274,-0.00506317,-0.02949
 545,-0.01332659,0.05926893,0.00006124,-0.00005552,0.00004812,-0.000033
 83,0.00001656,-0.00001960,0.00000210,0.00016579,-0.00004254,-0.0000040
 6,-0.00001657,-0.00001697,-0.00000656,-0.00055590,0.00030882,-0.003368
 13,0.00049179,-0.00063246,0.00147118,-0.00034723,0.00074724,-0.0080950
 4,0.00204288,0.00827287,0.10903174,-0.02853792,-0.28607897,0.00461618,
 -0.00121114,-0.01178242,-0.10958687,0.03384839,0.30275213,-0.00003442,
 -0.00000137,0.00012139,-0.00004565,-0.00001466,-0.00004040,-0.00008844
 ,0.00012887,-0.00009362,0.00004471,0.00004191,0.00001067,-0.00007376,-
 0.00086123,0.00024006,0.00221849,0.00333571,-0.00890509,0.00079614,-0.
 00087354,0.00369133,-0.02922969,0.03072510,-0.02160881,-0.05545006,0.0
 2794420,-0.01661712,0.00426334,-0.01054226,0.00679125,0.00452068,-0.01
 158484,0.00738607,0.07318804,0.00001921,0.00003268,-0.00000589,0.00001
 487,-0.00004012,-0.00002872,-0.00016281,0.00006469,0.00001929,-0.00000
 370,0.00001296,0.00000812,0.00007575,-0.00032466,-0.00038318,-0.000365
 56,0.00015688,0.00354569,-0.00244039,0.00053150,-0.00106297,0.00342317
 ,0.00172903,0.00029701,0.03703529,-0.23023995,0.12423604,0.00291991,-0
 .02369034,0.01603802,-0.00132177,0.00486530,-0.00377014,-0.03740462,0.
 24843683,0.00000100,0.00008814,0.00001417,-0.00000515,-0.00006341,-0.0
 0000738,-0.00014684,-0.00017365,-0.00001324,0.00001485,0.00000222,-0.0
 0000059,-0.00037073,0.00075306,-0.00003603,0.00298582,-0.00014320,-0.0
 0005192,0.00122058,-0.00084603,-0.00059816,-0.00708614,0.00310744,-0.0
 0284171,-0.02525420,0.12750369,-0.14219798,0.00271857,-0.01613095,0.00
 970164,-0.00454679,0.02453482,-0.01492511,0.03084395,-0.13653300,0.150
 93518,-0.00013342,0.00006042,-0.00005360,0.00002432,-0.00003727,0.0000
 1014,-0.00010138,-0.00002938,-0.00000975,0.00003614,0.00000432,0.00000
 848,-0.00020714,0.00025948,0.00001504,0.00167689,0.00060726,-0.0012063
 8,-0.00013084,-0.00050274,0.00042318,-0.00026507,-0.00293499,-0.000319
 95,-0.01119832,0.00410883,0.00032168,-0.31830830,0.01317982,-0.0335739
 2,0.00030233,-0.00008520,-0.00038697,0.00014900,-0.00045945,0.00022389
 ,0.34811638,0.00012052,0.00009942,0.00007199,0.00000247,-0.00008292,-0
 .00007779,-0.00016977,-0.00001036,-0.00004693,0.00001492,-0.00001075,-
 0.00000967,-0.00013313,0.00049817,0.00031809,0.00078875,-0.00011510,-0
 .00267157,0.00030826,-0.00035242,0.00094628,-0.00553941,-0.00560333,-0
 .00243500,-0.02907471,0.00302218,-0.00235330,0.01565280,-0.05009732,0.
 00142930,0.00062432,0.00118571,-0.00001577,0.00057058,0.00048691,0.001
 12695,-0.01429758,0.05175999,0.00007712,0.00000636,0.00009728,-0.00006
 241,-0.00000573,-0.00002815,-0.00006060,0.00004003,0.00000302,0.000008
 87,-0.00000550,-0.00000387,-0.00007869,-0.00005324,0.00009679,0.000328
 75,-0.00000417,-0.00247197,0.00052102,0.00037436,0.00096165,-0.0034614
 0,-0.00367982,-0.00021695,-0.01503779,0.00263799,-0.00208217,-0.032140
 54,0.00076743,-0.05211434,0.00038030,0.00062913,-0.00017457,0.00023909
 ,0.00027946,0.00045760,0.03771166,0.00024663,0.05286427,0.00018192,0.0
 0005831,0.00003224,0.00005465,-0.00004888,-0.00006148,-0.00002749,0.00
 000283,-0.00000587,-0.00002757,-0.00000630,-0.00000250,0.00012382,0.00
 008304,-0.00001878,-0.00056982,-0.00071660,0.00155548,-0.00042727,0.00
 002609,-0.00073755,0.00205448,0.00092913,0.00046467,0.00122120,-0.0124
 2731,0.00551354,-0.06258337,0.04970187,-0.03367683,0.00006922,0.000850
 93,0.00022349,-0.00026000,-0.00215213,-0.00107436,-0.00634126,0.027651
 48,-0.01963643,0.06303449,0.00000267,0.00001338,-0.00000781,0.00004227
 ,-0.00001679,-0.00004529,-0.00007799,0.00003569,-0.00003922,-0.0000046
 6,-0.00000634,0.00000707,-0.00002848,-0.00002783,0.00002039,-0.0000213
 2,-0.00043843,0.00076078,-0.00019567,0.00018314,-0.00047787,0.00124289
 ,0.00325400,0.00032553,0.00677358,-0.02794131,0.01751718,0.04679449,-0
 .22140808,0.12423777,0.00023433,0.00111589,-0.00000678,-0.00199119,-0.
 00317809,-0.00356704,-0.00074105,-0.00019969,0.00011041,-0.05135591,0.
 24519553,-0.00013078,-0.00013524,-0.00010576,0.00001506,0.00012994,0.0
 0007663,0.00012399,0.00000113,-0.00000564,-0.00000114,0.00000097,0.000
 00618,-0.00000410,-0.00031596,0.00003417,-0.00054103,0.00050292,-0.000
 28173,0.00054995,0.00036273,0.00026436,0.00208276,0.00115874,0.0001826
 5,0.00245652,-0.01753896,0.00963287,-0.03409633,0.12722616,-0.14181220
 ,0.00056756,0.00051958,0.00094274,-0.00168402,-0.00302806,-0.00110226,
 0.00044564,0.00234447,-0.00259394,0.03855911,-0.13565062,0.15058944,0.
 00047888,-0.00019154,0.00023382,-0.00011058,0.00007681,-0.00004504,0.0
 0011160,0.00002024,-0.00000287,-0.00003611,-0.00001090,0.00000311,0.00
 014414,-0.00011295,0.00003969,-0.00124760,-0.00042843,-0.00074056,-0.0
 0043288,-0.00056534,0.00046933,0.00145361,0.00130168,0.00045395,0.0047
 9186,-0.00393020,-0.01323107,-0.10154579,0.01450430,0.10874171,-0.0000
 5199,-0.00245341,-0.00131055,0.00000161,0.00082222,0.00047555,-0.01361
 933,0.00348050,0.03121106,0.00349700,-0.00067396,-0.00834320,0.1065655
 8,-0.00017885,-0.00014373,-0.00011908,0.00005612,0.00012833,0.00008126
 ,0.00017512,0.00001258,0.00002812,-0.00000872,0.00001573,-0.00001415,-
 0.00001252,-0.00045704,0.00013604,-0.00143513,0.00081412,-0.00270174,0
 .00090952,-0.00028677,0.00160037,0.00011963,0.00157881,0.00275505,0.01
 472517,-0.00574204,-0.03146456,0.01132587,-0.05234034,-0.02244805,-0.0
 0263547,-0.00468125,-0.00204844,0.00052734,0.00115639,0.00034096,0.000
 86753,-0.00058049,-0.00134332,-0.01259654,0.00341894,0.02442221,-0.011
 83905,0.05710677,0.00022152,0.00000658,0.00018095,-0.00006961,-0.00001
 292,-0.00007576,0.00002020,0.00003488,0.00000768,-0.00002126,0.0000095
 3,-0.00001403,0.00007140,-0.00025828,0.00007123,-0.00084158,-0.0004793
 6,-0.00151945,0.00092056,0.00102731,0.00072205,-0.00075389,0.00095975,
 0.00108757,0.00759371,-0.00274944,-0.01445136,0.10701176,-0.02543261,-
 0.27452628,-0.00107925,-0.00221095,0.00060071,-0.00037474,0.00038835,0
 .00066578,-0.00360914,0.00112632,0.00520534,0.00886525,-0.00318450,-0.
 01582749,-0.11795492,0.03077533,0.29787306\\-0.01258742,-0.00750003,0.
 01076790,0.01121008,-0.00151452,-0.01290372,0.02154764,-0.00069141,0.0
 0554624,0.00078972,0.00015664,0.00015743,-0.02461415,0.01021952,-0.004
 47372,0.04363243,-0.00961660,0.03180227,-0.01826943,0.01212729,-0.0459
 8772,-0.00250187,-0.00236999,0.01434937,-0.01720764,0.00055608,0.00288
 496,-0.00035744,-0.00052704,-0.00019556,-0.00037849,0.00013368,0.00072
 435,-0.00055572,0.00115653,-0.00113541,-0.00140406,-0.00034909,-0.0004
 8443,0.00038240,-0.00104921,0.00048441,0.00031395,-0.00073185,-0.00153
 637\\\@


      HUMANKIND PERIODICALLY GOES THROUGH A SPEEDUP OF ITS AFFAIRS, 
      THEREBY EXPERIENCING THE RACE BETWEEN THE RENEWABLE VITALITY
      OF THE LIVING, AND THE BECKONING VITIATION OF DECADENCE.
      IN THIS PERIODIC RACE, ANY PAUSE BECOMES A LUXURY.
      ONLY THEN CAN ONE REFLECT THAT ALL IS PERMITTED;
      ALL IS POSSIBLE.

                              -- THE APOCRYPHA OF MUAD'DIB
                                 CHILDREN OF DUNE, BY FRANK HERBERT
 Job cpu time:       0 days  0 hours 20 minutes  3.5 seconds.
 Elapsed time:       0 days  0 hours  0 minutes 50.2 seconds.
 File lengths (MBytes):  RWF=     59 Int=      0 D2E=      0 Chk=      8 Scr=      1
 Normal termination of Gaussian 16 at Fri Jun 20 13:37:54 2025.
