 Entering Gaussian System, Link 0=g16
 Initial command:
 /opt/g16/l1.exe "/home/aayush/scratches/g16/Gau-49712.inp" -scrdir="/home/aayush/scratches/g16/"
 Entering Link 1 = /opt/g16/l1.exe PID=     49715.
  
 Copyright (c) 1988,1990,1992,1993,1995,1998,2003,2009,2016,
            Gaussian, Inc.  All Rights Reserved.
  
 This is part of the Gaussian(R) 16 program.  It is based on
 the Gaussian(R) 09 system (copyright 2009, Gaussian, Inc.),
 the Gaussian(R) 03 system (copyright 2003, Gaussian, Inc.),
 the Gaussian(R) 98 system (copyright 1998, Gaussian, Inc.),
 the Gaussian(R) 94 system (copyright 1995, Gaussian, Inc.),
 the Gaussian 92(TM) system (copyright 1992, Gaussian, Inc.),
 the Gaussian 90(TM) system (copyright 1990, Gaussian, Inc.),
 the Gaussian 88(TM) system (copyright 1988, Gaussian, Inc.),
 the Gaussian 86(TM) system (copyright 1986, Carnegie Mellon
 University), and the Gaussian 82(TM) system (copyright 1983,
 Carnegie Mellon University). Gaussian is a federally registered
 trademark of Gaussian, Inc.
  
 This software contains proprietary and confidential information,
 including trade secrets, belonging to Gaussian, Inc.
  
 This software is provided under written license and may be
 used, copied, transmitted, or stored only in accord with that
 written license.
  
 The following legend is applicable only to US Government
 contracts under FAR:
  
                    RESTRICTED RIGHTS LEGEND
  
 Use, reproduction and disclosure by the US Government is
 subject to restrictions as set forth in subparagraphs (a)
 and (c) of the Commercial Computer Software - Restricted
 Rights clause in FAR 52.227-19.
  
 Gaussian, Inc.
 340 Quinnipiac St., Bldg. 40, Wallingford CT 06492
  
  
 ---------------------------------------------------------------
 Warning -- This program may not be used in any manner that
 competes with the business of Gaussian, Inc. or will provide
 assistance to any competitor of Gaussian, Inc.  The licensee
 of this program is prohibited from giving any competitor of
 Gaussian, Inc. access to this program.  By using this program,
 the user acknowledges that Gaussian, Inc. is engaged in the
 business of creating and licensing software in the field of
 computational chemistry and represents and warrants to the
 licensee that it is not a competitor of Gaussian, Inc. and that
 it will not use this program in any manner prohibited above.
 ---------------------------------------------------------------
  

 Cite this work as:
 Gaussian 16, Revision A.03,
 M. J. Frisch, G. W. Trucks, H. B. Schlegel, G. E. Scuseria, 
 M. A. Robb, J. R. Cheeseman, G. Scalmani, V. Barone, 
 G. A. Petersson, H. Nakatsuji, X. Li, M. Caricato, A. V. Marenich, 
 J. Bloino, B. G. Janesko, R. Gomperts, B. Mennucci, H. P. Hratchian, 
 J. V. Ortiz, A. F. Izmaylov, J. L. Sonnenberg, D. Williams-Young, 
 F. Ding, F. Lipparini, F. Egidi, J. Goings, B. Peng, A. Petrone, 
 T. Henderson, D. Ranasinghe, V. G. Zakrzewski, J. Gao, N. Rega, 
 G. Zheng, W. Liang, M. Hada, M. Ehara, K. Toyota, R. Fukuda, 
 J. Hasegawa, M. Ishida, T. Nakajima, Y. Honda, O. Kitao, H. Nakai, 
 T. Vreven, K. Throssell, J. A. Montgomery, Jr., J. E. Peralta, 
 F. Ogliaro, M. J. Bearpark, J. J. Heyd, E. N. Brothers, K. N. Kudin, 
 V. N. Staroverov, T. A. Keith, R. Kobayashi, J. Normand, 
 K. Raghavachari, A. P. Rendell, J. C. Burant, S. S. Iyengar, 
 J. Tomasi, M. Cossi, J. M. Millam, M. Klene, C. Adamo, R. Cammi, 
 J. W. Ochterski, R. L. Martin, K. Morokuma, O. Farkas, 
 J. B. Foresman, and D. J. Fox, Gaussian, Inc., Wallingford CT, 2016.
 
 ******************************************
 Gaussian 16:  ES64L-G16RevA.03 25-Dec-2016
                20-Jun-2025 
 ******************************************
 %nprocshared=24
 Will use up to   24 processors via shared memory.
 %mem=12GB
 %chk=ethyl_propiolate_ts1.chk
 -------------------
 # freq 6-31+g m062x
 -------------------
 1/10=4,30=1,38=1/1,3;
 2/12=2,17=6,18=5,40=1/2;
 3/5=1,6=6,7=10,11=2,25=1,30=1,71=2,74=-55,140=1/1,2,3;
 4//1;
 5/5=2,38=5,98=1/2;
 8/6=4,10=90,11=11/1;
 11/6=1,8=1,9=11,15=111,16=1/1,2,10;
 10/6=1/2;
 6/7=2,8=2,9=2,10=2,28=1/1;
 7/8=1,10=1,25=1/1,2,3,16;
 1/10=4,30=1/3;
 99//99;
 -------------------
 Title Card Required
 -------------------
 Symbolic Z-matrix:
 Charge =  0 Multiplicity = 2
 O                    -1.3429    1.78025   0.10847 
 H                    -1.97777   1.83923   0.84109 
 C                    -2.7349   -0.46526  -0.45024 
 H                    -3.76448  -0.50162  -0.72033 
 C                    -1.56924  -0.39213  -0.16122 
 C                    -0.16672  -0.55613   0.2225 
 O                     0.17173  -0.8857    1.32456 
 O                     0.63785  -0.33676  -0.8098 
 C                     2.05156  -0.42225  -0.53853 
 C                     2.54202   0.84486   0.13257 
 H                     2.5012   -0.56164  -1.51991 
 H                     2.23808  -1.30306   0.07702 
 H                     3.624     0.79362   0.269 
 H                     2.30705   1.71396  -0.48316 
 H                     2.0748    0.96565   1.11018 
 

 GradGradGradGradGradGradGradGradGradGradGradGradGradGradGradGradGradGrad
 Berny optimization.
 Initialization pass.
 Trust Radius=3.00D-01 FncErr=1.00D-07 GrdErr=1.00D-07 EigMax=2.50D+02 EigMin=1.00D-04
 Number of steps in this run=      2 maximum allowed number of steps=      2.
 GradGradGradGradGradGradGradGradGradGradGradGradGradGradGradGradGradGrad

                          Input orientation:                          
 ---------------------------------------------------------------------
 Center     Atomic      Atomic             Coordinates (Angstroms)
 Number     Number       Type             X           Y           Z
 ---------------------------------------------------------------------
      1          8           0       -1.342897    1.780250    0.108472
      2          1           0       -1.977770    1.839232    0.841094
      3          6           0       -2.734895   -0.465263   -0.450243
      4          1           0       -3.764484   -0.501622   -0.720334
      5          6           0       -1.569243   -0.392127   -0.161222
      6          6           0       -0.166719   -0.556131    0.222501
      7          8           0        0.171725   -0.885696    1.324562
      8          8           0        0.637848   -0.336764   -0.809798
      9          6           0        2.051564   -0.422246   -0.538530
     10          6           0        2.542022    0.844861    0.132569
     11          1           0        2.501199   -0.561636   -1.519910
     12          1           0        2.238081   -1.303056    0.077019
     13          1           0        3.624002    0.793615    0.268995
     14          1           0        2.307050    1.713961   -0.483163
     15          1           0        2.074798    0.965646    1.110182
 ---------------------------------------------------------------------
                    Distance matrix (angstroms):
                    1          2          3          4          5
     1  O    0.000000
     2  H    0.971225   0.000000
     3  C    2.700398   2.747997   0.000000
     4  H    3.428986   3.333167   1.065047   0.000000
     5  C    2.200725   2.480019   1.203174   2.267968   0.000000
     6  C    2.618220   3.065995   2.656383   3.719653   1.463289
     7  O    3.298518   3.504184   3.431492   4.452286   2.341396
     8  O    3.041105   3.781780   3.394287   4.406326   2.301079
     9  C    4.097800   4.822155   4.787466   5.819430   3.640537
    10  C    3.996014   4.681805   5.468267   6.504804   4.303365
    11  H    4.786766   5.603541   5.345106   6.316780   4.294562
    12  H    4.725587   5.313303   5.070542   6.108097   3.922023
    13  H    5.066488   5.727169   6.522089   7.566118   5.344237
    14  H    3.698181   4.486539   5.492842   6.467502   4.423223
    15  H    3.653442   4.154379   5.255052   6.292923   4.091338
                    6          7          8          9         10
     6  C    0.000000
     7  O    1.199040   0.000000
     8  O    1.327061   2.252574   0.000000
     9  C    2.349015   2.686949   1.442042   0.000000
    10  C    3.050925   3.167646   2.431084   1.515415   0.000000
    11  H    3.186505   3.690865   2.006715   1.088443   2.170389
    12  H    2.522325   2.449567   2.069036   1.090649   2.170026
    13  H    4.024120   3.981523   3.370262   2.145455   1.091750
    14  H    3.430862   3.819123   2.664282   2.152143   1.090721
    15  H    2.850997   2.663665   2.728996   2.155234   1.090236
                   11         12         13         14         15
    11  H    0.000000
    12  H    1.780201   0.000000
    13  H    2.509497   2.520647   0.000000
    14  H    2.508163   3.069357   1.774018   0.000000
    15  H    3.071122   2.498219   1.771221   1.775574   0.000000
 Stoichiometry    C5H7O3(2)
 Framework group  C1[X(C5H7O3)]
 Deg. of freedom    39
 Full point group                 C1      NOp   1
 Largest Abelian subgroup         C1      NOp   1
 Largest concise Abelian subgroup C1      NOp   1
                         Standard orientation:                         
 ---------------------------------------------------------------------
 Center     Atomic      Atomic             Coordinates (Angstroms)
 Number     Number       Type             X           Y           Z
 ---------------------------------------------------------------------
      1          8           0       -1.397321    1.759779    0.084724
      2          1           0       -2.031256    1.831626    0.817009
      3          6           0       -2.793003   -0.492677   -0.435525
      4          1           0       -3.822955   -0.532047   -0.703803
      5          6           0       -1.626916   -0.416413   -0.149079
      6          6           0       -0.224167   -0.576028    0.235671
      7          8           0        0.115120   -0.887956    1.342596
      8          8           0        0.579488   -0.374706   -0.801005
      9          6           0        1.993404   -0.457668   -0.529995
     10          6           0        2.486357    0.819591    0.119689
     11          1           0        2.441702   -0.613734   -1.509474
     12          1           0        2.179450   -1.328530    0.099690
     13          1           0        3.568426    0.769105    0.255695
     14          1           0        2.251839    1.678807   -0.509931
     15          1           0        2.020440    0.957016    1.095727
 ---------------------------------------------------------------------
 Rotational constants (GHZ):           3.4851769           1.3065080           1.1744965
 Standard basis: 6-31+G (6D, 7F)
 There are   118 symmetry adapted cartesian basis functions of A   symmetry.
 There are   118 symmetry adapted basis functions of A   symmetry.
   118 basis functions,   236 primitive gaussians,   118 cartesian basis functions
    31 alpha electrons       30 beta electrons
       nuclear repulsion energy       360.3640874171 Hartrees.
 NAtoms=   15 NActive=   15 NUniq=   15 SFac= 1.00D+00 NAtFMM=   60 NAOKFM=F Big=F
 Integral buffers will be    131072 words long.
 Raffenetti 2 integral format.
 Two-electron integral symmetry is turned on.
 One-electron integrals computed using PRISM.
 NBasis=   118 RedAO= T EigKep=  2.00D-06  NBF=   118
 NBsUse=   118 1.00D-06 EigRej= -1.00D+00 NBFU=   118
 ExpMin= 4.38D-02 ExpMax= 5.48D+03 ExpMxC= 8.25D+02 IAcc=3 IRadAn=         5 AccDes= 0.00D+00
 Harris functional with IExCor= 1009 and IRadAn=       5 diagonalized for initial guess.
 HarFok:  IExCor= 1009 AccDes= 0.00D+00 IRadAn=         5 IDoV= 1 UseB2=F ITyADJ=14
 ICtDFT=  3500011 ScaDFX=  1.000000  1.000000  1.000000  1.000000
 FoFCou: FMM=F IPFlag=           0 FMFlag=      100000 FMFlg1=           0
         NFxFlg=           0 DoJE=T BraDBF=F KetDBF=T FulRan=T
         wScrn=  0.000000 ICntrl=       500 IOpCl=  0 I1Cent=   200000004 NGrid=           0
         NMat0=    1 NMatS0=      1 NMatT0=    0 NMatD0=    1 NMtDS0=    0 NMtDT0=    0
 Petite list used in FoFCou.
 Initial guess <Sx>= 0.0000 <Sy>= 0.0000 <Sz>= 0.5000 <S**2>= 0.7500 S= 0.5000
 Requested convergence on RMS density matrix=1.00D-08 within 128 cycles.
 Requested convergence on MAX density matrix=1.00D-06.
 Requested convergence on             energy=1.00D-06.
 No special actions if energy rises.
 Restarting incremental Fock formation.
 SCF Done:  E(UM062X) =  -419.958209842     A.U. after   24 cycles
            NFock= 24  Conv=0.46D-08     -V/T= 2.0049
 <Sx>= 0.0000 <Sy>= 0.0000 <Sz>= 0.5000 <S**2>= 0.7591 S= 0.5045
 <L.S>=  0.00000000000    
 Annihilation of the first spin contaminant:
 S**2 before annihilation     0.7591,   after     0.7500
 DoSCS=F DFT=T ScalE2(SS,OS)=  1.000000  1.000000
 Range of M.O.s used for correlation:     1   118
 NBasis=   118 NAE=    31 NBE=    30 NFC=     0 NFV=     0
 NROrb=    118 NOA=    31 NOB=    30 NVA=    87 NVB=    88

 **** Warning!!: The largest alpha MO coefficient is  0.21718932D+03


 **** Warning!!: The largest beta MO coefficient is  0.20021410D+03

 Symmetrizing basis deriv contribution to polar:
 IMax=3 JMax=2 DiffMx= 0.00D+00
 G2DrvN: will do    16 centers at a time, making    1 passes.
 Calling FoFCou, ICntrl=  3107 FMM=F I1Cent=   0 AccDes= 0.00D+00.
 End of G2Drv F.D. properties file   721 does not exist.
 End of G2Drv F.D. properties file   722 does not exist.
 End of G2Drv F.D. properties file   788 does not exist.
          IDoAtm=111111111111111
          Differentiating once with respect to electric field.
                with respect to dipole field.
          Differentiating once with respect to nuclear coordinates.
 Keep R1 and R2 ints in memory in canonical form, NReq=71861349.
          There are    48 degrees of freedom in the 1st order CPHF.  IDoFFX=6 NUNeed=     3.
     45 vectors produced by pass  0 Test12= 1.11D-14 2.08D-09 XBig12= 9.09D+01 3.35D+00.
 AX will form    45 AO Fock derivatives at one time.
     45 vectors produced by pass  1 Test12= 1.11D-14 2.08D-09 XBig12= 1.92D+01 5.86D-01.
     45 vectors produced by pass  2 Test12= 1.11D-14 2.08D-09 XBig12= 5.06D-01 1.15D-01.
     45 vectors produced by pass  3 Test12= 1.11D-14 2.08D-09 XBig12= 2.84D-03 7.17D-03.
     45 vectors produced by pass  4 Test12= 1.11D-14 2.08D-09 XBig12= 1.97D-05 7.55D-04.
     45 vectors produced by pass  5 Test12= 1.11D-14 2.08D-09 XBig12= 2.05D-07 5.54D-05.
     33 vectors produced by pass  6 Test12= 1.11D-14 2.08D-09 XBig12= 1.46D-09 4.36D-06.
     12 vectors produced by pass  7 Test12= 1.11D-14 2.08D-09 XBig12= 8.43D-12 2.35D-07.
      3 vectors produced by pass  8 Test12= 1.11D-14 2.08D-09 XBig12= 6.24D-14 2.53D-08.
      3 vectors produced by pass  9 Test12= 1.11D-14 2.08D-09 XBig12= 9.19D-16 4.38D-09.
      1 vectors produced by pass 10 Test12= 1.11D-14 2.08D-09 XBig12= 3.05D-16 3.02D-09.
 InvSVY:  IOpt=1 It=  1 EMax= 1.07D-14
 Solved reduced A of dimension   322 with    48 vectors.
 Isotropic polarizability for W=    0.000000       68.52 Bohr**3.
 End of Minotr F.D. properties file   721 does not exist.
 End of Minotr F.D. properties file   722 does not exist.
 End of Minotr F.D. properties file   788 does not exist.

 **********************************************************************

            Population analysis using the SCF density.

 **********************************************************************

 Orbital symmetries:
 Alpha Orbitals:
       Occupied  (A) (A) (A) (A) (A) (A) (A) (A) (A) (A) (A) (A)
                 (A) (A) (A) (A) (A) (A) (A) (A) (A) (A) (A) (A)
                 (A) (A) (A) (A) (A) (A) (A)
       Virtual   (A) (A) (A) (A) (A) (A) (A) (A) (A) (A) (A) (A)
                 (A) (A) (A) (A) (A) (A) (A) (A) (A) (A) (A) (A)
                 (A) (A) (A) (A) (A) (A) (A) (A) (A) (A) (A) (A)
                 (A) (A) (A) (A) (A) (A) (A) (A) (A) (A) (A) (A)
                 (A) (A) (A) (A) (A) (A) (A) (A) (A) (A) (A) (A)
                 (A) (A) (A) (A) (A) (A) (A) (A) (A) (A) (A) (A)
                 (A) (A) (A) (A) (A) (A) (A) (A) (A) (A) (A) (A)
                 (A) (A) (A)
 Beta  Orbitals:
       Occupied  (A) (A) (A) (A) (A) (A) (A) (A) (A) (A) (A) (A)
                 (A) (A) (A) (A) (A) (A) (A) (A) (A) (A) (A) (A)
                 (A) (A) (A) (A) (A) (A)
       Virtual   (A) (A) (A) (A) (A) (A) (A) (A) (A) (A) (A) (A)
                 (A) (A) (A) (A) (A) (A) (A) (A) (A) (A) (A) (A)
                 (A) (A) (A) (A) (A) (A) (A) (A) (A) (A) (A) (A)
                 (A) (A) (A) (A) (A) (A) (A) (A) (A) (A) (A) (A)
                 (A) (A) (A) (A) (A) (A) (A) (A) (A) (A) (A) (A)
                 (A) (A) (A) (A) (A) (A) (A) (A) (A) (A) (A) (A)
                 (A) (A) (A) (A) (A) (A) (A) (A) (A) (A) (A) (A)
                 (A) (A) (A) (A)
 The electronic state is 2-A.
 Alpha  occ. eigenvalues --  -19.70307 -19.69885 -19.66028 -10.72864 -10.61248
 Alpha  occ. eigenvalues --  -10.59736 -10.59285 -10.54114  -1.27816  -1.18467
 Alpha  occ. eigenvalues --   -1.14330  -0.91370  -0.87867  -0.78405  -0.71073
 Alpha  occ. eigenvalues --   -0.64425  -0.62075  -0.58484  -0.57102  -0.54393
 Alpha  occ. eigenvalues --   -0.53666  -0.50513  -0.48653  -0.46359  -0.44977
 Alpha  occ. eigenvalues --   -0.42168  -0.41659  -0.39466  -0.37974  -0.36720
 Alpha  occ. eigenvalues --   -0.35825
 Alpha virt. eigenvalues --   -0.01024   0.01985   0.02496   0.03664   0.03749
 Alpha virt. eigenvalues --    0.04468   0.05473   0.05885   0.07703   0.08256
 Alpha virt. eigenvalues --    0.08843   0.08930   0.10047   0.11855   0.12299
 Alpha virt. eigenvalues --    0.13503   0.14384   0.15640   0.16247   0.16534
 Alpha virt. eigenvalues --    0.17588   0.18815   0.19458   0.20261   0.21557
 Alpha virt. eigenvalues --    0.23268   0.24232   0.24869   0.26239   0.26493
 Alpha virt. eigenvalues --    0.29196   0.29728   0.30418   0.30568   0.32027
 Alpha virt. eigenvalues --    0.32697   0.33559   0.34936   0.35563   0.36931
 Alpha virt. eigenvalues --    0.38744   0.40084   0.40792   0.43108   0.44467
 Alpha virt. eigenvalues --    0.47675   0.58681   0.60173   0.69227   0.70286
 Alpha virt. eigenvalues --    0.72237   0.73430   0.74912   0.76623   0.77854
 Alpha virt. eigenvalues --    0.80945   0.85336   0.85794   0.88942   0.92076
 Alpha virt. eigenvalues --    0.94354   0.96593   1.00640   1.07891   1.10822
 Alpha virt. eigenvalues --    1.11923   1.12462   1.14021   1.17609   1.21347
 Alpha virt. eigenvalues --    1.23463   1.24487   1.28035   1.28544   1.33088
 Alpha virt. eigenvalues --    1.36534   1.38362   1.39587   1.44810   1.45533
 Alpha virt. eigenvalues --    1.47625   1.60951   1.66437   1.73379   1.82894
 Alpha virt. eigenvalues --    2.03128   2.05157
  Beta  occ. eigenvalues --  -19.70312 -19.68273 -19.66045 -10.72846 -10.61248
  Beta  occ. eigenvalues --  -10.59740 -10.59158 -10.54115  -1.27824  -1.18494
  Beta  occ. eigenvalues --   -1.07381  -0.91063  -0.87636  -0.78300  -0.70957
  Beta  occ. eigenvalues --   -0.64377  -0.61765  -0.58358  -0.56767  -0.53651
  Beta  occ. eigenvalues --   -0.51538  -0.49206  -0.46598  -0.45030  -0.41659
  Beta  occ. eigenvalues --   -0.39391  -0.39033  -0.38391  -0.38006  -0.36345
  Beta virt. eigenvalues --   -0.09257  -0.00372   0.02033   0.02511   0.03750
  Beta virt. eigenvalues --    0.03782   0.04668   0.05541   0.05955   0.07755
  Beta virt. eigenvalues --    0.08202   0.08931   0.09003   0.10134   0.11938
  Beta virt. eigenvalues --    0.12393   0.13722   0.14540   0.15638   0.16331
  Beta virt. eigenvalues --    0.16455   0.17917   0.18965   0.19778   0.20242
  Beta virt. eigenvalues --    0.21497   0.23349   0.24296   0.25034   0.26360
  Beta virt. eigenvalues --    0.26658   0.29292   0.29730   0.30472   0.30723
  Beta virt. eigenvalues --    0.32165   0.32705   0.33563   0.34838   0.35539
  Beta virt. eigenvalues --    0.36975   0.38780   0.40255   0.40599   0.43175
  Beta virt. eigenvalues --    0.44560   0.47701   0.58668   0.60277   0.69329
  Beta virt. eigenvalues --    0.70485   0.72513   0.73691   0.75052   0.77213
  Beta virt. eigenvalues --    0.77981   0.80969   0.85450   0.85779   0.88807
  Beta virt. eigenvalues --    0.92073   0.94731   0.96856   1.00908   1.07813
  Beta virt. eigenvalues --    1.10875   1.12097   1.13385   1.15662   1.17979
  Beta virt. eigenvalues --    1.21363   1.23776   1.26901   1.28177   1.29412
  Beta virt. eigenvalues --    1.33974   1.37146   1.39756   1.40315   1.45030
  Beta virt. eigenvalues --    1.45837   1.47713   1.61197   1.67106   1.73404
  Beta virt. eigenvalues --    1.84702   2.03218   2.05238
          Condensed to atoms (all electrons):
               1          2          3          4          5          6
     1  O    8.329184   0.139561  -0.104666   0.000617   0.588465  -0.505480
     2  H    0.139561   0.441304   0.094280  -0.000092  -0.042287  -0.038492
     3  C   -0.104666   0.094280  48.291583   0.558964 -16.200881 -25.804887
     4  H    0.000617  -0.000092   0.558964   0.346122  -0.195637  -0.044780
     5  C    0.588465  -0.042287 -16.200881  -0.195637  27.130513  -3.594490
     6  C   -0.505480  -0.038492 -25.804887  -0.044780  -3.594490  34.373862
     7  O   -0.011672  -0.000652   0.092829  -0.000137   0.261405  -0.177140
     8  O   -0.010672   0.000489  -0.442253  -0.000205  -0.935696   0.800279
     9  C   -0.023352  -0.000073  -0.529016  -0.000049  -0.887886   1.155458
    10  C    0.019058  -0.000252   0.159985  -0.000088   0.117767  -0.403063
    11  H    0.000011   0.000000  -0.006528   0.000000  -0.024782   0.043548
    12  H   -0.000005   0.000002   0.001450  -0.000000   0.013430  -0.020153
    13  H    0.000067   0.000000   0.000426   0.000000   0.004262   0.002163
    14  H   -0.000232   0.000003   0.005314   0.000000   0.018388  -0.019232
    15  H   -0.000186   0.000018  -0.000219  -0.000000  -0.012057   0.010143
               7          8          9         10         11         12
     1  O   -0.011672  -0.010672  -0.023352   0.019058   0.000011  -0.000005
     2  H   -0.000652   0.000489  -0.000073  -0.000252   0.000000   0.000002
     3  C    0.092829  -0.442253  -0.529016   0.159985  -0.006528   0.001450
     4  H   -0.000137  -0.000205  -0.000049  -0.000088   0.000000  -0.000000
     5  C    0.261405  -0.935696  -0.887886   0.117767  -0.024782   0.013430
     6  C   -0.177140   0.800279   1.155458  -0.403063   0.043548  -0.020153
     7  O    8.483970  -0.248961  -0.023678  -0.042807  -0.000425   0.003902
     8  O   -0.248961   9.057930   0.025293   0.027327  -0.073011  -0.033885
     9  C   -0.023678   0.025293   6.030764  -0.177101   0.431584   0.420433
    10  C   -0.042807   0.027327  -0.177101   5.791353  -0.057353  -0.075878
    11  H   -0.000425  -0.073011   0.431584  -0.057353   0.502072  -0.032914
    12  H    0.003902  -0.033885   0.420433  -0.075878  -0.032914   0.492844
    13  H   -0.000140   0.007593  -0.073092   0.398734  -0.000833  -0.000666
    14  H   -0.000212  -0.000769  -0.055686   0.396576  -0.004520   0.003763
    15  H    0.001230  -0.009881  -0.046962   0.404769   0.003566  -0.004680
              13         14         15
     1  O    0.000067  -0.000232  -0.000186
     2  H    0.000000   0.000003   0.000018
     3  C    0.000426   0.005314  -0.000219
     4  H    0.000000   0.000000  -0.000000
     5  C    0.004262   0.018388  -0.012057
     6  C    0.002163  -0.019232   0.010143
     7  O   -0.000140  -0.000212   0.001230
     8  O    0.007593  -0.000769  -0.009881
     9  C   -0.073092  -0.055686  -0.046962
    10  C    0.398734   0.396576   0.404769
    11  H   -0.000833  -0.004520   0.003566
    12  H   -0.000666   0.003763  -0.004680
    13  H    0.506125  -0.025341  -0.023900
    14  H   -0.025341   0.480443  -0.026132
    15  H   -0.023900  -0.026132   0.467861
          Atomic-Atomic Spin Densities.
               1          2          3          4          5          6
     1  O    1.000213   0.002087  -0.162283  -0.000565  -0.035012   0.101725
     2  H    0.002087  -0.035700   0.001826   0.000031  -0.002130   0.000415
     3  C   -0.162283   0.001826  -0.635645  -0.003467   0.311352   0.618819
     4  H   -0.000565   0.000031  -0.003467  -0.005558   0.002580  -0.000384
     5  C   -0.035012  -0.002130   0.311352   0.002580  -0.452995   0.114194
     6  C    0.101725   0.000415   0.618819  -0.000384   0.114194  -0.769550
     7  O    0.001266   0.000037   0.005461   0.000000   0.002675  -0.006966
     8  O   -0.000148   0.000132   0.004643   0.000007   0.001353  -0.000227
     9  C    0.001911   0.000213   0.002556  -0.000001  -0.001618  -0.005277
    10  C   -0.002401  -0.000047  -0.003341   0.000004  -0.002202   0.010983
    11  H    0.000010  -0.000000   0.000088  -0.000000   0.000207  -0.000283
    12  H    0.000007  -0.000000   0.000202   0.000000   0.000469  -0.000556
    13  H   -0.000003  -0.000000  -0.000039   0.000000  -0.000168   0.000166
    14  H   -0.000030  -0.000000   0.000136  -0.000000   0.000213  -0.000162
    15  H   -0.000036  -0.000002  -0.000322   0.000000  -0.001568   0.002443
               7          8          9         10         11         12
     1  O    0.001266  -0.000148   0.001911  -0.002401   0.000010   0.000007
     2  H    0.000037   0.000132   0.000213  -0.000047  -0.000000  -0.000000
     3  C    0.005461   0.004643   0.002556  -0.003341   0.000088   0.000202
     4  H    0.000000   0.000007  -0.000001   0.000004  -0.000000   0.000000
     5  C    0.002675   0.001353  -0.001618  -0.002202   0.000207   0.000469
     6  C   -0.006966  -0.000227  -0.005277   0.010983  -0.000283  -0.000556
     7  O   -0.010113  -0.000123   0.000584  -0.000169   0.000005  -0.000030
     8  O   -0.000123  -0.004755  -0.001157   0.000035   0.000083  -0.000002
     9  C    0.000584  -0.001157   0.008030  -0.006040  -0.000094  -0.000139
    10  C   -0.000169   0.000035  -0.006040   0.003520   0.000037   0.000034
    11  H    0.000005   0.000083  -0.000094   0.000037  -0.000063  -0.000001
    12  H   -0.000030  -0.000002  -0.000139   0.000034  -0.000001  -0.000055
    13  H    0.000001  -0.000025   0.000079   0.000044   0.000000  -0.000002
    14  H   -0.000018  -0.000041  -0.000111   0.000009  -0.000001  -0.000002
    15  H   -0.000087  -0.000209   0.000125  -0.000316   0.000000  -0.000001
              13         14         15
     1  O   -0.000003  -0.000030  -0.000036
     2  H   -0.000000  -0.000000  -0.000002
     3  C   -0.000039   0.000136  -0.000322
     4  H    0.000000  -0.000000   0.000000
     5  C   -0.000168   0.000213  -0.001568
     6  C    0.000166  -0.000162   0.002443
     7  O    0.000001  -0.000018  -0.000087
     8  O   -0.000025  -0.000041  -0.000209
     9  C    0.000079  -0.000111   0.000125
    10  C    0.000044   0.000009  -0.000316
    11  H    0.000000  -0.000001   0.000000
    12  H   -0.000002  -0.000002  -0.000001
    13  H   -0.000080  -0.000004   0.000003
    14  H   -0.000004  -0.000025  -0.000020
    15  H    0.000003  -0.000020  -0.000076
 Mulliken charges and spin densities:
               1          2
     1  O   -0.420698   0.906740
     2  H    0.406190  -0.033137
     3  C   -0.116380   0.139986
     4  H    0.335286  -0.007352
     5  C   -0.240514  -0.062649
     6  C    0.222264   0.065342
     7  O   -0.337514  -0.007478
     8  O   -0.163580  -0.000433
     9  C   -0.246637  -0.000937
    10  C   -0.559026   0.000150
    11  H    0.219585  -0.000013
    12  H    0.232358  -0.000075
    13  H    0.204601  -0.000026
    14  H    0.227635  -0.000054
    15  H    0.236430  -0.000064
 Sum of Mulliken charges =  -0.00000   1.00000
 Mulliken charges and spin densities with hydrogens summed into heavy atoms:
               1          2
     1  O   -0.014507   0.873603
     3  C    0.218906   0.132634
     5  C   -0.240514  -0.062649
     6  C    0.222264   0.065342
     7  O   -0.337514  -0.007478
     8  O   -0.163580  -0.000433
     9  C    0.205306  -0.001025
    10  C    0.109640   0.000007
 APT charges:
               1
     1  O   -0.200145
     2  H    0.259026
     3  C   -0.224989
     4  H    0.254470
     5  C   -0.362239
     6  C    1.446373
     7  O   -0.754391
     8  O   -0.929936
     9  C    0.502347
    10  C   -0.058302
    11  H   -0.003781
    12  H   -0.005538
    13  H    0.013736
    14  H    0.025960
    15  H    0.037410
 Sum of APT charges =   0.00000
 APT charges with hydrogens summed into heavy atoms:
               1
     1  O    0.058880
     3  C    0.029480
     5  C   -0.362239
     6  C    1.446373
     7  O   -0.754391
     8  O   -0.929936
     9  C    0.493028
    10  C    0.018804
 Electronic spatial extent (au):  <R**2>=           1074.9474
 Charge=             -0.0000 electrons
 Dipole moment (field-independent basis, Debye):
    X=             -0.7896    Y=              0.1605    Z=             -0.3823  Tot=              0.8918
 Quadrupole moment (field-independent basis, Debye-Ang):
   XX=            -29.7937   YY=            -48.8546   ZZ=            -52.4430
   XY=             -0.7838   XZ=             -2.3133   YZ=              5.6915
 Traceless Quadrupole moment (field-independent basis, Debye-Ang):
   XX=             13.9034   YY=             -5.1575   ZZ=             -8.7459
   XY=             -0.7838   XZ=             -2.3133   YZ=              5.6915
 Octapole moment (field-independent basis, Debye-Ang**2):
  XXX=            -34.7933  YYY=              4.3922  ZZZ=             -2.2883  XYY=              0.2865
  XXY=              0.3614  XXZ=             -5.3615  XZZ=             -0.3183  YZZ=              7.9234
  YYZ=              4.5241  XYZ=             -7.0907
 Hexadecapole moment (field-independent basis, Debye-Ang**3):
 XXXX=           -748.6232 YYYY=           -274.6945 ZZZZ=           -179.3866 XXXY=             -9.7066
 XXXZ=             18.1509 YYYX=            -22.0980 YYYZ=             12.7027 ZZZX=            -10.3778
 ZZZY=              8.6383 XXYY=           -202.0063 XXZZ=           -182.8449 YYZZ=            -75.2497
 XXYZ=             20.6819 YYXZ=            -15.0199 ZZXY=             -8.8280
 N-N= 3.603640874171D+02 E-N=-1.703623838147D+03  KE= 4.178975870554D+02
  Exact polarizability:  87.218   5.048  61.436   3.818   0.497  56.892
 Approx polarizability:  92.941   4.809  60.589   7.528  -3.134  71.392
                          Isotropic Fermi Contact Couplings
        Atom                 a.u.       MegaHertz       Gauss      10(-4) cm-1
     1  O(17)              0.13134     -79.61738     -28.40946     -26.55750
     2  H(1)              -0.01563     -69.87364     -24.93265     -23.30734
     3  C(13)              0.02174      24.43515       8.71907       8.15069
     4  H(1)              -0.00308     -13.76191      -4.91059      -4.59048
     5  C(13)              0.00930      10.44992       3.72879       3.48572
     6  C(13)              0.00822       9.23787       3.29630       3.08142
     7  O(17)             -0.00209       1.26837       0.45258       0.42308
     8  O(17)             -0.00053       0.31962       0.11405       0.10661
     9  C(13)              0.00000       0.00166       0.00059       0.00055
    10  C(13)             -0.00031      -0.34997      -0.12488      -0.11674
    11  H(1)               0.00001       0.02936       0.01048       0.00979
    12  H(1)              -0.00004      -0.18950      -0.06762      -0.06321
    13  H(1)              -0.00000      -0.00310      -0.00111      -0.00104
    14  H(1)               0.00000       0.00621       0.00222       0.00207
    15  H(1)              -0.00000      -0.00281      -0.00100      -0.00094
 --------------------------------------------------------
       Center         ----  Spin Dipole Couplings  ----
                      3XX-RR        3YY-RR        3ZZ-RR
 --------------------------------------------------------
     1   Atom       -1.014321      2.431999     -1.417678
     2   Atom        0.009260     -0.059359      0.050099
     3   Atom       -0.108045      0.189483     -0.081438
     4   Atom        0.016573     -0.002974     -0.013598
     5   Atom        0.019165      0.014686     -0.033851
     6   Atom        0.002439      0.012117     -0.014556
     7   Atom        0.019682     -0.028474      0.008791
     8   Atom        0.005550     -0.006230      0.000681
     9   Atom        0.002445     -0.000461     -0.001984
    10   Atom        0.003712     -0.001693     -0.002018
    11   Atom        0.001235     -0.000378     -0.000857
    12   Atom        0.001057      0.000273     -0.001330
    13   Atom        0.001896     -0.000874     -0.001023
    14   Atom        0.004954     -0.002516     -0.002437
    15   Atom        0.004211     -0.002114     -0.002097
 --------------------------------------------------------
                        XY            XZ            YZ
 --------------------------------------------------------
     1   Atom        1.556951      0.362116      0.922182
     2   Atom        0.005230     -0.133572      0.032383
     3   Atom        0.017861     -0.005468      0.023824
     4   Atom        0.005647      0.008731      0.002364
     5   Atom       -0.002471      0.014036      0.006769
     6   Atom       -0.015687      0.003230     -0.001523
     7   Atom       -0.023308     -0.003252     -0.016063
     8   Atom       -0.007790     -0.004273      0.003027
     9   Atom       -0.002689     -0.000567      0.000407
    10   Atom       -0.001563      0.000110      0.000005
    11   Atom       -0.001362     -0.000933      0.000572
    12   Atom       -0.001758      0.000103     -0.000041
    13   Atom       -0.000575      0.000128     -0.000008
    14   Atom       -0.000288     -0.001224      0.000124
    15   Atom       -0.001716      0.002129     -0.000477
 --------------------------------------------------------


 ---------------------------------------------------------------------------------
              Anisotropic Spin Dipole Couplings in Principal Axis System
 ---------------------------------------------------------------------------------

       Atom             a.u.   MegaHertz   Gauss  10(-4) cm-1        Axes

              Baa    -1.6308   118.005    42.107    39.362 -0.4016 -0.0536  0.9143
     1 O(17)  Bbb    -1.6110   116.573    41.596    38.884  0.8457 -0.4050  0.3477
              Bcc     3.2418  -234.578   -83.703   -78.247  0.3516  0.9128  0.2080
 
              Baa    -0.1167   -62.272   -22.220   -20.772  0.6716 -0.4098  0.6173
     2 H(1)   Bbb    -0.0501   -26.727    -9.537    -8.915  0.3699  0.9073  0.1999
              Bcc     0.1668    88.999    31.757    29.687 -0.6420  0.0941  0.7609
 
              Baa    -0.1108   -14.872    -5.307    -4.961  0.9672 -0.0767  0.2421
     3 C(13)  Bbb    -0.0817   -10.967    -3.913    -3.658 -0.2474 -0.0686  0.9665
              Bcc     0.1926    25.840     9.220     8.619  0.0575  0.9947  0.0853
 
              Baa    -0.0160    -8.536    -3.046    -2.847 -0.2473 -0.0682  0.9665
     4 H(1)   Bbb    -0.0045    -2.395    -0.855    -0.799 -0.2597  0.9657  0.0018
              Bcc     0.0205    10.931     3.901     3.646  0.9335  0.2506  0.2565
 
              Baa    -0.0383    -5.140    -1.834    -1.715 -0.2405 -0.1340  0.9613
     5 C(13)  Bbb     0.0156     2.090     0.746     0.697  0.0714  0.9853  0.1552
              Bcc     0.0227     3.051     1.089     1.018  0.9680 -0.1060  0.2274
 
              Baa    -0.0153    -2.050    -0.732    -0.684 -0.2595 -0.0952  0.9610
     6 C(13)  Bbb    -0.0087    -1.164    -0.415    -0.388  0.7605  0.5932  0.2641
              Bcc     0.0240     3.214     1.147     1.072 -0.5952  0.7994 -0.0815
 
              Baa    -0.0429     3.107     1.109     1.036  0.3465  0.8894  0.2980
     7 O(17)  Bbb     0.0133    -0.961    -0.343    -0.321 -0.2763 -0.2068  0.9386
              Bcc     0.0296    -2.145    -0.766    -0.716  0.8964 -0.4076  0.1741
 
              Baa    -0.0102     0.736     0.263     0.246  0.4238  0.9018 -0.0846
     8 O(17)  Bbb    -0.0017     0.120     0.043     0.040  0.4157 -0.1106  0.9028
              Bcc     0.0118    -0.856    -0.306    -0.286  0.8048 -0.4177 -0.4217
 
              Baa    -0.0021    -0.285    -0.102    -0.095 -0.2968 -0.6513  0.6983
     9 C(13)  Bbb    -0.0020    -0.269    -0.096    -0.090  0.4296  0.5620  0.7068
              Bcc     0.0041     0.554     0.198     0.185  0.8529 -0.5098 -0.1130
 
              Baa    -0.0021    -0.285    -0.102    -0.095  0.2516  0.9177 -0.3074
    10 C(13)  Bbb    -0.0020    -0.270    -0.096    -0.090  0.0640  0.3011  0.9514
              Bcc     0.0041     0.555     0.198     0.185  0.9657 -0.2590  0.0171
 
              Baa    -0.0012    -0.661    -0.236    -0.221  0.0796 -0.4609  0.8839
    11 H(1)   Bbb    -0.0011    -0.609    -0.217    -0.203  0.5647  0.7515  0.3411
              Bcc     0.0024     1.270     0.453     0.424  0.8215 -0.4720 -0.3201
 
              Baa    -0.0013    -0.714    -0.255    -0.238 -0.1215 -0.1077  0.9867
    12 H(1)   Bbb    -0.0011    -0.604    -0.215    -0.201  0.6137  0.7732  0.1600
              Bcc     0.0025     1.318     0.470     0.439  0.7801 -0.6250  0.0279
 
              Baa    -0.0010    -0.552    -0.197    -0.184 -0.1076 -0.3410  0.9339
    13 H(1)   Bbb    -0.0010    -0.524    -0.187    -0.175  0.1681  0.9196  0.3552
              Bcc     0.0020     1.076     0.384     0.359  0.9799 -0.1952  0.0417
 
              Baa    -0.0027    -1.427    -0.509    -0.476  0.1236 -0.4611  0.8787
    14 H(1)   Bbb    -0.0025    -1.328    -0.474    -0.443  0.1084  0.8864  0.4500
              Bcc     0.0052     2.755     0.983     0.919  0.9864 -0.0396 -0.1595
 
              Baa    -0.0028    -1.472    -0.525    -0.491 -0.3304 -0.1965  0.9232
    15 H(1)   Bbb    -0.0025    -1.351    -0.482    -0.451  0.1602  0.9522  0.2600
              Bcc     0.0053     2.823     1.007     0.942  0.9301 -0.2338  0.2832
 

 ---------------------------------------------------------------------------------

 Calling FoFJK, ICntrl=    100127 FMM=F ISym2X=0 I1Cent= 0 IOpClX= 1 NMat=1 NMatS=1 NMatT=0.
 Full mass-weighted force constant matrix:
 Low frequencies --- -458.7648 -148.0469 -133.8963  -85.1756  -65.8714  -53.1447
 Low frequencies ---   -0.0007    0.0004    0.0010
 ******    4 imaginary frequencies (negative Signs) ****** 
 Diagonal vibrational polarizability:
       60.4278115     117.6978074      39.4067622
 Harmonic frequencies (cm**-1), IR intensities (KM/Mole), Raman scattering
 activities (A**4/AMU), depolarization ratios for plane and unpolarized
 incident light, reduced masses (AMU), force constants (mDyne/A),
 and normal coordinates:
                      1                      2                      3
                      A                      A                      A
 Frequencies --   -457.9120              -142.4456               -72.0893
 Red. masses --      1.0901                 4.3413                 4.2927
 Frc consts  --      0.1347                 0.0519                 0.0131
 IR Inten    --    120.5586                16.1007                11.1959
  Atom  AN      X      Y      Z        X      Y      Z        X      Y      Z
     1   8    -0.05   0.02  -0.04    -0.07   0.14   0.26     0.29  -0.07   0.02
     2   1     0.70  -0.28   0.65    -0.39  -0.69   0.06     0.34   0.18   0.04
     3   6     0.00   0.01  -0.00     0.03   0.02  -0.12    -0.03   0.14   0.00
     4   1     0.00   0.04  -0.00     0.03   0.11  -0.14    -0.04   0.32   0.02
     5   6     0.00  -0.01  -0.01     0.03  -0.14  -0.11    -0.02  -0.10  -0.01
     6   6    -0.00  -0.00  -0.01     0.01  -0.03  -0.04    -0.01  -0.11  -0.02
     7   8    -0.00   0.01   0.00    -0.01   0.23   0.04     0.00   0.00   0.01
     8   8     0.00  -0.01   0.00     0.04  -0.15  -0.04    -0.02  -0.16  -0.04
     9   6     0.00  -0.00   0.01     0.03  -0.08   0.02    -0.01   0.08   0.02
    10   6     0.00  -0.00   0.00    -0.01  -0.01  -0.08    -0.24   0.18   0.01
    11   1     0.01  -0.00   0.01     0.07  -0.15   0.04     0.05   0.13   0.04
    12   1     0.00  -0.00   0.01     0.04  -0.01   0.10     0.11   0.13   0.05
    13   1     0.00   0.00   0.00    -0.01   0.02  -0.06    -0.24   0.35   0.06
    14   1    -0.00  -0.00   0.00    -0.01  -0.07  -0.16    -0.35   0.12  -0.02
    15   1     0.00  -0.00   0.01    -0.04   0.07  -0.10    -0.31   0.13  -0.01
                      4                      5                      6
                      A                      A                      A
 Frequencies --    -14.1523                76.3283                88.0482
 Red. masses --      2.5572                 4.1872                 3.7379
 Frc consts  --      0.0003                 0.0144                 0.0171
 IR Inten    --      0.2850                 1.9211                 4.9630
  Atom  AN      X      Y      Z        X      Y      Z        X      Y      Z
     1   8     0.01  -0.01  -0.04    -0.14   0.20  -0.12    -0.08   0.15  -0.08
     2   1     0.01   0.05  -0.04    -0.27  -0.17  -0.20    -0.22  -0.21  -0.17
     3   6    -0.00  -0.04   0.04     0.07   0.19  -0.09    -0.08   0.04   0.31
     4   1    -0.01  -0.06   0.06     0.11   0.41  -0.26    -0.16   0.10   0.62
     5   6    -0.00  -0.03   0.01     0.03  -0.14   0.11     0.03  -0.07  -0.10
     6   6     0.02   0.03  -0.02     0.03  -0.12   0.10     0.03  -0.05  -0.13
     7   8     0.08   0.18  -0.00     0.12  -0.16   0.07    -0.03  -0.06  -0.11
     8   8    -0.03  -0.03  -0.07    -0.04  -0.04   0.06     0.10  -0.04  -0.07
     9   6    -0.02   0.01  -0.11    -0.01   0.04  -0.07     0.08  -0.01   0.07
    10   6    -0.06  -0.12   0.20    -0.04   0.01  -0.00    -0.02   0.02   0.10
    11   1    -0.03   0.29  -0.16    -0.09   0.16  -0.12     0.18  -0.02   0.12
    12   1     0.06  -0.13  -0.34     0.11  -0.01  -0.17     0.02   0.01   0.11
    13   1    -0.03  -0.06   0.01     0.00   0.14  -0.26    -0.05  -0.00   0.32
    14   1    -0.24   0.04   0.49    -0.29   0.06   0.16     0.12  -0.01   0.01
    15   1     0.08  -0.46   0.31     0.17  -0.18   0.12    -0.22   0.08  -0.00
                      7                      8                      9
                      A                      A                      A
 Frequencies --    150.5520               173.7350               192.6994
 Red. masses --      6.8561                 1.2836                 4.7507
 Frc consts  --      0.0916                 0.0228                 0.1039
 IR Inten    --      1.6283                 1.5166                 2.9521
  Atom  AN      X      Y      Z        X      Y      Z        X      Y      Z
     1   8     0.31   0.28  -0.04     0.00   0.01  -0.01     0.04   0.24   0.03
     2   1     0.15  -0.46  -0.10     0.01   0.02  -0.00     0.03   0.01   0.05
     3   6    -0.08  -0.27  -0.01     0.02   0.00  -0.03     0.10  -0.24  -0.04
     4   1    -0.09  -0.32   0.03     0.03   0.03  -0.10     0.14  -0.62  -0.12
     5   6    -0.09  -0.30  -0.04    -0.00  -0.04   0.05     0.05   0.29   0.07
     6   6    -0.08  -0.04   0.02     0.01  -0.00   0.02     0.03   0.07   0.03
     7   8    -0.07  -0.02   0.02     0.09   0.02  -0.00     0.01  -0.12  -0.02
     8   8    -0.08   0.20   0.06    -0.04   0.02  -0.02     0.00  -0.13  -0.03
     9   6    -0.08   0.07  -0.01    -0.04   0.00  -0.03     0.00  -0.06  -0.01
    10   6     0.11  -0.01  -0.00    -0.03  -0.03   0.03    -0.20   0.01   0.00
    11   1    -0.15   0.06  -0.04    -0.03   0.02  -0.02     0.04  -0.02  -0.00
    12   1    -0.13   0.04  -0.05    -0.06  -0.01  -0.04     0.06  -0.05  -0.01
    13   1     0.12  -0.11  -0.16    -0.11  -0.28   0.56    -0.21   0.18   0.08
    14   1     0.10   0.05   0.08     0.48  -0.04  -0.18    -0.30  -0.04  -0.03
    15   1     0.26  -0.02   0.07    -0.46   0.20  -0.21    -0.29  -0.05  -0.03
                     10                     11                     12
                      A                      A                      A
 Frequencies --    305.3437               342.5230               424.5639
 Red. masses --      2.6375                 1.3929                 3.4845
 Frc consts  --      0.1449                 0.0963                 0.3701
 IR Inten    --     17.8113               106.1944                 2.6378
  Atom  AN      X      Y      Z        X      Y      Z        X      Y      Z
     1   8    -0.01   0.03   0.02    -0.05   0.07   0.04    -0.01  -0.01   0.01
     2   1     0.07   0.37   0.06     0.16   0.94   0.15     0.07   0.33   0.05
     3   6    -0.01  -0.01  -0.03    -0.02  -0.04  -0.02     0.09   0.01   0.03
     4   1     0.00   0.02  -0.10    -0.02  -0.03  -0.01     0.05   0.10   0.16
     5   6    -0.03  -0.07   0.05    -0.02  -0.07  -0.02     0.12  -0.11  -0.11
     6   6    -0.01   0.02  -0.05    -0.01  -0.04  -0.01     0.06   0.04   0.03
     7   8     0.18   0.02  -0.11    -0.04   0.01   0.01    -0.08   0.01   0.07
     8   8    -0.03   0.08  -0.07     0.02  -0.06   0.00     0.06   0.21   0.08
     9   6    -0.07  -0.10   0.19     0.03   0.03  -0.02     0.04  -0.14  -0.08
    10   6    -0.05  -0.02   0.01     0.05   0.01  -0.00    -0.19  -0.10  -0.07
    11   1     0.09  -0.37   0.31     0.01   0.07  -0.04    -0.02  -0.14  -0.11
    12   1    -0.32   0.02   0.41     0.10   0.02  -0.06    -0.05  -0.17  -0.10
    13   1    -0.01   0.12  -0.24     0.05  -0.04   0.02    -0.20   0.26   0.10
    14   1    -0.29  -0.10  -0.01     0.11   0.04   0.00    -0.40  -0.20  -0.13
    15   1     0.15   0.01   0.10     0.05   0.02  -0.01    -0.40  -0.21  -0.15
                     13                     14                     15
                      A                      A                      A
 Frequencies --    572.5433               621.9825               747.7318
 Red. masses --      4.2385                 5.4505                 8.9599
 Frc consts  --      0.8186                 1.2424                 2.9515
 IR Inten    --      3.1564                12.9420                55.8884
  Atom  AN      X      Y      Z        X      Y      Z        X      Y      Z
     1   8     0.01   0.00  -0.00     0.00  -0.01  -0.01     0.00  -0.03   0.01
     2   1    -0.02  -0.14  -0.01    -0.03  -0.05  -0.03     0.03   0.03   0.03
     3   6    -0.24  -0.00  -0.06     0.17  -0.01   0.06     0.02   0.03  -0.05
     4   1    -0.17   0.00  -0.34     0.33   0.26  -0.58    -0.10   0.25   0.40
     5   6    -0.26  -0.02   0.18     0.06  -0.11   0.40     0.02  -0.29  -0.03
     6   6    -0.03   0.07  -0.02     0.04   0.02  -0.12     0.03   0.72   0.16
     7   8     0.04   0.01  -0.06    -0.29   0.03  -0.03    -0.03  -0.17  -0.07
     8   8     0.15   0.03   0.08     0.02   0.04  -0.20    -0.01  -0.18  -0.04
     9   6     0.26  -0.09  -0.05     0.03   0.01  -0.01    -0.03   0.00   0.01
    10   6     0.01  -0.01  -0.01     0.01   0.01   0.01    -0.00   0.01   0.01
    11   1     0.12   0.06  -0.14     0.20  -0.14   0.09    -0.03   0.11  -0.01
    12   1     0.35  -0.16  -0.17    -0.16   0.06   0.12     0.08  -0.02  -0.05
    13   1    -0.01   0.39   0.20     0.01   0.01   0.01    -0.00  -0.12  -0.05
    14   1    -0.21  -0.12  -0.09     0.00   0.04   0.06     0.09   0.03   0.00
    15   1    -0.25  -0.12  -0.12     0.02  -0.05   0.03     0.10   0.08   0.05
                     16                     17                     18
                      A                      A                      A
 Frequencies --    756.8425               792.5825               818.1755
 Red. masses --      1.3333                 1.3681                 1.2755
 Frc consts  --      0.4500                 0.5064                 0.5030
 IR Inten    --     54.7104                44.5881                 5.2699
  Atom  AN      X      Y      Z        X      Y      Z        X      Y      Z
     1   8     0.00   0.00   0.00     0.00   0.00  -0.00     0.00  -0.00  -0.00
     2   1    -0.01   0.01  -0.01    -0.01  -0.01  -0.01    -0.01  -0.00  -0.01
     3   6    -0.02  -0.13   0.07     0.03  -0.07  -0.13     0.05  -0.00  -0.01
     4   1     0.07   0.89  -0.42    -0.24   0.47   0.82     0.02   0.01   0.09
     5   6     0.01   0.05  -0.06    -0.02   0.04   0.08     0.02  -0.00   0.04
     6   6    -0.00   0.02   0.01     0.00  -0.03  -0.01    -0.03  -0.01  -0.05
     7   8     0.02  -0.00  -0.01    -0.01   0.01   0.01    -0.01   0.02  -0.06
     8   8    -0.00  -0.01   0.02    -0.00   0.01  -0.02     0.01   0.00   0.04
     9   6    -0.01   0.00   0.01     0.02  -0.00  -0.01    -0.03  -0.02   0.08
    10   6    -0.00  -0.00  -0.00     0.01   0.00   0.00    -0.02  -0.02   0.03
    11   1    -0.02   0.03  -0.01     0.03  -0.06   0.01    -0.11   0.52  -0.05
    12   1     0.02  -0.01  -0.02    -0.02   0.02   0.04     0.14  -0.31  -0.38
    13   1    -0.00  -0.01  -0.01     0.00   0.03   0.03     0.01   0.02  -0.18
    14   1     0.00  -0.01  -0.01    -0.01   0.02   0.03    -0.05  -0.28  -0.33
    15   1     0.01   0.02   0.00    -0.02  -0.04  -0.01     0.12   0.43   0.02
                     19                     20                     21
                      A                      A                      A
 Frequencies --    899.3688               946.3082              1111.8161
 Red. masses --      3.4077                 2.5164                 4.1646
 Frc consts  --      1.6240                 1.3277                 3.0331
 IR Inten    --     20.8469                 5.6191                 8.9547
  Atom  AN      X      Y      Z        X      Y      Z        X      Y      Z
     1   8     0.00  -0.00  -0.00     0.00  -0.00   0.00     0.00  -0.00   0.00
     2   1    -0.01  -0.01  -0.01    -0.00  -0.00  -0.00     0.00  -0.00   0.00
     3   6     0.08   0.00   0.01     0.10   0.01   0.03     0.07   0.00   0.02
     4   1     0.08   0.02   0.05     0.11  -0.00   0.02     0.07  -0.00   0.03
     5   6     0.03  -0.02   0.08     0.07  -0.01  -0.01     0.04  -0.00  -0.03
     6   6    -0.09   0.01  -0.12    -0.14   0.01  -0.02    -0.16   0.00   0.04
     7   8    -0.00   0.05  -0.19     0.01   0.02  -0.08     0.01   0.00  -0.01
     8   8     0.10  -0.05   0.25    -0.15  -0.03   0.05    -0.18   0.01  -0.05
     9   6    -0.08   0.07  -0.01     0.05  -0.11  -0.03     0.28   0.21   0.16
    10   6    -0.08  -0.04  -0.09     0.16   0.11   0.05    -0.03  -0.21  -0.11
    11   1    -0.28  -0.17  -0.05    -0.25  -0.21  -0.15     0.26   0.32   0.14
    12   1     0.20   0.29   0.23    -0.02  -0.14  -0.05     0.38   0.27   0.18
    13   1    -0.10  -0.41  -0.00     0.14   0.67   0.38    -0.04  -0.09  -0.02
    14   1     0.15   0.28   0.28    -0.17   0.03   0.07    -0.13  -0.27  -0.13
    15   1    -0.04  -0.40  -0.01    -0.22  -0.10  -0.09    -0.15  -0.35  -0.16
                     22                     23                     24
                      A                      A                      A
 Frequencies --   1159.4933              1228.8901              1328.9941
 Red. masses --      2.0903                 1.7544                 1.8265
 Frc consts  --      1.6557                 1.5610                 1.9007
 IR Inten    --     18.6776                 4.6990               284.2075
  Atom  AN      X      Y      Z        X      Y      Z        X      Y      Z
     1   8    -0.00   0.00  -0.00    -0.00   0.00   0.00    -0.00   0.00   0.00
     2   1    -0.00  -0.00  -0.00     0.00   0.00  -0.00     0.00   0.01   0.00
     3   6    -0.02  -0.00  -0.01    -0.02  -0.00  -0.01    -0.04  -0.00  -0.01
     4   1    -0.03  -0.00  -0.01    -0.02  -0.00  -0.01    -0.04  -0.00  -0.02
     5   6    -0.01   0.00   0.01    -0.01   0.00  -0.00    -0.01   0.00   0.00
     6   6     0.06   0.00  -0.01     0.07  -0.00  -0.01     0.20   0.01  -0.07
     7   8    -0.00  -0.00   0.00    -0.01  -0.01   0.03    -0.02   0.00  -0.01
     8   8     0.08  -0.05   0.01     0.01   0.02  -0.07    -0.10  -0.00   0.02
     9   6    -0.15   0.17   0.02    -0.05  -0.05   0.17     0.07   0.03   0.02
    10   6     0.11  -0.13  -0.01     0.03   0.04  -0.12    -0.02  -0.03   0.06
    11   1    -0.13   0.03   0.06    -0.41   0.32  -0.05    -0.69  -0.31  -0.27
    12   1    -0.32   0.13   0.00     0.30  -0.24  -0.19     0.31   0.22   0.20
    13   1     0.09   0.52   0.20    -0.02  -0.04   0.27     0.00   0.01  -0.11
    14   1    -0.37  -0.35  -0.15    -0.01   0.31   0.28     0.01  -0.18  -0.14
    15   1    -0.32  -0.12  -0.22    -0.10  -0.45  -0.10     0.04   0.18   0.06
                     25                     26                     27
                      A                      A                      A
 Frequencies --   1372.4541              1443.1192              1457.5770
 Red. masses --      1.8637                 1.3922                 1.2651
 Frc consts  --      2.0683                 1.7082                 1.5835
 IR Inten    --    304.6888                41.0927                17.9364
  Atom  AN      X      Y      Z        X      Y      Z        X      Y      Z
     1   8     0.00  -0.00  -0.00    -0.00   0.00   0.00     0.00  -0.00  -0.00
     2   1    -0.00  -0.01   0.00     0.00   0.00  -0.00    -0.00  -0.00  -0.00
     3   6     0.03   0.00   0.01    -0.02  -0.00  -0.00     0.00   0.00   0.00
     4   1     0.03   0.00   0.02    -0.02  -0.00  -0.01     0.01   0.00   0.00
     5   6     0.00  -0.00  -0.00    -0.00  -0.00   0.00     0.00   0.00  -0.00
     6   6    -0.16  -0.01   0.06     0.09   0.00  -0.02    -0.03  -0.00   0.01
     7   8     0.02  -0.01   0.03    -0.01   0.01  -0.02     0.00  -0.00   0.00
     8   8     0.11   0.04  -0.11    -0.06   0.01   0.04     0.02  -0.00  -0.01
     9   6    -0.08  -0.02  -0.02    -0.08  -0.07  -0.04     0.03   0.04   0.02
    10   6     0.01  -0.03   0.05     0.02  -0.05  -0.02    -0.07  -0.11  -0.06
    11   1    -0.35  -0.17  -0.13     0.51   0.35   0.17    -0.17  -0.14  -0.05
    12   1     0.75   0.31   0.21     0.46   0.28   0.28    -0.16  -0.11  -0.12
    13   1     0.02   0.07  -0.03     0.02   0.26   0.13    -0.06   0.50   0.18
    14   1    -0.05  -0.11  -0.05     0.00   0.11   0.20     0.34   0.30   0.33
    15   1    -0.01   0.18   0.02     0.04   0.21  -0.04     0.34   0.40   0.07
                     28                     29                     30
                      A                      A                      A
 Frequencies --   1526.0946              1536.7380              1544.5248
 Red. masses --      1.0414                 1.0585                 1.0868
 Frc consts  --      1.4290                 1.4728                 1.5275
 IR Inten    --     14.8045                 2.1842                27.5085
  Atom  AN      X      Y      Z        X      Y      Z        X      Y      Z
     1   8    -0.00  -0.00   0.00     0.00  -0.00   0.00    -0.00  -0.00  -0.00
     2   1     0.00   0.00  -0.00    -0.00  -0.00  -0.00     0.00   0.00   0.00
     3   6     0.00   0.00   0.00     0.00  -0.00   0.00     0.00  -0.00   0.00
     4   1     0.00  -0.00   0.00     0.00   0.00   0.00     0.01   0.00   0.00
     5   6     0.00  -0.00  -0.00    -0.00   0.00  -0.00    -0.00  -0.00  -0.00
     6   6     0.00  -0.00   0.00    -0.02   0.00  -0.00    -0.02   0.00  -0.00
     7   8    -0.00   0.00  -0.00     0.00  -0.00   0.01     0.00  -0.00   0.01
     8   8    -0.00  -0.00   0.00     0.02  -0.00  -0.01     0.02  -0.00  -0.01
     9   6     0.01   0.02  -0.01     0.01  -0.04  -0.02     0.05  -0.04  -0.01
    10   6     0.02   0.01  -0.05    -0.03   0.02  -0.01     0.03  -0.02   0.00
    11   1     0.01  -0.10  -0.00    -0.15   0.41  -0.15    -0.25   0.41  -0.21
    12   1     0.01  -0.00  -0.04    -0.23   0.20   0.36    -0.35   0.14   0.35
    13   1    -0.08  -0.35   0.58    -0.04   0.16   0.27     0.03  -0.18  -0.17
    14   1    -0.55  -0.09   0.05     0.20  -0.17  -0.33    -0.22   0.16   0.32
    15   1     0.36   0.26   0.10     0.37  -0.32   0.22    -0.27   0.33  -0.18
                     31                     32                     33
                      A                      A                      A
 Frequencies --   1909.1352              2292.5126              3107.8363
 Red. masses --     12.2576                 5.7035                 1.0350
 Frc consts  --     26.3227                17.6610                 5.8901
 IR Inten    --    313.4279                66.3712                12.8179
  Atom  AN      X      Y      Z        X      Y      Z        X      Y      Z
     1   8    -0.00   0.00  -0.00     0.00   0.00   0.00     0.00   0.00  -0.00
     2   1     0.02  -0.00   0.02    -0.00  -0.00  -0.00    -0.00  -0.00   0.00
     3   6    -0.07  -0.00  -0.01    -0.36  -0.02  -0.09     0.00   0.00   0.00
     4   1    -0.11  -0.01  -0.01    -0.73  -0.05  -0.19    -0.00   0.00  -0.00
     5   6     0.05   0.00  -0.01     0.51   0.00   0.13    -0.00   0.00   0.00
     6   6     0.20  -0.20   0.74    -0.09   0.02  -0.04     0.00   0.00  -0.00
     7   8    -0.16   0.14  -0.48     0.00  -0.00   0.01     0.00   0.00   0.00
     8   8     0.04   0.01  -0.07    -0.00  -0.00   0.00    -0.00  -0.00   0.00
     9   6     0.02  -0.01   0.01     0.00   0.00  -0.00     0.00   0.00   0.00
    10   6    -0.01   0.01  -0.00    -0.00  -0.00  -0.00    -0.02  -0.04  -0.02
    11   1    -0.15   0.07  -0.08     0.01  -0.00  -0.00     0.00  -0.00  -0.00
    12   1    -0.13  -0.02   0.08     0.00  -0.00  -0.00     0.00  -0.01   0.01
    13   1    -0.00  -0.03  -0.05     0.00   0.00   0.00     0.63  -0.04   0.08
    14   1     0.03   0.01  -0.01     0.00   0.00  -0.00    -0.13   0.44  -0.34
    15   1    -0.03  -0.05   0.00     0.00   0.00   0.00    -0.23   0.06   0.47
                     34                     35                     36
                      A                      A                      A
 Frequencies --   3137.1136              3188.3121              3190.3020
 Red. masses --      1.0601                 1.1024                 1.1006
 Frc consts  --      6.1469                 6.6027                 6.6000
 IR Inten    --     21.6684                 5.2468                15.5515
  Atom  AN      X      Y      Z        X      Y      Z        X      Y      Z
     1   8     0.00  -0.00  -0.00     0.00  -0.00   0.00    -0.00   0.00   0.00
     2   1     0.00   0.00   0.00    -0.00  -0.00   0.00     0.00   0.00  -0.00
     3   6    -0.00   0.00   0.00    -0.00   0.00  -0.00     0.00  -0.00   0.00
     4   1     0.00   0.00   0.00     0.00  -0.00   0.00    -0.00  -0.00   0.00
     5   6     0.00  -0.00  -0.00     0.00   0.00   0.00    -0.00   0.00   0.00
     6   6    -0.00  -0.00   0.00    -0.00  -0.00   0.00    -0.00   0.00  -0.00
     7   8    -0.00   0.00  -0.00     0.00  -0.00   0.00     0.00  -0.00   0.00
     8   8     0.00   0.00  -0.00    -0.00   0.00  -0.00     0.00   0.00   0.00
     9   6     0.03  -0.06  -0.00     0.02   0.01  -0.06     0.00   0.02  -0.03
    10   6    -0.01   0.01  -0.00     0.02  -0.04   0.06    -0.08   0.03   0.02
    11   1    -0.23   0.06   0.50    -0.24   0.08   0.53    -0.08   0.03   0.17
    12   1    -0.13   0.65  -0.49     0.06  -0.25   0.18     0.05  -0.22   0.16
    13   1     0.11  -0.01   0.01    -0.26   0.00  -0.02     0.70  -0.03   0.09
    14   1     0.01  -0.05   0.04    -0.13   0.47  -0.35     0.05  -0.25   0.19
    15   1     0.01  -0.00  -0.03     0.16  -0.05  -0.30     0.21  -0.06  -0.47
                     37                     38                     39
                      A                      A                      A
 Frequencies --   3211.1591              3528.5610              3812.8071
 Red. masses --      1.1052                 1.1724                 1.0672
 Frc consts  --      6.7145                 8.6002                 9.1409
 IR Inten    --     17.5927                60.8702                12.7383
  Atom  AN      X      Y      Z        X      Y      Z        X      Y      Z
     1   8    -0.00  -0.00   0.00     0.00   0.00   0.00     0.04  -0.00  -0.05
     2   1     0.00   0.00  -0.00     0.00  -0.00  -0.00    -0.65   0.07   0.75
     3   6    -0.00   0.00  -0.00    -0.11  -0.00  -0.03    -0.00   0.00  -0.00
     4   1     0.00  -0.00  -0.00     0.96   0.04   0.25     0.00  -0.00   0.00
     5   6     0.00  -0.00   0.00     0.03   0.00   0.01     0.00   0.00   0.00
     6   6    -0.00   0.00  -0.00    -0.00   0.00  -0.00     0.00  -0.00  -0.00
     7   8     0.00  -0.00   0.00     0.00   0.00  -0.00    -0.00   0.00  -0.00
     8   8    -0.00   0.00  -0.00     0.00   0.00  -0.00    -0.00  -0.00   0.00
     9   6     0.01   0.02  -0.06    -0.00   0.00   0.00     0.00   0.00   0.00
    10   6     0.02   0.02  -0.06     0.00  -0.00   0.00    -0.00   0.00  -0.00
    11   1    -0.23   0.08   0.50     0.00  -0.00  -0.00    -0.00   0.00   0.00
    12   1     0.06  -0.30   0.21     0.00  -0.00   0.00    -0.00  -0.00   0.00
    13   1    -0.07   0.01  -0.02     0.00   0.00   0.00     0.00  -0.00   0.00
    14   1     0.10  -0.36   0.25    -0.00   0.00  -0.00    -0.00  -0.00   0.00
    15   1    -0.25   0.08   0.52    -0.00  -0.00  -0.00     0.00   0.00  -0.00

 -------------------
 - Thermochemistry -
 -------------------
 Temperature   298.150 Kelvin.  Pressure   1.00000 Atm.
 Atom     1 has atomic number  8 and mass  15.99491
 Atom     2 has atomic number  1 and mass   1.00783
 Atom     3 has atomic number  6 and mass  12.00000
 Atom     4 has atomic number  1 and mass   1.00783
 Atom     5 has atomic number  6 and mass  12.00000
 Atom     6 has atomic number  6 and mass  12.00000
 Atom     7 has atomic number  8 and mass  15.99491
 Atom     8 has atomic number  8 and mass  15.99491
 Atom     9 has atomic number  6 and mass  12.00000
 Atom    10 has atomic number  6 and mass  12.00000
 Atom    11 has atomic number  1 and mass   1.00783
 Atom    12 has atomic number  1 and mass   1.00783
 Atom    13 has atomic number  1 and mass   1.00783
 Atom    14 has atomic number  1 and mass   1.00783
 Atom    15 has atomic number  1 and mass   1.00783
 Molecular mass:   115.03952 amu.
 Principal axes and moments of inertia in atomic units:
                           1         2         3
     Eigenvalues --   517.833461381.347201536.60843
           X            0.99994   0.01046  -0.00108
           Y           -0.01036   0.99753   0.06943
           Z            0.00181  -0.06941   0.99759
 This molecule is an asymmetric top.
 Rotational symmetry number  1.
 Warning -- assumption of classical behavior for rotation
           may cause significant error
 Rotational temperatures (Kelvin)      0.16726     0.06270     0.05637
 Rotational constants (GHZ):           3.48518     1.30651     1.17450
    4 imaginary frequencies ignored.
 Zero-point vibrational energy     293065.8 (Joules/Mol)
                                   70.04440 (Kcal/Mol)
 Warning -- explicit consideration of   9 degrees of freedom as
           vibrations may cause significant error
 Vibrational temperatures:    109.82   126.68   216.61   249.97   277.25
          (Kelvin)            439.32   492.81   610.85   823.76   894.89
                             1075.82  1088.93  1140.35  1177.17  1293.99
                             1361.53  1599.66  1668.25  1768.10  1912.13
                             1974.66  2076.33  2097.13  2195.71  2211.02
                             2222.23  2746.82  3298.41  4471.48  4513.61
                             4587.27  4590.13  4620.14  5076.81  5485.78
 
 Zero-point correction=                           0.111623 (Hartree/Particle)
 Thermal correction to Energy=                    0.119748
 Thermal correction to Enthalpy=                  0.120692
 Thermal correction to Gibbs Free Energy=         0.077579
 Sum of electronic and zero-point Energies=           -419.846587
 Sum of electronic and thermal Energies=              -419.838462
 Sum of electronic and thermal Enthalpies=            -419.837518
 Sum of electronic and thermal Free Energies=         -419.880631
 
                     E (Thermal)             CV                S
                      KCal/Mol        Cal/Mol-Kelvin    Cal/Mol-Kelvin
 Total                   75.143             27.286             90.739
 Electronic               0.000              0.000              1.377
 Translational            0.889              2.981             40.136
 Rotational               0.889              2.981             28.488
 Vibrational             73.365             21.324             20.738
 Vibration     1          0.599              1.965              3.983
 Vibration     2          0.601              1.958              3.703
 Vibration     3          0.618              1.902              2.665
 Vibration     4          0.627              1.875              2.395
 Vibration     5          0.635              1.850              2.202
 Vibration     6          0.696              1.664              1.387
 Vibration     7          0.722              1.590              1.200
 Vibration     8          0.787              1.417              0.877
 Vibration     9          0.929              1.091              0.499
                       Q            Log10(Q)             Ln(Q)
 Total Bot       0.207118D-35        -35.683782        -82.164946
 Total V=0       0.456163D+16         15.659120         36.056457
 Vib (Bot)       0.568970D-49        -49.244911       -113.390597
 Vib (Bot)    1  0.269962D+01          0.431303          0.993112
 Vib (Bot)    2  0.233593D+01          0.368459          0.848408
 Vib (Bot)    3  0.134662D+01          0.129245          0.297598
 Vib (Bot)    4  0.115853D+01          0.063908          0.147155
 Vib (Bot)    5  0.103759D+01          0.016024          0.036898
 Vib (Bot)    6  0.620942D+00         -0.206949         -0.476518
 Vib (Bot)    7  0.541242D+00         -0.266608         -0.613888
 Vib (Bot)    8  0.412128D+00         -0.384967         -0.886420
 Vib (Bot)    9  0.268134D+00         -0.571648         -1.316269
 Vib (V=0)       0.125312D+03          2.097992          4.830805
 Vib (V=0)    1  0.324554D+01          0.511286          1.177281
 Vib (V=0)    2  0.288884D+01          0.460723          1.060855
 Vib (V=0)    3  0.193645D+01          0.287006          0.660856
 Vib (V=0)    4  0.176182D+01          0.245962          0.566349
 Vib (V=0)    5  0.165178D+01          0.217951          0.501851
 Vib (V=0)    6  0.129723D+01          0.113016          0.260228
 Vib (V=0)    7  0.123685D+01          0.092316          0.212565
 Vib (V=0)    8  0.114796D+01          0.059926          0.137985
 Vib (V=0)    9  0.106736D+01          0.028310          0.065187
 Electronic      0.200000D+01          0.301030          0.693147
 Translational   0.484981D+08          7.685724         17.697035
 Rotational      0.375296D+06          5.574374         12.835470
 ***** Axes restored to original set *****
 -------------------------------------------------------------------
 Center     Atomic                   Forces (Hartrees/Bohr)
 Number     Number              X              Y              Z
 -------------------------------------------------------------------
      1        8           0.012847989    0.009282626   -0.010302970
      2        1          -0.011288351    0.002413809    0.012781334
      3        6          -0.022300659    0.000893772   -0.005519294
      4        1          -0.000801220   -0.000233231   -0.000204923
      5        6           0.024614380   -0.014228972    0.003856074
      6        6          -0.043283178    0.011721160   -0.031343698
      7        8           0.018150704   -0.012998841    0.045959645
      8        8           0.002540181    0.002653019   -0.014439666
      9        6           0.017374300   -0.000753424   -0.002962667
     10        6           0.000493078    0.000433555    0.000193484
     11        1           0.000371876   -0.000148134   -0.000699082
     12        1           0.000538908   -0.001150643    0.001115119
     13        1           0.001401929    0.000335771    0.000498910
     14        1          -0.000364088    0.001036962   -0.000480653
     15        1          -0.000295850    0.000742572    0.001548386
 -------------------------------------------------------------------
 Cartesian Forces:  Max     0.045959645 RMS     0.013461437

 GradGradGradGradGradGradGradGradGradGradGradGradGradGradGradGradGradGrad
 Berny optimization.
 Search for a local minimum.
 Step number   1 out of a maximum of    2
 All quantities printed in internal units (Hartrees-Bohrs-Radians)
 Second derivative matrix not updated -- analytic derivatives used.
 ITU=  0
     Eigenvalues ---   -0.01414  -0.00604  -0.00123  -0.00068   0.00086
     Eigenvalues ---    0.00143   0.00222   0.00602   0.00845   0.01634
     Eigenvalues ---    0.01770   0.03256   0.03528   0.05535   0.06632
     Eigenvalues ---    0.07518   0.07729   0.08983   0.09330   0.10551
     Eigenvalues ---    0.12113   0.14893   0.17832   0.18519   0.21234
     Eigenvalues ---    0.26799   0.29910   0.43449   0.50072   0.64674
     Eigenvalues ---    0.73758   0.77868   0.80502   0.88683   0.93949
     Eigenvalues ---    0.97301   0.98434   1.85918   2.80025
 Eigenvalue     1 is  -1.41D-02 should be greater than     0.000000 Eigenvector:
                          Z2        X2        X1        Z1        Y2
   1                    0.56129   0.52098  -0.42921  -0.30118  -0.27105
                          Y1        Y4        Y15       Z14       Y13
   1                    0.16787   0.07044  -0.06188   0.05705  -0.04660
 Eigenvalue     2 is  -6.04D-03 should be greater than     0.000000 Eigenvector:
                          Y7        Y2        Z1        Y8        X2
   1                    0.58869  -0.37814   0.37486  -0.28374  -0.19535
                          Z2        Y5        Z5        Z3        Z8
   1                    0.18876  -0.18131  -0.15474  -0.14350  -0.12140
 Eigenvalue     3 is  -1.23D-03 should be greater than     0.000000 Eigenvector:
                          X2        X14       X1        Y2        Y11
   1                    0.42032  -0.33778   0.29884   0.29549   0.23381
                          Z14       X15       X10       X13       Y8
   1                    0.21882  -0.21504  -0.21463  -0.20477  -0.18376
 Eigenvalue     4 is  -6.84D-04 should be greater than     0.000000 Eigenvector:
                          Y15       Z14       Y4        Z12       Y7
   1                    0.37407  -0.34404   0.29872   0.28994  -0.27068
                          Y13       Z15       X15       X1        X2
   1                    0.24134  -0.20483  -0.20026   0.19570   0.18392
 Quadratic step=3.958D+00 exceeds max=3.000D-01 adjusted using Lamda=-4.795D-02.
 Angle between NR and scaled steps=  55.68 degrees.
 Angle between quadratic step and forces=  66.43 degrees.
 Linear search not attempted -- first point.
 B after Tr=     0.001397   -0.000668    0.000180
         Rot=    1.000000    0.000570   -0.000063    0.000146 Ang=   0.07 deg.
 Variable       Old X    -DE/DX   Delta X   Delta X   Delta X     New X
                                 (Linear)    (Quad)   (Total)
    X1       -2.53771   0.01285   0.00000   0.04088   0.04334  -2.49436
    Y1        3.36418   0.00928   0.00000   0.17077   0.17109   3.53527
    Z1        0.20498  -0.01030   0.00000   0.02191   0.01837   0.22335
    X2       -3.73744  -0.01129   0.00000  -0.02350  -0.02088  -3.75833
    Y2        3.47564   0.00241   0.00000   0.01103   0.01330   3.48894
    Z2        1.58944   0.01278   0.00000   0.02059   0.01727   1.60670
    X3       -5.16820  -0.02230   0.00000  -0.03982  -0.03878  -5.20699
    Y3       -0.87922   0.00089   0.00000   0.00129   0.00115  -0.87807
    Z3       -0.85084  -0.00552   0.00000  -0.01735  -0.01552  -0.86636
    X4       -7.11384  -0.00080   0.00000  -0.04056  -0.03960  -7.15345
    Y4       -0.94793  -0.00023   0.00000   0.02429   0.02415  -0.92378
    Z4       -1.36123  -0.00020   0.00000  -0.00873  -0.00661  -1.36784
    X5       -2.96544   0.02461   0.00000  -0.01925  -0.01817  -2.98361
    Y5       -0.74101  -0.01423   0.00000  -0.20440  -0.20457  -0.94558
    Z5       -0.30467   0.00386   0.00000  -0.02348  -0.02185  -0.32652
    X6       -0.31505  -0.04328   0.00000  -0.04890  -0.04777  -0.36282
    Y6       -1.05094   0.01172   0.00000  -0.04764  -0.04773  -1.09867
    Z6        0.42047  -0.03134   0.00000  -0.01264  -0.01116   0.40931
    X7        0.32451   0.01815   0.00000   0.03080   0.03203   0.35654
    Y7       -1.67372  -0.01300   0.00000   0.01665   0.01878  -1.65494
    Z7        2.50306   0.04596   0.00000   0.03973   0.04176   2.54482
    X8        1.20536   0.00254   0.00000  -0.00762  -0.00660   1.19876
    Y8       -0.63639   0.00265   0.00000  -0.00796  -0.01075  -0.64714
    Z8       -1.53030  -0.01444   0.00000  -0.02021  -0.01945  -1.54974
    X9        3.87689   0.01737   0.00000   0.03324   0.03427   3.91117
    Y9       -0.79793  -0.00075   0.00000   0.00438   0.00140  -0.79653
    Z9       -1.01767  -0.00296   0.00000  -0.00576  -0.00516  -1.02284
   X10        4.80373   0.00049   0.00000   0.00922   0.01112   4.81484
   Y10        1.59656   0.00043   0.00000   0.00969   0.00790   1.60445
   Z10        0.25052   0.00019   0.00000   0.00402   0.00177   0.25229
   X11        4.72658   0.00037   0.00000   0.01425   0.01497   4.74155
   Y11       -1.06134  -0.00015   0.00000   0.00544   0.00009  -1.06125
   Z11       -2.87221  -0.00070   0.00000  -0.01343  -0.01264  -2.88485
   X12        4.22936   0.00054   0.00000   0.01329   0.01398   4.24334
   Y12       -2.46242  -0.00115   0.00000   0.00145  -0.00029  -2.46271
   Z12        0.14554   0.00112   0.00000   0.00162   0.00407   0.14962
   X13        6.84837   0.00140   0.00000   0.01199   0.01389   6.86227
   Y13        1.49971   0.00034   0.00000   0.01645   0.01436   1.51408
   Z13        0.50833   0.00050   0.00000   0.00943   0.00702   0.51535
   X14        4.35969  -0.00036   0.00000   0.00204   0.00427   4.36397
   Y14        3.23892   0.00104   0.00000   0.01054   0.00755   3.24647
   Z14       -0.91305  -0.00048   0.00000   0.00360  -0.00047  -0.91352
   X15        3.92080  -0.00030   0.00000   0.00173   0.00392   3.92472
   Y15        1.82481   0.00074   0.00000   0.00299   0.00357   1.82838
   Z15        2.09794   0.00155   0.00000   0.00499   0.00260   2.10054
         Item               Value     Threshold  Converged?
 Maximum Force            0.045960     0.000450     NO 
 RMS     Force            0.013461     0.000300     NO 
 Maximum Displacement     0.204570     0.001800     NO 
 RMS     Displacement     0.044694     0.001200     NO 
 Predicted change in Energy=-7.636106D-03
 GradGradGradGradGradGradGradGradGradGradGradGradGradGradGradGradGradGrad


 ----------------------------------------------------------------------

 Electric dipole moment (input orientation):
 (Debye = 10**-18 statcoulomb cm , SI units = C m)
                  (au)            (Debye)         (10**-30 SI)
   Tot        0.350879D+00      0.891845D+00      0.297487D+01
   x         -0.310566D+00     -0.789380D+00     -0.263309D+01
   y          0.651821D-01      0.165676D+00      0.552637D+00
   z         -0.149720D+00     -0.380549D+00     -0.126938D+01

 Dipole polarizability, Alpha (input orientation).
 (esu units = cm**3 , SI units = C**2 m**2 J**-1)
 Alpha(0;0):
               (au)            (10**-24 esu)      (10**-40 SI)
   iso        0.685154D+02      0.101529D+02      0.112967D+02
   aniso      0.303880D+02      0.450304D+01      0.501031D+01
   xx         0.871955D+02      0.129210D+02      0.143766D+02
   yx         0.501850D+01      0.743664D+00      0.827438D+00
   yy         0.614319D+02      0.910327D+01      0.101288D+02
   zx         0.393508D+01      0.583119D+00      0.648807D+00
   zy         0.582250D+00      0.862806D-01      0.960001D-01
   zz         0.569189D+02      0.843451D+01      0.938465D+01

 ----------------------------------------------------------------------

 Dipole orientation:
     8         -0.93793452         -3.02842206          2.78364083
     1         -2.69142863         -3.25610549          3.27549864
     6         -1.67852355          1.61163894          4.77414338
     1         -2.11194926          1.99773366          6.70127073
     6         -1.15281783          1.12144851          2.61708166
     6         -0.63533066          0.98371495         -0.09578606
     8         -2.26205624          1.13084962         -1.66620654
     8          1.82461695          0.76636276         -0.53211904
     6          2.55683529          0.52087329         -3.14546404
     6          2.12820337         -2.15809866         -4.06212859
     1          4.55106086          1.02449976         -3.15513297
     1          1.49435181          1.88839113         -4.26298830
     1          2.81075964         -2.34713525         -5.99985971
     1          3.14715638         -3.49340589         -2.86752107
     1          0.12123981         -2.62226412         -4.02653386

 Electric dipole moment (dipole orientation):
 (Debye = 10**-18 statcoulomb cm , SI units = C m)
                  (au)            (Debye)         (10**-30 SI)
   Tot        0.350879D+00      0.891845D+00      0.297487D+01
   x          0.000000D+00      0.000000D+00      0.000000D+00
   y          0.000000D+00      0.000000D+00      0.000000D+00
   z          0.350879D+00      0.891845D+00      0.297487D+01

 Dipole polarizability, Alpha (dipole orientation).
 (esu units = cm**3 , SI units = C**2 m**2 J**-1)
 Alpha(0;0):
               (au)            (10**-24 esu)      (10**-40 SI)
   iso        0.685154D+02      0.101529D+02      0.112967D+02
   aniso      0.303880D+02      0.450304D+01      0.501031D+01
   xx         0.603960D+02      0.894976D+01      0.995795D+01
   yx        -0.379331D+01     -0.562111D+00     -0.625433D+00
   yy         0.631267D+02      0.935441D+01      0.104082D+02
   zx        -0.987653D+01     -0.146355D+01     -0.162842D+01
   zy         0.756026D+01      0.112032D+01      0.124652D+01
   zz         0.820236D+02      0.121546D+02      0.135239D+02

 ----------------------------------------------------------------------
 1\1\GINC-AJ\Freq\UM062X\6-31+G\C5H7O3(2)\AAYUSH\20-Jun-2025\0\\# freq 
 6-31+g m062x\\Title Card Required\\0,2\O,-1.342897,1.78025,0.108472\H,
 -1.97777,1.839232,0.841094\C,-2.734895,-0.465263,-0.450243\H,-3.764484
 ,-0.501622,-0.720334\C,-1.569243,-0.392127,-0.161222\C,-0.166719,-0.55
 6131,0.222501\O,0.171725,-0.885696,1.324562\O,0.637848,-0.336764,-0.80
 9798\C,2.051564,-0.422246,-0.53853\C,2.542022,0.844861,0.132569\H,2.50
 1199,-0.561636,-1.51991\H,2.238081,-1.303056,0.077019\H,3.624002,0.793
 615,0.268995\H,2.30705,1.713961,-0.483163\H,2.074798,0.965646,1.110182
 \\Version=ES64L-G16RevA.03\State=2-A\HF=-419.9582098\S2=0.759102\S2-1=
 0.\S2A=0.750048\RMSD=4.634e-09\RMSF=1.346e-02\ZeroPoint=0.1116229\Ther
 mal=0.1197477\Dipole=-0.3105661,0.0651821,-0.1497196\DipoleDeriv=-0.29
 15869,0.1545097,-0.1242364,0.0571839,-0.0993605,0.0914649,-0.1565995,0
 .00948,-0.2094888,0.205787,-0.0491646,0.1223767,-0.0074606,0.3763159,0
 .0054079,0.1477111,0.040687,0.1949737,-0.2840168,0.2531832,0.0327404,0
 .017591,-0.2073997,0.0114398,0.0377679,0.0598917,-0.1835508,0.2675167,
 0.0164166,0.0068566,0.0092894,0.235465,-0.0061349,-0.0040534,-0.004282
 7,0.260427,-0.5266993,-0.2710441,-0.1340572,-0.0014067,-0.4205772,-0.0
 837632,-0.1373549,-0.0664244,-0.1394413,2.1216484,-0.1859448,-0.099371
 4,0.032735,0.6186207,-0.3128325,-0.4603459,-0.434449,1.5988497,-0.7848
 342,0.1159533,-0.1813387,0.0003812,-0.4610206,0.2096445,0.036541,0.278
 9296,-1.0173178,-1.5504881,-0.1042523,0.3682777,-0.1088603,-0.4029697,
 0.0532218,0.5155575,0.0992082,-0.8363499,0.8969593,0.0774043,-0.096703
 9,0.0096523,0.3259142,0.0669442,0.0257226,0.0144536,0.284168,-0.085161
 ,-0.0270341,0.0335473,-0.0489213,-0.0736588,-0.086871,-0.0287364,-0.05
 41316,-0.0160857,-0.0114715,-0.0046961,0.0335903,-0.0065565,0.0726192,
 -0.0307656,0.0806351,-0.0560392,-0.0724905,-0.0079387,-0.0374102,0.020
 5068,0.027041,-0.0577635,0.0333912,-0.0675744,0.0748041,0.0490888,-0.1
 490377,-0.0093199,-0.0274977,0.0180117,0.0802711,0.0023172,-0.026969,-
 0.0126122,0.1099733,0.108013,0.0500949,-0.0423373,0.002913,-0.0449592,
 0.0461926,-0.0289567,0.0864805,0.0148275,0.0913099,0.021304,0.0876468,
 -0.001593,0.0585032,0.0003431,0.066655,-0.0359953,-0.0375832\Polar=87.
 195511,5.0184965,61.4318905,3.9350798,0.5822504,56.9188665\Quadrupole=
 10.3423414,-3.9753352,-6.3670063,-0.5401321,-1.7154109,4.2699815\PG=C0
 1 [X(C5H7O3)]\NImag=4\\0.22341352,-0.01877291,0.01461895,-0.26243422,0
 .02640201,0.29340477,-0.22075281,0.02090688,0.26175709,0.22114556,0.01
 470242,0.00196496,-0.02011041,-0.01801277,0.00430139,0.26075560,-0.026
 39707,-0.29238024,-0.26074832,0.02502896,0.29198842,-0.00392259,-0.020
 12254,-0.00134244,0.00070688,0.00091961,-0.00130021,1.51296586,-0.0027
 1127,-0.01044267,-0.00282163,-0.00081111,-0.00121298,0.00028410,0.0658
 2773,0.05989764,-0.00067661,-0.00539099,0.00004398,-0.00042396,-0.0005
 9474,-0.00012819,0.36737319,0.01921564,0.15100876,0.00017092,0.0002926
 1,0.00002837,0.00002693,-0.00028332,-0.00010170,-0.40739578,-0.0137744
 3,-0.09853691,0.39683209,0.00028874,0.00005084,0.00035587,-0.00050507,
 0.00011275,-0.00047011,-0.00994737,-0.02972455,-0.00368459,0.01346616,
 0.01792854,-0.00021156,0.00000366,-0.00000204,-0.00013394,-0.00014505,
 -0.00011466,-0.09902538,-0.00479095,-0.05659669,0.09937445,0.00435582,
 0.04394621,0.00301172,0.01405790,0.00218917,-0.00088619,0.00130925,0.0
 0034385,-1.10819259,-0.05195490,-0.26637586,0.01084916,-0.00372426,0.0
 0161837,1.43421533,0.00234455,0.00515471,-0.00254786,-0.00199117,-0.00
 380878,0.00165157,-0.02528267,-0.02408344,-0.00636890,0.00033548,0.008
 22691,0.00120714,0.00222220,0.05571826,0.00356648,0.00494424,-0.000409
 10,-0.00185512,-0.00377948,-0.00009764,-0.26541221,-0.01179242,-0.1046
 8883,0.00044319,-0.00040745,0.00877059,0.32452378,-0.01217270,0.203627
 18,-0.00302472,0.00617520,-0.00157011,-0.00052290,0.00311697,0.0032504
 2,0.01667863,0.00437772,-0.00061008,-0.00130109,0.00023091,-0.00167680
 ,-0.26140902,0.00567838,-0.04658559,0.68208257,0.00205784,-0.01176661,
 -0.00033383,-0.00008802,-0.00078966,-0.00020987,-0.01433935,0.00550659
 ,-0.00289108,-0.00026491,0.00466004,-0.00044087,0.02752148,-0.07346557
 ,0.00359171,-0.05250547,0.25925584,-0.00301853,0.00219089,-0.00360658,
 0.00385912,-0.00165455,0.00176609,-0.00030097,0.00155250,0.00934415,-0
 .00101153,0.00019374,0.00402499,-0.03688600,-0.00435219,-0.07991377,0.
 10769708,-0.22786395,0.99451195,0.00061003,-0.00074936,0.00087600,-0.0
 0032609,-0.00080541,-0.00096567,-0.00507391,-0.00179391,0.00108714,0.0
 0009912,-0.00001627,0.00124983,-0.02264573,0.02106087,-0.05344432,-0.1
 5789460,0.06384273,-0.21006713,0.15914210,0.00090704,0.00038579,0.0004
 9484,-0.00023517,0.00008409,0.00007020,0.00173923,-0.00043145,-0.00011
 835,0.00014672,-0.00065296,-0.00032564,0.01075293,0.01699034,0.0165670
 0,0.06081967,-0.11734179,0.19240796,-0.07081984,0.08368301,0.00123255,
 -0.00208580,0.00268889,-0.00161111,0.00064709,-0.00152077,-0.00040987,
 0.00007319,0.00066194,-0.00005402,-0.00050891,0.00042466,-0.03519061,0
 .01708097,-0.02786120,-0.19985383,0.19169255,-0.69960481,0.22226571,-0
 .23838175,0.82347852,-0.00047090,-0.00112662,0.00060045,0.00058776,-0.
 00126722,-0.00124926,-0.00688396,-0.00000331,-0.00246175,0.00085970,0.
 00034894,-0.00107794,-0.05669118,-0.00143803,0.03697022,-0.21348664,-0
 .02936811,0.13623643,0.02423692,-0.00444418,0.02377393,0.55194196,0.00
 147844,-0.00070683,-0.00136395,0.00074317,-0.00065178,0.00000147,0.000
 50798,0.00065141,-0.00038566,0.00004409,-0.00035759,0.00014839,0.00035
 667,0.01003587,0.00164658,-0.01959648,-0.06898632,0.03952559,-0.008838
 98,0.02226351,0.03180027,0.01816153,0.09608768,0.00095604,-0.00004963,
 0.00036342,-0.00086150,0.00056031,0.00040428,-0.00043052,-0.00130302,-
 0.00005791,-0.00013968,0.00017015,-0.00062620,0.00680630,0.00303313,0.
 00326083,0.09749852,0.03960482,-0.22978100,0.03384343,0.03109395,-0.09
 751966,-0.12134169,-0.07988272,0.40574853,0.00057742,-0.00054619,-0.00
 040819,0.00009502,0.00054034,0.00028855,0.00219143,0.00045566,0.001079
 85,-0.00029656,-0.00009122,-0.00005921,0.00341938,-0.00322087,-0.00052
 762,-0.06138930,-0.00259098,0.02646679,-0.00014770,0.00522350,-0.01754
 078,-0.20088726,0.01141674,-0.01066166,0.48749633,-0.00032574,0.000919
 10,-0.00012577,-0.00000908,-0.00004437,0.00007276,0.00078124,-0.000209
 06,0.00014514,0.00005304,-0.00024778,0.00000373,-0.00040544,0.00559319
 ,0.00166166,-0.00684998,0.00362418,-0.00739112,0.00232808,-0.00530422,
 0.00068725,0.01712944,-0.06580155,0.01094727,-0.02188036,0.56631167,-0
 .00026756,0.00040268,-0.00007020,-0.00003509,0.00011539,0.00008759,0.0
 0092484,-0.00045780,0.00054263,-0.00000147,0.00000373,0.00019795,0.003
 72950,0.00245916,-0.00332418,0.04186804,-0.00442661,0.00596686,0.00171
 887,-0.00073255,-0.00247322,-0.04599110,0.01019937,-0.08724580,-0.0651
 7196,-0.03884235,0.63572961,-0.00004817,0.00011167,-0.00003899,-0.0000
 2676,-0.00013444,-0.00008660,-0.00028402,0.00008591,-0.00006575,0.0001
 0005,-0.00008776,-0.00003001,-0.00059511,0.00149953,0.00089204,0.00232
 919,-0.00059934,-0.00884738,0.00067544,-0.00162246,0.00265747,-0.03790
 820,-0.03626982,-0.01898088,-0.08336784,-0.02068100,-0.00755724,0.5906
 2330,0.00002698,-0.00016978,0.00006897,-0.00009170,0.00007763,0.000053
 19,0.00016608,0.00000440,0.00009907,-0.00002205,-0.00001176,-0.0000116
 3,-0.00020295,-0.00039735,-0.00028096,-0.00043757,-0.00035719,0.003920
 50,-0.00119530,-0.00036577,-0.00162509,-0.00030250,0.00548540,-0.00225
 183,-0.03266388,-0.18575157,-0.04957039,-0.02983788,0.53383731,-0.0001
 2175,0.00005861,-0.00027327,0.00019883,-0.00012482,0.00005190,0.000003
 40,-0.00004660,-0.00008680,0.00000374,0.00000076,0.00000915,-0.0003980
 3,0.00045293,0.00017853,0.00149570,0.00079745,0.00223803,-0.00123293,-
 0.00153749,-0.00037624,-0.00821039,-0.00523615,-0.00105306,-0.01244730
 ,-0.04847196,-0.11399834,-0.01571186,-0.03574495,0.58358538,-0.0000125
 5,-0.00004869,0.00001238,0.00000427,-0.00008376,-0.00005402,-0.0006110
 6,0.00009795,-0.00026495,0.00004366,0.00002698,-0.00003733,-0.00111020
 ,-0.00054027,0.00112946,-0.00429274,0.00352680,-0.00494623,0.00158311,
 -0.00049644,0.00090824,-0.03549058,0.00186856,0.03441055,-0.08708060,0
 .01424073,0.09465447,0.00702162,-0.00206506,-0.01150130,0.11511937,0.0
 0003760,0.00002575,0.00004420,-0.00002399,-0.00002419,-0.00001028,-0.0
 0001838,-0.00000365,0.00003935,0.00001150,-0.00000286,0.00000009,0.000
 18431,0.00019553,-0.00011233,-0.00002813,-0.00056862,0.00252092,-0.001
 56760,0.00058627,-0.00038915,0.00298058,0.00094044,-0.00284679,0.01400
 245,-0.05787328,-0.02716249,0.01111526,-0.00504613,-0.02944235,-0.0134
 2741,0.05929170,0.00006406,-0.00006848,0.00004580,-0.00003093,0.000014
 83,-0.00001954,-0.00002258,0.00020418,-0.00002702,-0.00000745,-0.00002
 690,-0.00002407,-0.00000148,-0.00060800,0.00028421,-0.00336410,0.00061
 530,-0.00054922,0.00143823,-0.00037688,0.00074475,-0.00809034,0.002022
 56,0.00822751,0.10915298,-0.02861321,-0.28618329,0.00461504,-0.0012032
 8,-0.01175265,-0.10967472,0.03387090,0.30281822,-0.00005636,-0.0000902
 2,0.00011889,-0.00003831,0.00000218,-0.00003568,-0.00014389,0.00022027
 ,-0.00009537,0.00004001,0.00002108,0.00000031,-0.00005082,-0.00095140,
 0.00025663,0.00232882,0.00340786,-0.00879180,0.00074696,-0.00095945,0.
 00367991,-0.02902944,0.03088884,-0.02168107,-0.05543826,0.02780283,-0.
 01651715,0.00425366,-0.01052062,0.00680220,0.00452359,-0.01159143,0.00
 739627,0.07296803,0.00001212,0.00000625,-0.00001046,0.00001886,-0.0000
 3604,-0.00002870,-0.00016656,0.00002045,0.00000018,-0.00000717,0.00001
 891,0.00000980,0.00005719,-0.00022024,-0.00034881,-0.00029902,0.000010
 07,0.00356675,-0.00246474,0.00056935,-0.00105207,0.00349499,0.00175013
 ,0.00027364,0.03688972,-0.23050363,0.12432580,0.00290855,-0.02360107,0
 .01602818,-0.00132084,0.00485709,-0.00376779,-0.03734643,0.24866039,-0
 .00000244,0.00010295,0.00001622,-0.00000768,-0.00006278,-0.00000667,-0
 .00012378,-0.00017066,-0.00001998,0.00001858,0.00000797,0.00000271,-0.
 00034713,0.00074101,-0.00002213,0.00291692,-0.00014978,-0.00010987,0.0
 0126576,-0.00084959,-0.00061796,-0.00704353,0.00309802,-0.00277409,-0.
 02519274,0.12760773,-0.14228371,0.00272601,-0.01614204,0.00974010,-0.0
 0452283,0.02456024,-0.01494036,0.03069146,-0.13664071,0.15099821,-0.00
 013988,0.00006350,-0.00005197,0.00002030,-0.00003272,0.00001164,-0.000
 09048,-0.00002349,-0.00000828,0.00003683,0.00000611,0.00000911,-0.0001
 9606,0.00023753,0.00001124,0.00169683,0.00060306,-0.00122470,-0.000122
 78,-0.00048401,0.00041799,-0.00030361,-0.00291342,-0.00030935,-0.01111
 340,0.00409611,0.00032430,-0.31836029,0.01287902,-0.03396661,0.0002980
 7,-0.00008868,-0.00038728,0.00014723,-0.00046228,0.00021787,0.34812627
 ,0.00010880,0.00007749,0.00006898,0.00000606,-0.00007704,-0.00007656,-
 0.00017674,0.00000212,-0.00004947,0.00001463,-0.00001100,-0.00000820,-
 0.00010063,0.00050631,0.00031481,0.00082004,-0.00013726,-0.00270054,0.
 00030377,-0.00035469,0.00093751,-0.00563422,-0.00556349,-0.00241871,-0
 .02902795,0.00302120,-0.00235347,0.01536288,-0.05010907,0.00141483,0.0
 0062437,0.00118031,-0.00001864,0.00057646,0.00048172,0.00112915,-0.013
 97975,0.05171718,0.00007114,0.00000064,0.00009880,-0.00005780,-0.00000
 531,-0.00002904,-0.00006625,0.00003140,-0.00000153,0.00000701,-0.00000
 292,-0.00000314,-0.00006976,-0.00002753,0.00009591,0.00034099,-0.00001
 230,-0.00248355,0.00050726,0.00034147,0.00097543,-0.00349326,-0.003667
 59,-0.00021435,-0.01501012,0.00262859,-0.00210336,-0.03254687,0.000767
 73,-0.05217652,0.00038255,0.00062397,-0.00017509,0.00024009,0.00027894
 ,0.00045560,0.03813840,0.00025665,0.05295842,0.00017988,0.00003423,0.0
 0002335,0.00006252,-0.00004594,-0.00006158,-0.00004559,-0.00000125,-0.
 00000958,-0.00002928,-0.00000800,-0.00000287,0.00014317,0.00012338,-0.
 00001578,-0.00054943,-0.00072008,0.00157939,-0.00043892,0.00002769,-0.
 00074287,0.00205220,0.00087950,0.00045846,0.00119311,-0.01237182,0.005
 48494,-0.06264447,0.04976472,-0.03376522,0.00006913,0.00084924,0.00022
 136,-0.00025849,-0.00214232,-0.00107119,-0.00633948,0.02762200,-0.0196
 4801,0.06310766,0.00000078,0.00000137,-0.00000687,0.00004302,-0.000017
 38,-0.00004812,-0.00008154,0.00001754,-0.00004007,-0.00000538,-0.00000
 275,0.00000656,-0.00002431,0.00002835,0.00002655,-0.00002878,-0.000494
 27,0.00077867,-0.00020000,0.00020332,-0.00048345,0.00128970,0.00327112
 ,0.00032389,0.00675427,-0.02797380,0.01752769,0.04682140,-0.22124547,0
 .12432790,0.00023542,0.00111643,-0.00000522,-0.00198870,-0.00317295,-0
 .00357625,-0.00075026,-0.00015748,0.00008049,-0.05139144,0.24501381,-0
 .00012105,-0.00009485,-0.00010043,0.00001005,0.00012230,0.00007458,0.0
 0013888,0.00000113,0.00000334,0.00000025,0.00000220,0.00000548,-0.0000
 3420,-0.00036546,0.00002088,-0.00056685,0.00052504,-0.00029079,0.00055
 890,0.00035965,0.00027822,0.00210248,0.00113760,0.00018066,0.00244269,
 -0.01754164,0.00963239,-0.03416736,0.12732033,-0.14200335,0.00057196,0
 .00051600,0.00094520,-0.00168859,-0.00301994,-0.00110571,0.00044064,0.
 00237341,-0.00261423,0.03864595,-0.13572649,0.15082101,0.00046449,-0.0
 0018547,0.00024022,-0.00009618,0.00007481,-0.00004702,0.00010107,0.000
 00843,-0.00001106,-0.00003577,-0.00000896,0.00000298,0.00013813,-0.000
 07751,0.00004760,-0.00124560,-0.00048350,-0.00074453,-0.00044397,-0.00
 055523,0.00046730,0.00147323,0.00127318,0.00043306,0.00474824,-0.00390
 804,-0.01316340,-0.10176841,0.01450271,0.10885151,-0.00006511,-0.00243
 533,-0.00130906,0.00000728,0.00082792,0.00047473,-0.01365955,0.0034803
 0,0.03120462,0.00349799,-0.00067416,-0.00833376,0.10688416,-0.00015540
 ,-0.00011935,-0.00011409,0.00005009,0.00012141,0.00007844,0.00019326,0
 .00000766,0.00002445,-0.00000695,0.00001327,-0.00001287,-0.00004943,-0
 .00047409,0.00014159,-0.00147345,0.00085058,-0.00269515,0.00091598,-0.
 00031480,0.00160738,0.00017901,0.00158200,0.00274555,0.01473876,-0.005
 76006,-0.03148815,0.01132750,-0.05234956,-0.02247634,-0.00263835,-0.00
 467479,-0.00203937,0.00052873,0.00115957,0.00034474,0.00084927,-0.0005
 7630,-0.00129423,-0.01261989,0.00341218,0.02439074,-0.01183914,0.05712
 227,0.00020783,-0.00001887,0.00017997,-0.00005965,-0.00001174,-0.00007
 610,-0.00000610,0.00002093,0.00000215,-0.00002281,0.00001063,-0.000014
 94,0.00009210,-0.00018325,0.00007872,-0.00084032,-0.00049857,-0.001512
 47,0.00089892,0.00098718,0.00072145,-0.00072425,0.00095621,0.00108684,
 0.00758872,-0.00276810,-0.01447493,0.10714239,-0.02539960,-0.27408288,
 -0.00106822,-0.00221229,0.00060553,-0.00037610,0.00038517,0.00066765,-
 0.00362298,0.00113026,0.00521666,0.00890365,-0.00318528,-0.01584725,-0
 .11811319,0.03078732,0.29744961\\-0.01284799,-0.00928263,0.01030297,0.
 01128835,-0.00241381,-0.01278133,0.02230066,-0.00089377,0.00551929,0.0
 0080122,0.00023323,0.00020492,-0.02461438,0.01422897,-0.00385607,0.043
 28318,-0.01172116,0.03134370,-0.01815070,0.01299884,-0.04595965,-0.002
 54018,-0.00265302,0.01443967,-0.01737430,0.00075342,0.00296267,-0.0004
 9308,-0.00043356,-0.00019348,-0.00037188,0.00014813,0.00069908,-0.0005
 3891,0.00115064,-0.00111512,-0.00140193,-0.00033577,-0.00049891,0.0003
 6409,-0.00103696,0.00048065,0.00029585,-0.00074257,-0.00154839\\\@


 Human beings, who are almost unique in having the
 ability to learn from the experience of others, are
 also remarkable for their apparent disinclination to do so.
                               -- Douglas Adams,
                                Last Chance to See
 Job cpu time:       0 days  0 hours 20 minutes 18.4 seconds.
 Elapsed time:       0 days  0 hours  0 minutes 50.8 seconds.
 File lengths (MBytes):  RWF=     59 Int=      0 D2E=      0 Chk=      8 Scr=      1
 Normal termination of Gaussian 16 at Fri Jun 20 13:27:13 2025.
