 Entering Gaussian System, Link 0=g16
 Initial command:
 /opt/g16/l1.exe "/home/aayush/scratches/g16/Gau-46352.inp" -scrdir="/home/aayush/scratches/g16/"
 Entering Link 1 = /opt/g16/l1.exe PID=     46355.
  
 Copyright (c) 1988,1990,1992,1993,1995,1998,2003,2009,2016,
            Gaussian, Inc.  All Rights Reserved.
  
 This is part of the Gaussian(R) 16 program.  It is based on
 the Gaussian(R) 09 system (copyright 2009, Gaussian, Inc.),
 the Gaussian(R) 03 system (copyright 2003, Gaussian, Inc.),
 the Gaussian(R) 98 system (copyright 1998, Gaussian, Inc.),
 the Gaussian(R) 94 system (copyright 1995, Gaussian, Inc.),
 the Gaussian 92(TM) system (copyright 1992, Gaussian, Inc.),
 the Gaussian 90(TM) system (copyright 1990, Gaussian, Inc.),
 the Gaussian 88(TM) system (copyright 1988, Gaussian, Inc.),
 the Gaussian 86(TM) system (copyright 1986, Carnegie Mellon
 University), and the Gaussian 82(TM) system (copyright 1983,
 Carnegie Mellon University). Gaussian is a federally registered
 trademark of Gaussian, Inc.
  
 This software contains proprietary and confidential information,
 including trade secrets, belonging to Gaussian, Inc.
  
 This software is provided under written license and may be
 used, copied, transmitted, or stored only in accord with that
 written license.
  
 The following legend is applicable only to US Government
 contracts under FAR:
  
                    RESTRICTED RIGHTS LEGEND
  
 Use, reproduction and disclosure by the US Government is
 subject to restrictions as set forth in subparagraphs (a)
 and (c) of the Commercial Computer Software - Restricted
 Rights clause in FAR 52.227-19.
  
 Gaussian, Inc.
 340 Quinnipiac St., Bldg. 40, Wallingford CT 06492
  
  
 ---------------------------------------------------------------
 Warning -- This program may not be used in any manner that
 competes with the business of Gaussian, Inc. or will provide
 assistance to any competitor of Gaussian, Inc.  The licensee
 of this program is prohibited from giving any competitor of
 Gaussian, Inc. access to this program.  By using this program,
 the user acknowledges that Gaussian, Inc. is engaged in the
 business of creating and licensing software in the field of
 computational chemistry and represents and warrants to the
 licensee that it is not a competitor of Gaussian, Inc. and that
 it will not use this program in any manner prohibited above.
 ---------------------------------------------------------------
  

 Cite this work as:
 Gaussian 16, Revision A.03,
 M. J. Frisch, G. W. Trucks, H. B. Schlegel, G. E. Scuseria, 
 M. A. Robb, J. R. Cheeseman, G. Scalmani, V. Barone, 
 G. A. Petersson, H. Nakatsuji, X. Li, M. Caricato, A. V. Marenich, 
 J. Bloino, B. G. Janesko, R. Gomperts, B. Mennucci, H. P. Hratchian, 
 J. V. Ortiz, A. F. Izmaylov, J. L. Sonnenberg, D. Williams-Young, 
 F. Ding, F. Lipparini, F. Egidi, J. Goings, B. Peng, A. Petrone, 
 T. Henderson, D. Ranasinghe, V. G. Zakrzewski, J. Gao, N. Rega, 
 G. Zheng, W. Liang, M. Hada, M. Ehara, K. Toyota, R. Fukuda, 
 J. Hasegawa, M. Ishida, T. Nakajima, Y. Honda, O. Kitao, H. Nakai, 
 T. Vreven, K. Throssell, J. A. Montgomery, Jr., J. E. Peralta, 
 F. Ogliaro, M. J. Bearpark, J. J. Heyd, E. N. Brothers, K. N. Kudin, 
 V. N. Staroverov, T. A. Keith, R. Kobayashi, J. Normand, 
 K. Raghavachari, A. P. Rendell, J. C. Burant, S. S. Iyengar, 
 J. Tomasi, M. Cossi, J. M. Millam, M. Klene, C. Adamo, R. Cammi, 
 J. W. Ochterski, R. L. Martin, K. Morokuma, O. Farkas, 
 J. B. Foresman, and D. J. Fox, Gaussian, Inc., Wallingford CT, 2016.
 
 ******************************************
 Gaussian 16:  ES64L-G16RevA.03 25-Dec-2016
                16-Aug-2025 
 ******************************************
 %nprocshared=24
 Will use up to   24 processors via shared memory.
 %mem=12GB
 %chk=ethyl_propiolate_ts1.chk
 --------------------------
 # freq 6-311++g(d,p) m062x
 --------------------------
 1/10=4,30=1,38=1/1,3;
 2/12=2,17=6,18=5,40=1/2;
 3/5=4,6=6,7=1111,11=2,25=1,30=1,71=2,74=-55,140=1/1,2,3;
 4//1;
 5/5=2,38=5,98=1/2;
 8/6=4,10=90,11=11/1;
 11/6=1,8=1,9=11,15=111,16=1/1,2,10;
 10/6=1/2;
 6/7=2,8=2,9=2,10=2,28=1/1;
 7/8=1,10=1,25=1/1,2,3,16;
 1/10=4,30=1/3;
 99//99;
 -------------------
 Title Card Required
 -------------------
 Symbolic Z-matrix:
 Charge =  0 Multiplicity = 2
 O                    -1.3429    1.78025   0.10847 
 H                    -1.97777   1.83923   0.84109 
 C                    -2.7349   -0.46526  -0.45024 
 H                    -3.76448  -0.50162  -0.72033 
 C                    -1.56924  -0.39213  -0.16122 
 C                    -0.16672  -0.55613   0.2225 
 O                     0.17173  -0.8857    1.32456 
 O                     0.63785  -0.33676  -0.8098 
 C                     2.05156  -0.42225  -0.53853 
 C                     2.54202   0.84486   0.13257 
 H                     2.5012   -0.56164  -1.51991 
 H                     2.23808  -1.30306   0.07702 
 H                     3.624     0.79362   0.269 
 H                     2.30705   1.71396  -0.48316 
 H                     2.0748    0.96565   1.11018 
 

 GradGradGradGradGradGradGradGradGradGradGradGradGradGradGradGradGradGrad
 Berny optimization.
 Initialization pass.
 Trust Radius=3.00D-01 FncErr=1.00D-07 GrdErr=1.00D-07 EigMax=2.50D+02 EigMin=1.00D-04
 Number of steps in this run=      2 maximum allowed number of steps=      2.
 GradGradGradGradGradGradGradGradGradGradGradGradGradGradGradGradGradGrad

                          Input orientation:                          
 ---------------------------------------------------------------------
 Center     Atomic      Atomic             Coordinates (Angstroms)
 Number     Number       Type             X           Y           Z
 ---------------------------------------------------------------------
      1          8           0       -1.342897    1.780250    0.108472
      2          1           0       -1.977770    1.839232    0.841094
      3          6           0       -2.734895   -0.465263   -0.450243
      4          1           0       -3.764484   -0.501622   -0.720334
      5          6           0       -1.569243   -0.392127   -0.161222
      6          6           0       -0.166719   -0.556131    0.222501
      7          8           0        0.171725   -0.885696    1.324562
      8          8           0        0.637848   -0.336764   -0.809798
      9          6           0        2.051564   -0.422246   -0.538530
     10          6           0        2.542022    0.844861    0.132569
     11          1           0        2.501199   -0.561636   -1.519910
     12          1           0        2.238081   -1.303056    0.077019
     13          1           0        3.624002    0.793615    0.268995
     14          1           0        2.307050    1.713961   -0.483163
     15          1           0        2.074798    0.965646    1.110182
 ---------------------------------------------------------------------
                    Distance matrix (angstroms):
                    1          2          3          4          5
     1  O    0.000000
     2  H    0.971225   0.000000
     3  C    2.700398   2.747997   0.000000
     4  H    3.428986   3.333167   1.065047   0.000000
     5  C    2.200725   2.480019   1.203174   2.267968   0.000000
     6  C    2.618220   3.065995   2.656383   3.719653   1.463289
     7  O    3.298518   3.504184   3.431492   4.452286   2.341396
     8  O    3.041105   3.781780   3.394287   4.406326   2.301079
     9  C    4.097800   4.822155   4.787466   5.819430   3.640537
    10  C    3.996014   4.681805   5.468267   6.504804   4.303365
    11  H    4.786766   5.603541   5.345106   6.316780   4.294562
    12  H    4.725587   5.313303   5.070542   6.108097   3.922023
    13  H    5.066488   5.727169   6.522089   7.566118   5.344237
    14  H    3.698181   4.486539   5.492842   6.467502   4.423223
    15  H    3.653442   4.154379   5.255052   6.292923   4.091338
                    6          7          8          9         10
     6  C    0.000000
     7  O    1.199040   0.000000
     8  O    1.327061   2.252574   0.000000
     9  C    2.349015   2.686949   1.442042   0.000000
    10  C    3.050925   3.167646   2.431084   1.515415   0.000000
    11  H    3.186505   3.690865   2.006715   1.088443   2.170389
    12  H    2.522325   2.449567   2.069036   1.090649   2.170026
    13  H    4.024120   3.981523   3.370262   2.145455   1.091750
    14  H    3.430862   3.819123   2.664282   2.152143   1.090721
    15  H    2.850997   2.663665   2.728996   2.155234   1.090236
                   11         12         13         14         15
    11  H    0.000000
    12  H    1.780201   0.000000
    13  H    2.509497   2.520647   0.000000
    14  H    2.508163   3.069357   1.774018   0.000000
    15  H    3.071122   2.498219   1.771221   1.775574   0.000000
 Stoichiometry    C5H7O3(2)
 Framework group  C1[X(C5H7O3)]
 Deg. of freedom    39
 Full point group                 C1      NOp   1
 Largest Abelian subgroup         C1      NOp   1
 Largest concise Abelian subgroup C1      NOp   1
                         Standard orientation:                         
 ---------------------------------------------------------------------
 Center     Atomic      Atomic             Coordinates (Angstroms)
 Number     Number       Type             X           Y           Z
 ---------------------------------------------------------------------
      1          8           0       -1.397321    1.759779    0.084724
      2          1           0       -2.031256    1.831626    0.817009
      3          6           0       -2.793003   -0.492677   -0.435525
      4          1           0       -3.822955   -0.532047   -0.703803
      5          6           0       -1.626916   -0.416413   -0.149079
      6          6           0       -0.224167   -0.576028    0.235671
      7          8           0        0.115120   -0.887956    1.342596
      8          8           0        0.579488   -0.374706   -0.801005
      9          6           0        1.993404   -0.457668   -0.529995
     10          6           0        2.486357    0.819591    0.119689
     11          1           0        2.441702   -0.613734   -1.509474
     12          1           0        2.179450   -1.328530    0.099690
     13          1           0        3.568426    0.769105    0.255695
     14          1           0        2.251839    1.678807   -0.509931
     15          1           0        2.020440    0.957016    1.095727
 ---------------------------------------------------------------------
 Rotational constants (GHZ):           3.4851769           1.3065080           1.1744965
 Standard basis: 6-311++G(d,p) (5D, 7F)
 There are   233 symmetry adapted cartesian basis functions of A   symmetry.
 There are   225 symmetry adapted basis functions of A   symmetry.
   225 basis functions,   351 primitive gaussians,   233 cartesian basis functions
    31 alpha electrons       30 beta electrons
       nuclear repulsion energy       360.3640874171 Hartrees.
 NAtoms=   15 NActive=   15 NUniq=   15 SFac= 1.00D+00 NAtFMM=   60 NAOKFM=F Big=F
 Integral buffers will be    131072 words long.
 Raffenetti 2 integral format.
 Two-electron integral symmetry is turned on.
 One-electron integrals computed using PRISM.
 NBasis=   225 RedAO= T EigKep=  1.12D-06  NBF=   225
 NBsUse=   225 1.00D-06 EigRej= -1.00D+00 NBFU=   225
 ExpMin= 3.60D-02 ExpMax= 8.59D+03 ExpMxC= 1.30D+03 IAcc=3 IRadAn=         5 AccDes= 0.00D+00
 Harris functional with IExCor= 1009 and IRadAn=       5 diagonalized for initial guess.
 HarFok:  IExCor= 1009 AccDes= 0.00D+00 IRadAn=         5 IDoV= 1 UseB2=F ITyADJ=14
 ICtDFT=  3500011 ScaDFX=  1.000000  1.000000  1.000000  1.000000
 FoFCou: FMM=F IPFlag=           0 FMFlag=      100000 FMFlg1=           0
         NFxFlg=           0 DoJE=T BraDBF=F KetDBF=T FulRan=T
         wScrn=  0.000000 ICntrl=       500 IOpCl=  0 I1Cent=   200000004 NGrid=           0
         NMat0=    1 NMatS0=      1 NMatT0=    0 NMatD0=    1 NMtDS0=    0 NMtDT0=    0
 Petite list used in FoFCou.
 Initial guess <Sx>= 0.0000 <Sy>= 0.0000 <Sz>= 0.5000 <S**2>= 0.7500 S= 0.5000
 Requested convergence on RMS density matrix=1.00D-08 within 128 cycles.
 Requested convergence on MAX density matrix=1.00D-06.
 Requested convergence on             energy=1.00D-06.
 No special actions if energy rises.
 Restarting incremental Fock formation.
 SCF Done:  E(UM062X) =  -420.205730299     A.U. after   24 cycles
            NFock= 24  Conv=0.32D-08     -V/T= 2.0032
 <Sx>= 0.0000 <Sy>= 0.0000 <Sz>= 0.5000 <S**2>= 0.7600 S= 0.5050
 <L.S>=  0.00000000000    
 Annihilation of the first spin contaminant:
 S**2 before annihilation     0.7600,   after     0.7501
 DoSCS=F DFT=T ScalE2(SS,OS)=  1.000000  1.000000
 Range of M.O.s used for correlation:     1   225
 NBasis=   225 NAE=    31 NBE=    30 NFC=     0 NFV=     0
 NROrb=    225 NOA=    31 NOB=    30 NVA=   194 NVB=   195

 **** Warning!!: The largest alpha MO coefficient is  0.31716615D+03


 **** Warning!!: The largest beta MO coefficient is  0.26203221D+03

 Symmetrizing basis deriv contribution to polar:
 IMax=3 JMax=2 DiffMx= 0.00D+00
 G2DrvN: will do    16 centers at a time, making    1 passes.
 Calling FoFCou, ICntrl=  3107 FMM=F I1Cent=   0 AccDes= 0.00D+00.
 End of G2Drv F.D. properties file   721 does not exist.
 End of G2Drv F.D. properties file   722 does not exist.
 End of G2Drv F.D. properties file   788 does not exist.
          IDoAtm=111111111111111
          Differentiating once with respect to electric field.
                with respect to dipole field.
          Differentiating once with respect to nuclear coordinates.
 Keep R1 and R2 ints in memory in canonical form, NReq=671901991.
          There are    48 degrees of freedom in the 1st order CPHF.  IDoFFX=6 NUNeed=     3.
     45 vectors produced by pass  0 Test12= 2.47D-14 2.08D-09 XBig12= 9.45D+01 3.53D+00.
 AX will form    45 AO Fock derivatives at one time.
     45 vectors produced by pass  1 Test12= 2.47D-14 2.08D-09 XBig12= 2.07D+01 5.38D-01.
     45 vectors produced by pass  2 Test12= 2.47D-14 2.08D-09 XBig12= 7.08D-01 1.04D-01.
     45 vectors produced by pass  3 Test12= 2.47D-14 2.08D-09 XBig12= 1.01D-02 1.35D-02.
     45 vectors produced by pass  4 Test12= 2.47D-14 2.08D-09 XBig12= 9.41D-05 1.32D-03.
     45 vectors produced by pass  5 Test12= 2.47D-14 2.08D-09 XBig12= 7.02D-07 8.74D-05.
     38 vectors produced by pass  6 Test12= 2.47D-14 2.08D-09 XBig12= 6.49D-09 1.34D-05.
     20 vectors produced by pass  7 Test12= 2.47D-14 2.08D-09 XBig12= 4.56D-11 7.32D-07.
      4 vectors produced by pass  8 Test12= 2.47D-14 2.08D-09 XBig12= 3.85D-13 5.48D-08.
      3 vectors produced by pass  9 Test12= 2.47D-14 2.08D-09 XBig12= 6.14D-15 1.54D-08.
      2 vectors produced by pass 10 Test12= 2.47D-14 2.08D-09 XBig12= 1.10D-15 4.22D-09.
      1 vectors produced by pass 11 Test12= 2.47D-14 2.08D-09 XBig12= 2.47D-16 2.16D-09.
 InvSVY:  IOpt=1 It=  1 EMax= 1.42D-14
 Solved reduced A of dimension   338 with    48 vectors.
 Isotropic polarizability for W=    0.000000       72.20 Bohr**3.
 End of Minotr F.D. properties file   721 does not exist.
 End of Minotr F.D. properties file   722 does not exist.
 End of Minotr F.D. properties file   788 does not exist.

 **********************************************************************

            Population analysis using the SCF density.

 **********************************************************************

 Orbital symmetries:
 Alpha Orbitals:
       Occupied  (A) (A) (A) (A) (A) (A) (A) (A) (A) (A) (A) (A)
                 (A) (A) (A) (A) (A) (A) (A) (A) (A) (A) (A) (A)
                 (A) (A) (A) (A) (A) (A) (A)
       Virtual   (A) (A) (A) (A) (A) (A) (A) (A) (A) (A) (A) (A)
                 (A) (A) (A) (A) (A) (A) (A) (A) (A) (A) (A) (A)
                 (A) (A) (A) (A) (A) (A) (A) (A) (A) (A) (A) (A)
                 (A) (A) (A) (A) (A) (A) (A) (A) (A) (A) (A) (A)
                 (A) (A) (A) (A) (A) (A) (A) (A) (A) (A) (A) (A)
                 (A) (A) (A) (A) (A) (A) (A) (A) (A) (A) (A) (A)
                 (A) (A) (A) (A) (A) (A) (A) (A) (A) (A) (A) (A)
                 (A) (A) (A) (A) (A) (A) (A) (A) (A) (A) (A) (A)
                 (A) (A) (A) (A) (A) (A) (A) (A) (A) (A) (A) (A)
                 (A) (A) (A) (A) (A) (A) (A) (A) (A) (A) (A) (A)
                 (A) (A) (A) (A) (A) (A) (A) (A) (A) (A) (A) (A)
                 (A) (A) (A) (A) (A) (A) (A) (A) (A) (A) (A) (A)
                 (A) (A) (A) (A) (A) (A) (A) (A) (A) (A) (A) (A)
                 (A) (A) (A) (A) (A) (A) (A) (A) (A) (A) (A) (A)
                 (A) (A) (A) (A) (A) (A) (A) (A) (A) (A) (A) (A)
                 (A) (A) (A) (A) (A) (A) (A) (A) (A) (A) (A) (A)
                 (A) (A)
 Beta  Orbitals:
       Occupied  (A) (A) (A) (A) (A) (A) (A) (A) (A) (A) (A) (A)
                 (A) (A) (A) (A) (A) (A) (A) (A) (A) (A) (A) (A)
                 (A) (A) (A) (A) (A) (A)
       Virtual   (A) (A) (A) (A) (A) (A) (A) (A) (A) (A) (A) (A)
                 (A) (A) (A) (A) (A) (A) (A) (A) (A) (A) (A) (A)
                 (A) (A) (A) (A) (A) (A) (A) (A) (A) (A) (A) (A)
                 (A) (A) (A) (A) (A) (A) (A) (A) (A) (A) (A) (A)
                 (A) (A) (A) (A) (A) (A) (A) (A) (A) (A) (A) (A)
                 (A) (A) (A) (A) (A) (A) (A) (A) (A) (A) (A) (A)
                 (A) (A) (A) (A) (A) (A) (A) (A) (A) (A) (A) (A)
                 (A) (A) (A) (A) (A) (A) (A) (A) (A) (A) (A) (A)
                 (A) (A) (A) (A) (A) (A) (A) (A) (A) (A) (A) (A)
                 (A) (A) (A) (A) (A) (A) (A) (A) (A) (A) (A) (A)
                 (A) (A) (A) (A) (A) (A) (A) (A) (A) (A) (A) (A)
                 (A) (A) (A) (A) (A) (A) (A) (A) (A) (A) (A) (A)
                 (A) (A) (A) (A) (A) (A) (A) (A) (A) (A) (A) (A)
                 (A) (A) (A) (A) (A) (A) (A) (A) (A) (A) (A) (A)
                 (A) (A) (A) (A) (A) (A) (A) (A) (A) (A) (A) (A)
                 (A) (A) (A) (A) (A) (A) (A) (A) (A) (A) (A) (A)
                 (A) (A) (A)
 The electronic state is 2-A.
 Alpha  occ. eigenvalues --  -19.68006 -19.67238 -19.62903 -10.70522 -10.60301
 Alpha  occ. eigenvalues --  -10.57992 -10.57641 -10.53353  -1.25517  -1.16214
 Alpha  occ. eigenvalues --   -1.13086  -0.90641  -0.87182  -0.77955  -0.70500
 Alpha  occ. eigenvalues --   -0.64316  -0.61692  -0.58387  -0.57047  -0.54612
 Alpha  occ. eigenvalues --   -0.53242  -0.50463  -0.48604  -0.46172  -0.45027
 Alpha  occ. eigenvalues --   -0.42168  -0.41700  -0.39458  -0.38254  -0.36429
 Alpha  occ. eigenvalues --   -0.35601
 Alpha virt. eigenvalues --   -0.00977  -0.00202   0.00515   0.01473   0.02525
 Alpha virt. eigenvalues --    0.02794   0.03676   0.04412   0.05629   0.06175
 Alpha virt. eigenvalues --    0.07150   0.07679   0.08464   0.09813   0.10750
 Alpha virt. eigenvalues --    0.10982   0.11599   0.12767   0.12809   0.13720
 Alpha virt. eigenvalues --    0.14361   0.14830   0.15533   0.15769   0.15987
 Alpha virt. eigenvalues --    0.16704   0.17718   0.18707   0.18897   0.20712
 Alpha virt. eigenvalues --    0.21185   0.21858   0.23258   0.24157   0.24318
 Alpha virt. eigenvalues --    0.25680   0.25950   0.28858   0.29253   0.30403
 Alpha virt. eigenvalues --    0.31220   0.32134   0.32440   0.33572   0.34392
 Alpha virt. eigenvalues --    0.34670   0.35507   0.37072   0.38710   0.40382
 Alpha virt. eigenvalues --    0.41065   0.43316   0.45278   0.46834   0.50085
 Alpha virt. eigenvalues --    0.50333   0.53308   0.55388   0.56152   0.58727
 Alpha virt. eigenvalues --    0.59693   0.61142   0.63424   0.66663   0.67225
 Alpha virt. eigenvalues --    0.70056   0.70668   0.71023   0.72297   0.73407
 Alpha virt. eigenvalues --    0.74496   0.75808   0.77292   0.78026   0.80168
 Alpha virt. eigenvalues --    0.84792   0.88219   0.90721   0.95556   0.99470
 Alpha virt. eigenvalues --    1.02568   1.05652   1.06608   1.09180   1.10167
 Alpha virt. eigenvalues --    1.14046   1.17278   1.18813   1.20309   1.23152
 Alpha virt. eigenvalues --    1.24621   1.25884   1.29648   1.31828   1.34941
 Alpha virt. eigenvalues --    1.35491   1.36850   1.37533   1.40592   1.44287
 Alpha virt. eigenvalues --    1.45003   1.49211   1.51689   1.52850   1.54537
 Alpha virt. eigenvalues --    1.58584   1.59891   1.61629   1.62454   1.65278
 Alpha virt. eigenvalues --    1.66705   1.67747   1.70439   1.72822   1.75074
 Alpha virt. eigenvalues --    1.78420   1.81571   1.83708   1.87015   1.88953
 Alpha virt. eigenvalues --    1.91539   1.96179   1.99608   2.03412   2.05464
 Alpha virt. eigenvalues --    2.09336   2.10065   2.14349   2.21523   2.31899
 Alpha virt. eigenvalues --    2.35935   2.41101   2.47412   2.51879   2.52241
 Alpha virt. eigenvalues --    2.54554   2.56256   2.62153   2.62883   2.64086
 Alpha virt. eigenvalues --    2.65212   2.66548   2.71728   2.73615   2.75880
 Alpha virt. eigenvalues --    2.81176   2.82894   2.84235   2.90399   2.93815
 Alpha virt. eigenvalues --    2.94409   2.95470   2.99213   3.02899   3.05362
 Alpha virt. eigenvalues --    3.06887   3.12541   3.15429   3.16763   3.17716
 Alpha virt. eigenvalues --    3.25444   3.26988   3.32058   3.36452   3.38832
 Alpha virt. eigenvalues --    3.44912   3.53611   3.66302   3.77341   3.85600
 Alpha virt. eigenvalues --    3.86331   3.88129   3.91321   4.03830   4.13918
 Alpha virt. eigenvalues --    4.19799   4.28620   5.09276   5.12580   5.16336
 Alpha virt. eigenvalues --    5.20345   5.32956   5.47467   5.57263   5.73916
 Alpha virt. eigenvalues --    5.95143  23.62496  23.93722  23.94540  24.06315
 Alpha virt. eigenvalues --   25.12548  49.94329  50.01215  50.11749
  Beta  occ. eigenvalues --  -19.68010 -19.65692 -19.62918 -10.70507 -10.60301
  Beta  occ. eigenvalues --  -10.57983 -10.57527 -10.53354  -1.25524  -1.16247
  Beta  occ. eigenvalues --   -1.05894  -0.90316  -0.86894  -0.77822  -0.70367
  Beta  occ. eigenvalues --   -0.64263  -0.61396  -0.58344  -0.56547  -0.53223
  Beta  occ. eigenvalues --   -0.51987  -0.49030  -0.46498  -0.45066  -0.41698
  Beta  occ. eigenvalues --   -0.39418  -0.39028  -0.38363  -0.38069  -0.36049
  Beta virt. eigenvalues --   -0.09075  -0.00379   0.00030   0.00560   0.01768
  Beta virt. eigenvalues --    0.02633   0.02824   0.03702   0.04504   0.05700
  Beta virt. eigenvalues --    0.06195   0.07243   0.07695   0.08491   0.09906
  Beta virt. eigenvalues --    0.10830   0.11190   0.11771   0.12766   0.12954
  Beta virt. eigenvalues --    0.13754   0.14408   0.15005   0.15548   0.15814
  Beta virt. eigenvalues --    0.16147   0.16850   0.17850   0.18806   0.19034
  Beta virt. eigenvalues --    0.20801   0.21291   0.21973   0.23123   0.24187
  Beta virt. eigenvalues --    0.24420   0.25767   0.25973   0.29059   0.29128
  Beta virt. eigenvalues --    0.30458   0.31172   0.32191   0.32526   0.33605
  Beta virt. eigenvalues --    0.34444   0.34655   0.35610   0.37076   0.38771
  Beta virt. eigenvalues --    0.40376   0.41149   0.43269   0.45288   0.46852
  Beta virt. eigenvalues --    0.50153   0.50385   0.53331   0.55491   0.56568
  Beta virt. eigenvalues --    0.59177   0.59857   0.61542   0.63439   0.66791
  Beta virt. eigenvalues --    0.67253   0.70061   0.70663   0.71074   0.72285
  Beta virt. eigenvalues --    0.73438   0.74504   0.75803   0.77388   0.78116
  Beta virt. eigenvalues --    0.80204   0.84954   0.88257   0.91023   0.95705
  Beta virt. eigenvalues --    0.99587   1.02832   1.05993   1.07411   1.09900
  Beta virt. eigenvalues --    1.11321   1.14698   1.17435   1.19338   1.20542
  Beta virt. eigenvalues --    1.23749   1.24968   1.25959   1.29830   1.32843
  Beta virt. eigenvalues --    1.35140   1.35690   1.36969   1.38310   1.40958
  Beta virt. eigenvalues --    1.44747   1.45640   1.49317   1.51881   1.53532
  Beta virt. eigenvalues --    1.54956   1.58592   1.59901   1.61708   1.62467
  Beta virt. eigenvalues --    1.65294   1.66727   1.67787   1.70556   1.73182
  Beta virt. eigenvalues --    1.75167   1.78855   1.81586   1.83931   1.87095
  Beta virt. eigenvalues --    1.89205   1.91611   1.96552   1.99626   2.03492
  Beta virt. eigenvalues --    2.05531   2.10009   2.10821   2.14358   2.21530
  Beta virt. eigenvalues --    2.31910   2.35941   2.41446   2.47460   2.51862
  Beta virt. eigenvalues --    2.52224   2.54568   2.56314   2.62260   2.63025
  Beta virt. eigenvalues --    2.64701   2.65329   2.66629   2.71918   2.73747
  Beta virt. eigenvalues --    2.76253   2.82093   2.82999   2.86269   2.91015
  Beta virt. eigenvalues --    2.94790   2.97104   2.98072   2.99525   3.03753
  Beta virt. eigenvalues --    3.06397   3.07973   3.13069   3.16299   3.18892
  Beta virt. eigenvalues --    3.19399   3.26486   3.27141   3.32131   3.36818
  Beta virt. eigenvalues --    3.38806   3.44872   3.53985   3.66294   3.77394
  Beta virt. eigenvalues --    3.85685   3.86427   3.91322   3.91437   4.03826
  Beta virt. eigenvalues --    4.13887   4.19771   4.28617   5.11244   5.15912
  Beta virt. eigenvalues --    5.20431   5.21198   5.33013   5.47506   5.59500
  Beta virt. eigenvalues --    5.73901   5.95134  23.62536  23.93726  23.94546
  Beta virt. eigenvalues --   24.06315  25.12771  49.93877  50.01195  50.11769
          Condensed to atoms (all electrons):
               1          2          3          4          5          6
     1  O    8.056693   0.241449  -0.118358  -0.001020   0.481592  -0.415809
     2  H    0.241449   0.508114  -0.152758  -0.002489   0.088200   0.083354
     3  C   -0.118358  -0.152758  45.828716   0.803295 -16.535051 -21.916197
     4  H   -0.001020  -0.002489   0.803295   0.435857  -0.295854  -0.113108
     5  C    0.481592   0.088200 -16.535051  -0.295854  22.961295  -1.828657
     6  C   -0.415809   0.083354 -21.916197  -0.113108  -1.828657  29.726155
     7  O   -0.010055  -0.000872   0.054081  -0.001432   0.238216   0.117181
     8  O   -0.003659  -0.000395  -0.065391  -0.003710  -0.178073   0.083665
     9  C   -0.030633   0.005030  -0.398188  -0.001203  -0.586509   0.850006
    10  C    0.021806  -0.004651   0.121649   0.000036   0.135815  -0.378706
    11  H   -0.000149   0.000174  -0.032149  -0.000001  -0.037292   0.076871
    12  H   -0.000504   0.000129  -0.027515  -0.000290  -0.047759   0.057024
    13  H    0.000632   0.000073  -0.008727  -0.000034  -0.012247   0.023696
    14  H   -0.001013  -0.000251   0.006195   0.000045   0.017087  -0.022961
    15  H    0.001468  -0.000096   0.036714  -0.000057   0.018833  -0.072347
               7          8          9         10         11         12
     1  O   -0.010055  -0.003659  -0.030633   0.021806  -0.000149  -0.000504
     2  H   -0.000872  -0.000395   0.005030  -0.004651   0.000174   0.000129
     3  C    0.054081  -0.065391  -0.398188   0.121649  -0.032149  -0.027515
     4  H   -0.001432  -0.003710  -0.001203   0.000036  -0.000001  -0.000290
     5  C    0.238216  -0.178073  -0.586509   0.135815  -0.037292  -0.047759
     6  C    0.117181   0.083665   0.850006  -0.378706   0.076871   0.057024
     7  O    7.985854  -0.143915   0.038834  -0.066395   0.003659  -0.017842
     8  O   -0.143915   8.255321   0.126762  -0.024954  -0.094226  -0.005315
     9  C    0.038834   0.126762   5.483630   0.000189   0.454511   0.414388
    10  C   -0.066395  -0.024954   0.000189   5.502482  -0.060010  -0.032775
    11  H    0.003659  -0.094226   0.454511  -0.060010   0.533294  -0.038207
    12  H   -0.017842  -0.005315   0.414388  -0.032775  -0.038207   0.518751
    13  H   -0.001979   0.015108  -0.042098   0.395629   0.000713  -0.004113
    14  H    0.001565  -0.001665  -0.038989   0.420148  -0.011261   0.004657
    15  H    0.001278  -0.020726  -0.008092   0.386206   0.009112  -0.010050
              13         14         15
     1  O    0.000632  -0.001013   0.001468
     2  H    0.000073  -0.000251  -0.000096
     3  C   -0.008727   0.006195   0.036714
     4  H   -0.000034   0.000045  -0.000057
     5  C   -0.012247   0.017087   0.018833
     6  C    0.023696  -0.022961  -0.072347
     7  O   -0.001979   0.001565   0.001278
     8  O    0.015108  -0.001665  -0.020726
     9  C   -0.042098  -0.038989  -0.008092
    10  C    0.395629   0.420148   0.386206
    11  H    0.000713  -0.011261   0.009112
    12  H   -0.004113   0.004657  -0.010050
    13  H    0.529664  -0.029956  -0.036660
    14  H   -0.029956   0.529705  -0.044151
    15  H   -0.036660  -0.044151   0.549421
          Atomic-Atomic Spin Densities.
               1          2          3          4          5          6
     1  O    0.978224   0.012769  -0.284282  -0.003201  -0.014782   0.201538
     2  H    0.012769  -0.033076   0.012285   0.000133  -0.004891  -0.007295
     3  C   -0.284282   0.012285   1.190231   0.042961  -0.374205  -0.404034
     4  H   -0.003201   0.000133   0.042961  -0.006154  -0.025588  -0.017364
     5  C   -0.014782  -0.004891  -0.374205  -0.025588   0.230858   0.103166
     6  C    0.201538  -0.007295  -0.404034  -0.017364   0.103166   0.157706
     7  O    0.001768  -0.000195   0.008176   0.000011   0.001856  -0.008238
     8  O    0.001211   0.000330  -0.014538  -0.000201   0.003577   0.017093
     9  C    0.005750  -0.000577  -0.012933  -0.000046  -0.017547   0.025826
    10  C   -0.004018   0.000695   0.012666   0.000008   0.021409  -0.028377
    11  H    0.000344  -0.000017  -0.001848  -0.000027  -0.001020   0.002643
    12  H    0.000238  -0.000029   0.000422  -0.000014  -0.000498  -0.000554
    13  H   -0.000084   0.000033   0.000873   0.000005   0.001631  -0.002245
    14  H   -0.000021  -0.000049   0.000626   0.000006  -0.000191  -0.000425
    15  H    0.000048  -0.000196  -0.005993   0.000013  -0.011097   0.018235
               7          8          9         10         11         12
     1  O    0.001768   0.001211   0.005750  -0.004018   0.000344   0.000238
     2  H   -0.000195   0.000330  -0.000577   0.000695  -0.000017  -0.000029
     3  C    0.008176  -0.014538  -0.012933   0.012666  -0.001848   0.000422
     4  H    0.000011  -0.000201  -0.000046   0.000008  -0.000027  -0.000014
     5  C    0.001856   0.003577  -0.017547   0.021409  -0.001020  -0.000498
     6  C   -0.008238   0.017093   0.025826  -0.028377   0.002643  -0.000554
     7  O   -0.010756   0.000160  -0.000068   0.000846   0.000060  -0.000308
     8  O    0.000160  -0.005231  -0.001737   0.000271   0.000047   0.000086
     9  C   -0.000068  -0.001737   0.004629  -0.003814   0.000465   0.000838
    10  C    0.000846   0.000271  -0.003814   0.001355  -0.000823  -0.000745
    11  H    0.000060   0.000047   0.000465  -0.000823  -0.000077   0.000245
    12  H   -0.000308   0.000086   0.000838  -0.000745   0.000245   0.000085
    13  H    0.000041   0.000061  -0.000976   0.001009  -0.000073  -0.000217
    14  H   -0.000054   0.000003  -0.000071   0.000044   0.000008   0.000034
    15  H   -0.000350  -0.000853   0.000248   0.000264   0.000198   0.000417
              13         14         15
     1  O   -0.000084  -0.000021   0.000048
     2  H    0.000033  -0.000049  -0.000196
     3  C    0.000873   0.000626  -0.005993
     4  H    0.000005   0.000006   0.000013
     5  C    0.001631  -0.000191  -0.011097
     6  C   -0.002245  -0.000425   0.018235
     7  O    0.000041  -0.000054  -0.000350
     8  O    0.000061   0.000003  -0.000853
     9  C   -0.000976  -0.000071   0.000248
    10  C    0.001009   0.000044   0.000264
    11  H   -0.000073   0.000008   0.000198
    12  H   -0.000217   0.000034   0.000417
    13  H    0.000563  -0.000219  -0.000342
    14  H   -0.000219   0.000248  -0.000091
    15  H   -0.000342  -0.000091  -0.001262
 Mulliken charges and spin densities:
               1          2
     1  O   -0.222439   0.895502
     2  H    0.234991  -0.020080
     3  C   -1.596317   0.170407
     4  H    0.179964  -0.009461
     5  C    1.580404  -0.087322
     6  C   -0.270168   0.057673
     7  O   -0.198179  -0.007052
     8  O    0.061172   0.000281
     9  C   -0.267639  -0.000013
    10  C   -0.416468   0.000792
    11  H    0.194961   0.000126
    12  H    0.189421  -0.000002
    13  H    0.170300   0.000060
    14  H    0.170845  -0.000150
    15  H    0.189150  -0.000761
 Sum of Mulliken charges =  -0.00000   1.00000
 Mulliken charges and spin densities with hydrogens summed into heavy atoms:
               1          2
     1  O    0.012552   0.875422
     3  C   -1.416352   0.160946
     5  C    1.580404  -0.087322
     6  C   -0.270168   0.057673
     7  O   -0.198179  -0.007052
     8  O    0.061172   0.000281
     9  C    0.116744   0.000111
    10  C    0.113827  -0.000059
 APT charges:
               1
     1  O   -0.202558
     2  H    0.260787
     3  C   -0.196568
     4  H    0.234007
     5  C   -0.364549
     6  C    1.471979
     7  O   -0.779160
     8  O   -0.943104
     9  C    0.534898
    10  C   -0.041608
    11  H   -0.013861
    12  H   -0.011988
    13  H    0.008522
    14  H    0.014750
    15  H    0.028452
 Sum of APT charges =   0.00000
 APT charges with hydrogens summed into heavy atoms:
               1
     1  O    0.058229
     3  C    0.037439
     5  C   -0.364549
     6  C    1.471979
     7  O   -0.779160
     8  O   -0.943104
     9  C    0.509050
    10  C    0.010116
 Electronic spatial extent (au):  <R**2>=           1074.2671
 Charge=             -0.0000 electrons
 Dipole moment (field-independent basis, Debye):
    X=             -0.6359    Y=              0.1859    Z=             -0.6261  Tot=              0.9115
 Quadrupole moment (field-independent basis, Debye-Ang):
   XX=            -30.3071   YY=            -48.5816   ZZ=            -51.2876
   XY=             -0.5326   XZ=             -1.9085   YZ=              5.1030
 Traceless Quadrupole moment (field-independent basis, Debye-Ang):
   XX=             13.0850   YY=             -5.1895   ZZ=             -7.8955
   XY=             -0.5326   XZ=             -1.9085   YZ=              5.1030
 Octapole moment (field-independent basis, Debye-Ang**2):
  XXX=            -34.7158  YYY=              4.2824  ZZZ=             -1.6780  XYY=              0.7972
  XXY=             -0.5035  XXZ=             -5.5437  XZZ=              0.0838  YZZ=              7.2115
  YYZ=              4.0735  XYZ=             -6.7511
 Hexadecapole moment (field-independent basis, Debye-Ang**3):
 XXXX=           -745.3208 YYYY=           -272.9524 ZZZZ=           -175.5762 XXXY=             -6.9779
 XXXZ=             19.8772 YYYX=            -21.6433 YYYZ=             10.5312 ZZZX=            -10.6966
 ZZZY=              7.7331 XXYY=           -203.2656 XXZZ=           -182.1170 YYZZ=            -74.1221
 XXYZ=             19.7574 YYXZ=            -13.7791 ZZXY=             -9.1403
 N-N= 3.603640874171D+02 E-N=-1.705631912463D+03  KE= 4.188787351022D+02
  Exact polarizability:  91.547   5.245  65.714   4.340   1.216  59.327
 Approx polarizability:  99.201   4.534  70.249   7.404  -1.810  76.674
                          Isotropic Fermi Contact Couplings
        Atom                 a.u.       MegaHertz       Gauss      10(-4) cm-1
     1  O(17)              0.12914     -78.28649     -27.93456     -26.11356
     2  H(1)              -0.01477     -66.02121     -23.55801     -22.02230
     3  C(13)              0.03023      33.98917      12.12818      11.33757
     4  H(1)              -0.00310     -13.85867      -4.94512      -4.62275
     5  C(13)              0.01681      18.90052       6.74418       6.30454
     6  C(13)              0.00911      10.24296       3.65494       3.41668
     7  O(17)             -0.00262       1.59012       0.56740       0.53041
     8  O(17)             -0.00097       0.58611       0.20914       0.19550
     9  C(13)             -0.00002      -0.01759      -0.00628      -0.00587
    10  C(13)             -0.00037      -0.41038      -0.14643      -0.13689
    11  H(1)               0.00001       0.04241       0.01513       0.01415
    12  H(1)              -0.00004      -0.18970      -0.06769      -0.06328
    13  H(1)              -0.00000      -0.00565      -0.00202      -0.00189
    14  H(1)               0.00001       0.02702       0.00964       0.00901
    15  H(1)               0.00001       0.03061       0.01092       0.01021
 --------------------------------------------------------
       Center         ----  Spin Dipole Couplings  ----
                      3XX-RR        3YY-RR        3ZZ-RR
 --------------------------------------------------------
     1   Atom       -1.094748      2.624890     -1.530142
     2   Atom        0.006005     -0.053760      0.047755
     3   Atom       -0.118984      0.208075     -0.089091
     4   Atom        0.016635     -0.002651     -0.013984
     5   Atom        0.023057      0.012568     -0.035625
     6   Atom        0.002442      0.011841     -0.014283
     7   Atom        0.019742     -0.029455      0.009713
     8   Atom        0.006506     -0.008076      0.001570
     9   Atom        0.002337     -0.000424     -0.001913
    10   Atom        0.003674     -0.001674     -0.002000
    11   Atom        0.001219     -0.000371     -0.000849
    12   Atom        0.001050      0.000256     -0.001306
    13   Atom        0.001874     -0.000864     -0.001010
    14   Atom        0.004857     -0.002476     -0.002381
    15   Atom        0.004173     -0.002090     -0.002083
 --------------------------------------------------------
                        XY            XZ            YZ
 --------------------------------------------------------
     1   Atom        1.686845      0.396604      1.007579
     2   Atom        0.008193     -0.134313      0.036911
     3   Atom        0.016717     -0.006221      0.026674
     4   Atom        0.005548      0.008927      0.002455
     5   Atom       -0.002713      0.015329      0.006041
     6   Atom       -0.015970      0.002930     -0.001705
     7   Atom       -0.023666     -0.003057     -0.016905
     8   Atom       -0.007659     -0.004642      0.002460
     9   Atom       -0.002597     -0.000596      0.000420
    10   Atom       -0.001564      0.000080     -0.000004
    11   Atom       -0.001331     -0.000912      0.000560
    12   Atom       -0.001726      0.000100     -0.000022
    13   Atom       -0.000570      0.000116     -0.000006
    14   Atom       -0.000290     -0.001221      0.000120
    15   Atom       -0.001698      0.002063     -0.000469
 --------------------------------------------------------


 ---------------------------------------------------------------------------------
              Anisotropic Spin Dipole Couplings in Principal Axis System
 ---------------------------------------------------------------------------------

       Atom             a.u.   MegaHertz   Gauss  10(-4) cm-1        Axes

              Baa    -1.7654   127.741    45.581    42.610 -0.3872 -0.0624  0.9199
     1 O(17)  Bbb    -1.7432   126.140    45.010    42.076  0.8521 -0.4054  0.3311
              Bcc     3.5086  -253.881   -90.591   -84.685  0.3523  0.9120  0.2101
 
              Baa    -0.1227   -65.450   -23.354   -21.832  0.6708 -0.4106  0.6176
     2 H(1)   Bbb    -0.0425   -22.691    -8.097    -7.569  0.3778  0.9058  0.1918
              Bcc     0.1652    88.141    31.451    29.401 -0.6382  0.1047  0.7628
 
              Baa    -0.1217   -16.333    -5.828    -5.448  0.9682 -0.0685  0.2407
     3 C(13)  Bbb    -0.0895   -12.013    -4.287    -4.007 -0.2454 -0.0729  0.9667
              Bcc     0.2112    28.346    10.114     9.455  0.0487  0.9950  0.0874
 
              Baa    -0.0165    -8.784    -3.134    -2.930 -0.2485 -0.0719  0.9660
     4 H(1)   Bbb    -0.0041    -2.205    -0.787    -0.735 -0.2601  0.9656  0.0049
              Bcc     0.0206    10.989     3.921     3.665  0.9331  0.2500  0.2586
 
              Baa    -0.0402    -5.393    -1.925    -1.799 -0.2387 -0.1226  0.9633
     5 C(13)  Bbb     0.0133     1.780     0.635     0.594  0.0555  0.9887  0.1395
              Bcc     0.0269     3.613     1.289     1.205  0.9695 -0.0867  0.2292
 
              Baa    -0.0149    -1.994    -0.712    -0.665 -0.2384 -0.0808  0.9678
     6 C(13)  Bbb    -0.0092    -1.232    -0.440    -0.411  0.7639  0.5997  0.2383
              Bcc     0.0240     3.226     1.151     1.076 -0.5996  0.7961 -0.0813
 
              Baa    -0.0443     3.202     1.143     1.068  0.3436  0.8905  0.2984
     7 O(17)  Bbb     0.0142    -1.029    -0.367    -0.343 -0.3098 -0.1925  0.9311
              Bcc     0.0300    -2.173    -0.775    -0.725  0.8865 -0.4124  0.2098
 
              Baa    -0.0114     0.823     0.294     0.275  0.3853  0.9220 -0.0370
     8 O(17)  Bbb    -0.0010     0.070     0.025     0.023  0.4168 -0.1381  0.8984
              Bcc     0.0123    -0.893    -0.319    -0.298  0.8233 -0.3616 -0.4375
 
              Baa    -0.0020    -0.275    -0.098    -0.092 -0.2531 -0.6012  0.7579
     9 C(13)  Bbb    -0.0019    -0.260    -0.093    -0.087  0.4618  0.6133  0.6408
              Bcc     0.0040     0.535     0.191     0.178  0.8501 -0.5122 -0.1224
 
              Baa    -0.0021    -0.282    -0.101    -0.094  0.2598  0.9507 -0.1691
    10 C(13)  Bbb    -0.0020    -0.268    -0.096    -0.089  0.0321  0.1665  0.9855
              Bcc     0.0041     0.550     0.196     0.183  0.9651 -0.2615  0.0128
 
              Baa    -0.0012    -0.652    -0.232    -0.217  0.0890 -0.4471  0.8901
    11 H(1)   Bbb    -0.0011    -0.594    -0.212    -0.198  0.5615  0.7606  0.3259
              Bcc     0.0023     1.245     0.444     0.415  0.8227 -0.4707 -0.3187
 
              Baa    -0.0013    -0.703    -0.251    -0.235 -0.1550 -0.1563  0.9755
    12 H(1)   Bbb    -0.0011    -0.592    -0.211    -0.197  0.6032  0.7670  0.2188
              Bcc     0.0024     1.295     0.462     0.432  0.7823 -0.6224  0.0246
 
              Baa    -0.0010    -0.545    -0.194    -0.182 -0.1057 -0.3470  0.9319
    13 H(1)   Bbb    -0.0010    -0.518    -0.185    -0.173  0.1690  0.9173  0.3607
              Bcc     0.0020     1.063     0.379     0.355  0.9799 -0.1956  0.0383
 
              Baa    -0.0026    -1.398    -0.499    -0.466  0.1234 -0.4784  0.8694
    14 H(1)   Bbb    -0.0024    -1.307    -0.466    -0.436  0.1128  0.8772  0.4667
              Bcc     0.0051     2.705     0.965     0.902  0.9859 -0.0405 -0.1622
 
              Baa    -0.0027    -1.446    -0.516    -0.482 -0.3237 -0.1849  0.9279
    15 H(1)   Bbb    -0.0025    -1.338    -0.477    -0.446  0.1660  0.9544  0.2480
              Bcc     0.0052     2.783     0.993     0.928  0.9315 -0.2343  0.2783
 

 ---------------------------------------------------------------------------------

 Calling FoFJK, ICntrl=    100127 FMM=F ISym2X=0 I1Cent= 0 IOpClX= 1 NMat=1 NMatS=1 NMatT=0.
 Full mass-weighted force constant matrix:
 Low frequencies ---  -64.5010  -42.6606   -7.8727   -0.0010   -0.0005   -0.0004
 Low frequencies ---   29.5561   42.5980  112.7455
 ******    1 imaginary frequencies (negative Signs) ****** 
 Diagonal vibrational polarizability:
      110.7707520     253.0900608      44.8081010
 Harmonic frequencies (cm**-1), IR intensities (KM/Mole), Raman scattering
 activities (A**4/AMU), depolarization ratios for plane and unpolarized
 incident light, reduced masses (AMU), force constants (mDyne/A),
 and normal coordinates:
                      1                      2                      3
                      A                      A                      A
 Frequencies --    -28.6019                34.5146               112.5712
 Red. masses --      4.8141                 4.1940                 3.8339
 Frc consts  --      0.0023                 0.0029                 0.0286
 IR Inten    --      7.3419                 2.3905                 1.2611
  Atom  AN      X      Y      Z        X      Y      Z        X      Y      Z
     1   8    -0.23   0.01   0.27     0.28  -0.03   0.13     0.10  -0.00   0.05
     2   1    -0.03  -0.29   0.46     0.26  -0.03   0.12     0.20  -0.07   0.15
     3   6     0.05  -0.01  -0.18    -0.01   0.06  -0.08    -0.02  -0.09   0.03
     4   1     0.07  -0.01  -0.24    -0.01   0.15  -0.11    -0.03  -0.12   0.10
     5   6     0.03   0.00  -0.10    -0.02  -0.06  -0.05    -0.01  -0.06  -0.04
     6   6     0.01   0.06  -0.01    -0.03  -0.08  -0.01     0.01   0.06  -0.06
     7   8    -0.03   0.21   0.04    -0.06  -0.00   0.02     0.06   0.28  -0.01
     8   8     0.05  -0.08  -0.01    -0.00  -0.15  -0.00    -0.02  -0.10  -0.11
     9   6     0.04  -0.12   0.04    -0.01   0.03   0.07    -0.02  -0.00  -0.09
    10   6     0.10  -0.05  -0.15    -0.19   0.20  -0.12    -0.13  -0.10   0.20
    11   1     0.06  -0.30   0.08     0.05  -0.09   0.12     0.02   0.25  -0.12
    12   1    -0.03  -0.03   0.18     0.05   0.16   0.23     0.05  -0.12  -0.28
    13   1     0.09  -0.10  -0.10    -0.20   0.34  -0.02    -0.11  -0.02   0.11
    14   1     0.18  -0.14  -0.29    -0.22   0.06  -0.30    -0.27   0.02   0.43
    15   1     0.08   0.13  -0.18    -0.29   0.34  -0.19    -0.08  -0.40   0.27
                      4                      5                      6
                      A                      A                      A
 Frequencies --    124.5659               158.7374               171.9455
 Red. masses --      4.6374                 2.7014                 9.4933
 Frc consts  --      0.0424                 0.0401                 0.1654
 IR Inten    --     11.4011                11.0761                 6.1464
  Atom  AN      X      Y      Z        X      Y      Z        X      Y      Z
     1   8     0.23  -0.14   0.08    -0.00  -0.08  -0.00     0.05   0.58   0.04
     2   1    -0.23   0.14  -0.35     0.16  -0.11   0.14     0.04   0.21   0.07
     3   6    -0.05  -0.24  -0.09    -0.08  -0.02   0.22    -0.07  -0.25   0.07
     4   1    -0.02  -0.47  -0.15    -0.15  -0.08   0.47    -0.10  -0.21   0.20
     5   6    -0.08   0.02  -0.01    -0.01   0.07  -0.10    -0.04  -0.44  -0.10
     6   6    -0.07   0.11   0.03    -0.00   0.04  -0.13    -0.03  -0.09  -0.06
     7   8    -0.08   0.08   0.02    -0.08   0.02  -0.10    -0.03  -0.04  -0.04
     8   8    -0.07   0.20   0.05     0.08   0.02  -0.06     0.01   0.06  -0.00
     9   6    -0.07   0.02  -0.01     0.05  -0.03   0.11     0.00  -0.00   0.06
    10   6     0.16  -0.05  -0.06     0.03   0.02   0.03     0.08  -0.00  -0.01
    11   1    -0.14  -0.07  -0.03     0.16  -0.16   0.18     0.03  -0.10   0.08
    12   1    -0.17   0.00  -0.00    -0.07   0.04   0.23    -0.08   0.03   0.12
    13   1     0.15  -0.24  -0.07    -0.02  -0.10   0.36     0.06  -0.14   0.15
    14   1     0.31  -0.02  -0.08     0.33  -0.05  -0.18     0.29  -0.03  -0.12
    15   1     0.19   0.06  -0.06    -0.24   0.24  -0.13    -0.03   0.15  -0.08
                      7                      8                      9
                      A                      A                      A
 Frequencies --    207.0495               225.7752               257.4734
 Red. masses --      1.4936                 1.3654                 2.1952
 Frc consts  --      0.0377                 0.0410                 0.0857
 IR Inten    --     42.9445                 2.8373                28.1507
  Atom  AN      X      Y      Z        X      Y      Z        X      Y      Z
     1   8     0.01  -0.05  -0.06    -0.00  -0.02  -0.03     0.00   0.08  -0.03
     2   1     0.61  -0.29   0.49     0.25  -0.11   0.20     0.62  -0.12   0.52
     3   6    -0.04   0.05   0.00     0.02   0.04  -0.05     0.06  -0.17  -0.04
     4   1    -0.05   0.17   0.03     0.04   0.12  -0.13     0.08  -0.43  -0.09
     5   6    -0.02  -0.11  -0.03    -0.00  -0.06   0.06     0.02   0.21   0.05
     6   6    -0.02  -0.02   0.00     0.00  -0.01   0.03     0.00   0.05   0.02
     7   8    -0.05   0.02   0.02     0.08   0.02   0.02    -0.01  -0.07  -0.01
     8   8    -0.01   0.05   0.04    -0.05   0.04  -0.00    -0.01  -0.01   0.00
     9   6    -0.00   0.04   0.00    -0.05   0.02  -0.03    -0.02  -0.03   0.00
    10   6     0.08   0.01  -0.01    -0.02  -0.02   0.02    -0.07  -0.01  -0.01
    11   1    -0.04   0.03  -0.01    -0.05   0.03  -0.04    -0.01  -0.04   0.01
    12   1     0.00   0.03  -0.01    -0.06  -0.00  -0.06    -0.02  -0.02   0.02
    13   1     0.12   0.05  -0.27    -0.09  -0.27   0.50    -0.07   0.06  -0.01
    14   1    -0.10   0.05   0.11     0.47  -0.03  -0.17    -0.12  -0.03  -0.02
    15   1     0.31  -0.08   0.11    -0.40   0.19  -0.20    -0.08  -0.02  -0.02
                     10                     11                     12
                      A                      A                      A
 Frequencies --    336.9326               427.0517               555.9317
 Red. masses --      2.9255                 3.7848                 2.6392
 Frc consts  --      0.1957                 0.4067                 0.4806
 IR Inten    --      9.9634                 3.7825                23.2259
  Atom  AN      X      Y      Z        X      Y      Z        X      Y      Z
     1   8     0.00  -0.02  -0.00     0.01  -0.01  -0.00    -0.02  -0.03   0.01
     2   1     0.02   0.02   0.00    -0.07  -0.18  -0.05     0.19   0.66   0.13
     3   6    -0.00   0.02  -0.03     0.09   0.03   0.06    -0.13  -0.01  -0.06
     4   1     0.02   0.07  -0.11     0.05   0.10   0.20    -0.09   0.02  -0.24
     5   6    -0.02  -0.06   0.07     0.14  -0.08  -0.14    -0.17  -0.04   0.16
     6   6     0.01   0.04  -0.05     0.06   0.06   0.04    -0.01   0.04  -0.03
     7   8     0.20   0.02  -0.11    -0.09  -0.00   0.08    -0.01   0.01  -0.04
     8   8    -0.04   0.12  -0.06     0.06   0.23   0.09     0.11   0.04   0.03
     9   6    -0.09  -0.11   0.19     0.03  -0.13  -0.09     0.20  -0.07  -0.04
    10   6    -0.07  -0.03   0.01    -0.20  -0.10  -0.07    -0.00  -0.01  -0.02
    11   1     0.07  -0.39   0.32    -0.04  -0.13  -0.12     0.12   0.01  -0.09
    12   1    -0.37   0.01   0.42    -0.06  -0.17  -0.11     0.22  -0.11  -0.10
    13   1    -0.03   0.14  -0.26    -0.21   0.26   0.10    -0.01   0.29   0.15
    14   1    -0.35  -0.12  -0.02    -0.41  -0.20  -0.13    -0.17  -0.09  -0.07
    15   1     0.14   0.00   0.11    -0.42  -0.22  -0.16    -0.20  -0.11  -0.10
                     13                     14                     15
                      A                      A                      A
 Frequencies --    592.5388               609.7774               725.0645
 Red. masses --      1.3354                 5.3627                 1.3270
 Frc consts  --      0.2762                 1.1748                 0.4110
 IR Inten    --     75.8881                 8.8158                37.1498
  Atom  AN      X      Y      Z        X      Y      Z        X      Y      Z
     1   8    -0.03  -0.04   0.01     0.02   0.01  -0.01    -0.00  -0.00  -0.00
     2   1     0.22   0.93   0.15    -0.15  -0.49  -0.11     0.00  -0.02   0.00
     3   6     0.08  -0.00   0.01     0.20   0.00   0.04     0.03   0.09  -0.12
     4   1     0.07   0.04   0.07     0.31   0.18  -0.38    -0.17  -0.59   0.77
     5   6     0.08  -0.03  -0.03     0.08  -0.10   0.39    -0.01  -0.04   0.06
     6   6     0.01  -0.03  -0.01     0.03   0.03  -0.11     0.00   0.01  -0.00
     7   8    -0.04   0.01   0.01    -0.29   0.02  -0.03    -0.01  -0.00   0.00
     8   8    -0.03   0.00  -0.03     0.01   0.03  -0.19    -0.00  -0.00  -0.01
     9   6    -0.06   0.02   0.01     0.01   0.01  -0.01     0.00  -0.00  -0.00
    10   6    -0.00  -0.00   0.00     0.01   0.01   0.01     0.00   0.00   0.00
    11   1    -0.01  -0.02   0.04     0.17  -0.13   0.08     0.01  -0.01   0.00
    12   1    -0.09   0.04   0.04    -0.16   0.07   0.12    -0.00   0.00   0.01
    13   1    -0.00  -0.09  -0.05     0.01  -0.02  -0.02     0.00   0.00   0.00
    14   1     0.04   0.03   0.03     0.01   0.04   0.06     0.00   0.00   0.01
    15   1     0.05   0.02   0.03     0.04  -0.04   0.03    -0.00  -0.01   0.00
                     16                     17                     18
                      A                      A                      A
 Frequencies --    750.5870               777.4119               802.9989
 Red. masses --      1.3299                 7.4164                 1.2103
 Frc consts  --      0.4414                 2.6408                 0.4598
 IR Inten    --     21.1382                54.6502                 5.4347
  Atom  AN      X      Y      Z        X      Y      Z        X      Y      Z
     1   8     0.00   0.01   0.00    -0.00  -0.02  -0.00     0.00  -0.00   0.00
     2   1    -0.02  -0.02  -0.02     0.03   0.08   0.02    -0.01  -0.00  -0.00
     3   6     0.02  -0.12  -0.09     0.01  -0.03  -0.01     0.03   0.01   0.01
     4   1    -0.18   0.78   0.57    -0.05   0.47   0.17     0.04  -0.03  -0.01
     5   6    -0.01   0.05   0.04     0.02  -0.19  -0.04     0.02   0.00   0.03
     6   6    -0.00  -0.04  -0.01     0.02   0.65   0.15    -0.02  -0.03  -0.04
     7   8     0.00   0.01   0.00    -0.01  -0.18  -0.08    -0.01   0.02  -0.04
     8   8    -0.00   0.01   0.00     0.00  -0.18  -0.02     0.01   0.01   0.03
     9   6     0.01  -0.00   0.00    -0.04  -0.00   0.03    -0.03  -0.02   0.07
    10   6     0.00  -0.00   0.00    -0.02   0.01   0.01    -0.01  -0.02   0.03
    11   1    -0.00  -0.00  -0.00    -0.05   0.23  -0.01    -0.08   0.52  -0.04
    12   1     0.00  -0.01  -0.00     0.12  -0.08  -0.13     0.12  -0.31  -0.38
    13   1     0.00   0.02   0.01    -0.01  -0.11  -0.10     0.02   0.03  -0.19
    14   1    -0.01  -0.01  -0.00     0.07  -0.03  -0.08    -0.05  -0.29  -0.34
    15   1    -0.01  -0.00  -0.00     0.12   0.20   0.05     0.11   0.44   0.02
                     19                     20                     21
                      A                      A                      A
 Frequencies --    897.6664               929.4117              1076.7943
 Red. masses --      3.2268                 2.7608                 4.1304
 Frc consts  --      1.5320                 1.4051                 2.8217
 IR Inten    --     15.7084                 5.6336                22.2703
  Atom  AN      X      Y      Z        X      Y      Z        X      Y      Z
     1   8     0.00  -0.00   0.00     0.00  -0.00  -0.00     0.00  -0.00  -0.00
     2   1    -0.01  -0.01  -0.01    -0.01   0.00  -0.01     0.00   0.00   0.00
     3   6     0.05   0.00   0.01     0.11   0.01   0.03     0.07   0.00   0.02
     4   1     0.06  -0.00  -0.02     0.12   0.00   0.03     0.07   0.00   0.04
     5   6     0.01  -0.01   0.07     0.07  -0.02   0.01     0.04  -0.01  -0.03
     6   6    -0.04   0.01  -0.11    -0.15   0.02  -0.05    -0.15   0.01   0.03
     7   8    -0.00   0.05  -0.16     0.01   0.03  -0.13     0.02   0.00  -0.02
     8   8     0.13  -0.04   0.24    -0.14  -0.04   0.12    -0.22   0.02  -0.04
     9   6    -0.09   0.09   0.02     0.03  -0.10  -0.02     0.31   0.16   0.14
    10   6    -0.12  -0.06  -0.10     0.15   0.10   0.04    -0.06  -0.17  -0.09
    11   1    -0.23  -0.01  -0.03    -0.34  -0.21  -0.17     0.32   0.29   0.13
    12   1     0.25   0.27   0.17     0.04  -0.11  -0.04     0.40   0.25   0.21
    13   1    -0.13  -0.58  -0.12     0.12   0.60   0.38    -0.06  -0.26  -0.11
    14   1     0.18   0.23   0.21    -0.15   0.08   0.12    -0.05  -0.23  -0.15
    15   1     0.04  -0.33   0.01    -0.22  -0.15  -0.10    -0.07  -0.29  -0.09
                     22                     23                     24
                      A                      A                      A
 Frequencies --   1129.8640              1204.5750              1292.7947
 Red. masses --      2.0928                 1.7708                 3.5851
 Frc consts  --      1.5741                 1.5139                 3.5303
 IR Inten    --     22.5397                 5.3422               539.1668
  Atom  AN      X      Y      Z        X      Y      Z        X      Y      Z
     1   8    -0.00   0.00   0.00    -0.00   0.00   0.00    -0.00   0.00   0.00
     2   1    -0.00  -0.00  -0.00     0.00   0.00   0.00     0.01   0.03   0.00
     3   6    -0.02  -0.00  -0.00    -0.02  -0.00  -0.00    -0.08  -0.00  -0.02
     4   1    -0.02  -0.00  -0.01    -0.02  -0.00  -0.01    -0.08  -0.00  -0.05
     5   6    -0.01   0.00   0.01    -0.01   0.00  -0.00    -0.01   0.01   0.01
     6   6     0.03   0.01  -0.00     0.06  -0.00  -0.01     0.37   0.02  -0.14
     7   8    -0.00  -0.00   0.00    -0.01  -0.01   0.04    -0.05   0.00  -0.00
     8   8     0.06  -0.05  -0.01    -0.00   0.02  -0.07    -0.18  -0.02   0.08
     9   6    -0.12   0.19   0.04    -0.04  -0.06   0.18     0.10   0.04   0.03
    10   6     0.11  -0.15  -0.03     0.03   0.05  -0.13    -0.02  -0.02   0.06
    11   1    -0.09   0.10   0.08    -0.33   0.37  -0.02    -0.70  -0.28  -0.27
    12   1    -0.22   0.17   0.03     0.30  -0.26  -0.21     0.05   0.13   0.15
    13   1     0.09   0.46   0.20    -0.03  -0.07   0.28     0.00  -0.03  -0.13
    14   1    -0.40  -0.37  -0.15    -0.02   0.32   0.28     0.01  -0.19  -0.18
    15   1    -0.36  -0.20  -0.25    -0.07  -0.46  -0.10     0.01   0.09   0.05
                     25                     26                     27
                      A                      A                      A
 Frequencies --   1347.1833              1402.1237              1431.6873
 Red. masses --      1.2603                 1.2855                 1.3864
 Frc consts  --      1.3476                 1.4890                 1.6743
 IR Inten    --    105.8733                29.3803                12.1958
  Atom  AN      X      Y      Z        X      Y      Z        X      Y      Z
     1   8     0.00  -0.00  -0.00    -0.00   0.00   0.00    -0.00   0.00   0.00
     2   1    -0.00  -0.00   0.00     0.00   0.00   0.00     0.00   0.00   0.00
     3   6     0.01   0.00   0.00    -0.01  -0.00  -0.00    -0.01  -0.00  -0.00
     4   1     0.01   0.00   0.01    -0.01  -0.00  -0.01    -0.01  -0.00  -0.01
     5   6     0.00  -0.00  -0.00    -0.00   0.00   0.00    -0.00  -0.00   0.00
     6   6    -0.07  -0.01   0.03     0.06  -0.00  -0.01     0.06   0.00  -0.01
     7   8     0.01  -0.00   0.02    -0.01   0.00  -0.01    -0.01   0.00  -0.01
     8   8     0.05   0.03  -0.08    -0.04   0.01   0.03    -0.04   0.01   0.02
     9   6    -0.04  -0.01  -0.00    -0.04  -0.04  -0.02    -0.08  -0.08  -0.05
    10   6    -0.00  -0.03   0.05    -0.02  -0.11  -0.05     0.07   0.07   0.04
    11   1    -0.50  -0.21  -0.18     0.31   0.24   0.10     0.44   0.29   0.13
    12   1     0.69   0.28   0.21     0.24   0.18   0.18     0.42   0.24   0.25
    13   1     0.01   0.07  -0.04    -0.02   0.48   0.21     0.07  -0.32  -0.10
    14   1    -0.02  -0.11  -0.05     0.18   0.25   0.34    -0.31  -0.17  -0.14
    15   1     0.02   0.19   0.03     0.22   0.39   0.00    -0.29  -0.17  -0.10
                     28                     29                     30
                      A                      A                      A
 Frequencies --   1490.9926              1502.5007              1515.0737
 Red. masses --      1.0401                 1.0556                 1.0928
 Frc consts  --      1.3623                 1.4040                 1.4779
 IR Inten    --     10.8228                 1.0248                21.1931
  Atom  AN      X      Y      Z        X      Y      Z        X      Y      Z
     1   8    -0.00  -0.00   0.00     0.00  -0.00   0.00    -0.00  -0.00  -0.00
     2   1     0.00   0.00  -0.00    -0.00  -0.00  -0.00     0.00  -0.00   0.00
     3   6    -0.00  -0.00  -0.00     0.00   0.00   0.00     0.00   0.00   0.00
     4   1    -0.00   0.00   0.00     0.00   0.00   0.00     0.01   0.00   0.00
     5   6     0.00  -0.00   0.00    -0.00   0.00   0.00    -0.00  -0.00  -0.00
     6   6     0.00  -0.00   0.00    -0.01   0.00  -0.00    -0.03   0.00  -0.00
     7   8    -0.00   0.00  -0.01     0.00  -0.00   0.01     0.01  -0.00   0.01
     8   8    -0.00  -0.00   0.00     0.01  -0.00  -0.00     0.02  -0.00  -0.01
     9   6     0.01   0.02  -0.02     0.00  -0.04  -0.03     0.05  -0.04  -0.01
    10   6     0.01   0.01  -0.04    -0.03   0.03  -0.01     0.02  -0.02   0.00
    11   1    -0.00  -0.12  -0.01    -0.13   0.39  -0.14    -0.28   0.41  -0.23
    12   1    -0.00  -0.00  -0.04    -0.20   0.20   0.35    -0.38   0.14   0.36
    13   1    -0.08  -0.35   0.56    -0.04   0.14   0.28     0.03  -0.18  -0.17
    14   1    -0.55  -0.09   0.05     0.17  -0.19  -0.36    -0.20   0.15   0.30
    15   1     0.36   0.28   0.10     0.36  -0.34   0.23    -0.25   0.31  -0.17
                     31                     32                     33
                      A                      A                      A
 Frequencies --   1842.8009              2228.3277              3075.7101
 Red. masses --     11.9971                 5.9028                 1.0353
 Frc consts  --     24.0039                17.2689                 5.7703
 IR Inten    --    337.4179                65.5597                 9.8303
  Atom  AN      X      Y      Z        X      Y      Z        X      Y      Z
     1   8    -0.00   0.00  -0.00     0.00   0.01   0.00    -0.00   0.00  -0.00
     2   1     0.03  -0.00   0.02    -0.00   0.00  -0.00    -0.00  -0.00   0.00
     3   6    -0.07  -0.00  -0.02    -0.37  -0.02  -0.09     0.00   0.00   0.00
     4   1    -0.11  -0.01   0.00    -0.72  -0.05  -0.18    -0.00  -0.00  -0.00
     5   6     0.05   0.00  -0.00     0.52   0.00   0.13    -0.00   0.00   0.00
     6   6     0.22  -0.20   0.73    -0.09   0.02  -0.04     0.00   0.00  -0.00
     7   8    -0.16   0.13  -0.47     0.00  -0.00   0.01     0.00   0.00   0.00
     8   8     0.02   0.01  -0.07    -0.00  -0.00   0.00    -0.00  -0.00   0.00
     9   6     0.03  -0.01   0.02     0.00   0.00  -0.00    -0.00   0.00   0.00
    10   6    -0.01   0.01   0.00    -0.00  -0.00  -0.00    -0.02  -0.04  -0.02
    11   1    -0.18   0.08  -0.09     0.01  -0.00  -0.00     0.00  -0.00  -0.01
    12   1    -0.14  -0.02   0.09     0.00  -0.00  -0.00     0.00  -0.02   0.01
    13   1     0.00  -0.04  -0.06     0.00   0.00   0.00     0.62  -0.03   0.08
    14   1     0.04   0.01  -0.01     0.00   0.00  -0.00    -0.13   0.45  -0.34
    15   1    -0.04  -0.05  -0.00     0.00   0.00   0.00    -0.23   0.06   0.47
                     34                     35                     36
                      A                      A                      A
 Frequencies --   3106.7269              3152.1380              3154.2232
 Red. masses --      1.0607                 1.1021                 1.1043
 Frc consts  --      6.0320                 6.4519                 6.4735
 IR Inten    --     19.9074                12.7157                 4.5891
  Atom  AN      X      Y      Z        X      Y      Z        X      Y      Z
     1   8     0.00  -0.00   0.00    -0.00   0.00   0.00     0.00   0.00  -0.00
     2   1     0.00   0.00  -0.00     0.00   0.00   0.00    -0.00  -0.00  -0.00
     3   6    -0.00   0.00  -0.00     0.00   0.00   0.00    -0.00   0.00  -0.00
     4   1     0.00   0.00   0.00    -0.00   0.00  -0.00    -0.00   0.00   0.00
     5   6     0.00  -0.00  -0.00    -0.00  -0.00  -0.00     0.00  -0.00  -0.00
     6   6    -0.00  -0.00   0.00     0.00   0.00  -0.00     0.00  -0.00   0.00
     7   8    -0.00   0.00  -0.00    -0.00   0.00   0.00    -0.00   0.00  -0.00
     8   8     0.00   0.00  -0.00     0.00  -0.00   0.00    -0.00  -0.00  -0.00
     9   6     0.03  -0.06  -0.00    -0.01  -0.00   0.03    -0.01  -0.02   0.05
    10   6    -0.01   0.01  -0.00    -0.05   0.05  -0.05     0.06  -0.01  -0.05
    11   1    -0.23   0.07   0.50     0.16  -0.05  -0.34     0.16  -0.05  -0.35
    12   1    -0.13   0.65  -0.48    -0.02   0.08  -0.06    -0.06   0.28  -0.20
    13   1     0.12  -0.01   0.01     0.57  -0.02   0.06    -0.50   0.02  -0.07
    14   1     0.01  -0.05   0.04     0.14  -0.55   0.41     0.02  -0.04   0.02
    15   1     0.01  -0.00  -0.03    -0.05   0.02   0.08    -0.28   0.08   0.61
                     37                     38                     39
                      A                      A                      A
 Frequencies --   3174.7527              3486.1586              3802.4292
 Red. masses --      1.1072                 1.1647                 1.0673
 Frc consts  --      6.5753                 8.3396                 9.0919
 IR Inten    --     14.9698                68.3972                38.3561
  Atom  AN      X      Y      Z        X      Y      Z        X      Y      Z
     1   8    -0.00  -0.00   0.00     0.00   0.00   0.00     0.04  -0.00  -0.05
     2   1     0.00   0.00  -0.00    -0.00  -0.00  -0.00    -0.65   0.07   0.75
     3   6    -0.00  -0.00  -0.00    -0.11  -0.00  -0.03    -0.00   0.00  -0.00
     4   1     0.00   0.00   0.00     0.96   0.04   0.25    -0.00   0.00   0.00
     5   6     0.00  -0.00   0.00     0.03   0.00   0.01     0.00   0.00   0.00
     6   6    -0.00   0.00  -0.00    -0.00   0.00  -0.00     0.00  -0.00  -0.00
     7   8     0.00  -0.00   0.00     0.00   0.00  -0.00    -0.00   0.00  -0.00
     8   8     0.00  -0.00   0.00     0.00  -0.00   0.00    -0.00  -0.00   0.00
     9   6     0.02   0.02  -0.07    -0.00   0.00   0.00     0.00  -0.00   0.00
    10   6     0.02   0.02  -0.06     0.00  -0.00   0.00    -0.00   0.00  -0.00
    11   1    -0.26   0.09   0.57     0.00  -0.00  -0.00    -0.00   0.00   0.00
    12   1     0.07  -0.34   0.24     0.00  -0.00   0.00    -0.00  -0.00  -0.00
    13   1    -0.07   0.01  -0.02     0.00   0.00   0.00    -0.00  -0.00   0.00
    14   1     0.09  -0.31   0.22    -0.00   0.00  -0.00    -0.00  -0.00   0.00
    15   1    -0.22   0.07   0.46    -0.00  -0.00  -0.00     0.00   0.00   0.00

 -------------------
 - Thermochemistry -
 -------------------
 Temperature   298.150 Kelvin.  Pressure   1.00000 Atm.
 Atom     1 has atomic number  8 and mass  15.99491
 Atom     2 has atomic number  1 and mass   1.00783
 Atom     3 has atomic number  6 and mass  12.00000
 Atom     4 has atomic number  1 and mass   1.00783
 Atom     5 has atomic number  6 and mass  12.00000
 Atom     6 has atomic number  6 and mass  12.00000
 Atom     7 has atomic number  8 and mass  15.99491
 Atom     8 has atomic number  8 and mass  15.99491
 Atom     9 has atomic number  6 and mass  12.00000
 Atom    10 has atomic number  6 and mass  12.00000
 Atom    11 has atomic number  1 and mass   1.00783
 Atom    12 has atomic number  1 and mass   1.00783
 Atom    13 has atomic number  1 and mass   1.00783
 Atom    14 has atomic number  1 and mass   1.00783
 Atom    15 has atomic number  1 and mass   1.00783
 Molecular mass:   115.03952 amu.
 Principal axes and moments of inertia in atomic units:
                           1         2         3
     Eigenvalues --   517.833461381.347201536.60843
           X            0.99994   0.01046  -0.00108
           Y           -0.01036   0.99753   0.06943
           Z            0.00181  -0.06941   0.99759
 This molecule is an asymmetric top.
 Rotational symmetry number  1.
 Warning -- assumption of classical behavior for rotation
           may cause significant error
 Rotational temperatures (Kelvin)      0.16726     0.06270     0.05637
 Rotational constants (GHZ):           3.48518     1.30651     1.17450
    1 imaginary frequencies ignored.
 Zero-point vibrational energy     293772.1 (Joules/Mol)
                                   70.21322 (Kcal/Mol)
 Warning -- explicit consideration of  13 degrees of freedom as
           vibrations may cause significant error
 Vibrational temperatures:     49.66   161.96   179.22   228.39   247.39
          (Kelvin)            297.90   324.84   370.45   484.77   614.43
                              799.86   852.53   877.33  1043.21  1079.93
                             1118.52  1155.34  1291.54  1337.22  1549.27
                             1625.62  1733.11  1860.04  1938.30  2017.34
                             2059.88  2145.21  2161.76  2179.85  2651.38
                             3206.07  4425.26  4469.89  4535.22  4538.22
                             4567.76  5015.80  5470.85
 
 Zero-point correction=                           0.111892 (Hartree/Particle)
 Thermal correction to Energy=                    0.121517
 Thermal correction to Enthalpy=                  0.122461
 Thermal correction to Gibbs Free Energy=         0.076146
 Sum of electronic and zero-point Energies=           -420.093838
 Sum of electronic and thermal Energies=              -420.084214
 Sum of electronic and thermal Enthalpies=            -420.083269
 Sum of electronic and thermal Free Energies=         -420.129585
 
                     E (Thermal)             CV                S
                      KCal/Mol        Cal/Mol-Kelvin    Cal/Mol-Kelvin
 Total                   76.253             32.464             97.479
 Electronic               0.000              0.000              1.377
 Translational            0.889              2.981             40.136
 Rotational               0.889              2.981             28.488
 Vibrational             74.475             26.502             27.478
 Vibration     1          0.594              1.983              5.551
 Vibration     2          0.607              1.939              3.224
 Vibration     3          0.610              1.928              3.028
 Vibration     4          0.621              1.893              2.565
 Vibration     5          0.626              1.877              2.414
 Vibration     6          0.641              1.830              2.070
 Vibration     7          0.650              1.802              1.912
 Vibration     8          0.667              1.750              1.679
 Vibration     9          0.718              1.602              1.227
 Vibration    10          0.789              1.411              0.868
 Vibration    11          0.911              1.127              0.532
 Vibration    12          0.950              1.048              0.463
 Vibration    13          0.969              1.011              0.433
                       Q            Log10(Q)             Ln(Q)
 Total Bot       0.945128D-35        -35.024510        -80.646914
 Total V=0       0.276784D+17         16.442141         37.859428
 Vib (Bot)       0.259634D-48        -48.585638       -111.872565
 Vib (Bot)    1  0.599703D+01          0.777936          1.791264
 Vib (Bot)    2  0.181839D+01          0.259687          0.597952
 Vib (Bot)    3  0.163879D+01          0.214523          0.493958
 Vib (Bot)    4  0.127408D+01          0.105195          0.242221
 Vib (Bot)    5  0.117129D+01          0.068663          0.158102
 Vib (Bot)    6  0.960395D+00         -0.017550         -0.040410
 Vib (Bot)    7  0.873964D+00         -0.058507         -0.134717
 Vib (Bot)    8  0.755309D+00         -0.121876         -0.280629
 Vib (Bot)    9  0.552169D+00         -0.257928         -0.593902
 Vib (Bot)   10  0.408940D+00         -0.388341         -0.894187
 Vib (Bot)   11  0.280677D+00         -0.551793         -1.270550
 Vib (Bot)   12  0.253931D+00         -0.595284         -1.370691
 Vib (Bot)   13  0.242410D+00         -0.615450         -1.417126
 Vib (V=0)       0.760348D+03          2.881013          6.633777
 Vib (V=0)    1  0.651783D+01          0.814103          1.874542
 Vib (V=0)    2  0.238588D+01          0.377649          0.869568
 Vib (V=0)    3  0.221337D+01          0.345054          0.794516
 Vib (V=0)    4  0.186867D+01          0.271534          0.625229
 Vib (V=0)    5  0.177354D+01          0.248841          0.572979
 Vib (V=0)    6  0.158276D+01          0.199414          0.459167
 Vib (V=0)    7  0.150688D+01          0.178079          0.410043
 Vib (V=0)    8  0.140581D+01          0.147927          0.340613
 Vib (V=0)    9  0.124491D+01          0.095138          0.219063
 Vib (V=0)   10  0.114593D+01          0.059160          0.136221
 Vib (V=0)   11  0.107339D+01          0.030759          0.070825
 Vib (V=0)   12  0.106079D+01          0.025628          0.059010
 Vib (V=0)   13  0.105566D+01          0.023526          0.054170
 Electronic      0.200000D+01          0.301030          0.693147
 Translational   0.484981D+08          7.685724         17.697035
 Rotational      0.375296D+06          5.574374         12.835470
 ***** Axes restored to original set *****
 -------------------------------------------------------------------
 Center     Atomic                   Forces (Hartrees/Bohr)
 Number     Number              X              Y              Z
 -------------------------------------------------------------------
      1        8           0.001090992    0.011005404    0.001626036
      2        1           0.000156530    0.000118599    0.000010294
      3        6          -0.001046366   -0.000221764   -0.000421447
      4        1          -0.000052460    0.000437244    0.000048746
      5        6          -0.000542497   -0.010632624   -0.001680550
      6        6          -0.000189350   -0.002454329   -0.000371114
      7        8           0.000768075    0.001120336    0.000458061
      8        8          -0.000195489   -0.000026790    0.000087394
      9        6          -0.000120168    0.000347065    0.000117110
     10        6           0.000099864    0.000210630    0.000092561
     11        1          -0.000012348    0.000023683    0.000003978
     12        1          -0.000009160    0.000025411    0.000014969
     13        1           0.000011100    0.000003265   -0.000008066
     14        1           0.000016865    0.000023430    0.000012055
     15        1           0.000024409    0.000020441    0.000009974
 -------------------------------------------------------------------
 Cartesian Forces:  Max     0.011005404 RMS     0.002362651

 GradGradGradGradGradGradGradGradGradGradGradGradGradGradGradGradGradGrad
 Berny optimization.
 Search for a local minimum.
 Step number   1 out of a maximum of    2
 All quantities printed in internal units (Hartrees-Bohrs-Radians)
 Second derivative matrix not updated -- analytic derivatives used.
 ITU=  0
     Eigenvalues ---   -0.00023   0.00010   0.00159   0.00215   0.00406
     Eigenvalues ---    0.00430   0.00543   0.01038   0.01328   0.02081
     Eigenvalues ---    0.02307   0.03214   0.03510   0.05251   0.06343
     Eigenvalues ---    0.07603   0.07930   0.08821   0.09377   0.10205
     Eigenvalues ---    0.11491   0.14139   0.17067   0.17356   0.19903
     Eigenvalues ---    0.28884   0.29556   0.43798   0.49452   0.62837
     Eigenvalues ---    0.71034   0.76573   0.79230   0.86809   0.89990
     Eigenvalues ---    0.92879   0.97539   1.73087   2.64658
 Eigenvalue     1 is  -2.34D-04 should be greater than     0.000000 Eigenvector:
                          Z2        Z1        Y2        Z14       Y11
   1                    0.46261   0.30907  -0.28177  -0.27371  -0.26796
                          X1        Z4        Y7        Z12       Z3
   1                   -0.26340  -0.25013   0.21721   0.19151  -0.18670
 Quadratic step=1.183D+01 exceeds max=3.000D-01 adjusted using Lamda=-3.656D-02.
 Angle between NR and scaled steps=  78.43 degrees.
 Angle between quadratic step and forces=   8.91 degrees.
 Linear search not attempted -- first point.
 B after Tr=     0.001298   -0.000017   -0.000398
         Rot=    1.000000    0.000379    0.000060   -0.000016 Ang=   0.04 deg.
 Variable       Old X    -DE/DX   Delta X   Delta X   Delta X     New X
                                 (Linear)    (Quad)   (Total)
    X1       -2.53771   0.00109   0.00000   0.02740   0.02855  -2.50915
    Y1        3.36418   0.01101   0.00000   0.20413   0.20421   3.56839
    Z1        0.20498   0.00163   0.00000   0.03056   0.02715   0.23214
    X2       -3.73744   0.00016   0.00000  -0.00146  -0.00047  -3.73791
    Y2        3.47564   0.00012   0.00000   0.01632   0.01740   3.49304
    Z2        1.58944   0.00001   0.00000   0.02085   0.01736   1.60680
    X3       -5.16820  -0.00105   0.00000  -0.01260  -0.01117  -5.17938
    Y3       -0.87922  -0.00022   0.00000  -0.02787  -0.02871  -0.90793
    Z3       -0.85084  -0.00042   0.00000  -0.01326  -0.01359  -0.86442
    X4       -7.11384  -0.00005   0.00000  -0.01588  -0.01439  -7.12824
    Y4       -0.94793   0.00044   0.00000   0.02482   0.02354  -0.92439
    Z4       -1.36123   0.00005   0.00000  -0.00182  -0.00237  -1.36360
    X5       -2.96544  -0.00054   0.00000  -0.00780  -0.00643  -2.97187
    Y5       -0.74101  -0.01063   0.00000  -0.19858  -0.19895  -0.93997
    Z5       -0.30467  -0.00168   0.00000  -0.03358  -0.03362  -0.33829
    X6       -0.31505  -0.00019   0.00000  -0.00464  -0.00336  -0.31841
    Y6       -1.05094  -0.00245   0.00000  -0.04871  -0.04842  -1.09936
    Z6        0.42047  -0.00037   0.00000  -0.00833  -0.00794   0.41253
    X7        0.32451   0.00077   0.00000   0.01236   0.01342   0.33793
    Y7       -1.67372   0.00112   0.00000   0.02094   0.02284  -1.65088
    Z7        2.50306   0.00046   0.00000   0.00907   0.00996   2.51302
    X8        1.20536  -0.00020   0.00000  -0.00395  -0.00244   1.20291
    Y8       -0.63639  -0.00003   0.00000  -0.01340  -0.01454  -0.65093
    Z8       -1.53030   0.00009   0.00000  -0.00204  -0.00180  -1.53210
    X9        3.87689  -0.00012   0.00000  -0.00341  -0.00197   3.87493
    Y9       -0.79793   0.00035   0.00000   0.00417   0.00351  -0.79442
    Z9       -1.01767   0.00012   0.00000   0.00053   0.00120  -1.01648
   X10        4.80373   0.00010   0.00000  -0.00330  -0.00209   4.80164
   Y10        1.59656   0.00021   0.00000   0.00349   0.00382   1.60037
   Z10        0.25052   0.00009   0.00000   0.00166   0.00062   0.25114
   X11        4.72658  -0.00001   0.00000  -0.00174  -0.00007   4.72652
   Y11       -1.06134   0.00002   0.00000   0.00487   0.00283  -1.05851
   Z11       -2.87221   0.00000   0.00000   0.00082   0.00178  -2.87043
   X12        4.22936  -0.00001   0.00000   0.00118   0.00254   4.23190
   Y12       -2.46242   0.00003   0.00000   0.00417   0.00440  -2.45802
   Z12        0.14554   0.00001   0.00000   0.00001   0.00197   0.14752
   X13        6.84837   0.00001   0.00000  -0.00278  -0.00159   6.84678
   Y13        1.49971   0.00000   0.00000   0.00061   0.00120   1.50091
   Z13        0.50833  -0.00001   0.00000  -0.00091  -0.00163   0.50670
   X14        4.35969   0.00002   0.00000  -0.00165  -0.00035   4.35934
   Y14        3.23892   0.00002   0.00000   0.00409   0.00352   3.24244
   Z14       -0.91305   0.00001   0.00000   0.00223  -0.00011  -0.91316
   X15        3.92080   0.00002   0.00000  -0.00118  -0.00019   3.92061
   Y15        1.82481   0.00002   0.00000   0.00166   0.00336   1.82817
   Z15        2.09794   0.00001   0.00000   0.00231   0.00100   2.09894
         Item               Value     Threshold  Converged?
 Maximum Force            0.011005     0.000450     NO 
 RMS     Force            0.002363     0.000300     NO 
 Maximum Displacement     0.204210     0.001800     NO 
 RMS     Displacement     0.044737     0.001200     NO 
 Predicted change in Energy=-3.998424D-03
 GradGradGradGradGradGradGradGradGradGradGradGradGradGradGradGradGradGrad


 ----------------------------------------------------------------------

 Electric dipole moment (input orientation):
 (Debye = 10**-18 statcoulomb cm , SI units = C m)
                  (au)            (Debye)         (10**-30 SI)
   Tot        0.358621D+00      0.911523D+00      0.304051D+01
   x         -0.249990D+00     -0.635410D+00     -0.211950D+01
   y          0.768382D-01      0.195303D+00      0.651461D+00
   z         -0.245377D+00     -0.623686D+00     -0.208039D+01

 Dipole polarizability, Alpha (input orientation).
 (esu units = cm**3 , SI units = C**2 m**2 J**-1)
 Alpha(0;0):
               (au)            (10**-24 esu)      (10**-40 SI)
   iso        0.721962D+02      0.106984D+02      0.119035D+02
   aniso      0.318840D+02      0.472473D+01      0.525697D+01
   xx         0.915227D+02      0.135623D+02      0.150901D+02
   yx         0.520633D+01      0.771498D+00      0.858407D+00
   yy         0.656869D+02      0.973379D+01      0.108303D+02
   zx         0.446110D+01      0.661067D+00      0.735536D+00
   zy         0.133198D+01      0.197379D+00      0.219613D+00
   zz         0.593791D+02      0.879907D+01      0.979029D+01

 ----------------------------------------------------------------------

 Dipole orientation:
     8         -1.65008429         -3.09136039          2.34955961
     1         -3.45887510         -3.39002247          2.26248382
     6         -3.16194316          1.49587405          3.99646627
     1         -4.19653210          1.84460842          5.68725215
     6         -1.96319022          1.04906923          2.11685853
     6         -0.61045335          0.96013956         -0.29324712
     8         -1.66239125          1.06301749         -2.29747964
     8          1.86790363          0.84003522          0.07047305
     6          3.39698440          0.65042174         -2.17717896
     6          3.38471120         -2.03271155         -3.17794619
     1          5.27093656          1.22865417         -1.55700211
     1          2.68928490          1.98905336         -3.57541481
     1          4.65113640         -2.17506863         -4.80038923
     1          4.02554139         -3.34162336         -1.72038510
     1          1.48895497         -2.57227112         -3.77761532

 Electric dipole moment (dipole orientation):
 (Debye = 10**-18 statcoulomb cm , SI units = C m)
                  (au)            (Debye)         (10**-30 SI)
   Tot        0.358621D+00      0.911523D+00      0.304051D+01
   x          0.000000D+00      0.000000D+00      0.000000D+00
   y          0.000000D+00      0.000000D+00      0.000000D+00
   z          0.358621D+00      0.911523D+00      0.304051D+01

 Dipole polarizability, Alpha (dipole orientation).
 (esu units = cm**3 , SI units = C**2 m**2 J**-1)
 Alpha(0;0):
               (au)            (10**-24 esu)      (10**-40 SI)
   iso        0.721962D+02      0.106984D+02      0.119035D+02
   aniso      0.318840D+02      0.472473D+01      0.525697D+01
   xx         0.717672D+02      0.106348D+02      0.118328D+02
   yx        -0.574280D+01     -0.850995D+00     -0.946860D+00
   yy         0.672235D+02      0.996149D+01      0.110837D+02
   zx        -0.156341D+02     -0.231674D+01     -0.257772D+01
   zy         0.586617D+01      0.869276D+00      0.967200D+00
   zz         0.775980D+02      0.114988D+02      0.127942D+02

 ----------------------------------------------------------------------
 1\1\GINC-AJ\Freq\UM062X\6-311++G(d,p)\C5H7O3(2)\AAYUSH\16-Aug-2025\0\\
 # freq 6-311++g(d,p) m062x\\Title Card Required\\0,2\O,-1.342897,1.780
 25,0.108472\H,-1.97777,1.839232,0.841094\C,-2.734895,-0.465263,-0.4502
 43\H,-3.764484,-0.501622,-0.720334\C,-1.569243,-0.392127,-0.161222\C,-
 0.166719,-0.556131,0.222501\O,0.171725,-0.885696,1.324562\O,0.637848,-
 0.336764,-0.809798\C,2.051564,-0.422246,-0.53853\C,2.542022,0.844861,0
 .132569\H,2.501199,-0.561636,-1.51991\H,2.238081,-1.303056,0.077019\H,
 3.624002,0.793615,0.268995\H,2.30705,1.713961,-0.483163\H,2.074798,0.9
 65646,1.110182\\Version=ES64L-G16RevA.03\State=2-A\HF=-420.2057303\S2=
 0.760015\S2-1=0.\S2A=0.750056\RMSD=3.196e-09\RMSF=2.363e-03\ZeroPoint=
 0.1118919\Thermal=0.1215168\Dipole=-0.2499897,0.0768382,-0.2453769\Dip
 oleDeriv=-0.3048706,0.1597698,-0.0506593,0.070788,-0.0582867,0.0803361
 ,-0.0851081,-0.0082766,-0.2445179,0.2166355,-0.0562522,0.0550271,-0.01
 13554,0.3348404,0.0127654,0.079012,0.0637072,0.2308865,-0.2942349,0.24
 15843,0.0119594,0.0297167,-0.1628404,0.0038663,0.0141823,0.0532223,-0.
 1326287,0.2757582,0.0219955,0.0183613,0.0107313,0.201527,-0.0045699,0.
 0099286,-0.0014609,0.2247365,-0.5059028,-0.2673459,-0.1341056,-0.03889
 25,-0.4358598,-0.0825902,-0.1096576,-0.0792744,-0.1518855,2.1631791,-0
 .193484,-0.089469,0.0359665,0.5921128,-0.3379461,-0.4702528,-0.4576891
 ,1.6606444,-0.8234945,0.1279438,-0.2119101,0.0136085,-0.4532322,0.2268
 655,0.0062062,0.301698,-1.060752,-1.6383081,-0.1109353,0.3727455,-0.10
 46791,-0.3460331,0.0765454,0.5092947,0.1166659,-0.8449693,0.990798,0.0
 883782,-0.0686858,0.0258985,0.3233114,0.0723624,0.0686968,0.0290654,0.
 290584,-0.0616985,-0.0229549,0.0359801,-0.0457292,-0.0531778,-0.079910
 8,-0.0260641,-0.0500615,-0.0099486,-0.0253779,-0.0046633,0.0308482,-0.
 0086937,0.0558048,-0.0296846,0.0708451,-0.0547876,-0.072009,-0.0176065
 ,-0.0361884,0.0196421,0.0227429,-0.0575208,0.0250898,-0.0658936,0.0628
 372,0.0391646,-0.1324648,-0.0071757,-0.023357,0.005114,0.0633241,0.000
 9927,-0.0251443,-0.0124265,0.0947061,0.0828888,0.0420604,-0.0386228,-0
 .0018183,-0.0455663,0.0392093,-0.0302398,0.0701943,0.0069278,0.074699,
 0.0172678,0.0722458,-0.0033981,0.0415967,-0.0033312,0.0541946,-0.03341
 35,-0.0309389\Polar=91.5227254,5.2063251,65.6868823,4.4610993,1.331977
 1,59.379068\Quadrupole=9.732682,-3.9841039,-5.7485781,-0.3586319,-1.41
 22937,3.8225432\PG=C01 [X(C5H7O3)]\NImag=1\\0.22720744,-0.01774534,0.0
 2254832,-0.25671709,0.02398329,0.29649607,-0.22435387,0.01952393,0.256
 19636,0.22489255,0.01330173,-0.00867320,-0.01911330,-0.01653804,0.0130
 8783,0.25465441,-0.02508074,-0.29540420,-0.25475216,0.02370957,0.29489
 585,-0.00368908,-0.02112622,-0.00170188,0.00084965,0.00069561,-0.00103
 629,1.43726124,-0.00254966,-0.00965288,-0.00217884,-0.00107549,-0.0007
 4421,0.00002553,0.06446636,0.06311151,-0.00066504,-0.00558879,0.000013
 38,-0.00056982,-0.00058632,-0.00031168,0.34949557,0.01830919,0.1434489
 3,0.00009139,0.00028959,0.00008407,0.00003663,-0.00027548,-0.00016293,
 -0.39773523,-0.01372443,-0.09708997,0.38825271,0.00021920,-0.00003278,
 0.00015775,-0.00039644,0.00011524,-0.00024824,-0.00972597,-0.02748916,
 -0.00347319,0.01314629,0.01695759,-0.00012469,0.00001697,-0.00001206,-
 0.00014673,-0.00010929,-0.00008464,-0.09768917,-0.00443777,-0.05175808
 ,0.09747701,0.00407428,0.04188224,0.00256666,0.01491269,0.00247640,-0.
 00117771,0.00176286,0.00018509,-1.03965181,-0.05052430,-0.24980503,0.0
 0910701,-0.00340972,0.00220219,1.35671848,0.00273673,0.00699429,-0.002
 47966,-0.00206915,-0.00302002,0.00203831,-0.02623101,-0.02785561,-0.00
 618145,0.00078229,0.00683087,0.00100416,0.00214209,0.05053016,0.003584
 31,0.00604743,-0.00040201,-0.00180473,-0.00364081,0.00013587,-0.249587
 36,-0.01206600,-0.09607054,0.00100384,-0.00021467,0.00478988,0.3057566
 2,-0.01102701,0.18461027,-0.00253956,0.00646750,-0.00146499,-0.0004272
 4,0.00262929,0.00304919,0.01486301,0.00325439,0.00071492,-0.00075968,0
 .00020166,-0.00201245,-0.25392284,0.00842304,-0.04763633,0.66417296,0.
 00156146,-0.01110555,0.00063668,0.00030122,-0.00029456,-0.00080686,-0.
 01042634,0.00150674,-0.00277897,-0.00043644,0.00489181,-0.00013825,0.0
 2403527,-0.06201894,0.00358860,-0.05294841,0.27207179,-0.00229147,0.00
 233993,-0.00372380,0.00283340,-0.00130265,0.00211783,0.00043374,0.0009
 5850,0.00296922,-0.00121594,0.00018270,0.00519958,-0.03436843,-0.00270
 387,-0.06787235,0.11317414,-0.20391102,0.92310743,0.00047250,-0.000732
 99,0.00069415,-0.00019418,-0.00081108,-0.00094447,-0.00518928,-0.00009
 510,-0.00015083,0.00020373,-0.00031919,0.00153730,-0.01990543,0.016876
 14,-0.04701844,-0.17122419,0.05906497,-0.18900764,0.16808797,0.0010572
 3,0.00006623,0.00055417,-0.00027849,0.00013999,0.00013374,0.00150897,0
 .00056807,-0.00000640,0.00014977,-0.00070976,-0.00045382,0.01178858,0.
 01409641,0.01585152,0.05461419,-0.13111217,0.17152940,-0.06406858,0.09
 953303,0.00083460,-0.00192715,0.00269341,-0.00116562,0.00052478,-0.001
 63459,-0.00104849,-0.00050092,0.00122966,-0.00000112,-0.00036085,0.000
 38738,-0.03892694,0.01738411,-0.02827792,-0.17857205,0.17054092,-0.649
 90433,0.19952373,-0.21760575,0.77552442,-0.00063201,-0.00107790,0.0007
 6989,0.00037521,-0.00101761,-0.00120627,-0.00776472,0.00036449,-0.0021
 3591,0.00101716,0.00024842,-0.00114684,-0.05415544,-0.00135844,0.03357
 755,-0.19652567,-0.02161483,0.10044674,0.02680240,-0.00619118,0.030724
 46,0.50436112,0.00164018,-0.00085663,-0.00154002,0.00054278,-0.0006122
 6,0.00023429,0.00035346,0.00072237,0.00023033,0.00002795,-0.00036608,0
 .00006112,-0.00009414,0.00977954,-0.00000287,-0.01577487,-0.07587652,0
 .03647873,-0.00797300,0.02283166,0.03210060,0.01334435,0.10569308,0.00
 087847,-0.00015087,0.00048492,-0.00062467,0.00047626,0.00018900,0.0001
 3770,-0.00006743,-0.00010954,-0.00007267,-0.00004136,-0.00060144,0.009
 16701,0.00027821,0.00616053,0.07739992,0.03684448,-0.22108288,0.030409
 41,0.03166526,-0.09778210,-0.09433787,-0.07704529,0.40302010,0.0005514
 8,-0.00038102,-0.00062639,0.00011507,0.00044449,0.00044528,0.00227747,
 -0.00026023,0.00050954,-0.00036359,0.00003951,-0.00000867,0.00222534,-
 0.00194893,0.00023052,-0.05490054,-0.00503140,0.03417742,-0.00056323,0
 .00575336,-0.01967482,-0.17757452,0.01226952,-0.01974626,0.45389252,-0
 .00022375,0.00081051,-0.00006641,-0.00000814,0.00000438,0.00001956,0.0
 0059386,-0.00016804,0.00007963,0.00004330,-0.00019738,-0.00000493,-0.0
 0042832,0.00477809,0.00148393,-0.00560114,0.00260741,-0.00810433,0.002
 35699,-0.00568338,0.00057074,0.01623767,-0.06923267,0.01179901,-0.0222
 8782,0.56161314,-0.00025157,0.00040246,-0.00008294,-0.00000593,0.00010
 430,0.00008333,0.00111276,0.00000502,0.00067081,-0.00002993,-0.0000754
 1,0.00023172,0.00425642,0.00138846,-0.00354437,0.03420137,-0.00533980,
 0.01289075,0.00116443,-0.00055900,-0.00412119,-0.04195128,0.01131538,-
 0.09732650,-0.06069086,-0.03945343,0.63118088,0.00002096,0.00008694,-0
 .00000290,-0.00004227,-0.00011238,-0.00008395,-0.00030390,-0.00000674,
 -0.00003397,0.00009085,-0.00006022,-0.00003002,-0.00057246,0.00155231,
 0.00075897,0.00193784,-0.00093229,-0.00900331,0.00078807,-0.00164785,0
 .00267558,-0.03724734,-0.03501056,-0.01777431,-0.07995239,-0.02169146,
 -0.00823877,0.57779610,0.00000610,-0.00013628,0.00008419,-0.00006233,0
 .00006075,0.00002091,0.00018056,-0.00004257,0.00006442,-0.00001444,0.0
 0000580,-0.00001271,-0.00024526,-0.00028920,-0.00021797,-0.00066073,-0
 .00042828,0.00354116,-0.00108840,-0.00023979,-0.00181880,-0.00140666,0
 .00601758,-0.00099342,-0.03303306,-0.18481301,-0.05133115,-0.02920499,
 0.52197488,-0.00009347,0.00001402,-0.00023823,0.00015175,-0.00008826,0
 .00005681,0.00001415,-0.00002657,-0.00005319,0.00000911,-0.00001381,0.
 00000471,-0.00036602,0.00037076,0.00011430,0.00142168,0.00094556,0.002
 30276,-0.00122852,-0.00159711,-0.00053041,-0.00804382,-0.00438126,-0.0
 0149008,-0.01308636,-0.04997929,-0.11095266,-0.01537557,-0.03480377,0.
 57042396,-0.00001868,-0.00004307,0.00003768,-0.00000496,-0.00007275,-0
 .00006455,-0.00062618,0.00006733,-0.00024043,0.00004880,0.00002464,-0.
 00004601,-0.00117304,-0.00048762,0.00108564,-0.00370110,0.00351220,-0.
 00558679,0.00153410,-0.00057511,0.00134296,-0.03428581,0.00191009,0.03
 408129,-0.08592265,0.01369004,0.09228948,0.00684766,-0.00084532,-0.011
 12080,0.11273456,0.00003530,0.00003268,0.00003340,-0.00001704,-0.00002
 682,-0.00000813,-0.00003153,-0.00000548,0.00001261,0.00000809,-0.00000
 977,0.00000128,0.00015258,0.00018987,-0.00002775,-0.00001395,-0.000681
 25,0.00250464,-0.00166052,0.00065597,-0.00041227,0.00300420,0.00067880
 ,-0.00260157,0.01351132,-0.05689232,-0.02697366,0.01138239,-0.00360076
 ,-0.02748695,-0.01330472,0.05672629,0.00005072,-0.00006522,0.00003866,
 -0.00002605,0.00001145,-0.00001800,-0.00006188,0.00004196,-0.00005690,
 -0.00001443,0.00000406,-0.00002374,-0.00020512,-0.00030178,0.00025764,
 -0.00251165,0.00064274,-0.00103385,0.00142948,-0.00046072,0.00096175,-
 0.00629467,0.00173775,0.00951556,0.10600927,-0.02824911,-0.28262485,0.
 00423659,-0.00119783,-0.01124194,-0.10730506,0.03336089,0.29664436,-0.
 00007365,-0.00008990,0.00013547,-0.00003494,0.00001055,-0.00005265,-0.
 00021230,0.00010170,-0.00000936,0.00003102,0.00003874,-0.00001577,-0.0
 0014758,-0.00079251,0.00001935,0.00269990,0.00345933,-0.00877851,0.000
 45061,-0.00100252,0.00395908,-0.02721046,0.02978924,-0.02029342,-0.054
 65734,0.02636705,-0.01622274,0.00382773,-0.00952352,0.00721753,0.00420
 290,-0.01122272,0.00637810,0.07111209,-0.00000339,0.00001251,-0.000024
 82,0.00000920,-0.00002951,-0.00001319,-0.00013592,0.00003495,-0.000018
 86,-0.00000376,0.00000854,0.00001664,0.00013456,-0.00018471,-0.0002358
 3,-0.00053560,-0.00001057,0.00357952,-0.00221589,0.00055203,-0.0009739
 7,0.00490681,0.00218842,-0.00081822,0.03488400,-0.22782361,0.12301460,
 0.00315717,-0.02192098,0.01544464,-0.00201095,0.00550025,-0.00308655,-
 0.03618555,0.24340342,0.00000206,0.00008256,0.00001418,0.00000353,-0.0
 0005485,-0.00001454,-0.00009932,-0.00007379,-0.00000816,0.00002338,-0.
 00000765,0.00000362,-0.00030251,0.00056991,-0.00003289,0.00273301,-0.0
 0031516,-0.00023952,0.00155058,-0.00076595,-0.00072976,-0.00755224,0.0
 0263128,-0.00267659,-0.02446263,0.12597644,-0.14024681,0.00328812,-0.0
 1437477,0.01036385,-0.00438389,0.02268858,-0.01377343,0.02956692,-0.13
 419965,0.14729640,-0.00012856,0.00005423,-0.00001674,0.00002419,-0.000
 02367,-0.00001139,-0.00007725,0.00000695,0.00000016,0.00003551,0.00000
 129,0.00000828,-0.00013584,0.00016152,-0.00001031,0.00146647,0.0005098
 4,-0.00127906,-0.00008273,-0.00043796,0.00040951,-0.00056784,-0.002760
 80,-0.00034621,-0.01010760,0.00315383,0.00031012,-0.31397550,0.0130030
 4,-0.03361826,0.00028434,-0.00017805,-0.00034493,0.00019247,-0.0004205
 2,0.00014741,0.34021929,0.00008893,0.00006842,0.00003960,0.00000093,-0
 .00007242,-0.00005103,-0.00021419,0.00001668,-0.00004964,0.00001913,-0
 .00001064,-0.00000845,-0.00008809,0.00045575,0.00028939,0.00102392,0.0
 0002786,-0.00288055,0.00022257,-0.00038267,0.00104604,-0.00628377,-0.0
 0552730,-0.00237073,-0.02626377,0.00484262,-0.00057744,0.01484046,-0.0
 4859633,0.00109863,0.00064582,0.00104635,-0.00014172,0.00060808,0.0004
 5636,0.00107793,-0.01372365,0.04904328,0.00006478,-0.00000133,0.000084
 02,-0.00004667,-0.00000856,-0.00002448,-0.00007030,0.00002218,0.000007
 95,0.00000863,-0.00000113,-0.00000570,-0.00007350,0.00003043,0.0000930
 2,0.00043152,0.00000264,-0.00280743,0.00055880,0.00031358,0.00112852,-
 0.00397061,-0.00371986,0.00014690,-0.01332461,0.00384528,-0.00246577,-
 0.03245060,0.00062975,-0.05028868,0.00041446,0.00061302,-0.00005958,0.
 00020813,0.00009815,0.00043080,0.03734874,0.00006795,0.05054203,0.0001
 3038,0.00002271,-0.00003157,0.00002451,-0.00004040,-0.00001238,-0.0000
 7400,0.00002239,-0.00001512,-0.00002441,-0.00000894,0.00000071,0.00013
 879,0.00010372,-0.00000997,-0.00030831,-0.00047676,0.00151056,-0.00051
 013,-0.00001085,-0.00070859,0.00209872,0.00057676,0.00044895,0.0005646
 6,-0.01048648,0.00626424,-0.06013431,0.04877039,-0.03350094,0.00010217
 ,0.00079714,0.00003093,-0.00019460,-0.00222450,-0.00105084,-0.00505479
 ,0.02593562,-0.01821115,0.06013658,-0.00000991,0.00000375,-0.00001914,
 0.00002629,-0.00001882,-0.00002143,-0.00008463,0.00002430,-0.00002738,
 -0.00000160,-0.00000273,0.00000455,-0.00000419,0.00002772,0.00001903,-
 0.00009113,-0.00040224,0.00073732,-0.00016091,0.00021952,-0.00038830,0
 .00102033,0.00298316,0.00015488,0.00692564,-0.02561946,0.01692287,0.04
 636789,-0.21746058,0.12296101,0.00025160,0.00104298,-0.00007824,-0.002
 11335,-0.00331234,-0.00361071,0.00002125,0.00013881,-0.00083050,-0.050
 37023,0.23862893,-0.00008945,-0.00004930,-0.00004041,0.00000776,0.0000
 8997,0.00003427,0.00011532,-0.00002698,0.00002027,0.00000341,0.0000060
 1,0.00000128,-0.00004542,-0.00024169,-0.00001236,-0.00043385,0.0004725
 7,-0.00047931,0.00053576,0.00031802,0.00042584,0.00159269,0.00101501,0
 .00034810,0.00390267,-0.01530708,0.01002536,-0.03395188,0.12538878,-0.
 13904871,0.00056654,0.00057689,0.00091831,-0.00178691,-0.00303151,-0.0
 0105168,-0.00003180,0.00140081,-0.00277819,0.03777720,-0.13315208,0.14
 618438,0.00039460,-0.00016114,0.00016754,-0.00008263,0.00004688,-0.000
 00694,0.00007240,-0.00004766,-0.00000470,-0.00003190,0.00000072,-0.000
 00514,0.00008586,0.00010983,0.00005034,-0.00083104,-0.00057781,-0.0010
 4486,-0.00067020,-0.00065957,0.00062772,0.00130919,0.00115903,0.000672
 66,0.00441534,-0.00171563,-0.01220775,-0.09908105,0.01412462,0.1076195
 4,-0.00002208,-0.00246250,-0.00137130,0.00001417,0.00064432,0.00053641
 ,-0.01209217,0.00318800,0.02911239,0.00310473,-0.00177704,-0.00816204,
 0.10341478,-0.00011482,-0.00007939,-0.00006691,0.00004078,0.00008363,0
 .00004772,0.00017698,-0.00002668,0.00001483,-0.00001025,0.00000846,-0.
 00001378,-0.00013461,-0.00031422,0.00015300,-0.00098816,0.00082448,-0.
 00294948,0.00060499,-0.00053513,0.00182081,-0.00017587,0.00157684,0.00
 287080,0.01537838,-0.00422630,-0.02884320,0.01127933,-0.05053124,-0.02
 245763,-0.00276219,-0.00465681,-0.00221768,0.00055537,0.00112524,0.000
 37582,0.00063270,-0.00150676,-0.00106160,-0.01261057,0.00374700,0.0225
 4057,-0.01187205,0.05451087,0.00016345,-0.00002325,0.00007902,-0.00005
 041,-0.00001229,-0.00002084,-0.00001455,0.00001589,0.00000788,-0.00002
 247,0.00001152,-0.00001476,0.00004924,-0.00012890,0.00005092,-0.000494
 42,-0.00038414,-0.00144410,0.00094626,0.00108306,0.00062934,-0.0004718
 0,0.00088479,0.00120404,0.00634591,-0.00261003,-0.01371777,0.10598601,
 -0.02497879,-0.26942248,-0.00107051,-0.00228098,0.00049600,-0.00032522
 ,0.00024904,0.00066455,-0.00256553,0.00105921,0.00599659,0.00750795,-0
 .00267188,-0.01454715,-0.11598389,0.02978674,0.29003877\\-0.00109099,-
 0.01100540,-0.00162604,-0.00015653,-0.00011860,-0.00001029,0.00104637,
 0.00022176,0.00042145,0.00005246,-0.00043724,-0.00004875,0.00054250,0.
 01063262,0.00168055,0.00018935,0.00245433,0.00037111,-0.00076808,-0.00
 112034,-0.00045806,0.00019549,0.00002679,-0.00008739,0.00012017,-0.000
 34707,-0.00011711,-0.00009986,-0.00021063,-0.00009256,0.00001235,-0.00
 002368,-0.00000398,0.00000916,-0.00002541,-0.00001497,-0.00001110,-0.0
 0000327,0.00000807,-0.00001687,-0.00002343,-0.00001206,-0.00002441,-0.
 00002044,-0.00000997\\\@


 THE CAUTIOUS SELDOM ERR...CONFUCIUS                   
 Job cpu time:       0 days  0 hours 56 minutes 49.3 seconds.
 Elapsed time:       0 days  0 hours  2 minutes 22.4 seconds.
 File lengths (MBytes):  RWF=    153 Int=      0 D2E=      0 Chk=      5 Scr=      1
 Normal termination of Gaussian 16 at Sat Aug 16 16:54:09 2025.
