 Entering Gaussian System, Link 0=g16
 Initial command:
 /opt/g16/l1.exe "/home/aayush/scratches/g16/Gau-20905.inp" -scrdir="/home/aayush/scratches/g16/"
 Entering Link 1 = /opt/g16/l1.exe PID=     20908.
  
 Copyright (c) 1988,1990,1992,1993,1995,1998,2003,2009,2016,
            Gaussian, Inc.  All Rights Reserved.
  
 This is part of the Gaussian(R) 16 program.  It is based on
 the Gaussian(R) 09 system (copyright 2009, Gaussian, Inc.),
 the Gaussian(R) 03 system (copyright 2003, Gaussian, Inc.),
 the Gaussian(R) 98 system (copyright 1998, Gaussian, Inc.),
 the Gaussian(R) 94 system (copyright 1995, Gaussian, Inc.),
 the Gaussian 92(TM) system (copyright 1992, Gaussian, Inc.),
 the Gaussian 90(TM) system (copyright 1990, Gaussian, Inc.),
 the Gaussian 88(TM) system (copyright 1988, Gaussian, Inc.),
 the Gaussian 86(TM) system (copyright 1986, Carnegie Mellon
 University), and the Gaussian 82(TM) system (copyright 1983,
 Carnegie Mellon University). Gaussian is a federally registered
 trademark of Gaussian, Inc.
  
 This software contains proprietary and confidential information,
 including trade secrets, belonging to Gaussian, Inc.
  
 This software is provided under written license and may be
 used, copied, transmitted, or stored only in accord with that
 written license.
  
 The following legend is applicable only to US Government
 contracts under FAR:
  
                    RESTRICTED RIGHTS LEGEND
  
 Use, reproduction and disclosure by the US Government is
 subject to restrictions as set forth in subparagraphs (a)
 and (c) of the Commercial Computer Software - Restricted
 Rights clause in FAR 52.227-19.
  
 Gaussian, Inc.
 340 Quinnipiac St., Bldg. 40, Wallingford CT 06492
  
  
 ---------------------------------------------------------------
 Warning -- This program may not be used in any manner that
 competes with the business of Gaussian, Inc. or will provide
 assistance to any competitor of Gaussian, Inc.  The licensee
 of this program is prohibited from giving any competitor of
 Gaussian, Inc. access to this program.  By using this program,
 the user acknowledges that Gaussian, Inc. is engaged in the
 business of creating and licensing software in the field of
 computational chemistry and represents and warrants to the
 licensee that it is not a competitor of Gaussian, Inc. and that
 it will not use this program in any manner prohibited above.
 ---------------------------------------------------------------
  

 Cite this work as:
 Gaussian 16, Revision A.03,
 M. J. Frisch, G. W. Trucks, H. B. Schlegel, G. E. Scuseria, 
 M. A. Robb, J. R. Cheeseman, G. Scalmani, V. Barone, 
 G. A. Petersson, H. Nakatsuji, X. Li, M. Caricato, A. V. Marenich, 
 J. Bloino, B. G. Janesko, R. Gomperts, B. Mennucci, H. P. Hratchian, 
 J. V. Ortiz, A. F. Izmaylov, J. L. Sonnenberg, D. Williams-Young, 
 F. Ding, F. Lipparini, F. Egidi, J. Goings, B. Peng, A. Petrone, 
 T. Henderson, D. Ranasinghe, V. G. Zakrzewski, J. Gao, N. Rega, 
 G. Zheng, W. Liang, M. Hada, M. Ehara, K. Toyota, R. Fukuda, 
 J. Hasegawa, M. Ishida, T. Nakajima, Y. Honda, O. Kitao, H. Nakai, 
 T. Vreven, K. Throssell, J. A. Montgomery, Jr., J. E. Peralta, 
 F. Ogliaro, M. J. Bearpark, J. J. Heyd, E. N. Brothers, K. N. Kudin, 
 V. N. Staroverov, T. A. Keith, R. Kobayashi, J. Normand, 
 K. Raghavachari, A. P. Rendell, J. C. Burant, S. S. Iyengar, 
 J. Tomasi, M. Cossi, J. M. Millam, M. Klene, C. Adamo, R. Cammi, 
 J. W. Ochterski, R. L. Martin, K. Morokuma, O. Farkas, 
 J. B. Foresman, and D. J. Fox, Gaussian, Inc., Wallingford CT, 2016.
 
 ******************************************
 Gaussian 16:  ES64L-G16RevA.03 25-Dec-2016
                16-Aug-2025 
 ******************************************
 %nprocshared=24
 Will use up to   24 processors via shared memory.
 %mem=12GB
 %chk=ethyl_propiolate.chk
 --------------------------
 # freq 6-311++g(d,p) m062x
 --------------------------
 1/10=4,30=1,38=1/1,3;
 2/12=2,17=6,18=5,40=1/2;
 3/5=4,6=6,7=1111,11=2,25=1,30=1,71=2,74=-55,140=1/1,2,3;
 4//1;
 5/5=2,38=5,98=1/2;
 8/6=4,10=90,11=11/1;
 11/6=1,8=1,9=11,15=111,16=1/1,2,10;
 10/6=1/2;
 6/7=2,8=2,9=2,10=2,28=1/1;
 7/8=1,10=1,25=1/1,2,3,16;
 1/10=4,30=1/3;
 99//99;
 -------------------
 Title Card Required
 -------------------
 Symbolic Z-matrix:
 Charge =  0 Multiplicity = 2
 O                     2.69847   1.74585  -0.22913 
 H                     1.88636   2.22383   0.002 
 C                    -3.1343    1.01998   0.42243 
 H                    -4.01486   1.56598   0.66921 
 C                    -2.14465   0.40489   0.14471 
 C                    -0.97612  -0.38406  -0.2092 
 O                    -1.01992  -1.48614  -0.67461 
 O                     0.15535   0.28825   0.05623 
 C                     1.37478  -0.3786   -0.2623 
 C                     1.83217  -1.30142   0.83429 
 H                     2.1619    0.55693  -0.34946 
 H                     1.31532  -0.83023  -1.25296 
 H                     2.81372  -1.70901   0.59003 
 H                     1.89957  -0.76285   1.78023 
 H                     1.1261   -2.13007   0.93891 
 

 GradGradGradGradGradGradGradGradGradGradGradGradGradGradGradGradGradGrad
 Berny optimization.
 Initialization pass.
 Trust Radius=3.00D-01 FncErr=1.00D-07 GrdErr=1.00D-07 EigMax=2.50D+02 EigMin=1.00D-04
 Number of steps in this run=      2 maximum allowed number of steps=      2.
 GradGradGradGradGradGradGradGradGradGradGradGradGradGradGradGradGradGrad

                          Input orientation:                          
 ---------------------------------------------------------------------
 Center     Atomic      Atomic             Coordinates (Angstroms)
 Number     Number       Type             X           Y           Z
 ---------------------------------------------------------------------
      1          8           0        2.698474    1.745846   -0.229127
      2          1           0        1.886355    2.223833    0.002003
      3          6           0       -3.134298    1.019976    0.422426
      4          1           0       -4.014860    1.565978    0.669208
      5          6           0       -2.144649    0.404893    0.144708
      6          6           0       -0.976116   -0.384058   -0.209198
      7          8           0       -1.019920   -1.486138   -0.674605
      8          8           0        0.155346    0.288253    0.056234
      9          6           0        1.374782   -0.378598   -0.262301
     10          6           0        1.832171   -1.301416    0.834291
     11          1           0        2.161904    0.556927   -0.349464
     12          1           0        1.315317   -0.830234   -1.252963
     13          1           0        2.813717   -1.709007    0.590028
     14          1           0        1.899566   -0.762850    1.780225
     15          1           0        1.126095   -2.130070    0.938906
 ---------------------------------------------------------------------
                    Distance matrix (angstroms):
                    1          2          3          4          5
     1  O    0.000000
     2  H    0.970273   0.000000
     3  C    5.913767   5.180056   0.000000
     4  H    6.775560   5.975138   1.065086   0.000000
     5  C    5.039221   4.424692   1.197856   2.262942   0.000000
     6  C    4.247293   3.878072   2.651039   3.715939   1.453672
     7  O    4.946779   4.761105   3.457554   4.482289   2.347826
     8  O    2.945082   2.597268   3.389878   4.404422   2.304650
     9  C    2.503302   2.665373   4.770394   5.804940   3.628486
    10  C    3.341728   3.622571   5.497664   6.514367   4.382022
    11  H    1.309930   1.725698   5.372149   6.341001   4.337478
    12  H    3.097992   3.350873   5.101890   6.152021   3.930698
    13  H    3.552507   4.083259   6.546321   7.573722   5.408537
    14  H    3.311994   3.475992   5.510161   6.452769   4.515995
    15  H    4.342741   4.517992   5.323579   6.337423   4.213615
                    6          7          8          9         10
     6  C    0.000000
     7  O    1.197123   0.000000
     8  O    1.342633   2.250298   0.000000
     9  C    2.351504   2.670438   1.425896   0.000000
    10  C    3.133192   3.231921   2.438065   1.504431   0.000000
    11  H    3.279070   3.795238   2.064716   1.225710   2.227878
    12  H    2.557183   2.493600   2.076185   1.090377   2.201313
    13  H    4.093542   4.042987   3.367628   2.137051   1.090517
    14  H    3.517220   3.882362   2.668195   2.143586   1.090590
    15  H    2.964117   2.761059   2.751318   2.138317   1.093689
                   11         12         13         14         15
    11  H    0.000000
    12  H    1.859364   0.000000
    13  H    2.538102   2.532600   0.000000
    14  H    2.519168   3.089679   1.774107   0.000000
    15  H    3.154798   2.555322   1.774001   1.781956   0.000000
 Stoichiometry    C5H7O3(2)
 Framework group  C1[X(C5H7O3)]
 Deg. of freedom    39
 Full point group                 C1      NOp   1
 Largest Abelian subgroup         C1      NOp   1
 Largest concise Abelian subgroup C1      NOp   1
                         Standard orientation:                         
 ---------------------------------------------------------------------
 Center     Atomic      Atomic             Coordinates (Angstroms)
 Number     Number       Type             X           Y           Z
 ---------------------------------------------------------------------
      1          8           0        2.639895    1.754715   -0.248431
      2          1           0        1.827764    2.232681   -0.017301
      3          6           0       -3.192859    1.028698    0.403122
      4          1           0       -4.073435    1.574678    0.649904
      5          6           0       -2.203194    0.413640    0.125404
      6          6           0       -1.034642   -0.375281   -0.228502
      7          8           0       -1.078418   -1.477363   -0.693909
      8          8           0        0.096804    0.297058    0.036930
      9          6           0        1.316256   -0.369762   -0.281605
     10          6           0        1.773668   -1.292569    0.814987
     11          1           0        2.103355    0.565782   -0.368768
     12          1           0        1.256803   -0.821400   -1.272267
     13          1           0        2.755225   -1.700135    0.570724
     14          1           0        1.841050   -0.754001    1.760921
     15          1           0        1.067613   -2.121241    0.919602
 ---------------------------------------------------------------------
 Rotational constants (GHZ):           3.0316121           1.1297345           0.9017474
 Standard basis: 6-311++G(d,p) (5D, 7F)
 There are   233 symmetry adapted cartesian basis functions of A   symmetry.
 There are   225 symmetry adapted basis functions of A   symmetry.
   225 basis functions,   351 primitive gaussians,   233 cartesian basis functions
    31 alpha electrons       30 beta electrons
       nuclear repulsion energy       348.5456909398 Hartrees.
 NAtoms=   15 NActive=   15 NUniq=   15 SFac= 1.00D+00 NAtFMM=   60 NAOKFM=F Big=F
 Integral buffers will be    131072 words long.
 Raffenetti 2 integral format.
 Two-electron integral symmetry is turned on.
 One-electron integrals computed using PRISM.
 NBasis=   225 RedAO= T EigKep=  7.83D-06  NBF=   225
 NBsUse=   224 1.00D-06 EigRej=  8.25D-07 NBFU=   224
 ExpMin= 3.60D-02 ExpMax= 8.59D+03 ExpMxC= 1.30D+03 IAcc=3 IRadAn=         5 AccDes= 0.00D+00
 Harris functional with IExCor= 1009 and IRadAn=       5 diagonalized for initial guess.
 HarFok:  IExCor= 1009 AccDes= 0.00D+00 IRadAn=         5 IDoV= 1 UseB2=F ITyADJ=14
 ICtDFT=  3500011 ScaDFX=  1.000000  1.000000  1.000000  1.000000
 FoFCou: FMM=F IPFlag=           0 FMFlag=      100000 FMFlg1=           0
         NFxFlg=           0 DoJE=T BraDBF=F KetDBF=T FulRan=T
         wScrn=  0.000000 ICntrl=       500 IOpCl=  0 I1Cent=   200000004 NGrid=           0
         NMat0=    1 NMatS0=      1 NMatT0=    0 NMatD0=    1 NMtDS0=    0 NMtDT0=    0
 Petite list used in FoFCou.
 Initial guess <Sx>= 0.0000 <Sy>= 0.0000 <Sz>= 0.5000 <S**2>= 0.7500 S= 0.5000
 Requested convergence on RMS density matrix=1.00D-08 within 128 cycles.
 Requested convergence on MAX density matrix=1.00D-06.
 Requested convergence on             energy=1.00D-06.
 No special actions if energy rises.
 SCF Done:  E(UM062X) =  -420.199418459     A.U. after   19 cycles
            NFock= 19  Conv=0.80D-08     -V/T= 2.0034
 <Sx>= 0.0000 <Sy>= 0.0000 <Sz>= 0.5000 <S**2>= 0.7597 S= 0.5049
 <L.S>=  0.00000000000    
 Annihilation of the first spin contaminant:
 S**2 before annihilation     0.7597,   after     0.7500
 DoSCS=F DFT=T ScalE2(SS,OS)=  1.000000  1.000000
 Range of M.O.s used for correlation:     1   224
 NBasis=   225 NAE=    31 NBE=    30 NFC=     0 NFV=     0
 NROrb=    224 NOA=    31 NOB=    30 NVA=   193 NVB=   194

 **** Warning!!: The largest alpha MO coefficient is  0.11374799D+03


 **** Warning!!: The largest beta MO coefficient is  0.10681835D+03

 Symmetrizing basis deriv contribution to polar:
 IMax=3 JMax=2 DiffMx= 0.00D+00
 G2DrvN: will do    16 centers at a time, making    1 passes.
 Calling FoFCou, ICntrl=  3107 FMM=F I1Cent=   0 AccDes= 0.00D+00.
 End of G2Drv F.D. properties file   721 does not exist.
 End of G2Drv F.D. properties file   722 does not exist.
 End of G2Drv F.D. properties file   788 does not exist.
          IDoAtm=111111111111111
          Differentiating once with respect to electric field.
                with respect to dipole field.
          Differentiating once with respect to nuclear coordinates.
 Keep R1 and R2 ints in memory in canonical form, NReq=671901989.
          There are    48 degrees of freedom in the 1st order CPHF.  IDoFFX=6 NUNeed=     3.
     45 vectors produced by pass  0 Test12= 2.46D-14 2.08D-09 XBig12= 9.59D+01 3.88D+00.
 AX will form    45 AO Fock derivatives at one time.
     45 vectors produced by pass  1 Test12= 2.46D-14 2.08D-09 XBig12= 1.99D+01 7.24D-01.
     45 vectors produced by pass  2 Test12= 2.46D-14 2.08D-09 XBig12= 6.71D-01 1.22D-01.
     45 vectors produced by pass  3 Test12= 2.46D-14 2.08D-09 XBig12= 1.01D-02 1.31D-02.
     45 vectors produced by pass  4 Test12= 2.46D-14 2.08D-09 XBig12= 1.01D-04 1.11D-03.
     45 vectors produced by pass  5 Test12= 2.46D-14 2.08D-09 XBig12= 8.89D-07 9.26D-05.
     43 vectors produced by pass  6 Test12= 2.46D-14 2.08D-09 XBig12= 6.51D-09 6.66D-06.
     20 vectors produced by pass  7 Test12= 2.46D-14 2.08D-09 XBig12= 3.83D-11 5.92D-07.
      3 vectors produced by pass  8 Test12= 2.46D-14 2.08D-09 XBig12= 2.60D-13 4.65D-08.
      2 vectors produced by pass  9 Test12= 2.46D-14 2.08D-09 XBig12= 2.34D-15 6.11D-09.
 InvSVY:  IOpt=1 It=  1 EMax= 3.55D-15
 Solved reduced A of dimension   338 with    48 vectors.
 Isotropic polarizability for W=    0.000000       77.19 Bohr**3.
 End of Minotr F.D. properties file   721 does not exist.
 End of Minotr F.D. properties file   722 does not exist.
 End of Minotr F.D. properties file   788 does not exist.

 **********************************************************************

            Population analysis using the SCF density.

 **********************************************************************

 Orbital symmetries:
 Alpha Orbitals:
       Occupied  (A) (A) (A) (A) (A) (A) (A) (A) (A) (A) (A) (A)
                 (A) (A) (A) (A) (A) (A) (A) (A) (A) (A) (A) (A)
                 (A) (A) (A) (A) (A) (A) (A)
       Virtual   (A) (A) (A) (A) (A) (A) (A) (A) (A) (A) (A) (A)
                 (A) (A) (A) (A) (A) (A) (A) (A) (A) (A) (A) (A)
                 (A) (A) (A) (A) (A) (A) (A) (A) (A) (A) (A) (A)
                 (A) (A) (A) (A) (A) (A) (A) (A) (A) (A) (A) (A)
                 (A) (A) (A) (A) (A) (A) (A) (A) (A) (A) (A) (A)
                 (A) (A) (A) (A) (A) (A) (A) (A) (A) (A) (A) (A)
                 (A) (A) (A) (A) (A) (A) (A) (A) (A) (A) (A) (A)
                 (A) (A) (A) (A) (A) (A) (A) (A) (A) (A) (A) (A)
                 (A) (A) (A) (A) (A) (A) (A) (A) (A) (A) (A) (A)
                 (A) (A) (A) (A) (A) (A) (A) (A) (A) (A) (A) (A)
                 (A) (A) (A) (A) (A) (A) (A) (A) (A) (A) (A) (A)
                 (A) (A) (A) (A) (A) (A) (A) (A) (A) (A) (A) (A)
                 (A) (A) (A) (A) (A) (A) (A) (A) (A) (A) (A) (A)
                 (A) (A) (A) (A) (A) (A) (A) (A) (A) (A) (A) (A)
                 (A) (A) (A) (A) (A) (A) (A) (A) (A) (A) (A) (A)
                 (A) (A) (A) (A) (A) (A) (A) (A) (A) (A) (A) (A)
                 (A)
 Beta  Orbitals:
       Occupied  (A) (A) (A) (A) (A) (A) (A) (A) (A) (A) (A) (A)
                 (A) (A) (A) (A) (A) (A) (A) (A) (A) (A) (A) (A)
                 (A) (A) (A) (A) (A) (A)
       Virtual   (A) (A) (A) (A) (A) (A) (A) (A) (A) (A) (A) (A)
                 (A) (A) (A) (A) (A) (A) (A) (A) (A) (A) (A) (A)
                 (A) (A) (A) (A) (A) (A) (A) (A) (A) (A) (A) (A)
                 (A) (A) (A) (A) (A) (A) (A) (A) (A) (A) (A) (A)
                 (A) (A) (A) (A) (A) (A) (A) (A) (A) (A) (A) (A)
                 (A) (A) (A) (A) (A) (A) (A) (A) (A) (A) (A) (A)
                 (A) (A) (A) (A) (A) (A) (A) (A) (A) (A) (A) (A)
                 (A) (A) (A) (A) (A) (A) (A) (A) (A) (A) (A) (A)
                 (A) (A) (A) (A) (A) (A) (A) (A) (A) (A) (A) (A)
                 (A) (A) (A) (A) (A) (A) (A) (A) (A) (A) (A) (A)
                 (A) (A) (A) (A) (A) (A) (A) (A) (A) (A) (A) (A)
                 (A) (A) (A) (A) (A) (A) (A) (A) (A) (A) (A) (A)
                 (A) (A) (A) (A) (A) (A) (A) (A) (A) (A) (A) (A)
                 (A) (A) (A) (A) (A) (A) (A) (A) (A) (A) (A) (A)
                 (A) (A) (A) (A) (A) (A) (A) (A) (A) (A) (A) (A)
                 (A) (A) (A) (A) (A) (A) (A) (A) (A) (A) (A) (A)
                 (A) (A)
 The electronic state is 2-A.
 Alpha  occ. eigenvalues --  -19.70221 -19.65292 -19.64741 -10.72198 -10.63478
 Alpha  occ. eigenvalues --  -10.58124 -10.57666 -10.55254  -1.27487  -1.18219
 Alpha  occ. eigenvalues --   -1.12394  -0.91917  -0.88282  -0.79683  -0.71960
 Alpha  occ. eigenvalues --   -0.66495  -0.62386  -0.60692  -0.58564  -0.57721
 Alpha  occ. eigenvalues --   -0.53253  -0.51075  -0.49992  -0.48011  -0.45961
 Alpha  occ. eigenvalues --   -0.41255  -0.40934  -0.40806  -0.38278  -0.37434
 Alpha  occ. eigenvalues --   -0.34923
 Alpha virt. eigenvalues --   -0.02799  -0.00517   0.00537   0.01469   0.01816
 Alpha virt. eigenvalues --    0.03142   0.03300   0.04616   0.05940   0.05989
 Alpha virt. eigenvalues --    0.06538   0.07346   0.07936   0.09356   0.10171
 Alpha virt. eigenvalues --    0.11267   0.11867   0.12325   0.12689   0.12861
 Alpha virt. eigenvalues --    0.13780   0.14226   0.14789   0.15922   0.16346
 Alpha virt. eigenvalues --    0.17550   0.17842   0.18327   0.19627   0.19709
 Alpha virt. eigenvalues --    0.21498   0.21997   0.23790   0.25047   0.25557
 Alpha virt. eigenvalues --    0.26687   0.28052   0.28425   0.28654   0.29641
 Alpha virt. eigenvalues --    0.30383   0.31056   0.31905   0.32549   0.33632
 Alpha virt. eigenvalues --    0.34388   0.35106   0.36877   0.37616   0.40780
 Alpha virt. eigenvalues --    0.42217   0.44291   0.46120   0.47817   0.50243
 Alpha virt. eigenvalues --    0.50657   0.53173   0.55943   0.57375   0.59931
 Alpha virt. eigenvalues --    0.60483   0.62650   0.64643   0.66416   0.67189
 Alpha virt. eigenvalues --    0.67427   0.68852   0.70519   0.71923   0.73622
 Alpha virt. eigenvalues --    0.74546   0.75758   0.78855   0.81747   0.83981
 Alpha virt. eigenvalues --    0.88726   0.91888   0.95465   1.00374   1.04510
 Alpha virt. eigenvalues --    1.06995   1.09245   1.10022   1.12693   1.13609
 Alpha virt. eigenvalues --    1.15299   1.16767   1.17266   1.18790   1.21115
 Alpha virt. eigenvalues --    1.22636   1.23372   1.28884   1.29375   1.33774
 Alpha virt. eigenvalues --    1.35511   1.36153   1.38050   1.41558   1.42802
 Alpha virt. eigenvalues --    1.46761   1.48821   1.50716   1.54975   1.58178
 Alpha virt. eigenvalues --    1.59231   1.60169   1.61715   1.62006   1.64590
 Alpha virt. eigenvalues --    1.65661   1.67714   1.69584   1.72953   1.75031
 Alpha virt. eigenvalues --    1.79139   1.83189   1.83551   1.85904   1.89460
 Alpha virt. eigenvalues --    1.94003   1.99105   2.00292   2.04617   2.08226
 Alpha virt. eigenvalues --    2.11070   2.13605   2.16619   2.24421   2.30905
 Alpha virt. eigenvalues --    2.41332   2.42844   2.50488   2.50803   2.53965
 Alpha virt. eigenvalues --    2.57575   2.58884   2.60148   2.61733   2.64127
 Alpha virt. eigenvalues --    2.65733   2.69060   2.71584   2.73322   2.78874
 Alpha virt. eigenvalues --    2.81546   2.83127   2.89020   2.92217   2.97504
 Alpha virt. eigenvalues --    2.99261   3.00968   3.03339   3.05483   3.08683
 Alpha virt. eigenvalues --    3.13237   3.18286   3.19413   3.20943   3.23945
 Alpha virt. eigenvalues --    3.30020   3.32689   3.37249   3.42875   3.48644
 Alpha virt. eigenvalues --    3.55967   3.65589   3.72516   3.81298   3.84779
 Alpha virt. eigenvalues --    3.85498   3.97491   4.05784   4.11913   4.17344
 Alpha virt. eigenvalues --    4.25893   5.07953   5.12867   5.15850   5.30366
 Alpha virt. eigenvalues --    5.33100   5.45329   5.60865   5.72030   5.93348
 Alpha virt. eigenvalues --   23.61662  23.87113  23.93272  24.03826  25.16894
 Alpha virt. eigenvalues --   49.97017  49.98035  50.09765
  Beta  occ. eigenvalues --  -19.70209 -19.64737 -19.64102 -10.72178 -10.63015
  Beta  occ. eigenvalues --  -10.58124 -10.57666 -10.55259  -1.27363  -1.18103
  Beta  occ. eigenvalues --   -1.07860  -0.91344  -0.87778  -0.79404  -0.70930
  Beta  occ. eigenvalues --   -0.65991  -0.62064  -0.59866  -0.57901  -0.55230
  Beta  occ. eigenvalues --   -0.51517  -0.50611  -0.48096  -0.46705  -0.43200
  Beta  occ. eigenvalues --   -0.40783  -0.40123  -0.38344  -0.38251  -0.37392
  Beta virt. eigenvalues --   -0.11081  -0.02746  -0.00412   0.00592   0.01684
  Beta virt. eigenvalues --    0.01953   0.03195   0.03344   0.04817   0.05999
  Beta virt. eigenvalues --    0.06066   0.06678   0.07465   0.07986   0.09510
  Beta virt. eigenvalues --    0.10289   0.11377   0.12072   0.12430   0.12857
  Beta virt. eigenvalues --    0.13047   0.13879   0.14362   0.14901   0.16185
  Beta virt. eigenvalues --    0.16478   0.17653   0.17922   0.18353   0.19768
  Beta virt. eigenvalues --    0.19976   0.21623   0.22303   0.23926   0.24872
  Beta virt. eigenvalues --    0.25472   0.26769   0.28149   0.28587   0.29015
  Beta virt. eigenvalues --    0.29899   0.30852   0.31223   0.32055   0.32723
  Beta virt. eigenvalues --    0.33855   0.34641   0.35226   0.37519   0.38057
  Beta virt. eigenvalues --    0.41654   0.42523   0.44435   0.46228   0.47944
  Beta virt. eigenvalues --    0.50327   0.50764   0.53376   0.55996   0.57632
  Beta virt. eigenvalues --    0.60365   0.60708   0.62765   0.64881   0.66665
  Beta virt. eigenvalues --    0.67492   0.68038   0.69360   0.70897   0.72092
  Beta virt. eigenvalues --    0.73684   0.74648   0.75975   0.79104   0.81946
  Beta virt. eigenvalues --    0.84033   0.88874   0.92057   0.95486   1.00935
  Beta virt. eigenvalues --    1.05247   1.07101   1.09864   1.10260   1.13745
  Beta virt. eigenvalues --    1.14548   1.15569   1.16934   1.17753   1.19880
  Beta virt. eigenvalues --    1.21467   1.22848   1.23596   1.29007   1.29553
  Beta virt. eigenvalues --    1.33774   1.35681   1.36215   1.38304   1.41768
  Beta virt. eigenvalues --    1.42954   1.47074   1.49212   1.51159   1.56675
  Beta virt. eigenvalues --    1.58371   1.59563   1.60313   1.61888   1.62248
  Beta virt. eigenvalues --    1.64833   1.65887   1.68233   1.70102   1.73068
  Beta virt. eigenvalues --    1.75124   1.79218   1.83283   1.83692   1.86456
  Beta virt. eigenvalues --    1.89611   1.94072   1.99104   2.00439   2.04787
  Beta virt. eigenvalues --    2.08518   2.11647   2.14326   2.16865   2.25511
  Beta virt. eigenvalues --    2.31320   2.41361   2.43295   2.50531   2.50878
  Beta virt. eigenvalues --    2.53586   2.57356   2.59291   2.60152   2.62243
  Beta virt. eigenvalues --    2.64204   2.65669   2.69229   2.71489   2.72476
  Beta virt. eigenvalues --    2.77112   2.81503   2.81977   2.88793   2.92616
  Beta virt. eigenvalues --    2.97577   3.00650   3.03342   3.03558   3.05580
  Beta virt. eigenvalues --    3.08851   3.13436   3.19390   3.20383   3.23230
  Beta virt. eigenvalues --    3.25071   3.30255   3.32735   3.37382   3.42947
  Beta virt. eigenvalues --    3.50587   3.55987   3.65685   3.72851   3.82458
  Beta virt. eigenvalues --    3.85288   3.85747   3.99037   4.06586   4.12296
  Beta virt. eigenvalues --    4.17516   4.26630   5.09622   5.13292   5.15903
  Beta virt. eigenvalues --    5.30483   5.37754   5.45918   5.63357   5.72221
  Beta virt. eigenvalues --    5.93420  23.61665  23.87588  23.93296  24.03834
  Beta virt. eigenvalues --   25.16897  49.96341  49.98027  50.09761
          Condensed to atoms (all electrons):
               1          2          3          4          5          6
     1  O    8.027750   0.283085  -0.001371  -0.000059   0.011550  -0.002730
     2  H    0.283085   0.483003  -0.000821  -0.000205   0.000544  -0.001575
     3  C   -0.001371  -0.000821   5.792202   0.447701  -0.462256   0.934534
     4  H   -0.000059  -0.000205   0.447701   0.425345  -0.077270   0.023991
     5  C    0.011550   0.000544  -0.462256  -0.077270   8.081132  -2.194215
     6  C   -0.002730  -0.001575   0.934534   0.023991  -2.194215   7.541096
     7  O   -0.000225  -0.000314  -0.097084  -0.003325   0.125205   0.353911
     8  O    0.025686   0.010803  -0.094375  -0.005002  -0.268477   0.043659
     9  C   -0.039014   0.006100   0.047922   0.000952  -0.232731   0.087757
    10  C   -0.007619   0.017446  -0.014616  -0.001389  -0.068330  -0.089485
    11  H    0.074950  -0.053021   0.004886   0.000470  -0.012193   0.013999
    12  H    0.000263  -0.001310  -0.001633  -0.000057   0.008705  -0.000891
    13  H   -0.001488   0.001851  -0.000635  -0.000035  -0.000637  -0.003529
    14  H    0.005715  -0.001570   0.000417   0.000036   0.005591   0.004531
    15  H   -0.004413   0.000372   0.004069   0.000023  -0.029340   0.009819
               7          8          9         10         11         12
     1  O   -0.000225   0.025686  -0.039014  -0.007619   0.074950   0.000263
     2  H   -0.000314   0.010803   0.006100   0.017446  -0.053021  -0.001310
     3  C   -0.097084  -0.094375   0.047922  -0.014616   0.004886  -0.001633
     4  H   -0.003325  -0.005002   0.000952  -0.001389   0.000470  -0.000057
     5  C    0.125205  -0.268477  -0.232731  -0.068330  -0.012193   0.008705
     6  C    0.353911   0.043659   0.087757  -0.089485   0.013999  -0.000891
     7  O    7.980405  -0.144745   0.076119  -0.086432   0.007868  -0.013224
     8  O   -0.144745   8.384905   0.125915   0.021600  -0.075935  -0.021323
     9  C    0.076119   0.125915   6.126152  -0.365691   0.319469   0.426521
    10  C   -0.086432   0.021600  -0.365691   5.922134  -0.108910  -0.080822
    11  H    0.007868  -0.075935   0.319469  -0.108910   0.569411  -0.042960
    12  H   -0.013224  -0.021323   0.426521  -0.080822  -0.042960   0.502238
    13  H   -0.002022   0.020215  -0.059586   0.424687  -0.014380  -0.005574
    14  H    0.000732  -0.006277  -0.040272   0.406550  -0.011626   0.002638
    15  H    0.003315  -0.021326  -0.000283   0.370669   0.014586  -0.004287
              13         14         15
     1  O   -0.001488   0.005715  -0.004413
     2  H    0.001851  -0.001570   0.000372
     3  C   -0.000635   0.000417   0.004069
     4  H   -0.000035   0.000036   0.000023
     5  C   -0.000637   0.005591  -0.029340
     6  C   -0.003529   0.004531   0.009819
     7  O   -0.002022   0.000732   0.003315
     8  O    0.020215  -0.006277  -0.021326
     9  C   -0.059586  -0.040272  -0.000283
    10  C    0.424687   0.406550   0.370669
    11  H   -0.014380  -0.011626   0.014586
    12  H   -0.005574   0.002638  -0.004287
    13  H    0.516532  -0.027609  -0.031073
    14  H   -0.027609   0.521717  -0.048090
    15  H   -0.031073  -0.048090   0.542505
          Atomic-Atomic Spin Densities.
               1          2          3          4          5          6
     1  O    0.746661   0.003721  -0.000390  -0.000008   0.005236   0.002688
     2  H    0.003721  -0.024213   0.000197   0.000005  -0.001601  -0.000259
     3  C   -0.000390   0.000197  -0.000015   0.000340  -0.005672   0.005441
     4  H   -0.000008   0.000005   0.000340  -0.000103  -0.001216   0.001049
     5  C    0.005236  -0.001601  -0.005672  -0.001216   0.018023  -0.001451
     6  C    0.002688  -0.000259   0.005441   0.001049  -0.001451  -0.003949
     7  O    0.000114   0.000005  -0.000670   0.000004   0.005508  -0.003464
     8  O    0.038413  -0.004981   0.000456  -0.000118  -0.004352   0.011023
     9  C   -0.152333   0.011902   0.000604  -0.000052  -0.017320  -0.007185
    10  C    0.028057  -0.003126  -0.000737   0.000035   0.011857  -0.000455
    11  H   -0.057948   0.006851   0.000930   0.000070  -0.004479   0.003844
    12  H    0.005336  -0.000385   0.000293  -0.000004  -0.001132   0.001070
    13  H    0.000159   0.000065  -0.000000   0.000001   0.000025   0.000376
    14  H    0.004591  -0.000645  -0.000035  -0.000011   0.000738   0.000886
    15  H   -0.002345   0.000275  -0.000129   0.000007  -0.000433  -0.002431
               7          8          9         10         11         12
     1  O    0.000114   0.038413  -0.152333   0.028057  -0.057948   0.005336
     2  H    0.000005  -0.004981   0.011902  -0.003126   0.006851  -0.000385
     3  C   -0.000670   0.000456   0.000604  -0.000737   0.000930   0.000293
     4  H    0.000004  -0.000118  -0.000052   0.000035   0.000070  -0.000004
     5  C    0.005508  -0.004352  -0.017320   0.011857  -0.004479  -0.001132
     6  C   -0.003464   0.011023  -0.007185  -0.000455   0.003844   0.001070
     7  O    0.001334   0.001747  -0.000278  -0.001466  -0.001644   0.000442
     8  O    0.001747   0.038938  -0.094387   0.015804  -0.022985   0.005848
     9  C   -0.000278  -0.094387   0.620673  -0.038424   0.136841  -0.028255
    10  C   -0.001466   0.015804  -0.038424  -0.020079  -0.028009   0.011938
    11  H   -0.001644  -0.022985   0.136841  -0.028009  -0.076664   0.003925
    12  H    0.000442   0.005848  -0.028255   0.011938   0.003925  -0.002191
    13  H   -0.000025  -0.000001  -0.001407   0.002898  -0.001730   0.000035
    14  H    0.000267   0.003803  -0.019361   0.010616  -0.001186   0.000832
    15  H   -0.000698  -0.001151   0.006898   0.000102   0.000049  -0.002320
              13         14         15
     1  O    0.000159   0.004591  -0.002345
     2  H    0.000065  -0.000645   0.000275
     3  C   -0.000000  -0.000035  -0.000129
     4  H    0.000001  -0.000011   0.000007
     5  C    0.000025   0.000738  -0.000433
     6  C    0.000376   0.000886  -0.002431
     7  O   -0.000025   0.000267  -0.000698
     8  O   -0.000001   0.003803  -0.001151
     9  C   -0.001407  -0.019361   0.006898
    10  C    0.002898   0.010616   0.000102
    11  H   -0.001730  -0.001186   0.000049
    12  H    0.000035   0.000832  -0.002320
    13  H    0.001051  -0.000163  -0.000707
    14  H   -0.000163   0.009739  -0.005717
    15  H   -0.000707  -0.005717   0.032922
 Mulliken charges and spin densities:
               1          2
     1  O   -0.372079   0.621953
     2  H    0.255611  -0.012187
     3  C   -0.558940   0.000611
     4  H    0.188827  -0.000000
     5  C    1.112722   0.003731
     6  C   -0.720871   0.007182
     7  O   -0.200183   0.001177
     8  O    0.004678  -0.011944
     9  C   -0.479330   0.417916
    10  C   -0.339793  -0.010988
    11  H    0.313386  -0.042134
    12  H    0.231717  -0.004570
    13  H    0.183283   0.000577
    14  H    0.187516   0.004354
    15  H    0.193455   0.024321
 Sum of Mulliken charges =  -0.00000   1.00000
 Mulliken charges and spin densities with hydrogens summed into heavy atoms:
               1          2
     1  O   -0.116468   0.609765
     3  C   -0.370113   0.000611
     5  C    1.112722   0.003731
     6  C   -0.720871   0.007182
     7  O   -0.200183   0.001177
     8  O    0.004678  -0.011944
     9  C    0.065774   0.371212
    10  C    0.224461   0.018264
 APT charges:
               1
     1  O   -0.210496
     2  H    0.279990
     3  C   -0.172157
     4  H    0.237927
     5  C   -0.320140
     6  C    1.562990
     7  O   -0.790717
     8  O   -1.061749
     9  C    0.962340
    10  C   -0.176558
    11  H   -0.367722
    12  H   -0.048631
    13  H    0.030355
    14  H    0.034035
    15  H    0.040531
 Sum of APT charges =  -0.00000
 APT charges with hydrogens summed into heavy atoms:
               1
     1  O    0.069494
     3  C    0.065771
     5  C   -0.320140
     6  C    1.562990
     7  O   -0.790717
     8  O   -1.061749
     9  C    0.545987
    10  C   -0.071637
 Electronic spatial extent (au):  <R**2>=           1263.8328
 Charge=             -0.0000 electrons
 Dipole moment (field-independent basis, Debye):
    X=             -1.6641    Y=              0.5464    Z=              1.2601  Tot=              2.1577
 Quadrupole moment (field-independent basis, Debye-Ang):
   XX=            -46.5387   YY=            -48.5251   ZZ=            -48.0897
   XY=            -12.8633   XZ=             -1.7411   YZ=             -0.2959
 Traceless Quadrupole moment (field-independent basis, Debye-Ang):
   XX=              1.1792   YY=             -0.8072   ZZ=             -0.3719
   XY=            -12.8633   XZ=             -1.7411   YZ=             -0.2959
 Octapole moment (field-independent basis, Debye-Ang**2):
  XXX=            -56.8625  YYY=             13.9007  ZZZ=             -3.0387  XYY=             -1.3817
  XXY=              3.7384  XXZ=             12.9921  XZZ=              4.6244  YZZ=             -0.7450
  YYZ=              6.6404  XYZ=              1.1324
 Hexadecapole moment (field-independent basis, Debye-Ang**3):
 XXXX=          -1032.9976 YYYY=           -374.8871 ZZZZ=           -122.9643 XXXY=           -155.7912
 XXXZ=            -35.6515 YYYX=              0.2406 YYYZ=              2.1644 ZZZX=              3.7871
 ZZZY=              3.7599 XXYY=           -247.3247 XXZZ=           -216.8813 YYZZ=            -91.6625
 XXYZ=             23.6692 YYXZ=             -4.1382 ZZXY=             -0.7515
 N-N= 3.485456909398D+02 E-N=-1.681219470373D+03  KE= 4.187925350538D+02
  Exact polarizability:  95.346   0.049  84.762  -4.602   3.279  51.460
 Approx polarizability:  97.039  -5.520  97.030  -6.930   9.845  60.834
                          Isotropic Fermi Contact Couplings
        Atom                 a.u.       MegaHertz       Gauss      10(-4) cm-1
     1  O(17)              0.11012     -66.75553     -23.82003     -22.26725
     2  H(1)              -0.01047     -46.81542     -16.70491     -15.61594
     3  C(13)              0.00027       0.30351       0.10830       0.10124
     4  H(1)              -0.00000      -0.01358      -0.00484      -0.00453
     5  C(13)             -0.00027      -0.30187      -0.10771      -0.10069
     6  C(13)              0.01522      17.10830       6.10467       5.70671
     7  O(17)              0.00180      -1.09357      -0.39021      -0.36478
     8  O(17)              0.02292     -13.89121      -4.95673      -4.63361
     9  C(13)              0.17959     201.89793      72.04220      67.34590
    10  C(13)             -0.00396      -4.44740      -1.58694      -1.48349
    11  H(1)              -0.02162     -96.62252     -34.47732     -32.22980
    12  H(1)               0.00058       2.60483       0.92947       0.86888
    13  H(1)               0.00066       2.93142       1.04600       0.97781
    14  H(1)               0.00247      11.05097       3.94326       3.68621
    15  H(1)               0.01245      55.64078      19.85401      18.55977
 --------------------------------------------------------
       Center         ----  Spin Dipole Couplings  ----
                      3XX-RR        3YY-RR        3ZZ-RR
 --------------------------------------------------------
     1   Atom       -0.351155      1.623933     -1.272778
     2   Atom        0.070222      0.009612     -0.079834
     3   Atom        0.001401     -0.001058     -0.000343
     4   Atom        0.001042     -0.000486     -0.000556
     5   Atom        0.003486     -0.001161     -0.002326
     6   Atom        0.017894     -0.008085     -0.009809
     7   Atom        0.000051     -0.006612      0.006561
     8   Atom       -0.010137      0.023780     -0.013643
     9   Atom        0.011348      0.263795     -0.275143
    10   Atom       -0.016094      0.019218     -0.003124
    11   Atom       -0.021073      0.141214     -0.120140
    12   Atom       -0.023486     -0.005638      0.029123
    13   Atom       -0.000195      0.005034     -0.004839
    14   Atom       -0.006421     -0.002682      0.009102
    15   Atom       -0.002263      0.004360     -0.002096
 --------------------------------------------------------
                        XY            XZ            YZ
 --------------------------------------------------------
     1   Atom        1.672355      0.115237      0.191455
     2   Atom       -0.062585     -0.040529      0.028730
     3   Atom       -0.000297     -0.000070      0.000988
     4   Atom       -0.000294     -0.000237      0.000081
     5   Atom       -0.000759     -0.000701     -0.000127
     6   Atom        0.008273      0.006261      0.003077
     7   Atom        0.004794     -0.004792     -0.000460
     8   Atom        0.056808     -0.004004     -0.027733
     9   Atom        0.398871     -0.014094     -0.019739
    10   Atom        0.006288     -0.002048     -0.022359
    11   Atom        0.155649     -0.000140      0.007726
    12   Atom        0.013249     -0.000095      0.022560
    13   Atom       -0.006059      0.003432     -0.005038
    14   Atom        0.001157      0.001501     -0.005629
    15   Atom        0.003972      0.000270     -0.005367
 --------------------------------------------------------


 ---------------------------------------------------------------------------------
              Anisotropic Spin Dipole Couplings in Principal Axis System
 ---------------------------------------------------------------------------------

       Atom             a.u.   MegaHertz   Gauss  10(-4) cm-1        Axes

              Baa    -1.3070    94.576    33.747    31.547  0.8508 -0.4701 -0.2347
     1 O(17)  Bbb    -1.2844    92.942    33.164    31.002  0.1763 -0.1653  0.9704
              Bcc     2.5915  -187.517   -66.911   -62.549  0.4950  0.8670  0.0577
 
              Baa    -0.0922   -49.174   -17.546   -16.403  0.1790 -0.1638  0.9701
     2 H(1)   Bbb    -0.0295   -15.741    -5.617    -5.251  0.5431  0.8386  0.0414
              Bcc     0.1217    64.915    23.163    21.653  0.8204 -0.5195 -0.2391
 
              Baa    -0.0018    -0.237    -0.084    -0.079  0.0645  0.8209 -0.5674
     3 C(13)  Bbb     0.0003     0.041     0.015     0.014  0.2001  0.5464  0.8133
              Bcc     0.0015     0.196     0.070     0.065  0.9776 -0.1660 -0.1290
 
              Baa    -0.0006    -0.326    -0.116    -0.109  0.0424 -0.4729  0.8801
     4 H(1)   Bbb    -0.0005    -0.279    -0.099    -0.093  0.2304  0.8618  0.4519
              Bcc     0.0011     0.604     0.216     0.202  0.9722 -0.1836 -0.1455
 
              Baa    -0.0024    -0.328    -0.117    -0.110  0.1378  0.1771  0.9745
     5 C(13)  Bbb    -0.0012    -0.166    -0.059    -0.055  0.1275  0.9725 -0.1948
              Bcc     0.0037     0.494     0.176     0.165  0.9822 -0.1510 -0.1114
 
              Baa    -0.0121    -1.629    -0.581    -0.544  0.0007 -0.6052  0.7961
     6 C(13)  Bbb    -0.0097    -1.296    -0.462    -0.432 -0.3524  0.7449  0.5665
              Bcc     0.0218     2.925     1.044     0.976  0.9359  0.2809  0.2127
 
              Baa    -0.0093     0.676     0.241     0.226 -0.5010  0.8562 -0.1261
     7 O(17)  Bbb    -0.0002     0.016     0.006     0.005  0.6980  0.4859  0.5260
              Bcc     0.0096    -0.693    -0.247    -0.231 -0.5117 -0.1755  0.8411
 
              Baa    -0.0571     4.131     1.474     1.378  0.7170 -0.6157 -0.3269
     8 O(17)  Bbb    -0.0161     1.166     0.416     0.389  0.4280  0.0187  0.9036
              Bcc     0.0732    -5.297    -1.890    -1.767  0.5502  0.7878 -0.2769
 
              Baa    -0.2808   -37.682   -13.446   -12.569  0.8043 -0.5912 -0.0589
     9 C(13)  Bbb    -0.2758   -37.014   -13.208   -12.347  0.0647 -0.0114  0.9978
              Bcc     0.5566    74.696    26.654    24.916  0.5906  0.8064 -0.0291
 
              Baa    -0.0185    -2.481    -0.885    -0.827  0.6985 -0.4476 -0.5583
    10 C(13)  Bbb    -0.0154    -2.064    -0.737    -0.689  0.7041  0.2907  0.6479
              Bcc     0.0339     4.545     1.622     1.516  0.1277  0.8457 -0.5182
 
              Baa    -0.1226   -65.431   -23.347   -21.825  0.4181 -0.2720  0.8667
    11 H(1)   Bbb    -0.1131   -60.338   -21.530   -20.127  0.7461 -0.4415 -0.4985
              Bcc     0.2357   125.769    44.878    41.952  0.5182  0.8550  0.0184
 
              Baa    -0.0328   -17.501    -6.245    -5.838  0.8012 -0.5618  0.2059
    12 H(1)   Bbb    -0.0080    -4.246    -1.515    -1.416  0.5911  0.6898 -0.4181
              Bcc     0.0408    21.747     7.760     7.254  0.0929  0.4567  0.8847
 
              Baa    -0.0071    -3.810    -1.360    -1.271 -0.2200  0.2775  0.9352
    13 H(1)   Bbb    -0.0042    -2.229    -0.795    -0.743  0.8279  0.5602  0.0285
              Bcc     0.0113     6.039     2.155     2.014 -0.5160  0.7805 -0.3530
 
              Baa    -0.0075    -4.005    -1.429    -1.336  0.8432 -0.4814 -0.2393
    14 H(1)   Bbb    -0.0039    -2.083    -0.743    -0.695  0.5348  0.7962  0.2829
              Bcc     0.0114     6.089     2.173     2.031  0.0544 -0.3665  0.9288
 
              Baa    -0.0065    -3.478    -1.241    -1.160 -0.5305  0.5229  0.6672
    15 H(1)   Bbb    -0.0019    -1.036    -0.370    -0.346  0.7909  0.0223  0.6115
              Bcc     0.0085     4.514     1.611     1.506  0.3049  0.8521 -0.4254
 

 ---------------------------------------------------------------------------------

 Calling FoFJK, ICntrl=    100127 FMM=F ISym2X=0 I1Cent= 0 IOpClX= 1 NMat=1 NMatS=1 NMatT=0.
 Full mass-weighted force constant matrix:
 Low frequencies ----1515.7449   -0.0010   -0.0009   -0.0005    8.5013   16.6856
 Low frequencies ---   27.6823   66.0936   79.3094
 ******    1 imaginary frequencies (negative Signs) ****** 
 Diagonal vibrational polarizability:
       38.4775726      47.3529838      97.9465356
 Harmonic frequencies (cm**-1), IR intensities (KM/Mole), Raman scattering
 activities (A**4/AMU), depolarization ratios for plane and unpolarized
 incident light, reduced masses (AMU), force constants (mDyne/A),
 and normal coordinates:
                      1                      2                      3
                      A                      A                      A
 Frequencies --  -1515.7449                63.7424                78.9265
 Red. masses --      1.1033                 6.7617                 4.9959
 Frc consts  --      1.4935                 0.0162                 0.0183
 IR Inten    --   1802.2928                 4.5985                 0.8393
  Atom  AN      X      Y      Z        X      Y      Z        X      Y      Z
     1   8    -0.03  -0.06  -0.01     0.03   0.04   0.22     0.26  -0.10   0.02
     2   1     0.04   0.02  -0.01     0.02   0.02   0.23     0.32   0.06  -0.11
     3   6     0.00  -0.00  -0.00    -0.00   0.05  -0.14    -0.08  -0.20   0.18
     4   1     0.00   0.00   0.00    -0.01   0.09  -0.24    -0.12  -0.33   0.32
     5   6     0.00   0.00  -0.00     0.00   0.01  -0.02    -0.04  -0.06   0.03
     6   6    -0.01  -0.00  -0.00     0.01  -0.03   0.10    -0.00   0.04  -0.07
     7   8     0.00   0.00   0.00     0.02  -0.16   0.40     0.03   0.00  -0.00
     8   8     0.01  -0.00  -0.00     0.00   0.09  -0.18    -0.02   0.13  -0.22
     9   6    -0.03  -0.02   0.01    -0.00   0.07  -0.17    -0.01   0.06  -0.03
    10   6     0.01   0.02  -0.00    -0.07  -0.07  -0.26    -0.20   0.12   0.10
    11   1     0.42   0.88   0.10     0.03   0.07   0.01     0.07  -0.01   0.01
    12   1     0.10   0.13  -0.06     0.05   0.20  -0.23     0.09  -0.01  -0.00
    13   1     0.00  -0.00  -0.00    -0.05  -0.02  -0.26    -0.18   0.06   0.27
    14   1    -0.01  -0.00   0.01    -0.13  -0.20  -0.19    -0.31   0.19   0.07
    15   1    -0.02   0.02  -0.03    -0.06  -0.10  -0.42    -0.25   0.15   0.07
                      4                      5                      6
                      A                      A                      A
 Frequencies --    104.7843               138.7635               174.9227
 Red. masses --      4.7867                 3.0562                 2.3906
 Frc consts  --      0.0310                 0.0347                 0.0431
 IR Inten    --      1.1435                 5.3202                 8.3017
  Atom  AN      X      Y      Z        X      Y      Z        X      Y      Z
     1   8     0.25  -0.05  -0.10     0.09  -0.07   0.12     0.11   0.09  -0.04
     2   1     0.39   0.13   0.02     0.19  -0.03   0.37     0.15   0.27  -0.29
     3   6    -0.22  -0.13  -0.18     0.02   0.08   0.01     0.11   0.12   0.03
     4   1    -0.33  -0.23  -0.34     0.08   0.17   0.02     0.22   0.29   0.07
     5   6    -0.09  -0.01   0.02    -0.05  -0.02  -0.01    -0.04  -0.10  -0.01
     6   6    -0.03   0.05   0.10    -0.08  -0.07  -0.02    -0.04  -0.10  -0.01
     7   8     0.01   0.08   0.03    -0.10  -0.06  -0.03     0.02  -0.09  -0.04
     8   8    -0.04   0.02   0.23    -0.07  -0.07  -0.03    -0.09  -0.04   0.05
     9   6    -0.05   0.08   0.04    -0.05   0.00  -0.08    -0.03   0.09   0.06
    10   6     0.09  -0.04  -0.12     0.19   0.21  -0.00    -0.06  -0.02  -0.01
    11   1    -0.04   0.04   0.01    -0.11   0.02  -0.20    -0.05   0.12   0.17
    12   1    -0.17   0.17   0.00    -0.11  -0.13  -0.02     0.07   0.19   0.01
    13   1     0.06   0.00  -0.30     0.20   0.29  -0.08     0.10   0.26   0.14
    14   1     0.20  -0.16  -0.06     0.29   0.38  -0.10    -0.41  -0.19   0.11
    15   1     0.11  -0.06  -0.14     0.30   0.16   0.24     0.11  -0.21  -0.34
                      7                      8                      9
                      A                      A                      A
 Frequencies --    205.8501               216.6575               271.0134
 Red. masses --      1.1082                 1.3482                 4.5114
 Frc consts  --      0.0277                 0.0373                 0.1952
 IR Inten    --     95.5879                 5.6944                 3.4592
  Atom  AN      X      Y      Z        X      Y      Z        X      Y      Z
     1   8    -0.01   0.01  -0.07     0.01   0.02  -0.02    -0.04  -0.07   0.02
     2   1     0.16  -0.17   0.91     0.08   0.01   0.23    -0.09  -0.10  -0.09
     3   6     0.01  -0.00   0.00     0.05   0.04   0.00     0.02   0.06  -0.18
     4   1     0.01   0.00   0.01     0.10   0.13   0.00     0.00   0.24  -0.62
     5   6     0.00  -0.00  -0.01    -0.02  -0.07  -0.00     0.03  -0.17   0.41
     6   6     0.01   0.00  -0.00     0.00  -0.04   0.00     0.04  -0.04   0.13
     7   8     0.02   0.00   0.00     0.07  -0.03  -0.02     0.06   0.06  -0.11
     8   8     0.00   0.01   0.00    -0.03   0.02   0.03     0.02   0.04  -0.04
     9   6     0.00   0.00   0.01    -0.03   0.04   0.01    -0.02  -0.01  -0.10
    10   6    -0.03  -0.01   0.01    -0.06   0.00  -0.01    -0.09   0.08  -0.00
    11   1    -0.01   0.01  -0.04    -0.02   0.04   0.00     0.01  -0.06  -0.14
    12   1     0.01   0.00   0.01    -0.04   0.06   0.00    -0.07  -0.07  -0.07
    13   1     0.05   0.12   0.12    -0.31  -0.44  -0.26    -0.01   0.16   0.20
    14   1    -0.22  -0.06   0.05     0.44   0.08  -0.09    -0.30   0.16  -0.03
    15   1     0.05  -0.09  -0.12    -0.37   0.30   0.30    -0.03   0.02  -0.05
                     10                     11                     12
                      A                      A                      A
 Frequencies --    289.7951               422.3168               547.7997
 Red. masses --      4.4725                 3.5919                 5.0314
 Frc consts  --      0.2213                 0.3774                 0.8896
 IR Inten    --      7.6845                 5.0967                 5.1055
  Atom  AN      X      Y      Z        X      Y      Z        X      Y      Z
     1   8    -0.10  -0.22   0.02     0.01   0.02   0.02    -0.05  -0.10  -0.01
     2   1    -0.18  -0.24  -0.20     0.01   0.05  -0.07     0.00  -0.02   0.01
     3   6     0.04   0.04   0.07     0.07  -0.08  -0.01     0.19  -0.14  -0.07
     4   1     0.12   0.10   0.22     0.00  -0.21   0.04     0.05  -0.35  -0.16
     5   6    -0.07  -0.05  -0.15     0.15   0.10  -0.08     0.33   0.09   0.06
     6   6     0.03   0.06  -0.00     0.05  -0.04   0.05     0.03  -0.05  -0.05
     7   8     0.29   0.03   0.03    -0.05  -0.02   0.01    -0.12  -0.06  -0.02
     8   8    -0.05   0.13   0.11     0.05  -0.13   0.20    -0.12   0.13  -0.02
     9   6    -0.15  -0.01  -0.04    -0.01   0.02  -0.17    -0.17   0.16   0.18
    10   6     0.00   0.06  -0.06    -0.18   0.15  -0.06    -0.00   0.03  -0.02
    11   1    -0.11  -0.20  -0.21    -0.03   0.06  -0.21    -0.16  -0.11   0.10
    12   1    -0.39  -0.11   0.02    -0.19   0.02  -0.16    -0.14   0.13   0.19
    13   1     0.14   0.36  -0.02    -0.16  -0.01   0.31    -0.02   0.21  -0.42
    14   1    -0.19   0.07  -0.05    -0.42   0.35  -0.16     0.23  -0.24   0.11
    15   1     0.24  -0.15  -0.11    -0.32   0.26  -0.07     0.15  -0.11  -0.07
                     13                     14                     15
                      A                      A                      A
 Frequencies --    599.4632               664.7909               744.2627
 Red. masses --      5.6857                 3.2085                 1.3155
 Frc consts  --      1.2038                 0.8355                 0.4293
 IR Inten    --     19.1698                12.0254                39.2264
  Atom  AN      X      Y      Z        X      Y      Z        X      Y      Z
     1   8     0.03   0.09   0.01    -0.04  -0.14  -0.02    -0.00  -0.00  -0.00
     2   1     0.23   0.42   0.04    -0.27  -0.51  -0.04     0.00  -0.00   0.00
     3   6    -0.13   0.06   0.03    -0.12   0.07   0.03    -0.09  -0.12  -0.03
     4   1    -0.37  -0.25  -0.10    -0.19  -0.02   0.01     0.55   0.79   0.21
     5   6     0.12   0.35   0.16    -0.04   0.14   0.04     0.04   0.06   0.02
     6   6    -0.07  -0.06  -0.04    -0.03  -0.09  -0.01    -0.00  -0.00  -0.00
     7   8     0.28  -0.09  -0.04     0.05  -0.09  -0.04     0.01  -0.00  -0.00
     8   8    -0.11  -0.14  -0.08    -0.01  -0.05   0.01    -0.00  -0.00  -0.00
     9   6    -0.16  -0.14  -0.02     0.20   0.22   0.06    -0.00   0.00   0.00
    10   6    -0.01  -0.04   0.02     0.01   0.08  -0.04    -0.00   0.00  -0.00
    11   1    -0.21   0.15   0.07     0.13  -0.22   0.07    -0.00  -0.00   0.00
    12   1    -0.07  -0.13  -0.03     0.34   0.28   0.02     0.00   0.00   0.00
    13   1     0.02   0.08  -0.06    -0.05  -0.10   0.01    -0.00   0.01  -0.01
    14   1     0.05   0.07  -0.04    -0.02  -0.11   0.07     0.00  -0.00   0.00
    15   1     0.12  -0.13   0.20    -0.17   0.21  -0.29     0.00  -0.00  -0.00
                     16                     17                     18
                      A                      A                      A
 Frequencies --    773.9758               781.2507               826.7529
 Red. masses --      1.9298                 2.7532                 1.0736
 Frc consts  --      0.6811                 0.9901                 0.4324
 IR Inten    --      5.8419                58.7493                 7.4178
  Atom  AN      X      Y      Z        X      Y      Z        X      Y      Z
     1   8     0.00   0.00   0.00    -0.01  -0.01  -0.00     0.02   0.01  -0.01
     2   1    -0.02  -0.03  -0.01     0.04   0.06   0.02    -0.17  -0.31   0.01
     3   6    -0.01   0.05  -0.15    -0.01   0.03  -0.10     0.01  -0.01  -0.00
     4   1     0.07  -0.28   0.91     0.07  -0.28   0.85     0.01  -0.01  -0.01
     5   6     0.01  -0.05   0.12     0.00   0.03  -0.08     0.01  -0.01   0.01
     6   6    -0.00   0.07  -0.17     0.01  -0.13   0.32    -0.01   0.01  -0.02
     7   8     0.00  -0.02   0.05    -0.00   0.04  -0.09    -0.00   0.01   0.01
     8   8     0.00  -0.02   0.04    -0.00   0.03  -0.08    -0.01  -0.00   0.01
     9   6     0.00   0.00   0.00    -0.01  -0.00  -0.00    -0.03  -0.02  -0.01
    10   6     0.00   0.00  -0.00    -0.00  -0.01   0.01    -0.03  -0.03  -0.02
    11   1     0.01   0.01  -0.05    -0.02  -0.02   0.10     0.12  -0.16   0.45
    12   1    -0.05  -0.03   0.02     0.09   0.06  -0.04     0.21   0.43  -0.22
    13   1    -0.00  -0.02   0.02     0.01   0.04  -0.03     0.07   0.17   0.03
    14   1    -0.02  -0.01   0.01     0.04   0.03  -0.01     0.01   0.31  -0.21
    15   1    -0.03   0.03  -0.04     0.05  -0.05   0.07     0.16  -0.12   0.37
                     19                     20                     21
                      A                      A                      A
 Frequencies --    842.8117               899.5346               955.5483
 Red. masses --      1.4197                 2.6806                 3.7596
 Frc consts  --      0.5942                 1.2780                 2.0225
 IR Inten    --    391.6198                20.9496                 4.1814
  Atom  AN      X      Y      Z        X      Y      Z        X      Y      Z
     1   8    -0.08  -0.09  -0.01    -0.03  -0.02   0.00    -0.02   0.00   0.00
     2   1     0.40   0.69   0.06     0.17   0.31   0.02     0.18   0.32   0.03
     3   6     0.01  -0.00  -0.00    -0.03   0.01   0.00    -0.12   0.08   0.04
     4   1     0.02   0.02  -0.01    -0.04   0.00  -0.00    -0.14   0.09   0.04
     5   6    -0.01  -0.03  -0.00     0.02   0.05   0.02    -0.08   0.04   0.02
     6   6     0.03   0.05  -0.01    -0.01  -0.07  -0.04     0.16  -0.11  -0.06
     7   8     0.01   0.04   0.03    -0.04  -0.11  -0.04    -0.07  -0.16  -0.06
     8   8     0.00  -0.06  -0.02    -0.05   0.21   0.07     0.24   0.11   0.05
     9   6     0.04   0.04   0.01     0.08   0.01  -0.11    -0.03  -0.05   0.08
    10   6    -0.00   0.02  -0.02     0.11  -0.14   0.04    -0.14   0.06  -0.06
    11   1    -0.32  -0.12   0.28    -0.02   0.05  -0.09     0.07  -0.09   0.11
    12   1     0.26   0.22  -0.09    -0.20   0.20  -0.18    -0.10  -0.13   0.11
    13   1     0.01   0.02   0.03     0.16  -0.32   0.59    -0.08   0.43  -0.47
    14   1    -0.01   0.09  -0.06    -0.18   0.21  -0.13     0.15   0.09  -0.09
    15   1    -0.00   0.03   0.04    -0.05   0.02   0.23     0.21  -0.21   0.15
                     22                     23                     24
                      A                      A                      A
 Frequencies --   1099.0165              1124.7504              1164.2070
 Red. masses --      3.0725                 2.1226                 1.6756
 Frc consts  --      2.1865                 1.5821                 1.3380
 IR Inten    --     31.0840                92.2478                11.2644
  Atom  AN      X      Y      Z        X      Y      Z        X      Y      Z
     1   8    -0.00  -0.01   0.01    -0.01  -0.01   0.00     0.00   0.00  -0.01
     2   1    -0.04  -0.05  -0.03     0.04   0.08  -0.01    -0.01  -0.03   0.02
     3   6    -0.03   0.02   0.01     0.02  -0.01  -0.01    -0.01   0.01   0.00
     4   1    -0.03   0.03   0.01     0.02  -0.02  -0.01    -0.01   0.01   0.00
     5   6    -0.03  -0.01  -0.00     0.02   0.00  -0.00    -0.00   0.00   0.00
     6   6     0.08  -0.00  -0.01    -0.04   0.01  -0.00     0.02  -0.01  -0.01
     7   8    -0.01   0.01   0.01     0.01   0.01   0.01    -0.01  -0.02  -0.01
     8   8     0.11  -0.11  -0.05    -0.10   0.02   0.06     0.03   0.03   0.03
     9   6    -0.15   0.27  -0.10     0.18  -0.00  -0.15    -0.09  -0.05  -0.15
    10   6    -0.00  -0.13   0.15    -0.13  -0.02   0.10     0.06   0.08   0.11
    11   1    -0.10   0.10  -0.47     0.10   0.12  -0.23    -0.02  -0.17   0.52
    12   1    -0.32   0.38  -0.16     0.24  -0.13  -0.10     0.12   0.15  -0.25
    13   1     0.06   0.03   0.11    -0.08   0.35  -0.41    -0.11  -0.20  -0.12
    14   1     0.16  -0.15   0.15     0.37  -0.16   0.14     0.07  -0.42   0.39
    15   1     0.18  -0.25   0.34     0.31  -0.37   0.15    -0.04   0.09  -0.37
                     25                     26                     27
                      A                      A                      A
 Frequencies --   1270.2555              1276.7310              1369.1630
 Red. masses --      1.2072                 6.2308                 1.2194
 Frc consts  --      1.1476                 5.9840                 1.3468
 IR Inten    --    102.1775               647.2048                 1.8326
  Atom  AN      X      Y      Z        X      Y      Z        X      Y      Z
     1   8    -0.01  -0.00  -0.01     0.03   0.01   0.00     0.00  -0.00  -0.00
     2   1     0.03   0.05   0.03    -0.14  -0.25  -0.03    -0.04  -0.07  -0.00
     3   6    -0.01   0.01   0.00    -0.10   0.06   0.03    -0.01   0.01   0.00
     4   1    -0.01   0.01   0.00    -0.09   0.10   0.04    -0.01   0.01   0.00
     5   6    -0.00  -0.00  -0.00    -0.03   0.00   0.00    -0.00   0.00  -0.00
     6   6     0.06   0.01   0.00     0.57   0.02  -0.00     0.05  -0.01  -0.01
     7   8    -0.00   0.01   0.00    -0.06   0.01   0.00    -0.01   0.00   0.00
     8   8    -0.05  -0.04  -0.02    -0.28  -0.04  -0.02    -0.01   0.01   0.03
     9   6     0.04   0.07  -0.05     0.03  -0.13   0.04    -0.07   0.06  -0.04
    10   6    -0.01  -0.02  -0.00     0.02   0.01   0.01    -0.00   0.00  -0.07
    11   1     0.35  -0.05   0.59    -0.31   0.25  -0.29    -0.09   0.07   0.10
    12   1    -0.57  -0.36   0.20     0.02   0.38  -0.18     0.60  -0.54   0.19
    13   1     0.04   0.04   0.05    -0.02  -0.02  -0.06     0.03  -0.14   0.29
    14   1     0.05   0.03  -0.03    -0.04   0.04  -0.01    -0.02  -0.19   0.05
    15   1     0.02  -0.03   0.05    -0.07   0.07  -0.14     0.12  -0.06   0.33
                     28                     29                     30
                      A                      A                      A
 Frequencies --   1411.0639              1482.4604              1486.3287
 Red. masses --      1.3245                 1.0476                 1.0383
 Frc consts  --      1.5537                 1.3565                 1.3515
 IR Inten    --     20.2516                 3.2966                 6.7173
  Atom  AN      X      Y      Z        X      Y      Z        X      Y      Z
     1   8     0.00  -0.00  -0.00     0.00   0.00  -0.00    -0.00   0.00   0.00
     2   1    -0.02  -0.05   0.00    -0.03  -0.05  -0.00     0.02   0.04   0.00
     3   6    -0.00   0.00   0.00     0.00  -0.00  -0.00     0.00  -0.00  -0.00
     4   1    -0.00   0.00   0.00     0.00  -0.00  -0.00     0.00  -0.00   0.00
     5   6    -0.00   0.00  -0.00     0.00  -0.00   0.00     0.00   0.00  -0.00
     6   6     0.01  -0.00   0.00    -0.00   0.00   0.00    -0.00   0.00   0.00
     7   8    -0.00  -0.00  -0.00    -0.00  -0.01  -0.00     0.00  -0.00  -0.00
     8   8     0.00   0.01   0.01     0.01   0.01  -0.00    -0.01  -0.00   0.00
     9   6    -0.04   0.05  -0.04    -0.01  -0.02   0.00     0.01  -0.02  -0.01
    10   6     0.05  -0.11   0.09    -0.05  -0.02  -0.02     0.02  -0.02  -0.03
    11   1    -0.10   0.05   0.08    -0.16   0.06   0.06     0.12  -0.07  -0.05
    12   1     0.30  -0.28   0.08    -0.00   0.01  -0.01    -0.03   0.07  -0.05
    13   1     0.10   0.31  -0.38     0.23   0.32   0.49     0.19   0.45  -0.08
    14   1    -0.14   0.44  -0.22     0.66  -0.05  -0.04    -0.17  -0.41   0.22
    15   1    -0.36   0.20  -0.30    -0.19   0.09  -0.28    -0.38   0.38   0.43
                     31                     32                     33
                      A                      A                      A
 Frequencies --   1529.1945              1847.3476              2269.7025
 Red. masses --      1.0858                12.5918                 5.7437
 Frc consts  --      1.4959                25.3183                17.4332
 IR Inten    --     16.5346               336.6476                81.8763
  Atom  AN      X      Y      Z        X      Y      Z        X      Y      Z
     1   8    -0.02   0.01   0.01    -0.00   0.00   0.00    -0.00  -0.00   0.00
     2   1     0.12   0.22   0.02    -0.00  -0.01  -0.00     0.00   0.00  -0.00
     3   6    -0.00   0.00   0.00     0.07  -0.04  -0.02    -0.31   0.19   0.09
     4   1    -0.00   0.00   0.00     0.11  -0.04  -0.02    -0.62   0.39   0.17
     5   6    -0.00  -0.00  -0.00    -0.04   0.01   0.01     0.44  -0.27  -0.12
     6   6     0.02  -0.01  -0.00    -0.00   0.74   0.31    -0.07   0.06   0.03
     7   8    -0.00   0.01   0.00    -0.01  -0.49  -0.21     0.00  -0.01  -0.00
     8   8    -0.03  -0.01   0.00    -0.01  -0.05  -0.02    -0.01  -0.00  -0.00
     9   6    -0.06   0.00   0.01    -0.02   0.03   0.01     0.00   0.00   0.00
    10   6     0.00  -0.00   0.00     0.01  -0.00  -0.01    -0.00   0.00  -0.00
    11   1     0.76  -0.39  -0.28     0.11  -0.03  -0.05     0.00  -0.01  -0.00
    12   1     0.24   0.03  -0.02     0.11  -0.01   0.04    -0.00   0.00  -0.00
    13   1     0.03  -0.02   0.10    -0.01  -0.06   0.03    -0.00  -0.00  -0.00
    14   1     0.13   0.07  -0.04    -0.03   0.01  -0.01    -0.00  -0.00   0.00
    15   1    -0.02  -0.00  -0.17     0.04  -0.02   0.04     0.00  -0.00   0.00
                     34                     35                     36
                      A                      A                      A
 Frequencies --   3064.3806              3133.2911              3143.4701
 Red. masses --      1.0365                 1.0876                 1.0984
 Frc consts  --      5.7348                 6.2911                 6.3947
 IR Inten    --      1.9157                 5.7538                 3.0454
  Atom  AN      X      Y      Z        X      Y      Z        X      Y      Z
     1   8    -0.00  -0.00  -0.00     0.00   0.00   0.00     0.00   0.00   0.00
     2   1     0.00   0.00   0.00    -0.00   0.00   0.00    -0.00   0.00  -0.00
     3   6    -0.00   0.00   0.00    -0.00   0.00   0.00     0.00  -0.00  -0.00
     4   1     0.00  -0.00  -0.00    -0.00  -0.00   0.00    -0.00   0.00   0.00
     5   6     0.00   0.00  -0.00     0.00   0.00  -0.00     0.00   0.00  -0.00
     6   6    -0.00  -0.00  -0.00    -0.00  -0.00  -0.00    -0.00  -0.00  -0.00
     7   8    -0.00   0.00  -0.00    -0.00   0.00   0.00    -0.00   0.00   0.00
     8   8     0.00   0.00   0.00     0.00  -0.00   0.00     0.00  -0.00   0.00
     9   6    -0.00  -0.00  -0.00    -0.00  -0.03  -0.07    -0.00  -0.01  -0.02
    10   6    -0.00  -0.04   0.03     0.01   0.03   0.02    -0.08  -0.04  -0.02
    11   1     0.01   0.01   0.00    -0.00  -0.00  -0.01     0.00   0.01  -0.00
    12   1     0.00  -0.00  -0.00     0.05   0.38   0.83     0.02   0.14   0.30
    13   1    -0.42   0.17   0.11    -0.01   0.01   0.00     0.49  -0.22  -0.13
    14   1    -0.03  -0.25  -0.43    -0.02  -0.17  -0.29     0.01   0.21   0.38
    15   1     0.48   0.55  -0.06    -0.15  -0.17   0.03     0.40   0.48  -0.06
                     37                     38                     39
                      A                      A                      A
 Frequencies --   3164.6492              3488.9357              3809.8745
 Red. masses --      1.1024                 1.1714                 1.0668
 Frc consts  --      6.5048                 8.4010                 9.1230
 IR Inten    --      7.4704                62.8522                48.0318
  Atom  AN      X      Y      Z        X      Y      Z        X      Y      Z
     1   8    -0.00  -0.00  -0.00     0.00  -0.00  -0.00    -0.05   0.03   0.01
     2   1     0.00  -0.00   0.00    -0.00  -0.00   0.00     0.83  -0.50  -0.24
     3   6     0.00  -0.00  -0.00    -0.10   0.06   0.03    -0.00   0.00   0.00
     4   1     0.00   0.00   0.00     0.82  -0.51  -0.23     0.00  -0.00  -0.00
     5   6    -0.00   0.00   0.00     0.03  -0.02  -0.01    -0.00   0.00   0.00
     6   6     0.00   0.00   0.00    -0.00   0.00   0.00     0.00  -0.00   0.00
     7   8     0.00  -0.00  -0.00     0.00   0.00   0.00    -0.00   0.00   0.00
     8   8     0.00  -0.00  -0.00     0.00  -0.00  -0.00    -0.00   0.00   0.00
     9   6     0.00   0.01   0.02    -0.00   0.00   0.00     0.00   0.00  -0.00
    10   6    -0.05   0.05   0.06     0.00   0.00  -0.00    -0.00  -0.00  -0.00
    11   1     0.00   0.00   0.00     0.00   0.00   0.00    -0.01  -0.01   0.00
    12   1    -0.01  -0.10  -0.22     0.00  -0.00  -0.00    -0.00  -0.00   0.00
    13   1     0.63  -0.26  -0.15     0.00  -0.00   0.00     0.00   0.00  -0.00
    14   1    -0.05  -0.33  -0.58    -0.00   0.00   0.00     0.00   0.00   0.00
    15   1    -0.02  -0.00   0.01    -0.00   0.00  -0.00     0.00  -0.00   0.00

 -------------------
 - Thermochemistry -
 -------------------
 Temperature   298.150 Kelvin.  Pressure   1.00000 Atm.
 Atom     1 has atomic number  8 and mass  15.99491
 Atom     2 has atomic number  1 and mass   1.00783
 Atom     3 has atomic number  6 and mass  12.00000
 Atom     4 has atomic number  1 and mass   1.00783
 Atom     5 has atomic number  6 and mass  12.00000
 Atom     6 has atomic number  6 and mass  12.00000
 Atom     7 has atomic number  8 and mass  15.99491
 Atom     8 has atomic number  8 and mass  15.99491
 Atom     9 has atomic number  6 and mass  12.00000
 Atom    10 has atomic number  6 and mass  12.00000
 Atom    11 has atomic number  1 and mass   1.00783
 Atom    12 has atomic number  1 and mass   1.00783
 Atom    13 has atomic number  1 and mass   1.00783
 Atom    14 has atomic number  1 and mass   1.00783
 Atom    15 has atomic number  1 and mass   1.00783
 Molecular mass:   115.03952 amu.
 Principal axes and moments of inertia in atomic units:
                           1         2         3
     Eigenvalues --   595.307421597.491442001.38217
           X            0.99930  -0.03722   0.00278
           Y            0.03727   0.99907  -0.02149
           Z           -0.00198   0.02158   0.99977
 This molecule is an asymmetric top.
 Rotational symmetry number  1.
 Warning -- assumption of classical behavior for rotation
           may cause significant error
 Rotational temperatures (Kelvin)      0.14549     0.05422     0.04328
 Rotational constants (GHZ):           3.03161     1.12973     0.90175
    1 imaginary frequencies ignored.
 Zero-point vibrational energy     279554.0 (Joules/Mol)
                                   66.81502 (Kcal/Mol)
 Warning -- explicit consideration of  12 degrees of freedom as
           vibrations may cause significant error
 Vibrational temperatures:     91.71   113.56   150.76   199.65   251.67
          (Kelvin)            296.17   311.72   389.93   416.95   607.62
                              788.16   862.49   956.49  1070.83  1113.58
                             1124.05  1189.51  1212.62  1294.23  1374.82
                             1581.24  1618.26  1675.03  1827.61  1836.93
                             1969.92  2030.21  2132.93  2138.50  2200.17
                             2657.92  3265.60  4408.96  4508.11  4522.75
                             4553.22  5019.80  5481.56
 
 Zero-point correction=                           0.106477 (Hartree/Particle)
 Thermal correction to Energy=                    0.116251
 Thermal correction to Enthalpy=                  0.117195
 Thermal correction to Gibbs Free Energy=         0.070461
 Sum of electronic and zero-point Energies=           -420.092942
 Sum of electronic and thermal Energies=              -420.083167
 Sum of electronic and thermal Enthalpies=            -420.082223
 Sum of electronic and thermal Free Energies=         -420.128958
 
                     E (Thermal)             CV                S
                      KCal/Mol        Cal/Mol-Kelvin    Cal/Mol-Kelvin
 Total                   72.949             33.001             98.361
 Electronic               0.000              0.000              1.377
 Translational            0.889              2.981             40.136
 Rotational               0.889              2.981             29.033
 Vibrational             71.171             27.039             27.815
 Vibration     1          0.597              1.972              4.338
 Vibration     2          0.600              1.963              3.917
 Vibration     3          0.605              1.945              3.363
 Vibration     4          0.614              1.915              2.821
 Vibration     5          0.627              1.873              2.382
 Vibration     6          0.640              1.832              2.080
 Vibration     7          0.645              1.816              1.987
 Vibration     8          0.675              1.727              1.590
 Vibration     9          0.686              1.693              1.475
 Vibration    10          0.785              1.422              0.884
 Vibration    11          0.903              1.144              0.549
 Vibration    12          0.958              1.033              0.451
                       Q            Log10(Q)             Ln(Q)
 Total Bot       0.389355D-32        -32.409655        -74.625987
 Total V=0       0.368211D+17         16.566096         38.144846
 Vib (Bot)       0.812813D-46        -46.090009       -106.126169
 Vib (Bot)    1  0.323819D+01          0.510302          1.175014
 Vib (Bot)    2  0.260974D+01          0.416597          0.959250
 Vib (Bot)    3  0.195672D+01          0.291528          0.671268
 Vib (Bot)    4  0.146582D+01          0.166082          0.382418
 Vib (Bot)    5  0.115021D+01          0.060777          0.139945
 Vib (Bot)    6  0.966448D+00         -0.014821         -0.034128
 Vib (Bot)    7  0.914248D+00         -0.038936         -0.089653
 Vib (Bot)    8  0.712737D+00         -0.147071         -0.338643
 Vib (Bot)    9  0.659964D+00         -0.180480         -0.415570
 Vib (Bot)   10  0.415039D+00         -0.381912         -0.879384
 Vib (Bot)   11  0.287082D+00         -0.541994         -1.247987
 Vib (Bot)   12  0.249226D+00         -0.603406         -1.389395
 Vib (V=0)       0.768672D+03          2.885741          6.644665
 Vib (V=0)    1  0.377656D+01          0.577097          1.328815
 Vib (V=0)    2  0.315720D+01          0.499303          1.149687
 Vib (V=0)    3  0.251959D+01          0.401330          0.924096
 Vib (V=0)    4  0.204875D+01          0.311490          0.717232
 Vib (V=0)    5  0.175419D+01          0.244076          0.562005
 Vib (V=0)    6  0.158813D+01          0.200885          0.462556
 Vib (V=0)    7  0.154204D+01          0.188096          0.433107
 Vib (V=0)    8  0.137063D+01          0.136920          0.315269
 Vib (V=0)    9  0.132798D+01          0.123192          0.283660
 Vib (V=0)   10  0.114981D+01          0.060627          0.139599
 Vib (V=0)   11  0.107656D+01          0.032036          0.073767
 Vib (V=0)   12  0.105867D+01          0.024761          0.057015
 Electronic      0.200000D+01          0.301030          0.693147
 Translational   0.484981D+08          7.685724         17.697035
 Rotational      0.493856D+06          5.693601         13.110000
 ***** Axes restored to original set *****
 -------------------------------------------------------------------
 Center     Atomic                   Forces (Hartrees/Bohr)
 Number     Number              X              Y              Z
 -------------------------------------------------------------------
      1        8          -0.003651809   -0.007898343   -0.000774144
      2        1           0.000315403    0.000104734   -0.000057517
      3        6           0.000066382   -0.000036144   -0.000010073
      4        1           0.000006517    0.000004084    0.000001197
      5        6           0.000092564    0.000019939   -0.000029720
      6        6          -0.000549298   -0.000064551   -0.000317647
      7        8           0.000188688    0.000024667    0.000012942
      8        8           0.001281047   -0.000339481    0.000057995
      9        6          -0.002174532   -0.000311433    0.001351389
     10        6           0.001003336    0.001542437   -0.000458330
     11        1           0.002726464    0.005738681    0.000779335
     12        1           0.000815336    0.001061605   -0.000366282
     13        1           0.000026179    0.000013303   -0.000019899
     14        1          -0.000041481   -0.000029514    0.000065227
     15        1          -0.000104797    0.000170017   -0.000234473
 -------------------------------------------------------------------
 Cartesian Forces:  Max     0.007898343 RMS     0.001712057

 GradGradGradGradGradGradGradGradGradGradGradGradGradGradGradGradGradGrad
 Berny optimization.
 Search for a local minimum.
 Step number   1 out of a maximum of    2
 All quantities printed in internal units (Hartrees-Bohrs-Radians)
 Second derivative matrix not updated -- analytic derivatives used.
 ITU=  0
     Eigenvalues ---   -0.15127   0.00096   0.00128   0.00155   0.00182
     Eigenvalues ---    0.00242   0.00510   0.00645   0.01482   0.02069
     Eigenvalues ---    0.02729   0.03230   0.04325   0.05365   0.06057
     Eigenvalues ---    0.07332   0.07937   0.08698   0.09097   0.09718
     Eigenvalues ---    0.10407   0.11479   0.14936   0.16859   0.18928
     Eigenvalues ---    0.26406   0.28961   0.36615   0.46516   0.50626
     Eigenvalues ---    0.66851   0.71833   0.77484   0.80696   0.85527
     Eigenvalues ---    0.89869   0.97207   1.74458   2.73826
 Eigenvalue     1 is  -1.51D-01 should be greater than     0.000000 Eigenvector:
                          Y11       Y1        X11       X1        X9
   1                    0.76397  -0.40897   0.34816  -0.22701  -0.13602
                          Y12       Y9        Y10       Z11       X12
   1                    0.09344  -0.09262   0.06977   0.06806   0.05726
 Angle between quadratic step and forces=  39.76 degrees.
 Linear search not attempted -- first point.
 B after Tr=    -0.001992   -0.002385   -0.000456
         Rot=    1.000000   -0.000095    0.000100    0.000433 Ang=  -0.05 deg.
 Variable       Old X    -DE/DX   Delta X   Delta X   Delta X     New X
                                 (Linear)    (Quad)   (Total)
    X1        5.09938  -0.00365   0.00000  -0.01811  -0.01721   5.08217
    Y1        3.29917  -0.00790   0.00000  -0.06131  -0.06802   3.23115
    Z1       -0.43299  -0.00077   0.00000  -0.00562  -0.00444  -0.43743
    X2        3.56469   0.00032   0.00000   0.01560   0.01724   3.58194
    Y2        4.20244   0.00010   0.00000  -0.00442  -0.00991   4.19253
    Z2        0.00379  -0.00006   0.00000  -0.00740  -0.00634  -0.00256
    X3       -5.92296   0.00007   0.00000  -0.00556  -0.00605  -5.92901
    Y3        1.92748  -0.00004   0.00000  -0.00612  -0.00352   1.92395
    Z3        0.79827  -0.00001   0.00000   0.00155   0.00027   0.79854
    X4       -7.58699   0.00001   0.00000  -0.00803  -0.00772  -7.59470
    Y4        2.95927   0.00000   0.00000  -0.01045  -0.00649   2.95277
    Z4        1.26462   0.00000   0.00000   0.00284   0.00142   1.26604
    X5       -4.05280   0.00009   0.00000  -0.00229  -0.00367  -4.05647
    Y5        0.76514   0.00002   0.00000   0.00069   0.00177   0.76691
    Z5        0.27346  -0.00003   0.00000  -0.00108  -0.00220   0.27126
    X6       -1.84459  -0.00055   0.00000  -0.00019  -0.00272  -1.84731
    Y6       -0.72576  -0.00006   0.00000   0.00947   0.00876  -0.71701
    Z6       -0.39533  -0.00032   0.00000  -0.00453  -0.00549  -0.40082
    X7       -1.92737   0.00019   0.00000   0.01077   0.00662  -1.92075
    Y7       -2.80839   0.00002   0.00000   0.01591   0.01543  -2.79296
    Z7       -1.27482   0.00001   0.00000  -0.01953  -0.02090  -1.29572
    X8        0.29356   0.00128   0.00000   0.00065  -0.00088   0.29268
    Y8        0.54472  -0.00034   0.00000   0.00569   0.00302   0.54774
    Z8        0.10627   0.00006   0.00000   0.01515   0.01486   0.12112
    X9        2.59796  -0.00217   0.00000  -0.01875  -0.02126   2.57670
    Y9       -0.71545  -0.00031   0.00000  -0.00262  -0.00715  -0.72259
    Z9       -0.49568   0.00135   0.00000   0.01080   0.01072  -0.48495
   X10        3.46230   0.00100   0.00000   0.01266   0.00824   3.47054
   Y10       -2.45932   0.00154   0.00000   0.01662   0.01092  -2.44840
   Z10        1.57658  -0.00046   0.00000   0.00244   0.00222   1.57880
   X11        4.08541   0.00273   0.00000   0.01060   0.00967   4.09508
   Y11        1.05244   0.00574   0.00000   0.02875   0.02294   1.07538
   Z11       -0.66039   0.00078   0.00000   0.00329   0.00387  -0.65653
   X12        2.48559   0.00082   0.00000  -0.00599  -0.00886   2.47673
   Y12       -1.56891   0.00106   0.00000   0.01219   0.00811  -1.56080
   Z12       -2.36776  -0.00037   0.00000   0.00505   0.00479  -2.36297
   X13        5.31715   0.00003   0.00000   0.01410   0.00911   5.32626
   Y13       -3.22956   0.00001   0.00000   0.02571   0.01849  -3.21106
   Z13        1.11499  -0.00002   0.00000  -0.00370  -0.00370   1.11129
   X14        3.58966  -0.00004   0.00000   0.00610   0.00219   3.59185
   Y14       -1.44158  -0.00003   0.00000   0.01086   0.00472  -1.43686
   Z14        3.36414   0.00007   0.00000   0.00487   0.00487   3.36900
   X15        2.12801  -0.00010   0.00000   0.02114   0.01531   2.14332
   Y15       -4.02525   0.00017   0.00000   0.00550   0.00091  -4.02433
   Z15        1.77428  -0.00023   0.00000   0.00086   0.00007   1.77435
         Item               Value     Threshold  Converged?
 Maximum Force            0.007898     0.000450     NO 
 RMS     Force            0.001712     0.000300     NO 
 Maximum Displacement     0.068020     0.001800     NO 
 RMS     Displacement     0.014105     0.001200     NO 
 Predicted change in Energy=-1.121334D-03
 GradGradGradGradGradGradGradGradGradGradGradGradGradGradGradGradGradGrad


 ----------------------------------------------------------------------

 Electric dipole moment (input orientation):
 (Debye = 10**-18 statcoulomb cm , SI units = C m)
                  (au)            (Debye)         (10**-30 SI)
   Tot        0.848887D+00      0.215765D+01      0.719716D+01
   x         -0.654695D+00     -0.166407D+01     -0.555073D+01
   y          0.214982D+00      0.546431D+00      0.182270D+01
   z          0.495748D+00      0.126007D+01      0.420313D+01

 Dipole polarizability, Alpha (input orientation).
 (esu units = cm**3 , SI units = C**2 m**2 J**-1)
 Alpha(0;0):
               (au)            (10**-24 esu)      (10**-40 SI)
   iso        0.771893D+02      0.114383D+02      0.127268D+02
   aniso      0.408576D+02      0.605448D+01      0.673651D+01
   xx         0.953463D+02      0.141289D+02      0.157205D+02
   yx         0.483031D-01      0.715778D-02      0.796411D-02
   yy         0.847620D+02      0.125604D+02      0.139754D+02
   zx        -0.460165D+01     -0.681894D+00     -0.758709D+00
   zy         0.327934D+01      0.485948D+00      0.540690D+00
   zz         0.514597D+02      0.762554D+01      0.848456D+01

 ----------------------------------------------------------------------

 Dipole orientation:
     8          3.25737508          3.90402975         -3.35018045
     1          2.74721859          4.47087020         -1.68274544
     6         -2.84549445          0.91692493          5.52234708
     1         -3.39776102          1.58365186          7.33935694
     6         -2.22567709          0.16516394          3.47914904
     6         -1.54630944         -0.82371159          1.00794992
     8         -2.53310419         -2.60948842          0.03073949
     8          0.33245048          0.53194920         -0.02639509
     6          1.15189145         -0.24059986         -2.47431223
     6          3.07483677         -2.33208787         -2.37236995
     1          2.17174205          1.68083037         -3.26995983
     1         -0.46734369         -0.59925904         -3.69707957
     1          3.78219905         -2.72552114         -4.26753668
     1          4.65849835         -1.79255268         -1.16891897
     1          2.20096729         -4.04920557         -1.62443530

 Electric dipole moment (dipole orientation):
 (Debye = 10**-18 statcoulomb cm , SI units = C m)
                  (au)            (Debye)         (10**-30 SI)
   Tot        0.848887D+00      0.215765D+01      0.719716D+01
   x          0.000000D+00      0.000000D+00      0.000000D+00
   y          0.000000D+00      0.000000D+00      0.000000D+00
   z          0.848887D+00      0.215765D+01      0.719716D+01

 Dipole polarizability, Alpha (dipole orientation).
 (esu units = cm**3 , SI units = C**2 m**2 J**-1)
 Alpha(0;0):
               (au)            (10**-24 esu)      (10**-40 SI)
   iso        0.771893D+02      0.114383D+02      0.127268D+02
   aniso      0.408576D+02      0.605448D+01      0.673651D+01
   xx         0.652798D+02      0.967346D+01      0.107632D+02
   yx         0.996374D+01      0.147647D+01      0.164280D+01
   yy         0.814921D+02      0.120759D+02      0.134362D+02
   zx        -0.181585D+02     -0.269082D+01     -0.299394D+01
   zy         0.428167D+01      0.634478D+00      0.705952D+00
   zz         0.847961D+02      0.125655D+02      0.139810D+02

 ----------------------------------------------------------------------
 1\1\GINC-AJ\Freq\UM062X\6-311++G(d,p)\C5H7O3(2)\AAYUSH\16-Aug-2025\0\\
 # freq 6-311++g(d,p) m062x\\Title Card Required\\0,2\O,2.698474,1.7458
 46,-0.229127\H,1.886355,2.223833,0.002003\C,-3.134298,1.019976,0.42242
 6\H,-4.01486,1.565978,0.669208\C,-2.144649,0.404893,0.144708\C,-0.9761
 16,-0.384058,-0.209198\O,-1.01992,-1.486138,-0.674605\O,0.155346,0.288
 253,0.056234\C,1.374782,-0.378598,-0.262301\C,1.832171,-1.301416,0.834
 291\H,2.161904,0.556927,-0.349464\H,1.315317,-0.830234,-1.252963\H,2.8
 13717,-1.709007,0.590028\H,1.899566,-0.76285,1.780225\H,1.126095,-2.13
 007,0.938906\\Version=ES64L-G16RevA.03\State=2-A\HF=-420.1994185\S2=0.
 759745\S2-1=0.\S2A=0.75004\RMSD=8.038e-09\RMSF=1.712e-03\ZeroPoint=0.1
 064765\Thermal=0.1162513\Dipole=-0.6546946,0.2149824,0.495748\DipoleDe
 riv=-0.1641059,0.2527522,-0.0504417,0.2126334,0.0163216,0.0103414,-0.0
 118448,0.0639669,-0.4837034,0.1311133,-0.0342329,0.0473228,0.1546484,0
 .4034844,-0.0227837,0.060984,0.0177972,0.3053731,-0.2213033,0.018596,0
 .0092331,0.041003,-0.1554149,-0.0099424,0.0158199,-0.0094546,-0.139751
 4,0.2674963,-0.0172787,-0.0077525,-0.0269332,0.2338304,0.0118805,-0.01
 15422,0.0122408,0.2124546,-0.5769626,0.2040977,0.0947028,0.2403208,-0.
 2560744,-0.0717644,0.1111501,-0.0746921,-0.1273819,2.5590662,-0.006633
 6,-0.0110625,0.2648098,1.5201173,0.5221653,0.1701296,0.5364424,0.60978
 63,-0.824625,0.0714311,0.029444,-0.1346063,-1.0649757,-0.3273723,-0.08
 67028,-0.3248817,-0.4825491,-2.2180397,-0.353865,-0.1146932,-0.1206076
 ,-0.6017266,-0.1103431,-0.0801656,-0.0950166,-0.3654804,1.502152,0.655
 194,-0.0192105,0.1064492,1.0466409,-0.1200477,-0.2129332,-0.2798884,0.
 3382284,-0.2021703,-0.2303377,0.0313479,-0.0494718,-0.2695256,0.102183
 6,-0.0259745,0.0882234,-0.0579783,-0.3186206,-0.5719952,0.0402354,-0.6
 847778,-0.9269329,0.0832304,-0.0273175,-0.0481957,0.142386,-0.0530477,
 -0.0759915,-0.0667935,0.0041946,-0.0575533,-0.0208437,0.0637688,0.0784
 146,-0.0352917,-0.0487153,0.0723633,0.0230211,0.0645667,0.0805638,0.00
 19045,0.0239609,-0.0101177,0.0592174,0.0973638,0.0282726,-0.0011454,0.
 0050477,0.0335103,-0.0768136,-0.0202837,-0.0314834,-0.0287692,0.070398
 9,-0.0123722,-0.004208,-0.077277,-0.0022653,0.0282052,0.0309511,0.0766
 447,0.0534598\Polar=95.3462987,0.0483031,84.7619688,-4.6016468,3.27934
 17,51.4597049\Quadrupole=0.8761993,-0.5996873,-0.276512,-9.5635503,-1.
 2944723,-0.2199326\PG=C01 [X(C5H7O3)]\NImag=1\\0.39733836,-0.20021582,
 0.14882837,-0.10594649,0.06023679,0.03797117,-0.37230026,0.21541390,0.
 10479325,0.36874412,0.18793699,-0.14164853,-0.05867878,-0.20439485,0.1
 5029484,0.09983729,-0.06366383,-0.03130260,-0.10220873,0.06315527,0.03
 117347,0.00006830,0.00009497,0.00002316,-0.00002727,0.00026384,0.00003
 497,1.08953476,-0.00012809,-0.00003885,-0.00001983,0.00012824,-0.00019
 182,-0.00002306,-0.64242456,0.45651079,-0.00001272,-0.00004188,0.00005
 911,0.00000927,-0.00006422,-0.00008113,-0.29039720,0.17932661,0.141962
 77,0.00002465,-0.00003174,-0.00001354,-0.00004574,-0.00005399,0.000000
 83,-0.29806877,0.16816200,0.07592164,0.28832785,0.00002727,0.00001336,
 0.00000872,-0.00001119,0.00008327,0.00000779,0.16797269,-0.13157759,-0
 .04626429,-0.16846404,0.12122157,-0.00000903,0.00001462,-0.00003678,0.
 00001390,0.00001138,0.00004028,0.07583716,-0.04625560,-0.05096863,-0.0
 7610067,0.04691734,0.03928000,0.00018813,0.00036985,0.00006091,-0.0000
 7665,0.00054829,0.00009919,-0.79232786,0.47103273,0.21307868,0.0082262
 3,-0.00231446,-0.00096227,1.05095016,-0.00001802,-0.00013760,-0.000037
 72,-0.00003443,-0.00026754,-0.00002974,0.47285522,-0.32791174,-0.13290
 723,-0.00216640,0.00657014,-0.00043910,-0.58777752,0.47113820,-0.00001
 348,0.00002597,-0.00000507,-0.00001290,-0.00003123,0.00000432,0.213853
 25,-0.13290303,-0.09405177,-0.00090321,-0.00042493,0.00759518,-0.26659
 157,0.18373481,0.14375444,0.00037846,-0.00269364,-0.00090139,-0.000954
 65,-0.00460546,-0.00040831,0.00689342,-0.00094875,-0.00045459,0.000587
 99,0.00354534,0.00156991,-0.20742329,0.09383133,0.04210099,0.59766567,
 0.00073949,-0.00067742,-0.00017775,-0.00106124,-0.00108705,-0.00016042
 ,-0.00014532,0.00231583,-0.00018842,0.00258231,0.00373488,-0.00096061,
 0.08360939,-0.11472344,-0.01824124,-0.02939921,0.90108677,-0.00021143,
 -0.00166054,-0.00059918,-0.00015191,-0.00110061,-0.00006114,-0.0000712
 3,-0.00017016,0.00243001,0.00117043,-0.00093204,0.00546047,0.03784329,
 -0.01920642,-0.08200794,-0.02073023,0.29458961,0.33267652,-0.00006643,
 -0.00002860,0.00019229,-0.00001842,0.00112328,0.00003899,-0.00327551,0
 .00175364,0.00079729,-0.00024461,-0.00127014,-0.00055800,0.00625346,0.
 03327687,0.01454599,-0.10873430,-0.00241615,0.00009600,0.10965706,-0.0
 0079816,0.00036569,0.00033992,0.00083929,0.00136504,-0.00004411,0.0001
 8400,0.00145615,0.00051172,0.00022619,0.00069207,0.00072180,0.02676842
 ,-0.04827848,-0.03031267,-0.00773869,-0.66766320,-0.24789073,0.0356616
 7,0.77554269,-0.00022668,0.00041793,0.00034396,0.00032877,0.00071342,-
 0.00000710,0.00011349,0.00052962,0.00046255,0.00008438,0.00072749,-0.0
 0070733,0.01169481,-0.03029967,0.00895921,-0.00283656,-0.24977388,-0.1
 8547450,0.01297275,0.31321080,0.16624339,0.00358321,0.01007044,0.00180
 554,-0.00121230,0.00541149,0.00084319,-0.00343209,0.00264255,0.0011585
 2,0.00137498,0.00024111,0.00006698,-0.06501888,-0.00676380,-0.00145910
 ,-0.22475555,-0.06592963,-0.02557357,-0.00774286,-0.06487413,-0.025186
 98,0.51932210,-0.00260140,-0.00066639,-0.00014783,0.00158033,0.0012218
 3,0.00031991,0.00219904,-0.00151962,-0.00084243,-0.00048119,-0.0006684
 6,-0.00010031,0.01207237,0.01319814,0.00037821,-0.05411626,-0.14038794
 ,-0.03431751,-0.06112855,-0.05610134,-0.03514215,0.03053222,0.30710956
 ,-0.00042846,-0.00055393,0.00084097,0.00009658,0.00017961,-0.00071132,
 0.00097825,-0.00087723,0.00006667,-0.00023778,-0.00014116,-0.00044299,
 0.00648063,0.00128119,0.01135877,-0.01964825,-0.03346572,-0.07809225,-
 0.02489912,-0.03526020,0.01556209,0.00488944,0.10241470,0.12836313,-0.
 04021940,-0.07628390,-0.00623614,0.00929199,-0.00217888,-0.00240411,0.
 00153240,-0.00091615,-0.00033883,-0.00041013,0.00039099,0.00018346,0.0
 0237760,-0.00289403,-0.00181128,-0.07833420,-0.00527552,-0.00169019,0.
 00732317,0.01655921,0.00769920,-0.13776325,0.03604644,0.02271408,0.370
 27844,-0.04401241,-0.08602388,-0.00704379,0.00307622,-0.00514004,-0.00
 163396,-0.00042344,0.00058246,0.00032554,0.00010790,0.00014221,0.00013
 425,-0.00393276,-0.00059231,-0.00215876,-0.00604220,0.02254401,0.00866
 907,-0.00339347,-0.00946733,-0.00115766,0.07901803,-0.11140205,-0.0296
 6478,-0.05816816,0.39327733,0.00620786,0.01091259,0.00217772,-0.002357
 76,0.00050909,0.00005725,-0.00050350,0.00049989,0.00007508,0.00010222,
 0.00009283,-0.00025165,-0.00190173,-0.00246239,0.00516098,0.00396050,0
 .01328319,0.00571197,-0.00057887,-0.00315000,-0.00650136,0.02969178,-0
 .02890013,-0.08571313,0.03030721,0.05162356,0.57846276,0.00373734,0.00
 557861,0.00059016,-0.00176835,0.00049503,0.00095586,-0.00032601,0.0002
 2491,0.00011990,0.00009948,-0.00001682,-0.00009112,-0.00115688,-0.0005
 0394,0.00113067,0.00601076,0.00728983,0.00145564,-0.00026273,-0.002551
 34,-0.00177037,-0.03158124,0.03050081,-0.02452457,-0.07108754,0.022956
 24,-0.02029625,0.57269240,0.00468303,0.00828628,0.00023127,-0.00141931
 ,0.00033965,0.00093878,-0.00001984,0.00003162,0.00003895,-0.00001323,-
 0.00003261,0.00001586,0.00029509,0.00018898,-0.00054306,-0.00098331,-0
 .00009457,0.00025644,0.00089120,-0.00010538,0.00133501,0.01329938,-0.0
 1229922,0.00892070,0.03413277,-0.11555009,0.06284750,0.00390683,0.5337
 9188,-0.00051020,-0.00180521,0.00028818,0.00006617,0.00001062,0.000150
 68,0.00016134,-0.00017031,0.00004376,-0.00002337,0.00000086,0.00002535
 ,0.00013965,0.00059862,-0.00077276,-0.00128978,-0.00406873,-0.00035330
 ,-0.00037541,0.00197065,0.00062153,0.00540469,-0.00389899,0.01208408,-
 0.03301368,0.06193730,-0.16810635,-0.02149986,0.04792957,0.53624258,0.
 00662856,0.04592310,0.00524081,-0.00125423,0.01522574,0.00354690,-0.00
 049688,0.00044484,0.00013150,0.00010129,-0.00008510,0.00000523,-0.0016
 5617,0.00002770,-0.00024378,0.00398153,0.00357657,0.00483028,-0.000351
 99,-0.00117821,-0.00099569,-0.04215465,-0.01153809,0.00257987,-0.01119
 175,0.01382918,-0.00499476,-0.00188909,-0.00439845,0.00023883,0.048977
 78,0.05281066,0.06760439,0.00488575,-0.01351895,-0.00592262,0.00106656
 ,-0.00052436,0.00031433,0.00007933,0.00013321,-0.00016209,-0.00004887,
 -0.00120572,0.00071825,0.00040050,0.01221998,0.00061550,0.00330890,-0.
 00236429,-0.00074972,-0.00092260,-0.01467341,0.00810368,-0.00120029,0.
 05180565,0.01605121,-0.01554782,-0.02074468,-0.02777984,0.00441544,-0.
 05750810,-0.04471885,0.00343661,-0.00033087,-0.01114348,-0.00156753,-0
 .00454015,0.00149834,0.00000154,0.00000999,-0.00005509,0.00000541,-0.0
 0001335,-0.00000299,0.00011553,-0.00002198,0.00026343,0.00061811,-0.00
 172966,-0.00050940,-0.00112238,0.00053710,0.00035108,0.00608041,0.0037
 7219,-0.00048836,0.00866677,0.00721580,-0.03186663,0.00757540,0.012691
 72,-0.00342997,-0.01198995,-0.00560976,0.04558921,0.00186127,0.0032589
 2,0.00086974,-0.00090888,0.00042779,-0.00009606,-0.00010235,0.00004914
 ,0.00002595,0.00004889,-0.00003394,0.00004158,-0.00038807,0.00022910,-
 0.00082881,0.00492332,0.00619552,0.00344778,-0.00149004,-0.00336402,-0
 .00102277,-0.01376219,0.01844332,0.03270718,-0.04539603,-0.00588818,-0
 .03458042,0.00252822,-0.00527186,-0.00626685,-0.00347214,-0.01221823,-
 0.01158004,0.05558441,0.00234046,0.00420432,0.00116067,-0.00072633,0.0
 0064673,-0.00014298,0.00001516,0.00000253,0.00005448,-0.00000881,0.000
 00230,0.00000309,0.00031852,-0.00012410,-0.00019053,-0.00251504,-0.000
 98555,-0.00101762,-0.00111371,0.00044207,0.00096599,0.00785662,-0.0082
 0905,-0.01357160,0.00142079,-0.08862381,-0.10954768,0.00159085,0.01144
 600,0.02121202,-0.00614867,-0.01484414,-0.01383937,-0.00385031,0.09765
 222,-0.00202460,-0.00307806,0.00045970,0.00072906,-0.00007004,-0.00014
 137,-0.00000535,-0.00000240,0.00006719,-0.00001444,0.00000015,0.000004
 96,0.00021992,0.00019399,-0.00034805,-0.00276621,-0.00271349,0.0000411
 3,-0.00127448,0.00131865,0.00079741,0.00659947,-0.00533992,-0.00280706
 ,-0.01831387,-0.10250551,-0.27720453,-0.00295220,-0.01035391,-0.016382
 90,0.00247454,0.00623168,0.00093971,0.01870785,0.11318718,0.29529856,0
 .00004495,0.00010441,-0.00007579,-0.00003922,-0.00006134,-0.00001629,-
 0.00004949,0.00003331,-0.00002805,0.00002080,-0.00001262,-0.00000486,-
 0.00011761,0.00000196,0.00025712,0.00127586,0.00024534,0.00032193,-0.0
 0020975,-0.00005901,-0.00046237,0.00007187,0.00080068,-0.00204168,-0.0
 0881458,0.00141000,0.00376065,-0.27015745,0.09365441,0.05579990,0.0001
 6736,0.00031138,-0.00003552,0.00016838,-0.00010543,-0.00041285,0.29092
 631,-0.00063812,-0.00019393,-0.00002565,0.00013412,0.00017577,-0.00011
 942,0.00005607,-0.00002946,-0.00003419,-0.00001935,-0.00000048,0.00001
 272,0.00028394,0.00011956,-0.00009232,-0.00154851,-0.00275327,-0.00039
 772,-0.00015886,0.00126089,0.00009330,0.00489182,-0.00166414,0.0042732
 3,0.01642587,-0.00819450,-0.00794969,0.09175397,-0.08321603,-0.0223533
 3,0.00049309,0.00052863,-0.00029664,-0.00034963,0.00054332,0.00030328,
 -0.10274292,0.08875034,0.00022769,0.00021820,0.00000128,-0.00008380,-0
 .00002703,-0.00003892,-0.00009779,0.00009064,0.00001126,0.00001860,0.0
 0000455,-0.00001705,-0.00028606,-0.00025671,0.00032706,0.00138404,0.00
 195412,0.00026712,-0.00013293,-0.00080596,-0.00047043,-0.00528181,0.00
 460372,-0.00352604,-0.02089553,0.00635980,0.00848059,0.05776219,-0.023
 41742,-0.06280460,-0.00018180,-0.00046308,0.00050588,0.00043532,-0.001
 08666,0.00017058,-0.06077455,0.02312237,0.06338566,-0.00025944,0.00002
 031,-0.00017876,0.00014841,-0.00000075,-0.00006776,0.00000498,0.000007
 82,0.00002788,-0.00001950,0.00000692,-0.00000747,0.00004380,0.00001556
 ,0.00001230,-0.00085176,-0.00116372,-0.00059155,-0.00021707,0.00080422
 ,0.00009495,0.00147779,-0.00079029,0.00054859,-0.00219962,-0.00535242,
 -0.00841216,-0.04818548,-0.00801365,-0.01442157,0.00026996,0.00054988,
 0.00050824,0.00035935,0.00142359,-0.00138126,0.00360980,0.01365648,0.0
 2595944,0.04683300,-0.00004227,0.00018625,-0.00069576,0.00015524,-0.00
 012786,0.00021803,-0.00003241,-0.00000716,-0.00000708,0.00000679,0.000
 00637,-0.00000693,-0.00004045,0.00002972,0.00013850,0.00027480,0.00009
 988,-0.00027007,-0.00021898,0.00015148,-0.00020361,-0.00195613,0.00096
 634,-0.00117841,0.00102687,0.01100626,0.02225960,-0.00783986,-0.116829
 66,-0.12146385,0.00021546,0.00132942,0.00023230,0.00177340,-0.00287412
 ,0.00315736,-0.00206627,-0.00628942,-0.00890988,0.00813362,0.12332774,
 0.00031165,0.00034539,0.00072611,-0.00006989,0.00013392,-0.00024781,-0
 .00002286,0.00002933,0.00001208,-0.00000321,-0.00000577,-0.00000142,-0
 .00001628,0.00002066,-0.00001303,-0.00033959,-0.00054325,-0.00026675,0
 .00005304,0.00033290,0.00021147,0.00107134,-0.00018778,0.00253957,-0.0
 0052855,-0.01163100,-0.02496018,-0.01466542,-0.11851865,-0.25030800,-0
 .00054509,-0.00117945,-0.00008807,-0.00159956,0.00366783,-0.00167150,-
 0.00050538,-0.00198650,-0.00450364,0.01680861,0.12716638,0.27439087,-0
 .00100770,-0.00158082,-0.00022374,0.00042144,-0.00013718,-0.00015595,0
 .00007235,-0.00006164,-0.00003926,-0.00002342,0.00002397,0.00001521,0.
 00012603,-0.00007961,-0.00003622,-0.00066324,0.00115234,-0.00014524,-0
 .00061999,-0.00047944,-0.00048694,0.00159307,-0.00151945,0.00078525,0.
 00461290,0.00681548,-0.00040476,-0.15865342,-0.13074305,0.01559014,0.0
 0234042,0.00492699,-0.00071260,0.00004585,-0.00049769,0.00041442,-0.01
 689723,-0.02223796,0.00194698,-0.00101424,0.00061017,0.00005119,0.1696
 6717,-0.00008364,-0.00010205,-0.00003601,-0.00016104,0.00025835,0.0001
 1119,-0.00007105,0.00006254,0.00001311,0.00002035,-0.00002494,-0.00001
 964,-0.00002772,0.00007223,0.00021976,0.00071962,-0.00202444,0.0001394
 1,-0.00061392,0.00108937,-0.00049398,0.00023344,0.00231867,-0.00115611
 ,-0.01209195,-0.01860948,0.00552946,-0.13264042,-0.19817701,0.01568533
 ,0.00112094,-0.00108815,0.00192267,0.00059898,0.00072130,-0.00032896,0
 .00848609,0.01096270,-0.00138667,-0.00929757,-0.01097523,0.00235599,0.
 14380788,0.21551616,-0.00063800,-0.00103718,0.00021889,0.00041553,-0.0
 0020124,-0.00033295,0.00009476,-0.00006445,-0.00003387,-0.00000730,0.0
 0002182,0.00002260,0.00002529,-0.00016832,-0.00022477,-0.00025865,0.00
 219625,0.00077723,0.00024485,-0.00147987,-0.00039198,-0.00010990,-0.00
 261167,0.00096587,0.01566147,0.01953014,-0.00552251,0.01620996,0.01762
 723,-0.04729828,-0.00009691,0.00458372,-0.00156367,-0.00026089,-0.0008
 5481,0.00077619,0.00421776,0.00545055,-0.00178876,-0.01889947,-0.02043
 659,0.00418030,-0.01659849,-0.02255555,0.05021569\\0.00365181,0.007898
 34,0.00077414,-0.00031540,-0.00010473,0.00005752,-0.00006638,0.0000361
 4,0.00001007,-0.00000652,-0.00000408,-0.00000120,-0.00009256,-0.000019
 94,0.00002972,0.00054930,0.00006455,0.00031765,-0.00018869,-0.00002467
 ,-0.00001294,-0.00128105,0.00033948,-0.00005799,0.00217453,0.00031143,
 -0.00135139,-0.00100334,-0.00154244,0.00045833,-0.00272646,-0.00573868
 ,-0.00077934,-0.00081534,-0.00106160,0.00036628,-0.00002618,-0.0000133
 0,0.00001990,0.00004148,0.00002951,-0.00006523,0.00010480,-0.00017002,
 0.00023447\\\@


 ONLY THE DAY DAWNS TO WHICH YOU ARE AWAKE.

                                 -- THOREAU
 Job cpu time:       0 days  0 hours 53 minutes  8.8 seconds.
 Elapsed time:       0 days  0 hours  2 minutes 12.9 seconds.
 File lengths (MBytes):  RWF=    153 Int=      0 D2E=      0 Chk=      5 Scr=      1
 Normal termination of Gaussian 16 at Sat Aug 16 14:59:26 2025.
