 Entering Gaussian System, Link 0=g16
 Initial command:
 /opt/g16/l1.exe "/home/aayush/scratches/g16/Gau-9602.inp" -scrdir="/home/aayush/scratches/g16/"
 Entering Link 1 = /opt/g16/l1.exe PID=      9605.
  
 Copyright (c) 1988,1990,1992,1993,1995,1998,2003,2009,2016,
            Gaussian, Inc.  All Rights Reserved.
  
 This is part of the Gaussian(R) 16 program.  It is based on
 the Gaussian(R) 09 system (copyright 2009, Gaussian, Inc.),
 the Gaussian(R) 03 system (copyright 2003, Gaussian, Inc.),
 the Gaussian(R) 98 system (copyright 1998, Gaussian, Inc.),
 the Gaussian(R) 94 system (copyright 1995, Gaussian, Inc.),
 the Gaussian 92(TM) system (copyright 1992, Gaussian, Inc.),
 the Gaussian 90(TM) system (copyright 1990, Gaussian, Inc.),
 the Gaussian 88(TM) system (copyright 1988, Gaussian, Inc.),
 the Gaussian 86(TM) system (copyright 1986, Carnegie Mellon
 University), and the Gaussian 82(TM) system (copyright 1983,
 Carnegie Mellon University). Gaussian is a federally registered
 trademark of Gaussian, Inc.
  
 This software contains proprietary and confidential information,
 including trade secrets, belonging to Gaussian, Inc.
  
 This software is provided under written license and may be
 used, copied, transmitted, or stored only in accord with that
 written license.
  
 The following legend is applicable only to US Government
 contracts under FAR:
  
                    RESTRICTED RIGHTS LEGEND
  
 Use, reproduction and disclosure by the US Government is
 subject to restrictions as set forth in subparagraphs (a)
 and (c) of the Commercial Computer Software - Restricted
 Rights clause in FAR 52.227-19.
  
 Gaussian, Inc.
 340 Quinnipiac St., Bldg. 40, Wallingford CT 06492
  
  
 ---------------------------------------------------------------
 Warning -- This program may not be used in any manner that
 competes with the business of Gaussian, Inc. or will provide
 assistance to any competitor of Gaussian, Inc.  The licensee
 of this program is prohibited from giving any competitor of
 Gaussian, Inc. access to this program.  By using this program,
 the user acknowledges that Gaussian, Inc. is engaged in the
 business of creating and licensing software in the field of
 computational chemistry and represents and warrants to the
 licensee that it is not a competitor of Gaussian, Inc. and that
 it will not use this program in any manner prohibited above.
 ---------------------------------------------------------------
  

 Cite this work as:
 Gaussian 16, Revision A.03,
 M. J. Frisch, G. W. Trucks, H. B. Schlegel, G. E. Scuseria, 
 M. A. Robb, J. R. Cheeseman, G. Scalmani, V. Barone, 
 G. A. Petersson, H. Nakatsuji, X. Li, M. Caricato, A. V. Marenich, 
 J. Bloino, B. G. Janesko, R. Gomperts, B. Mennucci, H. P. Hratchian, 
 J. V. Ortiz, A. F. Izmaylov, J. L. Sonnenberg, D. Williams-Young, 
 F. Ding, F. Lipparini, F. Egidi, J. Goings, B. Peng, A. Petrone, 
 T. Henderson, D. Ranasinghe, V. G. Zakrzewski, J. Gao, N. Rega, 
 G. Zheng, W. Liang, M. Hada, M. Ehara, K. Toyota, R. Fukuda, 
 J. Hasegawa, M. Ishida, T. Nakajima, Y. Honda, O. Kitao, H. Nakai, 
 T. Vreven, K. Throssell, J. A. Montgomery, Jr., J. E. Peralta, 
 F. Ogliaro, M. J. Bearpark, J. J. Heyd, E. N. Brothers, K. N. Kudin, 
 V. N. Staroverov, T. A. Keith, R. Kobayashi, J. Normand, 
 K. Raghavachari, A. P. Rendell, J. C. Burant, S. S. Iyengar, 
 J. Tomasi, M. Cossi, J. M. Millam, M. Klene, C. Adamo, R. Cammi, 
 J. W. Ochterski, R. L. Martin, K. Morokuma, O. Farkas, 
 J. B. Foresman, and D. J. Fox, Gaussian, Inc., Wallingford CT, 2016.
 
 ******************************************
 Gaussian 16:  ES64L-G16RevA.03 25-Dec-2016
                19-Aug-2025 
 ******************************************
 %nprocshared=24
 Will use up to   24 processors via shared memory.
 %mem=12GB
 %chk=ethyl_propiolate.chk
 --------------------------
 # ccsd(t)/6-311++g(d,p) sp
 --------------------------
 1/38=1,172=1/1;
 2/12=2,17=6,18=5,40=1/2;
 3/5=4,6=6,7=1111,11=9,25=1,30=1/1,2,3;
 4//1;
 5/5=2,38=5/2;
 8/6=4,9=120000,10=2/1,4;
 9/5=7,14=2/13;
 6/7=2,8=2,9=2,10=2/1;
 99/5=1,9=1/99;
 -------------------
 Title Card Required
 -------------------
 Symbolic Z-matrix:
 Charge =  0 Multiplicity = 2
 O                     2.69336   1.73533  -0.23012 
 H                     1.89593   2.22918   0.00092 
 C                    -3.13419   1.01992   0.42241 
 H                    -4.01476   1.56608   0.66924 
 C                    -2.1445    0.40491   0.14465 
 C                    -0.97735  -0.38412  -0.2098 
 O                    -1.01973  -1.48605  -0.67453 
 O                     0.15772   0.28779   0.05622 
 C                     1.36751  -0.38404  -0.25984 
 C                     1.83398  -1.29864   0.83361 
 H                     2.25524   0.73298  -0.3344 
 H                     1.33258  -0.80768  -1.26281 
 H                     2.81405  -1.70909   0.58976 
 H                     1.89865  -0.76356   1.78183 
 H                     1.12367  -2.12718   0.9352 
 
                          Input orientation:                          
 ---------------------------------------------------------------------
 Center     Atomic      Atomic             Coordinates (Angstroms)
 Number     Number       Type             X           Y           Z
 ---------------------------------------------------------------------
      1          8           0        2.693359    1.735326   -0.230124
      2          1           0        1.895934    2.229182    0.000921
      3          6           0       -3.134192    1.019919    0.422412
      4          1           0       -4.014757    1.566075    0.669243
      5          6           0       -2.144501    0.404914    0.144653
      6          6           0       -0.977345   -0.384121   -0.209800
      7          8           0       -1.019730   -1.486051   -0.674529
      8          8           0        0.157723    0.287793    0.056215
      9          6           0        1.367508   -0.384037   -0.259844
     10          6           0        1.833982   -1.298640    0.833608
     11          1           0        2.255242    0.732982   -0.334396
     12          1           0        1.332581   -0.807676   -1.262812
     13          1           0        2.814048   -1.709091    0.589762
     14          1           0        1.898651   -0.763559    1.781833
     15          1           0        1.123675   -2.127182    0.935197
 ---------------------------------------------------------------------
                    Distance matrix (angstroms):
                    1          2          3          4          5
     1  O    0.000000
     2  H    0.966003   0.000000
     3  C    5.907450   5.190582   0.000000
     4  H    6.770253   5.985201   1.065179   0.000000
     5  C    5.031436   4.435508   1.197860   2.263039   0.000000
     6  C    4.238695   3.889664   2.650096   3.715084   1.452744
     7  O    4.935767   4.770774   3.457472   4.482341   2.347747
     8  O    2.933733   2.606420   3.392169   4.406745   2.306897
     9  C    2.500093   2.678833   4.764648   5.799562   3.622191
    10  C    3.327913   3.625291   5.497959   6.514703   4.382360
    11  H    1.098869   1.574851   5.449871   6.404235   4.437889
    12  H    3.063498   3.337199   5.111961   6.161295   3.942262
    13  H    3.542709   4.086522   6.546530   7.574009   5.408729
    14  H    3.305141   3.482550   5.509839   6.452398   4.515835
    15  H    4.329070   4.521854   5.319457   6.333590   4.209209
                    6          7          8          9         10
     6  C    0.000000
     7  O    1.196670   0.000000
     8  O    1.345590   2.250979   0.000000
     9  C    2.345387   2.661823   1.419447   0.000000
    10  C    3.135061   3.233152   2.435355   1.499911   0.000000
    11  H    3.422435   3.970547   2.179531   1.428762   2.381004
    12  H    2.573712   2.517863   2.078503   1.089328   2.210752
    13  H    4.095059   4.043023   3.365751   2.137774   1.090165
    14  H    3.518796   3.882352   2.667195   2.143501   1.090699
    15  H    2.960332   2.756166   2.745501   2.127471   1.096056
                   11         12         13         14         15
    11  H    0.000000
    12  H    2.021605   0.000000
    13  H    2.670216   2.537582   0.000000
    14  H    2.616337   3.097135   1.775673   0.000000
    15  H    3.327589   2.572155   1.775243   1.782371   0.000000
 Stoichiometry    C5H7O3(2)
 Framework group  C1[X(C5H7O3)]
 Deg. of freedom    39
 Full point group                 C1      NOp   1
 Largest Abelian subgroup         C1      NOp   1
 Largest concise Abelian subgroup C1      NOp   1
                         Standard orientation:                         
 ---------------------------------------------------------------------
 Center     Atomic      Atomic             Coordinates (Angstroms)
 Number     Number       Type             X           Y           Z
 ---------------------------------------------------------------------
      1          8           0        2.636084    1.739317   -0.247893
      2          1           0        1.839264    2.234001   -0.016531
      3          6           0       -3.192417    1.030759    0.403631
      4          1           0       -4.072312    1.577835    0.650812
      5          6           0       -2.203480    0.414720    0.125477
      6          6           0       -1.037291   -0.375513   -0.229491
      7          8           0       -1.081029   -1.477031   -0.695071
      8          8           0        0.098602    0.294764    0.037131
      9          6           0        1.307564   -0.378348   -0.279349
     10          6           0        1.772796   -1.294380    0.813436
     11          1           0        2.196712    0.737607   -0.352971
     12          1           0        1.272183   -0.801171   -1.282645
     13          1           0        2.752363   -1.705879    0.569352
     14          1           0        1.838064   -0.760111    1.762078
     15          1           0        1.061437   -2.122103    0.914331
 ---------------------------------------------------------------------
 Rotational constants (GHZ):           3.0393878           1.1300044           0.9025829
 Standard basis: 6-311++G(d,p) (5D, 7F)
 There are   233 symmetry adapted cartesian basis functions of A   symmetry.
 There are   225 symmetry adapted basis functions of A   symmetry.
   225 basis functions,   351 primitive gaussians,   233 cartesian basis functions
    31 alpha electrons       30 beta electrons
       nuclear repulsion energy       348.7372761022 Hartrees.
 NAtoms=   15 NActive=   15 NUniq=   15 SFac= 1.00D+00 NAtFMM=   60 NAOKFM=F Big=F
 Integral buffers will be    131072 words long.
 Raffenetti 2 integral format.
 Two-electron integral symmetry is turned on.
 One-electron integrals computed using PRISM.
 NBasis=   225 RedAO= T EigKep=  7.82D-06  NBF=   225
 NBsUse=   224 1.00D-06 EigRej=  8.30D-07 NBFU=   224
 ExpMin= 3.60D-02 ExpMax= 8.59D+03 ExpMxC= 1.30D+03 IAcc=3 IRadAn=         5 AccDes= 0.00D+00
 Harris functional with IExCor=  205 and IRadAn=       5 diagonalized for initial guess.
 HarFok:  IExCor=  205 AccDes= 0.00D+00 IRadAn=         5 IDoV= 1 UseB2=F ITyADJ=14
 ICtDFT=  3500011 ScaDFX=  1.000000  1.000000  1.000000  1.000000
 FoFCou: FMM=F IPFlag=           0 FMFlag=      100000 FMFlg1=           0
         NFxFlg=           0 DoJE=T BraDBF=F KetDBF=T FulRan=T
         wScrn=  0.000000 ICntrl=       500 IOpCl=  0 I1Cent=   200000004 NGrid=           0
         NMat0=    1 NMatS0=      1 NMatT0=    0 NMatD0=    1 NMtDS0=    0 NMtDT0=    0
 Petite list used in FoFCou.
 Initial guess <Sx>= 0.0000 <Sy>= 0.0000 <Sz>= 0.5000 <S**2>= 0.7500 S= 0.5000
 Requested convergence on RMS density matrix=1.00D-08 within 128 cycles.
 Requested convergence on MAX density matrix=1.00D-06.
 Requested convergence on             energy=1.00D-06.
 No special actions if energy rises.
 Initial convergence to 1.0D-05 achieved.  Increase integral accuracy.
 SCF Done:  E(UHF) =  -417.967824558     A.U. after   28 cycles
            NFock= 28  Conv=0.59D-08     -V/T= 2.0010
 <Sx>= 0.0000 <Sy>= 0.0000 <Sz>= 0.5000 <S**2>= 0.7790 S= 0.5144
 <L.S>=  0.00000000000    
 Annihilation of the first spin contaminant:
 S**2 before annihilation     0.7790,   after     0.7504
 ExpMin= 3.60D-02 ExpMax= 8.59D+03 ExpMxC= 1.30D+03 IAcc=3 IRadAn=         5 AccDes= 0.00D+00
 HarFok:  IExCor=  205 AccDes= 0.00D+00 IRadAn=         5 IDoV=-2 UseB2=F ITyADJ=14
 ICtDFT= 12500011 ScaDFX=  1.000000  1.000000  1.000000  1.000000
 Range of M.O.s used for correlation:     9   224
 NBasis=   225 NAE=    31 NBE=    30 NFC=     8 NFV=     0
 NROrb=    216 NOA=    23 NOB=    22 NVA=   193 NVB=   194

 **** Warning!!: The largest alpha MO coefficient is  0.12995660D+03


 **** Warning!!: The largest beta MO coefficient is  0.13302324D+03

 Semi-Direct transformation.
 ModeAB=           4 MOrb=            23 LenV=    1609186894
 LASXX=    107793295 LTotXX=   107793295 LenRXX=   218294035
 LTotAB=   110500740 MaxLAS=   126390888 LenRXY=           0
 NonZer=   326087330 LenScr=   491049984 LnRSAI=   126390888
 LnScr1=   190356480 LExtra=           0 Total=   1026091387
 MaxDsk=          -1 SrtSym=           T ITran=            4
 JobTyp=1 Pass  1:  I=   1 to  23.
 (rs|ai) integrals will be sorted in core.
 ModeAB=           4 MOrb=            22 LenV=    1609186894
 LASXX=    103454307 LTotXX=   103454307 LenRXX=   188091948
 LTotAB=    84637641 MaxLAS=   120895632 LenRXY=           0
 NonZer=   291546255 LenScr=   439034880 LnRSAI=   120895632
 LnScr1=   182108160 LExtra=           0 Total=    930130620
 MaxDsk=          -1 SrtSym=           T ITran=            4
 JobTyp=2 Pass  1:  I=   1 to  22.
 (rs|ai) integrals will be sorted in core.
 SymMOI:  orbitals are not symmetric.
 Spin components of T(2) and E(2):
     alpha-alpha T2 =       0.5441933815D-01 E2=     -0.1741330373D+00
     alpha-beta  T2 =       0.2961102304D+00 E2=     -0.9567742343D+00
     beta-beta   T2 =       0.5327977101D-01 E2=     -0.1650742283D+00
 ANorm=    0.1184824603D+01
 E2 =    -0.1295981500D+01 EUMP2 =    -0.41926380605793D+03
 (S**2,0)=  0.77899D+00           (S**2,1)=  0.75954D+00
 E(PUHF)=      -0.41797455592D+03        E(PMP2)=      -0.41926829794D+03
 Keep R2 and R3 ints in memory in canonical form, NReq=652883968.
 CIDS: In Core Option IDoMem=           1.
 Iterations=  50 Convergence= 0.100D-06
 Produce multiple copies of IABC intergrals
 Iteration Nr.   1
 **********************
 DD1Dir will call FoFMem   1 times, MxPair=      1496
 NAB=   506 NAA=   253 NBB=   231.
 E(PMP3)=      -0.41928231996D+03
 MP4(R+Q)=  0.25708270D-01
 E3=       -0.16038554D-01        EUMP3=      -0.41927984461D+03
 E4(DQ)=   -0.64751915D-02        UMP4(DQ)=   -0.41928631980D+03
 E4(SDQ)=  -0.26581744D-01        UMP4(SDQ)=  -0.41930642636D+03
 DE(Corr)=  -1.2855680     E(Corr)=     -419.25339255    
 NORM(A)=   0.11880144D+01
 Iteration Nr.   2
 **********************
 DD1Dir will call FoFMem   1 times, MxPair=      1496
 NAB=   506 NAA=   253 NBB=   231.
 DE(Corr)=  -1.3294818     E(CORR)=     -419.29730632     Delta=-4.39D-02
 NORM(A)=   0.12060454D+01
 Iteration Nr.   3
 **********************
 DD1Dir will call FoFMem   1 times, MxPair=      1496
 NAB=   506 NAA=   253 NBB=   231.
 DE(Corr)=  -1.3306471     E(CORR)=     -419.29847161     Delta=-1.17D-03
 NORM(A)=   0.12117670D+01
 Iteration Nr.   4
 **********************
 DD1Dir will call FoFMem   1 times, MxPair=      1496
 NAB=   506 NAA=   253 NBB=   231.
 DE(Corr)=  -1.3353823     E(CORR)=     -419.30320687     Delta=-4.74D-03
 NORM(A)=   0.12135887D+01
 Iteration Nr.   5
 **********************
 DD1Dir will call FoFMem   1 times, MxPair=      1496
 NAB=   506 NAA=   253 NBB=   231.
 DE(Corr)=  -1.3360122     E(CORR)=     -419.30383676     Delta=-6.30D-04
 NORM(A)=   0.12142739D+01
 Iteration Nr.   6
 **********************
 DD1Dir will call FoFMem   1 times, MxPair=      1496
 NAB=   506 NAA=   253 NBB=   231.
 DE(Corr)=  -1.3361185     E(CORR)=     -419.30394303     Delta=-1.06D-04
 NORM(A)=   0.12143764D+01
 Iteration Nr.   7
 **********************
 DD1Dir will call FoFMem   1 times, MxPair=      1496
 NAB=   506 NAA=   253 NBB=   231.
 DE(Corr)=  -1.3361309     E(CORR)=     -419.30395544     Delta=-1.24D-05
 NORM(A)=   0.12143813D+01
 Iteration Nr.   8
 **********************
 DD1Dir will call FoFMem   1 times, MxPair=      1496
 NAB=   506 NAA=   253 NBB=   231.
 DE(Corr)=  -1.3361247     E(CORR)=     -419.30394929     Delta= 6.15D-06
 NORM(A)=   0.12143998D+01
 Iteration Nr.   9
 **********************
 DD1Dir will call FoFMem   1 times, MxPair=      1496
 NAB=   506 NAA=   253 NBB=   231.
 DE(Corr)=  -1.3361238     E(CORR)=     -419.30394836     Delta= 9.27D-07
 NORM(A)=   0.12144019D+01
 Iteration Nr.  10
 **********************
 DD1Dir will call FoFMem   1 times, MxPair=      1496
 NAB=   506 NAA=   253 NBB=   231.
 DE(Corr)=  -1.3361256     E(CORR)=     -419.30395020     Delta=-1.84D-06
 NORM(A)=   0.12144065D+01
 Iteration Nr.  11
 **********************
 DD1Dir will call FoFMem   1 times, MxPair=      1496
 NAB=   506 NAA=   253 NBB=   231.
 DE(Corr)=  -1.3361281     E(CORR)=     -419.30395270     Delta=-2.50D-06
 NORM(A)=   0.12144101D+01
 Iteration Nr.  12
 **********************
 DD1Dir will call FoFMem   1 times, MxPair=      1496
 NAB=   506 NAA=   253 NBB=   231.
 DE(Corr)=  -1.3361293     E(CORR)=     -419.30395390     Delta=-1.20D-06
 NORM(A)=   0.12144122D+01
 Iteration Nr.  13
 **********************
 DD1Dir will call FoFMem   1 times, MxPair=      1496
 NAB=   506 NAA=   253 NBB=   231.
 DE(Corr)=  -1.3361302     E(CORR)=     -419.30395472     Delta=-8.22D-07
 NORM(A)=   0.12144134D+01
 Iteration Nr.  14
 **********************
 DD1Dir will call FoFMem   1 times, MxPair=      1496
 NAB=   506 NAA=   253 NBB=   231.
 DE(Corr)=  -1.3361306     E(CORR)=     -419.30395511     Delta=-3.87D-07
 NORM(A)=   0.12144139D+01
 Iteration Nr.  15
 **********************
 DD1Dir will call FoFMem   1 times, MxPair=      1496
 NAB=   506 NAA=   253 NBB=   231.
 DE(Corr)=  -1.3361306     E(CORR)=     -419.30395517     Delta=-5.88D-08
 NORM(A)=   0.12144140D+01
 Wavefunction amplitudes converged. E(Corr)=     -419.30395517    
 Largest amplitude= 3.11D-02
 Time for triples=    37586.07 seconds.
 T4(CCSD)= -0.58612798D-01
 T5(CCSD)=  0.36390793D-02
 CCSD(T)= -0.41935892889D+03

 S**2, projected HF & approx projected MPn energies after annihilation of
 unwanted spin states (see manual for definitions):

 spins       (S**2,0) (S**2,1)    PUHF        PMP2        PMP3        PMP4
 annihilated
 s+1         0.74976  0.75010 -417.974556 -419.268298 -419.282320
 s+1,s+2     0.75000  0.75000 -417.974510 -419.268257 -419.282284
 s+1 to s+3  0.75000  0.75000 -417.974511 -419.268257 -419.282284
 s+1 to s+4  0.75000  0.75000 -417.974511 -419.268257 -419.282283
 s+1 to s+5  0.75000  0.75000 -417.974511
 s+1 to s+6  0.75000  0.75000 -417.974511

 Discarding MO integrals.

 **********************************************************************

            Population analysis using the SCF density.

 **********************************************************************

 Orbital symmetries:
 Alpha Orbitals:
       Occupied  (A) (A) (A) (A) (A) (A) (A) (A) (A) (A) (A) (A)
                 (A) (A) (A) (A) (A) (A) (A) (A) (A) (A) (A) (A)
                 (A) (A) (A) (A) (A) (A) (A)
       Virtual   (A) (A) (A) (A) (A) (A) (A) (A) (A) (A) (A) (A)
                 (A) (A) (A) (A) (A) (A) (A) (A) (A) (A) (A) (A)
                 (A) (A) (A) (A) (A) (A) (A) (A) (A) (A) (A) (A)
                 (A) (A) (A) (A) (A) (A) (A) (A) (A) (A) (A) (A)
                 (A) (A) (A) (A) (A) (A) (A) (A) (A) (A) (A) (A)
                 (A) (A) (A) (A) (A) (A) (A) (A) (A) (A) (A) (A)
                 (A) (A) (A) (A) (A) (A) (A) (A) (A) (A) (A) (A)
                 (A) (A) (A) (A) (A) (A) (A) (A) (A) (A) (A) (A)
                 (A) (A) (A) (A) (A) (A) (A) (A) (A) (A) (A) (A)
                 (A) (A) (A) (A) (A) (A) (A) (A) (A) (A) (A) (A)
                 (A) (A) (A) (A) (A) (A) (A) (A) (A) (A) (A) (A)
                 (A) (A) (A) (A) (A) (A) (A) (A) (A) (A) (A) (A)
                 (A) (A) (A) (A) (A) (A) (A) (A) (A) (A) (A) (A)
                 (A) (A) (A) (A) (A) (A) (A) (A) (A) (A) (A) (A)
                 (A) (A) (A) (A) (A) (A) (A) (A) (A) (A) (A) (A)
                 (A) (A) (A) (A) (A) (A) (A) (A) (A) (A) (A) (A)
                 (A)
 Beta  Orbitals:
       Occupied  (A) (A) (A) (A) (A) (A) (A) (A) (A) (A) (A) (A)
                 (A) (A) (A) (A) (A) (A) (A) (A) (A) (A) (A) (A)
                 (A) (A) (A) (A) (A) (A)
       Virtual   (A) (A) (A) (A) (A) (A) (A) (A) (A) (A) (A) (A)
                 (A) (A) (A) (A) (A) (A) (A) (A) (A) (A) (A) (A)
                 (A) (A) (A) (A) (A) (A) (A) (A) (A) (A) (A) (A)
                 (A) (A) (A) (A) (A) (A) (A) (A) (A) (A) (A) (A)
                 (A) (A) (A) (A) (A) (A) (A) (A) (A) (A) (A) (A)
                 (A) (A) (A) (A) (A) (A) (A) (A) (A) (A) (A) (A)
                 (A) (A) (A) (A) (A) (A) (A) (A) (A) (A) (A) (A)
                 (A) (A) (A) (A) (A) (A) (A) (A) (A) (A) (A) (A)
                 (A) (A) (A) (A) (A) (A) (A) (A) (A) (A) (A) (A)
                 (A) (A) (A) (A) (A) (A) (A) (A) (A) (A) (A) (A)
                 (A) (A) (A) (A) (A) (A) (A) (A) (A) (A) (A) (A)
                 (A) (A) (A) (A) (A) (A) (A) (A) (A) (A) (A) (A)
                 (A) (A) (A) (A) (A) (A) (A) (A) (A) (A) (A) (A)
                 (A) (A) (A) (A) (A) (A) (A) (A) (A) (A) (A) (A)
                 (A) (A) (A) (A) (A) (A) (A) (A) (A) (A) (A) (A)
                 (A) (A) (A) (A) (A) (A) (A) (A) (A) (A) (A) (A)
                 (A) (A)
 The electronic state is 2-A.
 Alpha  occ. eigenvalues --  -20.64268 -20.58465 -20.56415 -11.44012 -11.34356
 Alpha  occ. eigenvalues --  -11.28271 -11.27410 -11.24734  -1.51078  -1.40931
 Alpha  occ. eigenvalues --   -1.34028  -1.10210  -1.06506  -0.95020  -0.86156
 Alpha  occ. eigenvalues --   -0.79654  -0.74694  -0.72776  -0.70428  -0.69268
 Alpha  occ. eigenvalues --   -0.63026  -0.60951  -0.59455  -0.57602  -0.55543
 Alpha  occ. eigenvalues --   -0.50927  -0.50242  -0.49854  -0.44156  -0.44133
 Alpha  occ. eigenvalues --   -0.42038
 Alpha virt. eigenvalues --    0.03320   0.04539   0.05906   0.06549   0.07007
 Alpha virt. eigenvalues --    0.07734   0.08854   0.09727   0.11208   0.11567
 Alpha virt. eigenvalues --    0.11662   0.13405   0.14026   0.15188   0.16128
 Alpha virt. eigenvalues --    0.16934   0.17636   0.18446   0.18759   0.19347
 Alpha virt. eigenvalues --    0.19583   0.20687   0.21289   0.22329   0.23361
 Alpha virt. eigenvalues --    0.24236   0.25296   0.27297   0.28327   0.29880
 Alpha virt. eigenvalues --    0.29910   0.31141   0.33071   0.33624   0.34629
 Alpha virt. eigenvalues --    0.35773   0.36455   0.36719   0.37389   0.39066
 Alpha virt. eigenvalues --    0.39898   0.40448   0.41546   0.42542   0.43640
 Alpha virt. eigenvalues --    0.44294   0.45398   0.47463   0.48026   0.50632
 Alpha virt. eigenvalues --    0.54870   0.56562   0.56808   0.59646   0.61985
 Alpha virt. eigenvalues --    0.62902   0.66803   0.69612   0.71493   0.73617
 Alpha virt. eigenvalues --    0.75000   0.77576   0.80474   0.81636   0.82194
 Alpha virt. eigenvalues --    0.82639   0.85192   0.85529   0.86859   0.87995
 Alpha virt. eigenvalues --    0.89779   0.91055   0.93865   0.97510   0.99616
 Alpha virt. eigenvalues --    1.05077   1.08752   1.12049   1.18343   1.23043
 Alpha virt. eigenvalues --    1.27243   1.27740   1.29242   1.30697   1.31631
 Alpha virt. eigenvalues --    1.34537   1.35527   1.36121   1.37890   1.39807
 Alpha virt. eigenvalues --    1.41477   1.42445   1.48084   1.48572   1.53143
 Alpha virt. eigenvalues --    1.54290   1.55775   1.58530   1.61924   1.63580
 Alpha virt. eigenvalues --    1.66095   1.68799   1.71778   1.76521   1.79586
 Alpha virt. eigenvalues --    1.81377   1.81803   1.82764   1.83538   1.86166
 Alpha virt. eigenvalues --    1.87999   1.89638   1.90782   1.94109   1.99014
 Alpha virt. eigenvalues --    2.02482   2.06120   2.07837   2.10081   2.14113
 Alpha virt. eigenvalues --    2.17478   2.21944   2.26076   2.31075   2.34235
 Alpha virt. eigenvalues --    2.37496   2.40129   2.42930   2.51143   2.58219
 Alpha virt. eigenvalues --    2.69989   2.71497   2.80182   2.81463   2.83605
 Alpha virt. eigenvalues --    2.86983   2.89787   2.90377   2.91305   2.92695
 Alpha virt. eigenvalues --    2.94182   2.99494   3.02315   3.02789   3.10761
 Alpha virt. eigenvalues --    3.12431   3.15815   3.21108   3.23458   3.28806
 Alpha virt. eigenvalues --    3.32657   3.35684   3.38056   3.40818   3.43402
 Alpha virt. eigenvalues --    3.45563   3.52071   3.53265   3.55333   3.60357
 Alpha virt. eigenvalues --    3.64393   3.67040   3.71067   3.77016   3.85143
 Alpha virt. eigenvalues --    3.92111   4.00792   4.10017   4.18073   4.20492
 Alpha virt. eigenvalues --    4.20897   4.35858   4.44442   4.48565   4.54501
 Alpha virt. eigenvalues --    4.62731   5.53570   5.57483   5.60777   5.74453
 Alpha virt. eigenvalues --    5.89172   5.94981   6.17347   6.21257   6.40487
 Alpha virt. eigenvalues --   24.67699  24.90987  24.99159  25.11597  26.28127
 Alpha virt. eigenvalues --   51.56958  51.59261  51.69276
  Beta  occ. eigenvalues --  -20.64292 -20.58465 -20.54729 -11.43898 -11.31921
  Beta  occ. eigenvalues --  -11.28264 -11.27416 -11.24862  -1.50733  -1.40665
  Beta  occ. eigenvalues --   -1.28728  -1.09092  -1.04258  -0.94356  -0.82980
  Beta  occ. eigenvalues --   -0.78257  -0.74223  -0.71684  -0.68602  -0.65291
  Beta  occ. eigenvalues --   -0.61615  -0.59532  -0.57042  -0.55934  -0.52792
  Beta  occ. eigenvalues --   -0.50485  -0.49511  -0.47941  -0.44130  -0.44090
  Beta virt. eigenvalues --    0.03318   0.04445   0.05608   0.05965   0.06849
  Beta virt. eigenvalues --    0.07252   0.07750   0.09025   0.09861   0.11521
  Beta virt. eigenvalues --    0.11675   0.11869   0.13464   0.14085   0.15216
  Beta virt. eigenvalues --    0.16224   0.16948   0.17724   0.18520   0.18867
  Beta virt. eigenvalues --    0.19424   0.19812   0.20942   0.21432   0.22480
  Beta virt. eigenvalues --    0.23608   0.24317   0.25486   0.27389   0.28652
  Beta virt. eigenvalues --    0.30039   0.30092   0.31323   0.33590   0.34281
  Beta virt. eigenvalues --    0.34975   0.36457   0.36695   0.37048   0.37702
  Beta virt. eigenvalues --    0.39752   0.40233   0.40825   0.41926   0.43180
  Beta virt. eigenvalues --    0.43905   0.44951   0.45863   0.48028   0.48871
  Beta virt. eigenvalues --    0.53731   0.55631   0.56922   0.57595   0.60107
  Beta virt. eigenvalues --    0.62241   0.63476   0.67067   0.69671   0.71623
  Beta virt. eigenvalues --    0.75118   0.75426   0.77884   0.80820   0.82509
  Beta virt. eigenvalues --    0.82763   0.85108   0.85375   0.86573   0.87911
  Beta virt. eigenvalues --    0.88521   0.90451   0.91574   0.94614   0.98284
  Beta virt. eigenvalues --    0.99722   1.05605   1.09249   1.12132   1.19970
  Beta virt. eigenvalues --    1.24237   1.27324   1.28042   1.29722   1.31395
  Beta virt. eigenvalues --    1.33683   1.34802   1.35986   1.36665   1.38928
  Beta virt. eigenvalues --    1.40363   1.41743   1.42719   1.48385   1.49098
  Beta virt. eigenvalues --    1.53322   1.54521   1.56023   1.59074   1.62098
  Beta virt. eigenvalues --    1.63887   1.67059   1.69727   1.72777   1.79131
  Beta virt. eigenvalues --    1.80651   1.81750   1.82283   1.83279   1.84365
  Beta virt. eigenvalues --    1.87209   1.88206   1.90157   1.91329   1.95138
  Beta virt. eigenvalues --    1.99420   2.02888   2.06800   2.07922   2.10722
  Beta virt. eigenvalues --    2.14398   2.17993   2.22694   2.26525   2.31414
  Beta virt. eigenvalues --    2.34929   2.38772   2.40841   2.43561   2.53650
  Beta virt. eigenvalues --    2.58670   2.70063   2.73645   2.80383   2.81619
  Beta virt. eigenvalues --    2.83498   2.87196   2.90109   2.90570   2.91969
  Beta virt. eigenvalues --    2.93069   2.94467   2.99842   3.02589   3.02977
  Beta virt. eigenvalues --    3.10253   3.12515   3.15491   3.21499   3.24166
  Beta virt. eigenvalues --    3.28876   3.33135   3.35704   3.38110   3.41212
  Beta virt. eigenvalues --    3.45571   3.47098   3.52456   3.53825   3.56451
  Beta virt. eigenvalues --    3.62612   3.65469   3.67355   3.71518   3.77095
  Beta virt. eigenvalues --    3.88276   3.92180   4.00909   4.10446   4.18833
  Beta virt. eigenvalues --    4.20876   4.21333   4.36933   4.46193   4.49698
  Beta virt. eigenvalues --    4.54767   4.63508   5.54194   5.57966   5.60808
  Beta virt. eigenvalues --    5.74455   5.89438   5.97414   6.17914   6.23292
  Beta virt. eigenvalues --    6.40565  24.67714  24.92736  24.99248  25.11512
  Beta virt. eigenvalues --   26.28128  51.56975  51.60247  51.69277
          Condensed to atoms (all electrons):
               1          2          3          4          5          6
     1  O    7.966817   0.320870  -0.002410  -0.000099   0.017010  -0.003552
     2  H    0.320870   0.457941  -0.000622  -0.000176   0.000700  -0.001401
     3  C   -0.002410  -0.000622   5.983949   0.465847  -0.907760   1.208502
     4  H   -0.000099  -0.000176   0.465847   0.398473  -0.111494   0.039698
     5  C    0.017010   0.000700  -0.907760  -0.111494   9.171361  -2.989910
     6  C   -0.003552  -0.001401   1.208502   0.039698  -2.989910   8.002799
     7  O    0.000025  -0.000210  -0.099116  -0.003690   0.139905   0.373800
     8  O    0.020549   0.006750  -0.106401  -0.005336  -0.178353   0.042655
     9  C   -0.019673   0.006740   0.075455   0.001300  -0.383327   0.144917
    10  C   -0.008895   0.010790  -0.022612  -0.001434  -0.002729  -0.085660
    11  H    0.220303  -0.057399   0.005559   0.000422  -0.016439   0.015608
    12  H   -0.004065  -0.001022  -0.000725  -0.000098  -0.002932  -0.000191
    13  H   -0.001592   0.001571  -0.000523  -0.000039  -0.001580  -0.005214
    14  H    0.002596  -0.001284  -0.000531   0.000009   0.006896  -0.000102
    15  H   -0.003943   0.000177   0.005489   0.000071  -0.032719   0.013338
               7          8          9         10         11         12
     1  O    0.000025   0.020549  -0.019673  -0.008895   0.220303  -0.004065
     2  H   -0.000210   0.006750   0.006740   0.010790  -0.057399  -0.001022
     3  C   -0.099116  -0.106401   0.075455  -0.022612   0.005559  -0.000725
     4  H   -0.003690  -0.005336   0.001300  -0.001434   0.000422  -0.000098
     5  C    0.139905  -0.178353  -0.383327  -0.002729  -0.016439  -0.002932
     6  C    0.373800   0.042655   0.144917  -0.085660   0.015608  -0.000191
     7  O    8.004673  -0.113930   0.063589  -0.079512   0.003458  -0.013903
     8  O   -0.113930   8.352022   0.082400  -0.022909  -0.016355  -0.021891
     9  C    0.063589   0.082400   6.519571  -0.484261   0.070249   0.431066
    10  C   -0.079512  -0.022909  -0.484261   5.895830  -0.058239  -0.072764
    11  H    0.003458  -0.016355   0.070249  -0.058239   0.510129  -0.020066
    12  H   -0.013903  -0.021891   0.431066  -0.072764  -0.020066   0.488337
    13  H   -0.001762   0.018837  -0.062926   0.432120  -0.009439  -0.005514
    14  H    0.002331  -0.003023  -0.055438   0.423206  -0.003643  -0.003325
    15  H   -0.002027  -0.019413  -0.001893   0.376573   0.007086   0.003058
              13         14         15
     1  O   -0.001592   0.002596  -0.003943
     2  H    0.001571  -0.001284   0.000177
     3  C   -0.000523  -0.000531   0.005489
     4  H   -0.000039   0.000009   0.000071
     5  C   -0.001580   0.006896  -0.032719
     6  C   -0.005214  -0.000102   0.013338
     7  O   -0.001762   0.002331  -0.002027
     8  O    0.018837  -0.003023  -0.019413
     9  C   -0.062926  -0.055438  -0.001893
    10  C    0.432120   0.423206   0.376573
    11  H   -0.009439  -0.003643   0.007086
    12  H   -0.005514  -0.003325   0.003058
    13  H    0.533732  -0.025009  -0.033558
    14  H   -0.025009   0.529223  -0.047773
    15  H   -0.033558  -0.047773   0.549747
          Atomic-Atomic Spin Densities.
               1          2          3          4          5          6
     1  O    0.384207  -0.005117  -0.000427  -0.000009   0.005231   0.003003
     2  H   -0.005117  -0.014269   0.000081  -0.000002  -0.001332  -0.000801
     3  C   -0.000427   0.000081   0.026115   0.002014  -0.047749   0.024088
     4  H   -0.000009  -0.000002   0.002014   0.000379  -0.004030   0.001687
     5  C    0.005231  -0.001332  -0.047749  -0.004030   0.143821  -0.078390
     6  C    0.003003  -0.000801   0.024088   0.001687  -0.078390   0.067179
     7  O   -0.000012   0.000033   0.000741   0.000027  -0.003847   0.001817
     8  O    0.031299  -0.005006  -0.008036  -0.000358   0.036292  -0.008263
     9  C   -0.134352   0.011811   0.007212   0.000016  -0.064542  -0.005288
    10  C    0.018122  -0.000712  -0.000450   0.000049   0.009910   0.002100
    11  H    0.013347   0.005443   0.001350   0.000065  -0.006520   0.006239
    12  H    0.002767  -0.000455  -0.000962  -0.000040   0.006326   0.000586
    13  H    0.000034   0.000123   0.000112   0.000004  -0.000639   0.000779
    14  H    0.003863  -0.000559  -0.000502  -0.000014   0.004574   0.001141
    15  H   -0.001754   0.000239   0.000474   0.000006  -0.006080  -0.002704
               7          8          9         10         11         12
     1  O   -0.000012   0.031299  -0.134352   0.018122   0.013347   0.002767
     2  H    0.000033  -0.005006   0.011811  -0.000712   0.005443  -0.000455
     3  C    0.000741  -0.008036   0.007212  -0.000450   0.001350  -0.000962
     4  H    0.000027  -0.000358   0.000016   0.000049   0.000065  -0.000040
     5  C   -0.003847   0.036292  -0.064542   0.009910  -0.006520   0.006326
     6  C    0.001817  -0.008263  -0.005288   0.002100   0.006239   0.000586
     7  O   -0.001095   0.000743   0.004213  -0.002684  -0.000743  -0.000483
     8  O    0.000743   0.080216  -0.215790   0.031298  -0.018450   0.013216
     9  C    0.004213  -0.215790   1.401645  -0.114515   0.107289  -0.055813
    10  C   -0.002684   0.031298  -0.114515  -0.052841  -0.018090   0.014142
    11  H   -0.000743  -0.018450   0.107289  -0.018090  -0.211063   0.009987
    12  H   -0.000483   0.013216  -0.055813   0.014142   0.009987  -0.028332
    13  H    0.000126  -0.000721   0.000942   0.005017  -0.001765  -0.000331
    14  H   -0.000064   0.007863  -0.032435   0.015052   0.000968   0.001710
    15  H    0.000298  -0.006445   0.012049   0.003072  -0.001172  -0.003682
              13         14         15
     1  O    0.000034   0.003863  -0.001754
     2  H    0.000123  -0.000559   0.000239
     3  C    0.000112  -0.000502   0.000474
     4  H    0.000004  -0.000014   0.000006
     5  C   -0.000639   0.004574  -0.006080
     6  C    0.000779   0.001141  -0.002704
     7  O    0.000126  -0.000064   0.000298
     8  O   -0.000721   0.007863  -0.006445
     9  C    0.000942  -0.032435   0.012049
    10  C    0.005017   0.015052   0.003072
    11  H   -0.001765   0.000968  -0.001172
    12  H   -0.000331   0.001710  -0.003682
    13  H    0.003172  -0.000283  -0.001697
    14  H   -0.000283   0.020618  -0.011437
    15  H   -0.001697  -0.011437   0.069376
 Mulliken charges and spin densities:
               1          2
     1  O   -0.503941   0.320200
     2  H    0.256574  -0.010525
     3  C   -0.604100   0.004059
     4  H    0.216545  -0.000207
     5  C    1.291370  -0.006975
     6  C   -0.755287   0.013172
     7  O   -0.273632  -0.000929
     8  O   -0.035604  -0.062141
     9  C   -0.387768   0.922442
    10  C   -0.299504  -0.090528
    11  H    0.348764  -0.113115
    12  H    0.224035  -0.041365
    13  H    0.160895   0.004874
    14  H    0.175866   0.010495
    15  H    0.185786   0.050542
 Sum of Mulliken charges =  -0.00000   1.00000
 Mulliken charges and spin densities with hydrogens summed into heavy atoms:
               1          2
     1  O    0.101397   0.196560
     3  C   -0.387555   0.003852
     5  C    1.291370  -0.006975
     6  C   -0.755287   0.013172
     7  O   -0.273632  -0.000929
     8  O   -0.035604  -0.062141
     9  C   -0.163733   0.881078
    10  C    0.223044  -0.024616
 Electronic spatial extent (au):  <R**2>=           1266.3340
 Charge=             -0.0000 electrons
 Dipole moment (field-independent basis, Debye):
    X=             -2.3948    Y=              0.0080    Z=              1.3354  Tot=              2.7420
 Quadrupole moment (field-independent basis, Debye-Ang):
   XX=            -47.8577   YY=            -50.3460   ZZ=            -47.9292
   XY=            -15.8180   XZ=             -1.9788   YZ=             -0.2447
 Traceless Quadrupole moment (field-independent basis, Debye-Ang):
   XX=              0.8533   YY=             -1.6350   ZZ=              0.7818
   XY=            -15.8180   XZ=             -1.9788   YZ=             -0.2447
 Octapole moment (field-independent basis, Debye-Ang**2):
  XXX=            -66.9903  YYY=             10.9338  ZZZ=             -3.1719  XYY=             -5.9851
  XXY=             -1.0260  XXZ=             14.2647  XZZ=              5.4408  YZZ=             -0.7617
  YYZ=              7.4422  XYZ=              1.6737
 Hexadecapole moment (field-independent basis, Debye-Ang**3):
 XXXX=          -1044.8511 YYYY=           -380.3406 ZZZZ=           -121.1116 XXXY=           -185.4836
 XXXZ=            -37.4426 YYYX=            -12.5380 YYYZ=              3.0374 ZZZX=              3.5059
 ZZZY=              3.4716 XXYY=           -260.2055 XXZZ=           -216.2697 YYZZ=            -91.0849
 XXYZ=             26.5073 YYXZ=             -3.4856 ZZXY=             -1.4488
 N-N= 3.487372761022D+02 E-N=-1.679646327911D+03  KE= 4.175600949484D+02
 1\1\GINC-AJ\SP\UCCSD(T)-FC\6-311++G(d,p)\C5H7O3(2)\AAYUSH\19-Aug-2025\
 0\\# ccsd(t)/6-311++g(d,p) sp\\Title Card Required\\0,2\O,0,2.693359,1
 .735326,-0.230124\H,0,1.895934,2.229182,0.000921\C,0,-3.134192,1.01991
 9,0.422412\H,0,-4.014757,1.566075,0.669243\C,0,-2.144501,0.404914,0.14
 4653\C,0,-0.977345,-0.384121,-0.2098\O,0,-1.01973,-1.486051,-0.674529\
 O,0,0.157723,0.287793,0.056215\C,0,1.367508,-0.384037,-0.259844\C,0,1.
 833982,-1.29864,0.833608\H,0,2.255242,0.732982,-0.334396\H,0,1.332581,
 -0.807676,-1.262812\H,0,2.814048,-1.709091,0.589762\H,0,1.898651,-0.76
 3559,1.781833\H,0,1.123675,-2.127182,0.935197\\Version=ES64L-G16RevA.0
 3\State=2-A\HF=-417.9678246\MP2=-419.2638061\MP3=-419.2798446\MP4D=-41
 9.3120281\MP4DQ=-419.2863198\PUHF=-417.9745559\PMP2-0=-419.2682979\PMP
 3-0=-419.28232\MP4SDQ=-419.3064264\CCSD=-419.3039552\CCSD(T)=-419.3589
 289\S2=0.778987\S2-1=0.75954\S2A=0.750401\RMSD=5.947e-09\PG=C01 [X(C5H
 7O3)]\\@


 A MAN SHOULD NEVER BE ASHAMED TO OWN HE HAS BEEN IN THE WRONG
 WHICH IS BUT SAYING IN OTHER WORDS,
 THAT HE IS WISER TODAY THAN HE WAS YESTERDAY.

                          -- JONATHAN SWIFT
 Job cpu time:       0 days 16 hours  5 minutes 16.6 seconds.
 Elapsed time:       0 days  0 hours 40 minutes 29.2 seconds.
 File lengths (MBytes):  RWF=  44258 Int=      0 D2E=      0 Chk=      7 Scr=      1
 Normal termination of Gaussian 16 at Tue Aug 19 12:09:03 2025.
