 Entering Gaussian System, Link 0=g16
 Initial command:
 /opt/g16/l1.exe "/home/aayush/scratches/g16/Gau-13956.inp" -scrdir="/home/aayush/scratches/g16/"
 Entering Link 1 = /opt/g16/l1.exe PID=     13959.
  
 Copyright (c) 1988,1990,1992,1993,1995,1998,2003,2009,2016,
            Gaussian, Inc.  All Rights Reserved.
  
 This is part of the Gaussian(R) 16 program.  It is based on
 the Gaussian(R) 09 system (copyright 2009, Gaussian, Inc.),
 the Gaussian(R) 03 system (copyright 2003, Gaussian, Inc.),
 the Gaussian(R) 98 system (copyright 1998, Gaussian, Inc.),
 the Gaussian(R) 94 system (copyright 1995, Gaussian, Inc.),
 the Gaussian 92(TM) system (copyright 1992, Gaussian, Inc.),
 the Gaussian 90(TM) system (copyright 1990, Gaussian, Inc.),
 the Gaussian 88(TM) system (copyright 1988, Gaussian, Inc.),
 the Gaussian 86(TM) system (copyright 1986, Carnegie Mellon
 University), and the Gaussian 82(TM) system (copyright 1983,
 Carnegie Mellon University). Gaussian is a federally registered
 trademark of Gaussian, Inc.
  
 This software contains proprietary and confidential information,
 including trade secrets, belonging to Gaussian, Inc.
  
 This software is provided under written license and may be
 used, copied, transmitted, or stored only in accord with that
 written license.
  
 The following legend is applicable only to US Government
 contracts under FAR:
  
                    RESTRICTED RIGHTS LEGEND
  
 Use, reproduction and disclosure by the US Government is
 subject to restrictions as set forth in subparagraphs (a)
 and (c) of the Commercial Computer Software - Restricted
 Rights clause in FAR 52.227-19.
  
 Gaussian, Inc.
 340 Quinnipiac St., Bldg. 40, Wallingford CT 06492
  
  
 ---------------------------------------------------------------
 Warning -- This program may not be used in any manner that
 competes with the business of Gaussian, Inc. or will provide
 assistance to any competitor of Gaussian, Inc.  The licensee
 of this program is prohibited from giving any competitor of
 Gaussian, Inc. access to this program.  By using this program,
 the user acknowledges that Gaussian, Inc. is engaged in the
 business of creating and licensing software in the field of
 computational chemistry and represents and warrants to the
 licensee that it is not a competitor of Gaussian, Inc. and that
 it will not use this program in any manner prohibited above.
 ---------------------------------------------------------------
  

 Cite this work as:
 Gaussian 16, Revision A.03,
 M. J. Frisch, G. W. Trucks, H. B. Schlegel, G. E. Scuseria, 
 M. A. Robb, J. R. Cheeseman, G. Scalmani, V. Barone, 
 G. A. Petersson, H. Nakatsuji, X. Li, M. Caricato, A. V. Marenich, 
 J. Bloino, B. G. Janesko, R. Gomperts, B. Mennucci, H. P. Hratchian, 
 J. V. Ortiz, A. F. Izmaylov, J. L. Sonnenberg, D. Williams-Young, 
 F. Ding, F. Lipparini, F. Egidi, J. Goings, B. Peng, A. Petrone, 
 T. Henderson, D. Ranasinghe, V. G. Zakrzewski, J. Gao, N. Rega, 
 G. Zheng, W. Liang, M. Hada, M. Ehara, K. Toyota, R. Fukuda, 
 J. Hasegawa, M. Ishida, T. Nakajima, Y. Honda, O. Kitao, H. Nakai, 
 T. Vreven, K. Throssell, J. A. Montgomery, Jr., J. E. Peralta, 
 F. Ogliaro, M. J. Bearpark, J. J. Heyd, E. N. Brothers, K. N. Kudin, 
 V. N. Staroverov, T. A. Keith, R. Kobayashi, J. Normand, 
 K. Raghavachari, A. P. Rendell, J. C. Burant, S. S. Iyengar, 
 J. Tomasi, M. Cossi, J. M. Millam, M. Klene, C. Adamo, R. Cammi, 
 J. W. Ochterski, R. L. Martin, K. Morokuma, O. Farkas, 
 J. B. Foresman, and D. J. Fox, Gaussian, Inc., Wallingford CT, 2016.
 
 ******************************************
 Gaussian 16:  ES64L-G16RevA.03 25-Dec-2016
                23-Jun-2025 
 ******************************************
 %nprocshared=24
 Will use up to   24 processors via shared memory.
 %mem=12GB
 %chk=ethyl_propiolate_ts1.chk
 --------------------------
 # freq 6-311++g(d,p) m062x
 --------------------------
 1/10=4,30=1,38=1/1,3;
 2/12=2,17=6,18=5,40=1/2;
 3/5=4,6=6,7=1111,11=2,25=1,30=1,71=2,74=-55,140=1/1,2,3;
 4//1;
 5/5=2,38=5,98=1/2;
 8/6=4,10=90,11=11/1;
 11/6=1,8=1,9=11,15=111,16=1/1,2,10;
 10/6=1/2;
 6/7=2,8=2,9=2,10=2,28=1/1;
 7/8=1,10=1,25=1/1,2,3,16;
 1/10=4,30=1/3;
 99//99;
 -------------------
 Title Card Required
 -------------------
 Symbolic Z-matrix:
 Charge =  0 Multiplicity = 2
 O                     2.65364   1.77861  -0.24546 
 H                     1.82312   2.22916  -0.01444 
 C                    -3.19119   1.03446   0.40329 
 H                    -4.0712    1.58122   0.64991 
 C                    -2.20236   0.41796   0.12574 
 C                    -1.03299  -0.37196  -0.22721 
 O                    -1.08046  -1.4742   -0.69351 
 O                     0.09628   0.29943   0.03638 
 C                     1.31568  -0.38263  -0.28765 
 C                     1.76856  -1.29989   0.81782 
 H                     2.06874   0.43487  -0.41829 
 H                     1.21366  -0.87616  -1.25448 
 H                     2.75168  -1.70485   0.57284 
 H                     1.84282  -0.75259   1.75852 
 H                     1.06922  -2.13005   0.93477 
 

 GradGradGradGradGradGradGradGradGradGradGradGradGradGradGradGradGradGrad
 Berny optimization.
 Initialization pass.
 Trust Radius=3.00D-01 FncErr=1.00D-07 GrdErr=1.00D-07 EigMax=2.50D+02 EigMin=1.00D-04
 Number of steps in this run=      2 maximum allowed number of steps=      2.
 GradGradGradGradGradGradGradGradGradGradGradGradGradGradGradGradGradGrad

                          Input orientation:                          
 ---------------------------------------------------------------------
 Center     Atomic      Atomic             Coordinates (Angstroms)
 Number     Number       Type             X           Y           Z
 ---------------------------------------------------------------------
      1          8           0        2.653641    1.778614   -0.245456
      2          1           0        1.823115    2.229160   -0.014436
      3          6           0       -3.191192    1.034461    0.403288
      4          1           0       -4.071195    1.581217    0.649905
      5          6           0       -2.202355    0.417964    0.125741
      6          6           0       -1.032990   -0.371957   -0.227206
      7          8           0       -1.080456   -1.474199   -0.693510
      8          8           0        0.096281    0.299425    0.036375
      9          6           0        1.315682   -0.382629   -0.287654
     10          6           0        1.768559   -1.299893    0.817816
     11          1           0        2.068742    0.434872   -0.418290
     12          1           0        1.213659   -0.876157   -1.254482
     13          1           0        2.751680   -1.704852    0.572842
     14          1           0        1.842824   -0.752591    1.758515
     15          1           0        1.069215   -2.130048    0.934771
 ---------------------------------------------------------------------
                    Distance matrix (angstroms):
                    1          2          3          4          5
     1  O    0.000000
     2  H    0.972695   0.000000
     3  C    5.927622   5.171564   0.000000
     4  H    6.787051   5.966915   1.064973   0.000000
     5  C    5.056664   4.416389   1.197873   2.262845   0.000000
     6  C    4.268084   3.868904   2.652050   3.716840   1.454634
     7  O    4.972426   4.754654   3.457101   4.481612   2.347362
     8  O    2.967746   2.590061   3.388566   4.403097   2.303425
     9  C    2.542221   2.674617   4.774668   5.809832   3.631588
    10  C    3.375074   3.626270   5.497288   6.513963   4.381570
    11  H    1.475676   1.855505   5.357369   6.336716   4.305639
    12  H    3.184257   3.398845   5.079505   6.131481   3.904986
    13  H    3.579631   4.084554   6.546015   7.573362   5.408208
    14  H    3.328712   3.469090   5.511035   6.453782   4.516594
    15  H    4.379610   4.524605   5.333635   6.346531   4.224934
                    6          7          8          9         10
     6  C    0.000000
     7  O    1.197760   0.000000
     8  O    1.339956   2.250152   0.000000
     9  C    2.349474   2.664155   1.434270   0.000000
    10  C    3.130785   3.229764   2.442331   1.506166   0.000000
    11  H    3.210643   3.692932   2.028711   1.119139   2.151157
    12  H    2.521298   2.436249   2.072882   1.090291   2.186752
    13  H    4.091505   4.042538   3.369876   2.133264   1.091115
    14  H    3.515434   3.883132   2.668879   2.145124   1.090857
    15  H    2.976632   2.775342   2.766958   2.146752   1.091750
                   11         12         13         14         15
    11  H    0.000000
    12  H    1.774593   0.000000
    13  H    2.455029   2.528113   0.000000
    14  H    2.489897   3.080466   1.771621   0.000000
    15  H    3.067351   2.527041   1.772702   1.781688   0.000000
 Stoichiometry    C5H7O3(2)
 Framework group  C1[X(C5H7O3)]
 Deg. of freedom    39
 Full point group                 C1      NOp   1
 Largest Abelian subgroup         C1      NOp   1
 Largest concise Abelian subgroup C1      NOp   1
                         Standard orientation:                         
 ---------------------------------------------------------------------
 Center     Atomic      Atomic             Coordinates (Angstroms)
 Number     Number       Type             X           Y           Z
 ---------------------------------------------------------------------
      1          8           0        2.653641    1.778614   -0.245456
      2          1           0        1.823115    2.229160   -0.014436
      3          6           0       -3.191192    1.034461    0.403288
      4          1           0       -4.071195    1.581217    0.649905
      5          6           0       -2.202355    0.417964    0.125741
      6          6           0       -1.032990   -0.371957   -0.227206
      7          8           0       -1.080456   -1.474199   -0.693510
      8          8           0        0.096281    0.299425    0.036375
      9          6           0        1.315682   -0.382629   -0.287654
     10          6           0        1.768559   -1.299893    0.817816
     11          1           0        2.068742    0.434872   -0.418290
     12          1           0        1.213659   -0.876157   -1.254482
     13          1           0        2.751680   -1.704852    0.572842
     14          1           0        1.842824   -0.752591    1.758515
     15          1           0        1.069215   -2.130048    0.934771
 ---------------------------------------------------------------------
 Rotational constants (GHZ):           2.9995242           1.1282103           0.8981698
 Standard basis: 6-311++G(d,p) (5D, 7F)
 There are   233 symmetry adapted cartesian basis functions of A   symmetry.
 There are   225 symmetry adapted basis functions of A   symmetry.
   225 basis functions,   351 primitive gaussians,   233 cartesian basis functions
    31 alpha electrons       30 beta electrons
       nuclear repulsion energy       348.0815706683 Hartrees.
 NAtoms=   15 NActive=   15 NUniq=   15 SFac= 1.00D+00 NAtFMM=   60 NAOKFM=F Big=F
 Integral buffers will be    131072 words long.
 Raffenetti 2 integral format.
 Two-electron integral symmetry is turned on.
 One-electron integrals computed using PRISM.
 NBasis=   225 RedAO= T EigKep=  7.76D-06  NBF=   225
 NBsUse=   224 1.00D-06 EigRej=  8.10D-07 NBFU=   224
 ExpMin= 3.60D-02 ExpMax= 8.59D+03 ExpMxC= 1.30D+03 IAcc=3 IRadAn=         5 AccDes= 0.00D+00
 Harris functional with IExCor= 1009 and IRadAn=       5 diagonalized for initial guess.
 HarFok:  IExCor= 1009 AccDes= 0.00D+00 IRadAn=         5 IDoV= 1 UseB2=F ITyADJ=14
 ICtDFT=  3500011 ScaDFX=  1.000000  1.000000  1.000000  1.000000
 FoFCou: FMM=F IPFlag=           0 FMFlag=      100000 FMFlg1=           0
         NFxFlg=           0 DoJE=T BraDBF=F KetDBF=T FulRan=T
         wScrn=  0.000000 ICntrl=       500 IOpCl=  0 I1Cent=   200000004 NGrid=           0
         NMat0=    1 NMatS0=      1 NMatT0=    0 NMatD0=    1 NMtDS0=    0 NMtDT0=    0
 Petite list used in FoFCou.
 Initial guess <Sx>= 0.0000 <Sy>= 0.0000 <Sz>= 0.5000 <S**2>= 0.7500 S= 0.5000
 Requested convergence on RMS density matrix=1.00D-08 within 128 cycles.
 Requested convergence on MAX density matrix=1.00D-06.
 Requested convergence on             energy=1.00D-06.
 No special actions if energy rises.
 Restarting incremental Fock formation.
 SCF Done:  E(UM062X) =  -420.199873247     A.U. after   21 cycles
            NFock= 21  Conv=0.42D-08     -V/T= 2.0031
 <Sx>= 0.0000 <Sy>= 0.0000 <Sz>= 0.5000 <S**2>= 0.7565 S= 0.5032
 <L.S>=  0.00000000000    
 Annihilation of the first spin contaminant:
 S**2 before annihilation     0.7565,   after     0.7500
 DoSCS=F DFT=T ScalE2(SS,OS)=  1.000000  1.000000
 Range of M.O.s used for correlation:     1   224
 NBasis=   225 NAE=    31 NBE=    30 NFC=     0 NFV=     0
 NROrb=    224 NOA=    31 NOB=    30 NVA=   193 NVB=   194

 **** Warning!!: The largest alpha MO coefficient is  0.11224666D+03


 **** Warning!!: The largest beta MO coefficient is  0.10440507D+03

 Symmetrizing basis deriv contribution to polar:
 IMax=3 JMax=2 DiffMx= 0.00D+00
 G2DrvN: will do    16 centers at a time, making    1 passes.
 Calling FoFCou, ICntrl=  3107 FMM=F I1Cent=   0 AccDes= 0.00D+00.
 End of G2Drv F.D. properties file   721 does not exist.
 End of G2Drv F.D. properties file   722 does not exist.
 End of G2Drv F.D. properties file   788 does not exist.
          IDoAtm=111111111111111
          Differentiating once with respect to electric field.
                with respect to dipole field.
          Differentiating once with respect to nuclear coordinates.
 Keep R1 and R2 ints in memory in canonical form, NReq=671901989.
          There are    48 degrees of freedom in the 1st order CPHF.  IDoFFX=6 NUNeed=     3.
     45 vectors produced by pass  0 Test12= 2.46D-14 2.08D-09 XBig12= 8.90D+01 3.34D+00.
 AX will form    45 AO Fock derivatives at one time.
     45 vectors produced by pass  1 Test12= 2.46D-14 2.08D-09 XBig12= 1.84D+01 7.10D-01.
     45 vectors produced by pass  2 Test12= 2.46D-14 2.08D-09 XBig12= 6.13D-01 1.28D-01.
     45 vectors produced by pass  3 Test12= 2.46D-14 2.08D-09 XBig12= 8.95D-03 1.32D-02.
     45 vectors produced by pass  4 Test12= 2.46D-14 2.08D-09 XBig12= 7.74D-05 9.60D-04.
     45 vectors produced by pass  5 Test12= 2.46D-14 2.08D-09 XBig12= 5.58D-07 1.18D-04.
     42 vectors produced by pass  6 Test12= 2.46D-14 2.08D-09 XBig12= 3.83D-09 6.45D-06.
     20 vectors produced by pass  7 Test12= 2.46D-14 2.08D-09 XBig12= 2.51D-11 4.96D-07.
      3 vectors produced by pass  8 Test12= 2.46D-14 2.08D-09 XBig12= 1.86D-13 4.35D-08.
      2 vectors produced by pass  9 Test12= 2.46D-14 2.08D-09 XBig12= 1.82D-15 4.44D-09.
 InvSVY:  IOpt=1 It=  1 EMax= 5.33D-15
 Solved reduced A of dimension   337 with    48 vectors.
 Isotropic polarizability for W=    0.000000       74.79 Bohr**3.
 End of Minotr F.D. properties file   721 does not exist.
 End of Minotr F.D. properties file   722 does not exist.
 End of Minotr F.D. properties file   788 does not exist.

 **********************************************************************

            Population analysis using the SCF density.

 **********************************************************************

 Orbital symmetries:
 Alpha Orbitals:
       Occupied  (A) (A) (A) (A) (A) (A) (A) (A) (A) (A) (A) (A)
                 (A) (A) (A) (A) (A) (A) (A) (A) (A) (A) (A) (A)
                 (A) (A) (A) (A) (A) (A) (A)
       Virtual   (A) (A) (A) (A) (A) (A) (A) (A) (A) (A) (A) (A)
                 (A) (A) (A) (A) (A) (A) (A) (A) (A) (A) (A) (A)
                 (A) (A) (A) (A) (A) (A) (A) (A) (A) (A) (A) (A)
                 (A) (A) (A) (A) (A) (A) (A) (A) (A) (A) (A) (A)
                 (A) (A) (A) (A) (A) (A) (A) (A) (A) (A) (A) (A)
                 (A) (A) (A) (A) (A) (A) (A) (A) (A) (A) (A) (A)
                 (A) (A) (A) (A) (A) (A) (A) (A) (A) (A) (A) (A)
                 (A) (A) (A) (A) (A) (A) (A) (A) (A) (A) (A) (A)
                 (A) (A) (A) (A) (A) (A) (A) (A) (A) (A) (A) (A)
                 (A) (A) (A) (A) (A) (A) (A) (A) (A) (A) (A) (A)
                 (A) (A) (A) (A) (A) (A) (A) (A) (A) (A) (A) (A)
                 (A) (A) (A) (A) (A) (A) (A) (A) (A) (A) (A) (A)
                 (A) (A) (A) (A) (A) (A) (A) (A) (A) (A) (A) (A)
                 (A) (A) (A) (A) (A) (A) (A) (A) (A) (A) (A) (A)
                 (A) (A) (A) (A) (A) (A) (A) (A) (A) (A) (A) (A)
                 (A) (A) (A) (A) (A) (A) (A) (A) (A) (A) (A) (A)
                 (A)
 Beta  Orbitals:
       Occupied  (A) (A) (A) (A) (A) (A) (A) (A) (A) (A) (A) (A)
                 (A) (A) (A) (A) (A) (A) (A) (A) (A) (A) (A) (A)
                 (A) (A) (A) (A) (A) (A)
       Virtual   (A) (A) (A) (A) (A) (A) (A) (A) (A) (A) (A) (A)
                 (A) (A) (A) (A) (A) (A) (A) (A) (A) (A) (A) (A)
                 (A) (A) (A) (A) (A) (A) (A) (A) (A) (A) (A) (A)
                 (A) (A) (A) (A) (A) (A) (A) (A) (A) (A) (A) (A)
                 (A) (A) (A) (A) (A) (A) (A) (A) (A) (A) (A) (A)
                 (A) (A) (A) (A) (A) (A) (A) (A) (A) (A) (A) (A)
                 (A) (A) (A) (A) (A) (A) (A) (A) (A) (A) (A) (A)
                 (A) (A) (A) (A) (A) (A) (A) (A) (A) (A) (A) (A)
                 (A) (A) (A) (A) (A) (A) (A) (A) (A) (A) (A) (A)
                 (A) (A) (A) (A) (A) (A) (A) (A) (A) (A) (A) (A)
                 (A) (A) (A) (A) (A) (A) (A) (A) (A) (A) (A) (A)
                 (A) (A) (A) (A) (A) (A) (A) (A) (A) (A) (A) (A)
                 (A) (A) (A) (A) (A) (A) (A) (A) (A) (A) (A) (A)
                 (A) (A) (A) (A) (A) (A) (A) (A) (A) (A) (A) (A)
                 (A) (A) (A) (A) (A) (A) (A) (A) (A) (A) (A) (A)
                 (A) (A) (A) (A) (A) (A) (A) (A) (A) (A) (A) (A)
                 (A) (A)
 The electronic state is 2-A.
 Alpha  occ. eigenvalues --  -19.69529 -19.67927 -19.64177 -10.71615 -10.61655
 Alpha  occ. eigenvalues --  -10.57758 -10.57328 -10.54395  -1.26777  -1.17537
 Alpha  occ. eigenvalues --   -1.14232  -0.91356  -0.87808  -0.78932  -0.71642
 Alpha  occ. eigenvalues --   -0.65758  -0.62063  -0.60181  -0.58066  -0.57164
 Alpha  occ. eigenvalues --   -0.54940  -0.50277  -0.50041  -0.47324  -0.45411
 Alpha  occ. eigenvalues --   -0.43224  -0.40808  -0.40274  -0.37924  -0.37710
 Alpha  occ. eigenvalues --   -0.37020
 Alpha virt. eigenvalues --   -0.02348  -0.00568   0.00639   0.01363   0.01939
 Alpha virt. eigenvalues --    0.03327   0.03518   0.04688   0.06019   0.06092
 Alpha virt. eigenvalues --    0.06623   0.07419   0.08146   0.09526   0.10313
 Alpha virt. eigenvalues --    0.11390   0.11863   0.12500   0.12800   0.12971
 Alpha virt. eigenvalues --    0.14040   0.14368   0.15103   0.15891   0.16604
 Alpha virt. eigenvalues --    0.17703   0.18147   0.18547   0.19453   0.20064
 Alpha virt. eigenvalues --    0.21533   0.22279   0.23877   0.24844   0.25593
 Alpha virt. eigenvalues --    0.26531   0.27775   0.28009   0.28679   0.29936
 Alpha virt. eigenvalues --    0.30685   0.31184   0.32183   0.32738   0.33861
 Alpha virt. eigenvalues --    0.34483   0.35374   0.37081   0.37889   0.40955
 Alpha virt. eigenvalues --    0.42753   0.44503   0.46694   0.47924   0.50700
 Alpha virt. eigenvalues --    0.50970   0.53443   0.56248   0.57717   0.60027
 Alpha virt. eigenvalues --    0.60706   0.63107   0.64759   0.66987   0.67793
 Alpha virt. eigenvalues --    0.68279   0.69696   0.71007   0.72537   0.74000
 Alpha virt. eigenvalues --    0.75121   0.76672   0.79759   0.82214   0.84231
 Alpha virt. eigenvalues --    0.88994   0.92868   0.95877   1.00393   1.03855
 Alpha virt. eigenvalues --    1.07172   1.08268   1.10484   1.11839   1.14035
 Alpha virt. eigenvalues --    1.15517   1.17083   1.17674   1.18713   1.21341
 Alpha virt. eigenvalues --    1.23105   1.23854   1.29005   1.29850   1.34328
 Alpha virt. eigenvalues --    1.35800   1.36657   1.38029   1.40828   1.43216
 Alpha virt. eigenvalues --    1.47647   1.49335   1.50459   1.54193   1.58890
 Alpha virt. eigenvalues --    1.59980   1.60917   1.62242   1.63327   1.65434
 Alpha virt. eigenvalues --    1.66735   1.68079   1.70310   1.74237   1.76454
 Alpha virt. eigenvalues --    1.80559   1.83773   1.84832   1.88481   1.90384
 Alpha virt. eigenvalues --    1.95795   2.00422   2.02254   2.05504   2.08474
 Alpha virt. eigenvalues --    2.10032   2.14018   2.20137   2.28866   2.33356
 Alpha virt. eigenvalues --    2.41769   2.46442   2.50451   2.51159   2.53745
 Alpha virt. eigenvalues --    2.57465   2.59831   2.60768   2.62990   2.64594
 Alpha virt. eigenvalues --    2.66125   2.69445   2.71901   2.73324   2.78882
 Alpha virt. eigenvalues --    2.82062   2.82555   2.87416   2.92763   2.94836
 Alpha virt. eigenvalues --    2.98095   3.01476   3.03688   3.05800   3.09420
 Alpha virt. eigenvalues --    3.13092   3.15389   3.16247   3.20735   3.24052
 Alpha virt. eigenvalues --    3.30085   3.33160   3.37706   3.40813   3.43394
 Alpha virt. eigenvalues --    3.56426   3.65883   3.72910   3.81699   3.85579
 Alpha virt. eigenvalues --    3.86255   3.94543   4.05898   4.12604   4.18144
 Alpha virt. eigenvalues --    4.27707   5.05839   5.13017   5.15826   5.17571
 Alpha virt. eigenvalues --    5.30995   5.45685   5.55774   5.72334   5.93951
 Alpha virt. eigenvalues --   23.62062  23.92901  23.93882  24.05159  25.17188
 Alpha virt. eigenvalues --   49.94367  49.98685  50.10297
  Beta  occ. eigenvalues --  -19.69534 -19.66466 -19.64173 -10.71608 -10.61394
  Beta  occ. eigenvalues --  -10.57758 -10.57328 -10.54398  -1.26728  -1.17463
  Beta  occ. eigenvalues --   -1.07767  -0.91018  -0.87494  -0.78795  -0.70902
  Beta  occ. eigenvalues --   -0.65525  -0.61786  -0.59421  -0.57392  -0.55231
  Beta  occ. eigenvalues --   -0.52292  -0.50090  -0.47598  -0.46118  -0.42593
  Beta  occ. eigenvalues --   -0.40313  -0.39990  -0.39419  -0.37916  -0.37011
  Beta virt. eigenvalues --   -0.10984  -0.02326  -0.00405   0.00695   0.01612
  Beta virt. eigenvalues --    0.02025   0.03361   0.03545   0.04863   0.06103
  Beta virt. eigenvalues --    0.06147   0.06700   0.07539   0.08187   0.09707
  Beta virt. eigenvalues --    0.10430   0.11590   0.12101   0.12592   0.13028
  Beta virt. eigenvalues --    0.13093   0.14128   0.14481   0.15165   0.16107
  Beta virt. eigenvalues --    0.16698   0.17805   0.18195   0.18579   0.19756
  Beta virt. eigenvalues --    0.20115   0.21576   0.22421   0.23483   0.24477
  Beta virt. eigenvalues --    0.25634   0.26658   0.27867   0.28299   0.28807
  Beta virt. eigenvalues --    0.30117   0.30915   0.31444   0.32332   0.32825
  Beta virt. eigenvalues --    0.33986   0.34789   0.35480   0.37691   0.38222
  Beta virt. eigenvalues --    0.41677   0.42954   0.44612   0.46746   0.48024
  Beta virt. eigenvalues --    0.50739   0.51052   0.53655   0.56297   0.57953
  Beta virt. eigenvalues --    0.60354   0.60900   0.63194   0.64901   0.67096
  Beta virt. eigenvalues --    0.67865   0.68828   0.70096   0.71225   0.72622
  Beta virt. eigenvalues --    0.74043   0.75185   0.76806   0.79963   0.82417
  Beta virt. eigenvalues --    0.84258   0.89091   0.93009   0.95931   1.00989
  Beta virt. eigenvalues --    1.04383   1.07381   1.09112   1.10540   1.13709
  Beta virt. eigenvalues --    1.14332   1.15813   1.17132   1.18119   1.20192
  Beta virt. eigenvalues --    1.21811   1.23282   1.24066   1.29119   1.29978
  Beta virt. eigenvalues --    1.34533   1.35957   1.36765   1.38516   1.41134
  Beta virt. eigenvalues --    1.43284   1.47977   1.49899   1.50896   1.55800
  Beta virt. eigenvalues --    1.59026   1.60116   1.60975   1.62550   1.63340
  Beta virt. eigenvalues --    1.65589   1.66965   1.68509   1.70539   1.74158
  Beta virt. eigenvalues --    1.76865   1.80618   1.83778   1.84899   1.89252
  Beta virt. eigenvalues --    1.90491   1.95863   2.00507   2.02111   2.05579
  Beta virt. eigenvalues --    2.09105   2.10518   2.14304   2.20317   2.29270
  Beta virt. eigenvalues --    2.33436   2.41777   2.46723   2.50488   2.51255
  Beta virt. eigenvalues --    2.53840   2.57392   2.60143   2.60856   2.63219
  Beta virt. eigenvalues --    2.64711   2.66166   2.69474   2.71879   2.73247
  Beta virt. eigenvalues --    2.78903   2.82180   2.82536   2.89701   2.93342
  Beta virt. eigenvalues --    2.97185   2.98181   3.01630   3.03697   3.05818
  Beta virt. eigenvalues --    3.09531   3.13392   3.17895   3.19443   3.21243
  Beta virt. eigenvalues --    3.24251   3.30413   3.33195   3.37821   3.42930
  Beta virt. eigenvalues --    3.43785   3.56433   3.65927   3.73099   3.83014
  Beta virt. eigenvalues --    3.86118   3.86620   3.96085   4.06325   4.12795
  Beta virt. eigenvalues --    4.18225   4.28078   5.07644   5.13146   5.16388
  Beta virt. eigenvalues --    5.24699   5.31042   5.45963   5.58144   5.72394
  Beta virt. eigenvalues --    5.93968  23.62062  23.93013  23.93896  24.05165
  Beta virt. eigenvalues --   25.17189  49.93869  49.98693  50.10295
          Condensed to atoms (all electrons):
               1          2          3          4          5          6
     1  O    8.006030   0.272720  -0.001033  -0.000037   0.010043  -0.001998
     2  H    0.272720   0.478649  -0.000482  -0.000152  -0.000439  -0.001407
     3  C   -0.001033  -0.000482   5.796224   0.447648  -0.467114   0.946717
     4  H   -0.000037  -0.000152   0.447648   0.426147  -0.076082   0.024417
     5  C    0.010043  -0.000439  -0.467114  -0.076082   8.094220  -2.195166
     6  C   -0.001998  -0.001407   0.946717   0.024417  -2.195166   7.525895
     7  O   -0.000367  -0.000468  -0.095776  -0.003203   0.118789   0.360310
     8  O    0.016407   0.007680  -0.094250  -0.005214  -0.271107   0.050100
     9  C   -0.007621   0.008785   0.046751   0.000738  -0.234535   0.075185
    10  C   -0.013792   0.015214  -0.013523  -0.001275  -0.069061  -0.087300
    11  H   -0.000310  -0.040559   0.005248   0.000448  -0.014703   0.013440
    12  H    0.001986  -0.000760  -0.002325  -0.000085   0.011892   0.001283
    13  H   -0.002011   0.001960  -0.000671  -0.000033  -0.000371  -0.004064
    14  H    0.005727  -0.001598   0.000268   0.000020   0.006537   0.005411
    15  H   -0.003593   0.000221   0.004307   0.000042  -0.030394   0.008118
               7          8          9         10         11         12
     1  O   -0.000367   0.016407  -0.007621  -0.013792  -0.000310   0.001986
     2  H   -0.000468   0.007680   0.008785   0.015214  -0.040559  -0.000760
     3  C   -0.095776  -0.094250   0.046751  -0.013523   0.005248  -0.002325
     4  H   -0.003203  -0.005214   0.000738  -0.001275   0.000448  -0.000085
     5  C    0.118789  -0.271107  -0.234535  -0.069061  -0.014703   0.011892
     6  C    0.360310   0.050100   0.075185  -0.087300   0.013440   0.001283
     7  O    7.983784  -0.145260   0.073753  -0.087984   0.011426  -0.014274
     8  O   -0.145260   8.386707   0.168157   0.011523  -0.091107  -0.021467
     9  C    0.073753   0.168157   5.924026  -0.309850   0.394859   0.429255
    10  C   -0.087984   0.011523  -0.309850   5.885405  -0.121138  -0.066488
    11  H    0.011426  -0.091107   0.394859  -0.121138   0.633359  -0.051716
    12  H   -0.014274  -0.021467   0.429255  -0.066488  -0.051716   0.499080
    13  H   -0.002351   0.020452  -0.053130   0.421284  -0.017140  -0.005626
    14  H    0.000429  -0.008408  -0.028835   0.396857  -0.013571   0.004363
    15  H    0.003363  -0.019150  -0.008873   0.381421   0.018150  -0.006235
              13         14         15
     1  O   -0.002011   0.005727  -0.003593
     2  H    0.001960  -0.001598   0.000221
     3  C   -0.000671   0.000268   0.004307
     4  H   -0.000033   0.000020   0.000042
     5  C   -0.000371   0.006537  -0.030394
     6  C   -0.004064   0.005411   0.008118
     7  O   -0.002351   0.000429   0.003363
     8  O    0.020452  -0.008408  -0.019150
     9  C   -0.053130  -0.028835  -0.008873
    10  C    0.421284   0.396857   0.381421
    11  H   -0.017140  -0.013571   0.018150
    12  H   -0.005626   0.004363  -0.006235
    13  H    0.525824  -0.030684  -0.030600
    14  H   -0.030684   0.533957  -0.048251
    15  H   -0.030600  -0.048251   0.543315
          Atomic-Atomic Spin Densities.
               1          2          3          4          5          6
     1  O    0.919467   0.008762  -0.000359  -0.000008   0.004339   0.000486
     2  H    0.008762  -0.031277   0.000105   0.000000  -0.000868  -0.000371
     3  C   -0.000359   0.000105   0.003884   0.000648  -0.012095   0.006795
     4  H   -0.000008   0.000000   0.000648   0.000059  -0.001889   0.001120
     5  C    0.004339  -0.000868  -0.012095  -0.001889   0.029598  -0.007615
     6  C    0.000486  -0.000371   0.006795   0.001120  -0.007615  -0.003828
     7  O    0.000112  -0.000005  -0.001112  -0.000017   0.006388  -0.003878
     8  O    0.027983  -0.002575   0.001756  -0.000005  -0.009305   0.010781
     9  C   -0.091441   0.007757   0.000260  -0.000009  -0.009950  -0.003842
    10  C    0.024872  -0.002698  -0.001461  -0.000016   0.013100  -0.003191
    11  H   -0.067946   0.003580   0.001458   0.000094  -0.007084   0.005666
    12  H    0.003543  -0.000156   0.000184  -0.000009  -0.001052   0.000335
    13  H    0.000038   0.000049   0.000010   0.000001  -0.000050   0.000161
    14  H    0.002534  -0.000365  -0.000048  -0.000014   0.000032   0.000073
    15  H   -0.001449   0.000154  -0.000047   0.000014   0.000279  -0.000802
               7          8          9         10         11         12
     1  O    0.000112   0.027983  -0.091441   0.024872  -0.067946   0.003543
     2  H   -0.000005  -0.002575   0.007757  -0.002698   0.003580  -0.000156
     3  C   -0.001112   0.001756   0.000260  -0.001461   0.001458   0.000184
     4  H   -0.000017  -0.000005  -0.000009  -0.000016   0.000094  -0.000009
     5  C    0.006388  -0.009305  -0.009950   0.013100  -0.007084  -0.001052
     6  C   -0.003878   0.010781  -0.003842  -0.003191   0.005666   0.000335
     7  O    0.001052   0.000924   0.000493  -0.001003  -0.001996   0.000430
     8  O    0.000924   0.014694  -0.043064   0.008860  -0.019202   0.002597
     9  C    0.000493  -0.043064   0.285911  -0.007136   0.090307  -0.015041
    10  C   -0.001003   0.008860  -0.007136  -0.018556  -0.026667   0.007118
    11  H   -0.001996  -0.019202   0.090307  -0.026667  -0.012707   0.002182
    12  H    0.000430   0.002597  -0.015041   0.007118   0.002182   0.000873
    13  H   -0.000027   0.000099  -0.001619   0.002600  -0.001559  -0.000064
    14  H    0.000267   0.001545  -0.009646   0.006964  -0.000630   0.000060
    15  H   -0.000635  -0.000089   0.004797  -0.002422  -0.000178  -0.000936
              13         14         15
     1  O    0.000038   0.002534  -0.001449
     2  H    0.000049  -0.000365   0.000154
     3  C    0.000010  -0.000048  -0.000047
     4  H    0.000001  -0.000014   0.000014
     5  C   -0.000050   0.000032   0.000279
     6  C    0.000161   0.000073  -0.000802
     7  O   -0.000027   0.000267  -0.000635
     8  O    0.000099   0.001545  -0.000089
     9  C   -0.001619  -0.009646   0.004797
    10  C    0.002600   0.006964  -0.002422
    11  H   -0.001559  -0.000630  -0.000178
    12  H   -0.000064   0.000060  -0.000936
    13  H    0.000588  -0.000276  -0.000217
    14  H   -0.000276   0.002504  -0.001653
    15  H   -0.000217  -0.001653   0.013902
 Mulliken charges and spin densities:
               1          2
     1  O   -0.282150   0.830934
     2  H    0.260635  -0.017908
     3  C   -0.571989  -0.000021
     4  H    0.186621  -0.000032
     5  C    1.117489   0.003827
     6  C   -0.720942   0.001890
     7  O   -0.202171   0.000993
     8  O   -0.005062  -0.005003
     9  C   -0.478664   0.207777
    10  C   -0.341293   0.000365
    11  H    0.273314  -0.034683
    12  H    0.221116   0.000064
    13  H    0.177160  -0.000267
    14  H    0.177777   0.001347
    15  H    0.188159   0.010716
 Sum of Mulliken charges =  -0.00000   1.00000
 Mulliken charges and spin densities with hydrogens summed into heavy atoms:
               1          2
     1  O   -0.021515   0.813026
     3  C   -0.385368  -0.000053
     5  C    1.117489   0.003827
     6  C   -0.720942   0.001890
     7  O   -0.202171   0.000993
     8  O   -0.005062  -0.005003
     9  C    0.015766   0.173158
    10  C    0.201802   0.012162
 APT charges:
               1
     1  O   -0.133094
     2  H    0.311451
     3  C   -0.182487
     4  H    0.236840
     5  C   -0.308707
     6  C    1.536924
     7  O   -0.788163
     8  O   -1.023135
     9  C    0.813039
    10  C   -0.135362
    11  H   -0.357252
    12  H   -0.047200
    13  H    0.022901
    14  H    0.023049
    15  H    0.031198
 Sum of APT charges =   0.00000
 APT charges with hydrogens summed into heavy atoms:
               1
     1  O    0.178357
     3  C    0.054352
     5  C   -0.308707
     6  C    1.536924
     7  O   -0.788163
     8  O   -1.023135
     9  C    0.408586
    10  C   -0.058214
 Electronic spatial extent (au):  <R**2>=           1265.8705
 Charge=              0.0000 electrons
 Dipole moment (field-independent basis, Debye):
    X=             -1.0736    Y=              1.3211    Z=              1.1752  Tot=              2.0686
 Quadrupole moment (field-independent basis, Debye-Ang):
   XX=            -45.2179   YY=            -47.4393   ZZ=            -48.3250
   XY=            -10.6941   XZ=             -1.9751   YZ=             -0.3441
 Traceless Quadrupole moment (field-independent basis, Debye-Ang):
   XX=              1.7762   YY=             -0.4452   ZZ=             -1.3309
   XY=            -10.6941   XZ=             -1.9751   YZ=             -0.3441
 Octapole moment (field-independent basis, Debye-Ang**2):
  XXX=            -49.1836  YYY=             18.0823  ZZZ=             -3.3060  XYY=              2.5436
  XXY=              9.4386  XXZ=             12.0733  XZZ=              4.6346  YZZ=             -0.1623
  YYZ=              6.0669  XYZ=              1.0104
 Hexadecapole moment (field-independent basis, Debye-Ang**3):
 XXXX=          -1018.0199 YYYY=           -371.9046 ZZZZ=           -124.5017 XXXY=           -135.7537
 XXXZ=            -37.6083 YYYX=             11.8601 YYYZ=              2.0078 ZZZX=              3.2025
 ZZZY=              3.7316 XXYY=           -237.4067 XXZZ=           -217.2497 YYZZ=            -92.2502
 XXYZ=             22.7306 YYXZ=             -5.4428 ZZXY=              0.7517
 N-N= 3.480815706683D+02 E-N=-1.680506293820D+03  KE= 4.188833458258D+02
  Exact polarizability:  92.721  -2.932  80.369  -4.266   3.880  51.282
 Approx polarizability:  94.565  -8.686  90.912  -6.645  10.399  60.506
                          Isotropic Fermi Contact Couplings
        Atom                 a.u.       MegaHertz       Gauss      10(-4) cm-1
     1  O(17)              0.12720     -77.11034     -27.51489     -25.72124
     2  H(1)              -0.01407     -62.90680     -22.44671     -20.98345
     3  C(13)              0.00009       0.10449       0.03729       0.03486
     4  H(1)              -0.00000      -0.01631      -0.00582      -0.00544
     5  C(13)             -0.00033      -0.37578      -0.13409      -0.12535
     6  C(13)              0.00587       6.59744       2.35413       2.20067
     7  O(17)              0.00130      -0.78714      -0.28087      -0.26256
     8  O(17)              0.00257      -1.56057      -0.55685      -0.52055
     9  C(13)              0.10607     119.24205      42.54853      39.77487
    10  C(13)             -0.00258      -2.89809      -1.03411      -0.96670
    11  H(1)              -0.00643     -28.72072     -10.24827      -9.58020
    12  H(1)               0.00112       5.00789       1.78694       1.67045
    13  H(1)               0.00040       1.79981       0.64222       0.60035
    14  H(1)               0.00089       3.95923       1.41275       1.32066
    15  H(1)               0.00579      25.86909       9.23074       8.62900
 --------------------------------------------------------
       Center         ----  Spin Dipole Couplings  ----
                      3XX-RR        3YY-RR        3ZZ-RR
 --------------------------------------------------------
     1   Atom       -0.485138      2.113161     -1.628023
     2   Atom        0.096852      0.003370     -0.100221
     3   Atom        0.001353     -0.000846     -0.000507
     4   Atom        0.000965     -0.000469     -0.000495
     5   Atom        0.002625     -0.001007     -0.001618
     6   Atom        0.008907     -0.003716     -0.005191
     7   Atom        0.002468     -0.003697      0.001229
     8   Atom        0.000919      0.003812     -0.004731
     9   Atom        0.016114      0.135499     -0.151613
    10   Atom       -0.009569      0.010856     -0.001287
    11   Atom       -0.016978      0.104615     -0.087638
    12   Atom       -0.012895     -0.000140      0.013035
    13   Atom       -0.001713      0.005410     -0.003697
    14   Atom       -0.004855      0.000120      0.004736
    15   Atom       -0.001849      0.003414     -0.001564
 --------------------------------------------------------
                        XY            XZ            YZ
 --------------------------------------------------------
     1   Atom        2.104475      0.166629      0.294849
     2   Atom       -0.076084     -0.052084      0.035044
     3   Atom        0.000036     -0.000079      0.000432
     4   Atom       -0.000124     -0.000209      0.000039
     5   Atom        0.000143     -0.000439     -0.000127
     6   Atom        0.004092      0.002248      0.001193
     7   Atom        0.003910     -0.005489     -0.000746
     8   Atom        0.025242     -0.002133     -0.012179
     9   Atom        0.223471     -0.016245     -0.021294
    10   Atom        0.004075     -0.001629     -0.013778
    11   Atom        0.111961     -0.000793      0.008607
    12   Atom        0.009689      0.001770      0.014208
    13   Atom       -0.003304      0.001958     -0.003761
    14   Atom        0.001704     -0.000075     -0.005610
    15   Atom        0.002845     -0.000123     -0.003384
 --------------------------------------------------------


 ---------------------------------------------------------------------------------
              Anisotropic Spin Dipole Couplings in Principal Axis System
 ---------------------------------------------------------------------------------

       Atom             a.u.   MegaHertz   Gauss  10(-4) cm-1        Axes

              Baa    -1.6596   120.086    42.850    40.056  0.8595 -0.4624 -0.2179
     1 O(17)  Bbb    -1.6508   119.453    42.624    39.845  0.1582 -0.1647  0.9736
              Bcc     3.3104  -239.539   -85.474   -79.902  0.4861  0.8712  0.0684
 
              Baa    -0.1159   -61.839   -22.066   -20.627  0.1755 -0.1728  0.9692
     2 H(1)   Bbb    -0.0389   -20.736    -7.399    -6.917  0.5060  0.8603  0.0618
              Bcc     0.1548    82.575    29.465    27.544  0.8445 -0.4796 -0.2384
 
              Baa    -0.0011    -0.153    -0.055    -0.051 -0.0299  0.8252 -0.5641
     3 C(13)  Bbb    -0.0002    -0.029    -0.010    -0.010  0.0287  0.5648  0.8247
              Bcc     0.0014     0.182     0.065     0.061  0.9991  0.0085 -0.0406
 
              Baa    -0.0005    -0.284    -0.101    -0.095  0.0988 -0.3671  0.9249
     4 H(1)   Bbb    -0.0005    -0.252    -0.090    -0.084  0.1314  0.9262  0.3535
              Bcc     0.0010     0.536     0.191     0.179  0.9864 -0.0866 -0.1398
 
              Baa    -0.0017    -0.226    -0.081    -0.075  0.0946  0.1645  0.9818
     5 C(13)  Bbb    -0.0010    -0.134    -0.048    -0.045 -0.0581  0.9855 -0.1595
              Bcc     0.0027     0.359     0.128     0.120  0.9938  0.0420 -0.1027
 
              Baa    -0.0059    -0.786    -0.280    -0.262  0.0042 -0.4930  0.8700
     6 C(13)  Bbb    -0.0047    -0.625    -0.223    -0.208 -0.3254  0.8220  0.4673
              Bcc     0.0105     1.411     0.503     0.471  0.9456  0.2851  0.1570
 
              Baa    -0.0062     0.449     0.160     0.150 -0.5541  0.7633 -0.3323
     7 O(17)  Bbb    -0.0022     0.156     0.056     0.052  0.3679  0.5826  0.7248
              Bcc     0.0084    -0.605    -0.216    -0.202  0.7468  0.2793 -0.6036
 
              Baa    -0.0254     1.838     0.656     0.613 -0.6358  0.6919  0.3420
     8 O(17)  Bbb    -0.0053     0.385     0.137     0.129  0.4443 -0.0342  0.8952
              Bcc     0.0307    -2.223    -0.793    -0.742  0.6311  0.7212 -0.2857
 
              Baa    -0.1555   -20.867    -7.446    -6.960  0.7913 -0.6103 -0.0364
     9 C(13)  Bbb    -0.1532   -20.554    -7.334    -6.856  0.0643  0.0238  0.9976
              Bcc     0.3087    41.421    14.780    13.816  0.6080  0.7918 -0.0581
 
              Baa    -0.0111    -1.487    -0.531    -0.496  0.6822 -0.4755 -0.5554
    10 C(13)  Bbb    -0.0094    -1.258    -0.449    -0.420  0.7172  0.2877  0.6346
              Bcc     0.0205     2.745     0.980     0.916  0.1420  0.8313 -0.5374
 
              Baa    -0.0912   -48.665   -17.365   -16.233  0.4651 -0.3025  0.8320
    11 H(1)   Bbb    -0.0802   -42.791   -15.269   -14.274  0.7231 -0.4123 -0.5542
              Bcc     0.1714    91.456    32.634    30.507  0.5106  0.8594  0.0270
 
              Baa    -0.0192   -10.242    -3.655    -3.416  0.8036 -0.5596  0.2026
    12 H(1)   Bbb    -0.0042    -2.245    -0.801    -0.749  0.5641  0.6079 -0.5588
              Bcc     0.0234    12.488     4.456     4.165  0.1896  0.5633  0.8042
 
              Baa    -0.0053    -2.812    -1.003    -0.938 -0.2907  0.2365  0.9271
    13 H(1)   Bbb    -0.0029    -1.565    -0.558    -0.522  0.8878  0.4279  0.1692
              Bcc     0.0082     4.376     1.562     1.460 -0.3567  0.8723 -0.3344
 
              Baa    -0.0058    -3.095    -1.104    -1.032  0.8424 -0.4781 -0.2486
    14 H(1)   Bbb    -0.0028    -1.478    -0.528    -0.493  0.5335  0.6749  0.5098
              Bcc     0.0086     4.573     1.632     1.525 -0.0759 -0.5621  0.8236
 
              Baa    -0.0042    -2.215    -0.790    -0.739 -0.5893  0.5041  0.6314
    15 H(1)   Bbb    -0.0018    -0.986    -0.352    -0.329  0.7423  0.0292  0.6694
              Bcc     0.0060     3.201     1.142     1.068  0.3190  0.8632 -0.3914
 

 ---------------------------------------------------------------------------------

 Calling FoFJK, ICntrl=    100127 FMM=F ISym2X=0 I1Cent= 0 IOpClX= 1 NMat=1 NMatS=1 NMatT=0.
 Full mass-weighted force constant matrix:
 Low frequencies --- -399.8163  -90.6024  -50.5926  -34.3669   -8.8910   -0.0002
 Low frequencies ---    0.0009    0.0013   26.1354
 ******    3 imaginary frequencies (negative Signs) ****** 
 Diagonal vibrational polarizability:
       78.3487108     317.0150533     106.5800023
 Harmonic frequencies (cm**-1), IR intensities (KM/Mole), Raman scattering
 activities (A**4/AMU), depolarization ratios for plane and unpolarized
 incident light, reduced masses (AMU), force constants (mDyne/A),
 and normal coordinates:
                      1                      2                      3
                      A                      A                      A
 Frequencies --   -399.8158               -86.6482               -27.6330
 Red. masses --      2.3807                 3.7003                 5.5117
 Frc consts  --      0.2242                 0.0164                 0.0025
 IR Inten    --    162.0146                 0.8409                 8.6443
  Atom  AN      X      Y      Z        X      Y      Z        X      Y      Z
     1   8     0.08   0.23   0.04     0.10  -0.16   0.19     0.43   0.01  -0.12
     2   1    -0.07  -0.03   0.06     0.17  -0.10   0.31     0.60   0.32  -0.12
     3   6    -0.00   0.00   0.00    -0.03   0.00  -0.01    -0.15  -0.17   0.04
     4   1    -0.01  -0.00  -0.00    -0.03   0.01  -0.01    -0.20  -0.25   0.06
     5   6     0.00   0.01   0.01    -0.04  -0.01   0.00    -0.10  -0.08   0.02
     6   6     0.00   0.01   0.01    -0.05  -0.02   0.00    -0.05   0.00  -0.01
     7   8    -0.03   0.00   0.01    -0.05  -0.06   0.09     0.01   0.03  -0.08
     8   8     0.02  -0.01  -0.03    -0.04   0.01  -0.11    -0.09   0.04   0.06
     9   6    -0.03  -0.17  -0.07    -0.05   0.02  -0.16    -0.06   0.09   0.07
    10   6    -0.03  -0.05   0.03     0.13   0.23  -0.06    -0.09   0.02   0.04
    11   1    -0.07  -0.55  -0.45    -0.11   0.04  -0.41    -0.08   0.07   0.13
    12   1    -0.33  -0.46   0.11    -0.16  -0.15  -0.06    -0.03   0.12   0.05
    13   1    -0.04  -0.08   0.04     0.12   0.24  -0.10    -0.07   0.06   0.05
    14   1     0.04   0.06  -0.04     0.21   0.40  -0.16    -0.14  -0.04   0.08
    15   1    -0.01  -0.03   0.18     0.18   0.22   0.17    -0.08   0.00  -0.05
                      4                      5                      6
                      A                      A                      A
 Frequencies --     61.5234                91.1339               150.6362
 Red. masses --      4.2275                 4.3114                 3.5363
 Frc consts  --      0.0094                 0.0211                 0.0473
 IR Inten    --      4.5422                 2.3711                10.5955
  Atom  AN      X      Y      Z        X      Y      Z        X      Y      Z
     1   8     0.06   0.09   0.07     0.01   0.04  -0.06     0.05   0.11   0.03
     2   1     0.07   0.13   0.02     0.09   0.05   0.19     0.09   0.25  -0.09
     3   6    -0.04   0.03  -0.17    -0.05   0.10  -0.19     0.20   0.22   0.09
     4   1    -0.06   0.05  -0.29    -0.04   0.17  -0.34     0.38   0.46   0.18
     5   6    -0.01   0.00  -0.02    -0.05   0.02  -0.01    -0.03  -0.10  -0.04
     6   6     0.01  -0.02   0.11    -0.05  -0.03   0.08    -0.06  -0.15  -0.05
     7   8     0.05  -0.09   0.29    -0.07   0.03  -0.07    -0.02  -0.15  -0.05
     8   8    -0.01   0.06  -0.02    -0.04  -0.13   0.29    -0.11  -0.08  -0.03
     9   6    -0.00   0.08  -0.06    -0.04  -0.01   0.04    -0.03   0.06   0.03
    10   6    -0.08  -0.16  -0.23     0.26  -0.01  -0.09    -0.02   0.04   0.01
    11   1     0.02   0.08   0.15    -0.14   0.04  -0.09    -0.10   0.15   0.15
    12   1     0.04   0.28  -0.17    -0.19  -0.00   0.05     0.12   0.11  -0.01
    13   1    -0.06  -0.10  -0.26     0.25   0.09  -0.31     0.10   0.27   0.14
    14   1    -0.14  -0.37  -0.10     0.41  -0.05  -0.08    -0.29  -0.03   0.08
    15   1    -0.07  -0.19  -0.46     0.36  -0.08   0.02     0.13  -0.11  -0.18
                      7                      8                      9
                      A                      A                      A
 Frequencies --    212.6780               223.9056               269.3704
 Red. masses --      1.0967                 1.2418                 4.0510
 Frc consts  --      0.0292                 0.0367                 0.1732
 IR Inten    --    105.8764                 1.3624                 3.6705
  Atom  AN      X      Y      Z        X      Y      Z        X      Y      Z
     1   8    -0.01   0.01  -0.06    -0.00   0.00  -0.01    -0.01  -0.04  -0.00
     2   1     0.16  -0.19   0.95     0.03   0.01   0.09    -0.06  -0.07  -0.12
     3   6     0.01   0.00   0.00     0.04   0.03  -0.00     0.02   0.06  -0.17
     4   1     0.02   0.01   0.01     0.08   0.10  -0.01     0.02   0.24  -0.58
     5   6     0.00  -0.01  -0.01    -0.01  -0.06   0.00     0.03  -0.17   0.37
     6   6     0.01  -0.00  -0.00     0.00  -0.03   0.00     0.03  -0.04   0.12
     7   8     0.02  -0.00   0.01     0.07  -0.02  -0.02     0.07   0.06  -0.11
     8   8    -0.00   0.01  -0.00    -0.02   0.02   0.03     0.02   0.03  -0.01
     9   6    -0.00   0.01   0.00    -0.03   0.03   0.00    -0.02  -0.00  -0.08
    10   6    -0.03  -0.00   0.01    -0.05   0.01  -0.01    -0.11   0.06  -0.00
    11   1    -0.01   0.01  -0.03    -0.02   0.02  -0.00     0.00  -0.06  -0.16
    12   1     0.00   0.00   0.00    -0.05   0.04  -0.00    -0.09  -0.06  -0.05
    13   1     0.01   0.06   0.08    -0.30  -0.45  -0.27     0.00   0.19   0.24
    14   1    -0.13  -0.03   0.03     0.48   0.10  -0.11    -0.40   0.10  -0.00
    15   1     0.00  -0.04  -0.06    -0.36   0.32   0.31    -0.03  -0.03  -0.13
                     10                     11                     12
                      A                      A                      A
 Frequencies --    306.6907               418.9528               559.4823
 Red. masses --      3.4714                 3.7277                 4.1096
 Frc consts  --      0.1924                 0.3855                 0.7579
 IR Inten    --     10.8015                 2.7779                 2.0400
  Atom  AN      X      Y      Z        X      Y      Z        X      Y      Z
     1   8    -0.03  -0.09  -0.01    -0.00   0.01   0.00    -0.02  -0.02  -0.00
     2   1    -0.12  -0.14  -0.23     0.02   0.09  -0.06     0.09   0.18   0.02
     3   6     0.04   0.03   0.06     0.08  -0.09  -0.01     0.16  -0.12  -0.06
     4   1     0.11   0.08   0.22    -0.00  -0.24   0.04     0.01  -0.34  -0.16
     5   6    -0.08  -0.05  -0.16     0.17   0.11  -0.09     0.31   0.11   0.07
     6   6     0.03   0.04   0.00     0.05  -0.05   0.04     0.02  -0.03  -0.05
     7   8     0.26   0.03   0.02    -0.08  -0.03   0.00    -0.04  -0.05  -0.02
     8   8    -0.04   0.09   0.15     0.05  -0.14   0.21    -0.12   0.11  -0.04
     9   6    -0.15  -0.05  -0.04     0.01   0.05  -0.15    -0.24   0.04   0.13
    10   6    -0.04   0.01  -0.04    -0.18   0.14  -0.06    -0.01  -0.02   0.00
    11   1    -0.11  -0.21  -0.32    -0.03   0.11  -0.17    -0.21  -0.07  -0.03
    12   1    -0.44  -0.17   0.06    -0.10   0.09  -0.16    -0.30  -0.07   0.19
    13   1     0.10   0.30   0.05    -0.17  -0.04   0.31    -0.00   0.22  -0.38
    14   1    -0.28  -0.01  -0.02    -0.42   0.30  -0.13     0.21  -0.19   0.09
    15   1     0.18  -0.19  -0.15    -0.35   0.28  -0.11     0.21  -0.19   0.04
                     13                     14                     15
                      A                      A                      A
 Frequencies --    602.3319               674.7395               742.3854
 Red. masses --      5.3628                 1.3043                 1.3143
 Frc consts  --      1.1463                 0.3499                 0.4268
 IR Inten    --      5.7080               153.5404                36.0185
  Atom  AN      X      Y      Z        X      Y      Z        X      Y      Z
     1   8    -0.02   0.01   0.01    -0.06  -0.02   0.01     0.00   0.00   0.00
     2   1     0.25   0.48   0.06     0.44   0.85   0.09    -0.01  -0.01  -0.00
     3   6    -0.19   0.10   0.05     0.03  -0.02  -0.01    -0.08  -0.12  -0.03
     4   1    -0.39  -0.17  -0.06     0.08   0.04   0.01     0.55   0.79   0.21
     5   6     0.03   0.35   0.14    -0.01  -0.07  -0.03     0.04   0.06   0.02
     6   6    -0.07  -0.07  -0.02     0.03   0.05   0.02    -0.00  -0.00  -0.00
     7   8     0.29  -0.09  -0.04    -0.02   0.05   0.02     0.01  -0.00  -0.00
     8   8    -0.07  -0.18  -0.07     0.03  -0.00  -0.01    -0.00  -0.00  -0.00
     9   6    -0.04  -0.08  -0.05    -0.02  -0.06  -0.03    -0.01  -0.00   0.00
    10   6    -0.00  -0.01   0.01     0.00  -0.02   0.01    -0.00   0.00  -0.00
    11   1    -0.16   0.12   0.20    -0.12   0.07   0.05    -0.00  -0.00   0.01
    12   1     0.17   0.03  -0.12    -0.01  -0.03  -0.05     0.00   0.01  -0.00
    13   1     0.01  -0.01   0.05     0.02  -0.01   0.05    -0.00   0.01  -0.01
    14   1    -0.00   0.13  -0.07    -0.02   0.07  -0.04     0.00   0.00  -0.00
    15   1     0.02  -0.00   0.14     0.03  -0.03   0.09     0.01  -0.00   0.01
                     16                     17                     18
                      A                      A                      A
 Frequencies --    765.0349               773.3004               785.2049
 Red. masses --      1.2679                 1.4261                 5.5462
 Frc consts  --      0.4372                 0.5024                 2.0147
 IR Inten    --     25.7599                24.1692                38.4774
  Atom  AN      X      Y      Z        X      Y      Z        X      Y      Z
     1   8     0.02   0.03  -0.00     0.00   0.00  -0.00    -0.01  -0.01  -0.00
     2   1    -0.11  -0.24   0.02    -0.01  -0.03   0.00     0.02   0.04   0.01
     3   6     0.03  -0.02   0.01    -0.01   0.04  -0.15    -0.02   0.02  -0.06
     4   1     0.02  -0.00  -0.08     0.08  -0.30   0.92     0.03  -0.23   0.69
     5   6     0.01  -0.02  -0.03     0.01  -0.03   0.08    -0.00   0.08  -0.16
     6   6    -0.00   0.01   0.05    -0.00   0.03  -0.06     0.01  -0.23   0.51
     7   8     0.00   0.04   0.00     0.00  -0.00   0.02    -0.01   0.05  -0.15
     8   8    -0.01  -0.01  -0.01     0.00  -0.01   0.02    -0.00   0.07  -0.13
     9   6    -0.08  -0.07  -0.03    -0.01  -0.01  -0.01     0.02   0.03   0.01
    10   6    -0.02  -0.02  -0.02    -0.00  -0.00  -0.00     0.00   0.00   0.02
    11   1     0.04  -0.05   0.53     0.00  -0.00   0.07     0.00  -0.01  -0.12
    12   1     0.16   0.33  -0.26     0.01   0.05  -0.04     0.02  -0.10   0.08
    13   1     0.07   0.19   0.01     0.01   0.02   0.01    -0.02  -0.02  -0.07
    14   1     0.03   0.34  -0.22    -0.01   0.05  -0.04     0.05  -0.14   0.10
    15   1     0.18  -0.12   0.40     0.02  -0.01   0.05     0.00  -0.02  -0.09
                     19                     20                     21
                      A                      A                      A
 Frequencies --    895.0727               939.0011              1090.5449
 Red. masses --      3.1432                 2.8009                 3.6491
 Frc consts  --      1.4837                 1.4551                 2.5570
 IR Inten    --     14.9829                11.7413                69.4884
  Atom  AN      X      Y      Z        X      Y      Z        X      Y      Z
     1   8    -0.02  -0.02  -0.00    -0.01  -0.01  -0.00    -0.01  -0.02  -0.00
     2   1     0.09   0.16   0.02     0.09   0.17   0.03     0.07   0.12   0.03
     3   6    -0.05   0.02   0.01    -0.10   0.06   0.03     0.05  -0.04  -0.02
     4   1    -0.06   0.01   0.00    -0.11   0.07   0.03     0.05  -0.05  -0.02
     5   6     0.01   0.06   0.03    -0.07   0.03   0.01     0.04   0.01   0.00
     6   6    -0.00  -0.10  -0.05     0.12  -0.08  -0.04    -0.12   0.02   0.01
     7   8    -0.05  -0.15  -0.06    -0.05  -0.11  -0.04     0.02   0.01   0.01
     8   8    -0.03   0.25   0.09     0.19   0.05   0.04    -0.19   0.09   0.06
     9   6     0.08   0.01  -0.10    -0.02  -0.02   0.09     0.28  -0.20   0.06
    10   6     0.08  -0.13   0.03    -0.14   0.09  -0.07    -0.07   0.11  -0.12
    11   1     0.18  -0.11  -0.01     0.21  -0.27   0.15     0.27  -0.28   0.25
    12   1    -0.21   0.27  -0.19    -0.03  -0.07   0.12     0.38  -0.38   0.15
    13   1     0.17  -0.22   0.53    -0.09   0.47  -0.53    -0.06   0.21  -0.28
    14   1    -0.15   0.29  -0.19     0.18   0.07  -0.08     0.02   0.15  -0.16
    15   1     0.01  -0.02   0.33     0.21  -0.18   0.09    -0.02   0.07  -0.21
                     22                     23                     24
                      A                      A                      A
 Frequencies --   1128.9197              1167.9506              1276.8926
 Red. masses --      2.0825                 1.8999                 4.1859
 Frc consts  --      1.5637                 1.5270                 4.0211
 IR Inten    --     47.5553                70.2704               589.2025
  Atom  AN      X      Y      Z        X      Y      Z        X      Y      Z
     1   8     0.00   0.01   0.00    -0.01  -0.02  -0.00     0.01   0.00  -0.00
     2   1    -0.01  -0.03   0.01     0.03   0.06  -0.01    -0.10  -0.17  -0.03
     3   6    -0.01   0.01   0.00     0.01  -0.01  -0.00    -0.08   0.05   0.02
     4   1    -0.01   0.01   0.00     0.01  -0.01  -0.00    -0.07   0.08   0.03
     5   6    -0.01  -0.00   0.00     0.00  -0.01  -0.00    -0.03   0.00   0.00
     6   6     0.02  -0.01   0.00    -0.02   0.01   0.01     0.45   0.01  -0.00
     7   8    -0.00  -0.01  -0.01     0.01   0.04   0.01    -0.05   0.00   0.00
     8   8     0.05   0.01  -0.04    -0.03  -0.08  -0.04    -0.21  -0.01  -0.01
     9   6    -0.10  -0.08   0.19     0.09   0.15   0.11     0.06  -0.09   0.03
    10   6     0.10   0.04  -0.16    -0.06  -0.11  -0.08    -0.02  -0.03  -0.01
    11   1    -0.11  -0.05   0.20     0.15  -0.08  -0.42    -0.59   0.47  -0.21
    12   1    -0.12  -0.04   0.19    -0.23  -0.02   0.23     0.13   0.06  -0.05
    13   1     0.08  -0.27   0.35     0.13   0.23   0.15     0.01   0.07  -0.04
    14   1    -0.39   0.27  -0.25    -0.00   0.38  -0.36     0.01   0.13  -0.11
    15   1    -0.33   0.39  -0.19     0.09  -0.14   0.46    -0.01  -0.02   0.01
                     25                     26                     27
                      A                      A                      A
 Frequencies --   1301.2828              1377.9347              1413.8833
 Red. masses --      1.3447                 1.2232                 1.2997
 Frc consts  --      1.3416                 1.3684                 1.5309
 IR Inten    --    280.4911                 1.7763                17.8177
  Atom  AN      X      Y      Z        X      Y      Z        X      Y      Z
     1   8    -0.01  -0.01  -0.00     0.00   0.00   0.00     0.00   0.00  -0.00
     2   1     0.05   0.08   0.03     0.01   0.02  -0.00    -0.01  -0.03   0.01
     3   6    -0.01   0.01   0.00     0.01  -0.00  -0.00    -0.00   0.00   0.00
     4   1    -0.01   0.02   0.01     0.01  -0.01  -0.00    -0.00   0.00   0.00
     5   6    -0.01  -0.00  -0.00     0.00  -0.00   0.00    -0.00   0.00  -0.00
     6   6     0.10   0.01   0.00    -0.04   0.01   0.00    -0.00   0.00   0.00
     7   8    -0.00   0.02   0.01     0.01  -0.00  -0.00    -0.00  -0.01  -0.00
     8   8    -0.08  -0.06  -0.03     0.01  -0.01  -0.02     0.01   0.00   0.01
     9   6     0.01   0.05  -0.03     0.05  -0.08   0.06    -0.01   0.05  -0.06
    10   6     0.03   0.04   0.01     0.00  -0.00   0.07     0.04  -0.10   0.09
    11   1     0.51  -0.48   0.40    -0.06  -0.00  -0.28    -0.01   0.16   0.29
    12   1    -0.50   0.08   0.02    -0.39   0.64  -0.26    -0.05  -0.40   0.18
    13   1    -0.00  -0.07   0.04    -0.04   0.14  -0.31     0.07   0.28  -0.38
    14   1     0.01  -0.10   0.10    -0.02   0.19  -0.05    -0.14   0.42  -0.21
    15   1    -0.03   0.07  -0.12    -0.13   0.07  -0.30    -0.32   0.15  -0.27
                     28                     29                     30
                      A                      A                      A
 Frequencies --   1443.0397              1487.5500              1499.9153
 Red. masses --      1.1425                 1.0394                 1.0517
 Frc consts  --      1.4017                 1.3551                 1.3940
 IR Inten    --     65.8889                12.8324                 9.2875
  Atom  AN      X      Y      Z        X      Y      Z        X      Y      Z
     1   8    -0.01  -0.01   0.00    -0.00  -0.00   0.00     0.00   0.00   0.00
     2   1     0.04   0.08   0.00     0.00   0.01  -0.00    -0.01  -0.01  -0.00
     3   6    -0.01   0.00   0.00    -0.00   0.00   0.00     0.00  -0.00  -0.00
     4   1    -0.01   0.01   0.00    -0.00   0.00   0.00     0.00  -0.00  -0.00
     5   6    -0.00  -0.00  -0.00    -0.00   0.00   0.00     0.00   0.00   0.00
     6   6     0.03  -0.01  -0.00     0.00   0.00   0.00    -0.01   0.00   0.00
     7   8    -0.00   0.01   0.01    -0.00  -0.00  -0.00     0.00  -0.00  -0.00
     8   8    -0.03  -0.01   0.01     0.00   0.00   0.00     0.00   0.00  -0.00
     9   6    -0.07   0.03   0.01    -0.02  -0.02  -0.00     0.03  -0.02  -0.01
    10   6     0.05  -0.02   0.02    -0.03  -0.03  -0.02     0.03  -0.01  -0.04
    11   1     0.25  -0.46  -0.36     0.01  -0.07  -0.02    -0.05   0.10   0.05
    12   1     0.63   0.14  -0.13     0.08   0.05  -0.05    -0.16   0.03  -0.02
    13   1     0.01   0.04  -0.20     0.29   0.47   0.40     0.10   0.30  -0.22
    14   1    -0.24   0.05  -0.00     0.54  -0.15   0.02    -0.36  -0.39   0.23
    15   1    -0.15   0.14   0.01    -0.34   0.23  -0.15    -0.26   0.31   0.55
                     31                     32                     33
                      A                      A                      A
 Frequencies --   1846.2791              2200.9544              2269.6530
 Red. masses --     12.4415                 1.1215                 5.7040
 Frc consts  --     24.9872                 3.2008                17.3120
 IR Inten    --    370.4809              1165.1761                77.7988
  Atom  AN      X      Y      Z        X      Y      Z        X      Y      Z
     1   8    -0.00  -0.00  -0.00     0.01   0.02   0.00    -0.00  -0.00  -0.00
     2   1    -0.01  -0.01  -0.00     0.01  -0.00  -0.00    -0.00   0.00   0.00
     3   6     0.06  -0.04  -0.02    -0.01   0.00   0.00    -0.31   0.19   0.09
     4   1     0.11  -0.04  -0.02    -0.01   0.01   0.00    -0.62   0.39   0.17
     5   6    -0.04   0.01   0.00     0.01  -0.01  -0.00     0.43  -0.27  -0.12
     6   6     0.00   0.74   0.31     0.01   0.00   0.00    -0.07   0.06   0.03
     7   8    -0.01  -0.49  -0.21    -0.00  -0.00  -0.00     0.00  -0.01  -0.00
     8   8    -0.02  -0.05  -0.02    -0.01   0.00   0.00    -0.00  -0.00  -0.00
     9   6    -0.02   0.04   0.01    -0.06  -0.07   0.01     0.01   0.01  -0.00
    10   6     0.01  -0.00  -0.01    -0.00  -0.00  -0.00    -0.00   0.00  -0.00
    11   1     0.04  -0.13  -0.06     0.77   0.59  -0.20    -0.07  -0.06   0.02
    12   1     0.14   0.03   0.02    -0.03  -0.07  -0.01     0.00   0.01   0.00
    13   1    -0.01  -0.06   0.03    -0.00   0.00   0.01     0.00  -0.00  -0.00
    14   1    -0.03   0.01  -0.01     0.01  -0.00  -0.01    -0.00  -0.00   0.00
    15   1     0.04  -0.01   0.04    -0.01  -0.03   0.01     0.00   0.00   0.00
                     34                     35                     36
                      A                      A                      A
 Frequencies --   3071.5532              3130.7697              3151.7003
 Red. masses --      1.0346                 1.0862                 1.1028
 Frc consts  --      5.7510                 6.2727                 6.4542
 IR Inten    --      5.5928                 4.5828                 5.1157
  Atom  AN      X      Y      Z        X      Y      Z        X      Y      Z
     1   8     0.00   0.00   0.00     0.00   0.00   0.00     0.00   0.00   0.00
     2   1    -0.00  -0.00  -0.00     0.00   0.00  -0.00     0.00   0.00  -0.00
     3   6     0.00  -0.00  -0.00    -0.00   0.00   0.00     0.00  -0.00  -0.00
     4   1    -0.00   0.00   0.00    -0.00  -0.00   0.00    -0.00   0.00   0.00
     5   6    -0.00   0.00   0.00     0.00   0.00  -0.00    -0.00   0.00   0.00
     6   6     0.00   0.00   0.00    -0.00  -0.00  -0.00     0.00  -0.00  -0.00
     7   8     0.00  -0.00   0.00    -0.00   0.00   0.00    -0.00   0.00  -0.00
     8   8    -0.00  -0.00  -0.00     0.00  -0.00   0.00     0.00  -0.00   0.00
     9   6     0.00  -0.00   0.00    -0.01  -0.04  -0.07    -0.00  -0.01  -0.01
    10   6    -0.01   0.03  -0.04    -0.00   0.02   0.02    -0.09  -0.04   0.00
    11   1    -0.01  -0.01   0.00     0.01   0.01  -0.02     0.01   0.02  -0.01
    12   1    -0.00  -0.00  -0.01     0.10   0.43   0.83     0.01   0.04   0.08
    13   1     0.49  -0.20  -0.13     0.11  -0.04  -0.03     0.56  -0.24  -0.14
    14   1     0.04   0.29   0.48    -0.02  -0.13  -0.22    -0.00   0.10   0.19
    15   1    -0.40  -0.47   0.06    -0.09  -0.10   0.02     0.47   0.56  -0.08
                     37                     38                     39
                      A                      A                      A
 Frequencies --   3158.9659              3489.7600              3780.2764
 Red. masses --      1.1020                 1.1712                 1.0669
 Frc consts  --      6.4790                 8.4035                 8.9833
 IR Inten    --     10.5736                62.2601                35.9816
  Atom  AN      X      Y      Z        X      Y      Z        X      Y      Z
     1   8     0.00   0.00   0.00     0.00  -0.00  -0.00    -0.05   0.03   0.01
     2   1     0.00   0.00  -0.00    -0.00  -0.00  -0.00     0.85  -0.46  -0.24
     3   6    -0.00   0.00   0.00    -0.10   0.06   0.03    -0.00   0.00   0.00
     4   1    -0.00  -0.00  -0.00     0.82  -0.51  -0.23    -0.00  -0.00  -0.00
     5   6     0.00   0.00  -0.00     0.03  -0.02  -0.01    -0.00   0.00  -0.00
     6   6    -0.00  -0.00  -0.00    -0.00   0.00   0.00     0.00  -0.00  -0.00
     7   8    -0.00   0.00   0.00     0.00   0.00   0.00    -0.00   0.00   0.00
     8   8     0.00   0.00   0.00     0.00  -0.00  -0.00    -0.00   0.00   0.00
     9   6    -0.00  -0.01  -0.02    -0.00  -0.00   0.00     0.00   0.00  -0.00
    10   6     0.02  -0.06  -0.06     0.00   0.00  -0.00    -0.00  -0.00  -0.00
    11   1     0.01   0.01  -0.01     0.00   0.00  -0.00    -0.01  -0.01   0.00
    12   1     0.03   0.14   0.27     0.00  -0.00  -0.00    -0.00  -0.00   0.00
    13   1    -0.49   0.19   0.11     0.00  -0.00   0.00    -0.00   0.00  -0.00
    14   1     0.06   0.38   0.65    -0.00   0.00   0.00     0.00   0.00   0.00
    15   1     0.14   0.15  -0.03    -0.00   0.00  -0.00     0.00  -0.00   0.00

 -------------------
 - Thermochemistry -
 -------------------
 Temperature   298.150 Kelvin.  Pressure   1.00000 Atm.
 Atom     1 has atomic number  8 and mass  15.99491
 Atom     2 has atomic number  1 and mass   1.00783
 Atom     3 has atomic number  6 and mass  12.00000
 Atom     4 has atomic number  1 and mass   1.00783
 Atom     5 has atomic number  6 and mass  12.00000
 Atom     6 has atomic number  6 and mass  12.00000
 Atom     7 has atomic number  8 and mass  15.99491
 Atom     8 has atomic number  8 and mass  15.99491
 Atom     9 has atomic number  6 and mass  12.00000
 Atom    10 has atomic number  6 and mass  12.00000
 Atom    11 has atomic number  1 and mass   1.00783
 Atom    12 has atomic number  1 and mass   1.00783
 Atom    13 has atomic number  1 and mass   1.00783
 Atom    14 has atomic number  1 and mass   1.00783
 Atom    15 has atomic number  1 and mass   1.00783
 Molecular mass:   115.03952 amu.
 Principal axes and moments of inertia in atomic units:
                           1         2         3
     Eigenvalues --   601.675831599.649672009.35408
           X            0.99924  -0.03876   0.00281
           Y            0.03881   0.99903  -0.02098
           Z           -0.00199   0.02107   0.99978
 This molecule is an asymmetric top.
 Rotational symmetry number  1.
 Warning -- assumption of classical behavior for rotation
           may cause significant error
 Rotational temperatures (Kelvin)      0.14395     0.05415     0.04311
 Rotational constants (GHZ):           2.99952     1.12821     0.89817
    3 imaginary frequencies ignored.
 Zero-point vibrational energy     285663.9 (Joules/Mol)
                                   68.27530 (Kcal/Mol)
 Warning -- explicit consideration of  10 degrees of freedom as
           vibrations may cause significant error
 Vibrational temperatures:     88.52   131.12   216.73   306.00   322.15
          (Kelvin)            387.56   441.26   602.78   804.97   866.62
                              970.80  1068.13  1100.71  1112.61  1129.73
                             1287.81  1351.01  1569.05  1624.26  1680.42
                             1837.16  1872.26  1982.54  2034.26  2076.21
                             2140.25  2158.04  2656.38  3166.68  3265.52
                             4419.28  4504.48  4534.59  4545.05  5020.99
                             5438.97
 
 Zero-point correction=                           0.108804 (Hartree/Particle)
 Thermal correction to Energy=                    0.117115
 Thermal correction to Enthalpy=                  0.118060
 Thermal correction to Gibbs Free Energy=         0.074388
 Sum of electronic and zero-point Energies=           -420.091070
 Sum of electronic and thermal Energies=              -420.082758
 Sum of electronic and thermal Enthalpies=            -420.081814
 Sum of electronic and thermal Free Energies=         -420.125485
 
                     E (Thermal)             CV                S
                      KCal/Mol        Cal/Mol-Kelvin    Cal/Mol-Kelvin
 Total                   73.491             28.618             91.914
 Electronic               0.000              0.000              1.377
 Translational            0.889              2.981             40.136
 Rotational               0.889              2.981             29.049
 Vibrational             71.714             22.657             21.352
 Vibration     1          0.597              1.973              4.408
 Vibration     2          0.602              1.955              3.636
 Vibration     3          0.618              1.902              2.664
 Vibration     4          0.644              1.822              2.021
 Vibration     5          0.649              1.805              1.927
 Vibration     6          0.674              1.730              1.600
 Vibration     7          0.697              1.661              1.380
 Vibration     8          0.782              1.429              0.896
 Vibration     9          0.915              1.119              0.525
 Vibration    10          0.961              1.027              0.446
                       Q            Log10(Q)             Ln(Q)
 Total Bot       0.607949D-34        -34.216133        -78.785558
 Total V=0       0.676106D+16         15.830015         36.449956
 Vib (Bot)       0.125906D-47        -47.899955       -110.293722
 Vib (Bot)    1  0.335589D+01          0.525807          1.210716
 Vib (Bot)    2  0.225563D+01          0.353267          0.813428
 Vib (Bot)    3  0.134584D+01          0.128992          0.297015
 Vib (Bot)    4  0.932874D+00         -0.030177         -0.069485
 Vib (Bot)    5  0.881966D+00         -0.054548         -0.125601
 Vib (Bot)    6  0.717685D+00         -0.144066         -0.331724
 Vib (Bot)    7  0.617737D+00         -0.209196         -0.481692
 Vib (Bot)    8  0.419450D+00         -0.377320         -0.868812
 Vib (Bot)    9  0.277936D+00         -0.556055         -1.280363
 Vib (Bot)   10  0.247308D+00         -0.606763         -1.397123
 Vib (V=0)       0.140021D+03          2.146193          4.941792
 Vib (V=0)    1  0.389293D+01          0.590277          1.359162
 Vib (V=0)    2  0.281038D+01          0.448765          1.033319
 Vib (V=0)    3  0.193571D+01          0.286841          0.660476
 Vib (V=0)    4  0.155842D+01          0.192685          0.443673
 Vib (V=0)    5  0.151384D+01          0.180079          0.414647
 Vib (V=0)    6  0.137468D+01          0.138203          0.318224
 Vib (V=0)    7  0.129473D+01          0.112180          0.258304
 Vib (V=0)    8  0.115264D+01          0.061693          0.142054
 Vib (V=0)    9  0.107206D+01          0.030218          0.069579
 Vib (V=0)   10  0.105782D+01          0.024411          0.056208
 Electronic      0.200000D+01          0.301030          0.693147
 Translational   0.484981D+08          7.685724         17.697035
 Rotational      0.497815D+06          5.697068         13.117983
 ***** Axes restored to original set *****
 -------------------------------------------------------------------
 Center     Atomic                   Forces (Hartrees/Bohr)
 Number     Number              X              Y              Z
 -------------------------------------------------------------------
      1        8           0.004081646    0.010177697    0.001276268
      2        1          -0.000116042   -0.000098866    0.000066063
      3        6          -0.000095263    0.000047932    0.000014304
      4        1          -0.000012490   -0.000002576   -0.000004629
      5        6          -0.000083581    0.000018676    0.000097228
      6        6           0.000187007    0.000175831    0.000299466
      7        8          -0.000483891    0.000158814    0.000237647
      8        8           0.000182541    0.000071589   -0.000490590
      9        6          -0.001371825   -0.005425337   -0.002061086
     10        6          -0.001134627   -0.001958864    0.001000724
     11        1          -0.000159799   -0.001651223   -0.001276567
     12        1          -0.001000631   -0.001266819    0.000431954
     13        1          -0.000071860   -0.000126085    0.000072627
     14        1           0.000045481    0.000070591   -0.000061957
     15        1           0.000033332   -0.000191362    0.000398549
 -------------------------------------------------------------------
 Cartesian Forces:  Max     0.010177697 RMS     0.001953796

 GradGradGradGradGradGradGradGradGradGradGradGradGradGradGradGradGradGrad
 Berny optimization.
 Search for a local minimum.
 Step number   1 out of a maximum of    2
 All quantities printed in internal units (Hartrees-Bohrs-Radians)
 Second derivative matrix not updated -- analytic derivatives used.
 ITU=  0
     Eigenvalues ---   -0.03025  -0.00165  -0.00021   0.00091   0.00159
     Eigenvalues ---    0.00197   0.00263   0.00463   0.01462   0.02048
     Eigenvalues ---    0.02750   0.03192   0.03914   0.05363   0.06254
     Eigenvalues ---    0.07569   0.07953   0.09038   0.09347   0.09956
     Eigenvalues ---    0.10869   0.13243   0.15692   0.17087   0.19368
     Eigenvalues ---    0.28542   0.29415   0.42665   0.49117   0.57114
     Eigenvalues ---    0.70739   0.72538   0.78213   0.81956   0.86883
     Eigenvalues ---    0.89743   0.95466   1.74108   2.73787
 Eigenvalue     1 is  -3.03D-02 should be greater than     0.000000 Eigenvector:
                          Y1        Y11       Y12       X1        Z11
   1                    0.62108  -0.52273  -0.28677   0.23109  -0.20863
                          X12       Y9        Y2        Y10       Y13
   1                   -0.15325  -0.13921   0.13410  -0.12197  -0.10657
 Eigenvalue     2 is  -1.65D-03 should be greater than     0.000000 Eigenvector:
                          Z1        Z11       Y14       Y1        X2
   1                    0.39880  -0.38300   0.34543  -0.22566   0.21660
                          Y13       Y10       X1        Z2        Z9
   1                    0.21431   0.20166   0.19549   0.18844  -0.18343
 Eigenvalue     3 is  -2.07D-04 should be greater than     0.000000 Eigenvector:
                          X2        X1        Y2        Y4        X4
   1                    0.62419   0.45212   0.29785  -0.23397  -0.18734
                          Y3        Z1        X3        X14       Z2
   1                   -0.16010  -0.15924  -0.14624  -0.13271  -0.12424
 Quadratic step=3.779D+00 exceeds max=3.000D-01 adjusted using Lamda=-8.216D-03.
 Angle between NR and scaled steps=  66.03 degrees.
 Angle between quadratic step and forces=  34.25 degrees.
 Linear search not attempted -- first point.
 B after Tr=     0.003548    0.009157   -0.000537
         Rot=    0.999999   -0.000600    0.000090   -0.000873 Ang=  -0.12 deg.
 Variable       Old X    -DE/DX   Delta X   Delta X   Delta X     New X
                                 (Linear)    (Quad)   (Total)
    X1        5.01465   0.00408   0.00000   0.12911   0.12651   5.14116
    Y1        3.36109   0.01018   0.00000   0.20445   0.22315   3.58425
    Z1       -0.46384   0.00128   0.00000  -0.00908  -0.00441  -0.46825
    X2        3.44519  -0.00012   0.00000   0.03802   0.03415   3.47934
    Y2        4.21250  -0.00010   0.00000   0.03289   0.04816   4.26066
    Z2       -0.02728   0.00007   0.00000  -0.00316   0.00203  -0.02525
    X3       -6.03048  -0.00010   0.00000  -0.01148  -0.01147  -6.04195
    Y3        1.95485   0.00005   0.00000  -0.00028  -0.00259   1.95226
    Z3        0.76210   0.00001   0.00000  -0.00153  -0.00081   0.76129
    X4       -7.69344  -0.00001   0.00000  -0.00885  -0.01073  -7.70418
    Y4        2.98807  -0.00000   0.00000   0.00417  -0.00161   2.98646
    Z4        1.22814  -0.00000   0.00000  -0.00269  -0.00104   1.22711
    X5       -4.16185  -0.00008   0.00000  -0.01415  -0.01201  -4.17385
    Y5        0.78984   0.00002   0.00000  -0.00761  -0.00604   0.78380
    Z5        0.23762   0.00010   0.00000   0.00394   0.00359   0.24120
    X6       -1.95207   0.00019   0.00000  -0.01565  -0.01076  -1.96283
    Y6       -0.70290   0.00018   0.00000  -0.01591  -0.00968  -0.71258
    Z6       -0.42936   0.00030   0.00000   0.00493   0.00317  -0.42618
    X7       -2.04177  -0.00048   0.00000  -0.03432  -0.02564  -2.06741
    Y7       -2.78583   0.00016   0.00000  -0.01552  -0.00842  -2.79425
    Z7       -1.31054   0.00024   0.00000   0.00391  -0.00036  -1.31091
    X8        0.18194   0.00018   0.00000  -0.01277  -0.01018   0.17176
    Y8        0.56583   0.00007   0.00000  -0.02422  -0.01485   0.55098
    Z8        0.06874  -0.00049   0.00000  -0.00464  -0.00450   0.06424
    X9        2.48628  -0.00137   0.00000  -0.00031   0.00466   2.49094
    Y9       -0.72306  -0.00543   0.00000  -0.03841  -0.02425  -0.74731
    Z9       -0.54359  -0.00206   0.00000  -0.00839  -0.00939  -0.55297
   X10        3.34209  -0.00113   0.00000  -0.02273  -0.01510   3.32699
   Y10       -2.45644  -0.00196   0.00000  -0.04281  -0.02971  -2.48615
   Z10        1.54545   0.00100   0.00000   0.00702   0.00408   1.54953
   X11        3.90936  -0.00016   0.00000  -0.04214  -0.03969   3.86967
   Y11        0.82179  -0.00165   0.00000  -0.11855  -0.10169   0.72010
   Z11       -0.79045  -0.00128   0.00000  -0.00580  -0.00479  -0.79524
   X12        2.29348  -0.00100   0.00000  -0.02610  -0.01916   2.27432
   Y12       -1.65570  -0.00127   0.00000  -0.04395  -0.02798  -1.68368
   Z12       -2.37063   0.00043   0.00000   0.00269   0.00052  -2.37011
   X13        5.19992  -0.00007   0.00000  -0.01183  -0.00282   5.19710
   Y13       -3.22170  -0.00013   0.00000  -0.01976  -0.00284  -3.22454
   Z13        1.08251   0.00007   0.00000   0.00667   0.00318   1.08569
   X14        3.48243   0.00005   0.00000  -0.01194  -0.00647   3.47596
   Y14       -1.42219   0.00007   0.00000  -0.02262  -0.01138  -1.43357
   Z14        3.32311  -0.00006   0.00000  -0.00264  -0.00429   3.31883
   X15        2.02052   0.00003   0.00000  -0.01161  -0.00128   2.01924
   Y15       -4.02521  -0.00019   0.00000  -0.04082  -0.03029  -4.05550
   Z15        1.76646   0.00040   0.00000   0.01806   0.01301   1.77947
         Item               Value     Threshold  Converged?
 Maximum Force            0.010178     0.000450     NO 
 RMS     Force            0.001954     0.000300     NO 
 Maximum Displacement     0.223155     0.001800     NO 
 RMS     Displacement     0.044038     0.001200     NO 
 Predicted change in Energy=-4.200548D-03
 GradGradGradGradGradGradGradGradGradGradGradGradGradGradGradGradGradGrad


 ----------------------------------------------------------------------

 Electric dipole moment (input orientation):
 (Debye = 10**-18 statcoulomb cm , SI units = C m)
                  (au)            (Debye)         (10**-30 SI)
   Tot        0.813850D+00      0.206860D+01      0.690011D+01
   x         -0.422405D+00     -0.107365D+01     -0.358130D+01
   y          0.519764D+00      0.132111D+01      0.440674D+01
   z          0.462355D+00      0.117519D+01      0.392001D+01

 Dipole polarizability, Alpha (input orientation).
 (esu units = cm**3 , SI units = C**2 m**2 J**-1)
 Alpha(0;0):
               (au)            (10**-24 esu)      (10**-40 SI)
   iso        0.747908D+02      0.110829D+02      0.123313D+02
   aniso      0.385152D+02      0.570737D+01      0.635030D+01
   xx         0.927212D+02      0.137399D+02      0.152877D+02
   yx        -0.293194D+01     -0.434469D+00     -0.483412D+00
   yy         0.803688D+02      0.119094D+02      0.132510D+02
   zx        -0.426596D+01     -0.632150D+00     -0.703362D+00
   zy         0.387981D+01      0.574928D+00      0.639694D+00
   zz         0.512825D+02      0.759928D+01      0.845534D+01

 ----------------------------------------------------------------------

 Dipole orientation:
     8          4.62293167          3.84310424         -0.71966301
     1          3.72963897          3.86248816          0.88668787
     6         -4.18574822         -0.31507278          4.81135631
     1         -5.10274783         -0.19975544          6.59909196
     6         -3.15660787         -0.44709913          2.79950186
     6         -1.98815212         -0.65849598          0.32033720
     8         -2.96009135         -1.65584306         -1.46398037
     8          0.30597270          0.41321619          0.30598528
     6          1.62419054          0.33772589         -2.06102803
     6          3.05083047         -2.09804748         -2.42543327
     1          3.00122750          1.93923084         -1.95326239
     1          0.31910208          0.77375733         -3.59454370
     1          4.18747258         -1.97589603         -4.14141315
     1          4.30832791         -2.43844587         -0.82784543
     1          1.73939101         -3.67927690         -2.61584309

 Electric dipole moment (dipole orientation):
 (Debye = 10**-18 statcoulomb cm , SI units = C m)
                  (au)            (Debye)         (10**-30 SI)
   Tot        0.813850D+00      0.206860D+01      0.690011D+01
   x          0.000000D+00      0.000000D+00      0.000000D+00
   y          0.000000D+00      0.000000D+00      0.000000D+00
   z          0.813850D+00      0.206860D+01      0.690011D+01

 Dipole polarizability, Alpha (dipole orientation).
 (esu units = cm**3 , SI units = C**2 m**2 J**-1)
 Alpha(0;0):
               (au)            (10**-24 esu)      (10**-40 SI)
   iso        0.747908D+02      0.110829D+02      0.123313D+02
   aniso      0.385152D+02      0.570737D+01      0.635030D+01
   xx         0.771636D+02      0.114345D+02      0.127226D+02
   yx         0.126307D+02      0.187167D+01      0.208252D+01
   yy         0.656252D+02      0.972466D+01      0.108201D+02
   zx        -0.142213D+02     -0.210739D+01     -0.234478D+01
   zy         0.805008D+01      0.119290D+01      0.132728D+01
   zz         0.815836D+02      0.120894D+02      0.134513D+02

 ----------------------------------------------------------------------
 1\1\GINC-AJ\Freq\UM062X\6-311++G(d,p)\C5H7O3(2)\AAYUSH\23-Jun-2025\0\\
 # freq 6-311++g(d,p) m062x\\Title Card Required\\0,2\O,2.653641,1.7786
 14,-0.245456\H,1.823115,2.22916,-0.014436\C,-3.191192,1.034461,0.40328
 8\H,-4.071195,1.581217,0.649905\C,-2.202355,0.417964,0.125741\C,-1.032
 99,-0.371957,-0.227206\O,-1.080456,-1.474199,-0.69351\O,0.096281,0.299
 425,0.036375\C,1.315682,-0.382629,-0.287654\C,1.768559,-1.299893,0.817
 816\H,2.068742,0.434872,-0.41829\H,1.213659,-0.876157,-1.254482\H,2.75
 168,-1.704852,0.572842\H,1.842824,-0.752591,1.758515\H,1.069215,-2.130
 048,0.934771\\Version=ES64L-G16RevA.03\State=2-A\HF=-420.1998732\S2=0.
 756478\S2-1=0.\S2A=0.750026\RMSD=4.243e-09\RMSF=1.954e-03\ZeroPoint=0.
 1088036\Thermal=0.1171154\Dipole=-0.4224046,0.5197642,0.4623549\Dipole
 Deriv=-0.1350622,0.2196882,-0.0424339,0.218632,0.1392188,0.0053747,0.0
 038049,0.084268,-0.40344,0.1976129,0.0224706,0.0389304,0.174661,0.4211
 674,-0.0268921,0.0538004,0.0077786,0.315574,-0.232085,0.0264378,0.0108
 446,0.045245,-0.1683477,-0.0109978,0.0166227,-0.0111125,-0.1470294,0.2
 63747,-0.015903,-0.0068746,-0.0247847,0.2340031,0.0112426,-0.0107457,0
 .0117431,0.2127685,-0.5509567,0.2014092,0.0902746,0.2287157,-0.2503721
 ,-0.0682986,0.1088532,-0.0727237,-0.1247925,2.4938882,-0.0482279,-0.00
 6245,0.2572509,1.51073,0.5193829,0.1406391,0.5154114,0.6061539,-0.8207
 894,0.0741143,0.0263225,-0.127203,-1.0591101,-0.3271551,-0.075028,-0.3
 15578,-0.4845903,-2.0800889,-0.2536568,-0.1189525,-0.1389163,-0.621677
 7,-0.1129035,-0.0751938,-0.0962781,-0.3676382,1.3347264,0.4971457,-0.0
 074361,-0.05494,0.7942956,-0.0837317,-0.2282531,-0.2856957,0.3100937,-
 0.1747173,-0.1597282,0.009796,-0.0280309,-0.1919529,0.0789298,-0.01375
 45,0.0888356,-0.0394168,-0.3371862,-0.5448215,0.0377193,-0.5635876,-0.
 8445468,0.0834103,-0.0049999,-0.0103375,0.1099762,-0.0477631,-0.070072
 8,-0.0659014,0.0156919,-0.046768,-0.026559,0.0549625,0.0583532,-0.0470
 689,-0.0623856,0.0738176,0.0250985,0.0706504,0.0751708,0.0036001,0.026
 8406,-0.011182,0.0559189,0.0949258,0.0209339,-0.0003886,0.0016542,0.02
 01924,-0.0800274,-0.0226908,-0.0270535,-0.0459724,0.0561341,-0.043607,
 0.0092462,-0.0750386,-0.0120029,0.0346248,0.0251421,0.0635711,0.049463
 4\Polar=92.7211605,-2.9319411,80.3687805,-4.2659619,3.8798069,51.28247
 26\Quadrupole=1.3205527,-0.3310246,-0.9895281,-7.9507684,-1.468434,-0.
 2558104\PG=C01 [X(C5H7O3)]\NImag=3\\0.38749182,-0.19341074,0.11456499,
 -0.10507858,0.05484948,0.02799819,-0.37879142,0.20230676,0.10431561,0.
 37634666,0.18736840,-0.11982509,-0.05514808,-0.19653858,0.12485033,0.1
 0130669,-0.05784989,-0.03057898,-0.10269397,0.05773311,0.03057200,0.00
 007370,0.00016521,0.00004002,0.00002036,0.00028535,0.00002806,1.087956
 23,-0.00011927,-0.00012035,-0.00003324,0.00009651,-0.00021549,-0.00002
 148,-0.64339970,0.45792036,-0.00001518,-0.00006378,0.00004561,-0.00000
 260,-0.00007145,-0.00008497,-0.29001809,0.17957166,0.14154297,0.000019
 30,-0.00003774,-0.00001433,-0.00005903,-0.00005337,0.00000347,-0.29784
 125,0.16848533,0.07589987,0.28816537,0.00002592,0.00003201,0.00001195,
 -0.00000109,0.00008429,0.00000609,0.16824394,-0.13181940,-0.04634446,-
 0.16876138,0.12154858,-0.00000607,0.00001553,-0.00003017,0.00001545,0.
 00001100,0.00004118,0.07579347,-0.04633719,-0.05078818,-0.07606979,0.0
 4700523,0.03917969,0.00016264,0.00045370,0.00008164,0.00002998,0.00055
 144,0.00008453,-0.79121638,0.47178031,0.21277382,0.00811894,-0.0022701
 6,-0.00093987,1.04933032,-0.00002889,-0.00012346,-0.00004615,-0.000061
 43,-0.00025253,-0.00001838,0.47364531,-0.32924683,-0.13309374,-0.00217
 609,0.00647146,-0.00046017,-0.58794811,0.47211350,-0.00001823,0.000016
 52,-0.00000780,-0.00001162,-0.00002453,0.00000752,0.21353803,-0.133070
 11,-0.09392500,-0.00091013,-0.00044566,0.00751205,-0.26579395,0.183601
 88,0.14359051,0.00027680,-0.00223192,-0.00080886,-0.00161749,-0.004456
 15,-0.00026923,0.00732700,-0.00129549,-0.00059139,0.00067982,0.0035155
 3,0.00155449,-0.20698217,0.09347316,0.04167941,0.60503504,0.00073599,-
 0.00018873,-0.00009645,-0.00119248,-0.00106360,-0.00014228,-0.00052886
 ,0.00260639,-0.00013067,0.00257104,0.00375956,-0.00093494,0.08280319,-
 0.11430875,-0.01800901,-0.02344775,0.90184078,-0.00005642,-0.00121176,
 -0.00049800,-0.00040982,-0.00101914,-0.00001994,-0.00022421,-0.0001088
 2,0.00259267,0.00117067,-0.00092158,0.00546723,0.03719386,-0.01879251,
 -0.08200550,-0.01811814,0.29432500,0.33489108,0.00012098,0.00039781,0.
 00020900,0.00013343,0.00115035,0.00001575,-0.00336152,0.00183175,0.000
 81708,-0.00026358,-0.00126604,-0.00055588,0.00636140,0.03300358,0.0144
 5301,-0.10858384,-0.00292363,-0.00029735,0.11131014,-0.00074719,-0.000
 09449,0.00022980,0.00098666,0.00128223,-0.00008963,0.00049089,0.001314
 13,0.00045873,0.00024475,0.00068808,0.00071354,0.02658153,-0.04841031,
 -0.03025188,-0.01058885,-0.66483410,-0.24717616,0.03739952,0.77255764,
 -0.00026590,0.00013842,0.00026233,0.00044555,0.00065513,-0.00003873,0.
 00026329,0.00046562,0.00040588,0.00009194,0.00072845,-0.00070803,0.011
 62770,-0.03036544,0.00895313,-0.00422260,-0.24900977,-0.18588425,0.013
 25000,0.31230057,0.16625372,0.00154629,0.00703088,0.00172976,0.0002033
 3,0.00514377,0.00051522,-0.00344149,0.00272926,0.00120098,0.00131009,0
 .00028378,0.00007828,-0.06457714,-0.00686592,-0.00141350,-0.23521963,-
 0.07152394,-0.02927870,-0.00818411,-0.06325199,-0.02408834,0.53146804,
 -0.00260366,-0.00200594,-0.00031588,0.00160128,0.00096859,0.00030178,0
 .00216887,-0.00150856,-0.00083425,-0.00050232,-0.00069729,-0.00011132,
 0.01264810,0.01354546,0.00050326,-0.05317703,-0.14464081,-0.03430278,-
 0.06162023,-0.05672675,-0.03572402,0.03322109,0.31674858,-0.00023476,-
 0.00050002,0.00066066,0.00004515,0.00012474,-0.00082323,0.00094836,-0.
 00087491,0.00010204,-0.00024313,-0.00013984,-0.00044684,0.00658670,0.0
 0128567,0.01138807,-0.01958269,-0.03316991,-0.07963240,-0.02453303,-0.
 03556744,0.01564212,0.00567703,0.10341782,0.12897282,-0.02717449,-0.05
 421187,-0.00580533,0.00641170,-0.00172893,-0.00177244,0.00145554,-0.00
 088196,-0.00034106,-0.00036782,0.00033468,0.00016808,0.00202035,-0.002
 50906,-0.00169557,-0.07387978,-0.00464742,0.00050858,0.00612577,0.0155
 5559,0.00714385,-0.14099838,0.03358787,0.02140824,0.45327222,-0.025386
 25,-0.05180663,-0.00552232,0.00057727,-0.00365862,-0.00083230,-0.00064
 680,0.00077842,0.00039678,0.00015545,0.00011723,0.00013791,-0.00484002
 ,-0.00063667,-0.00226163,-0.00575044,0.02435279,0.00987858,-0.00389138
 ,-0.00960293,-0.00140848,0.06500883,-0.11797601,-0.02929859,0.04185647
 ,0.50871444,0.00620042,0.01229022,0.00231587,-0.00184973,0.00075559,0.
 00020766,-0.00052793,0.00053032,0.00005486,0.00010836,0.00008576,-0.00
 024456,-0.00198385,-0.00241941,0.00512782,0.00465033,0.01392000,0.0066
 3515,-0.00022431,-0.00343780,-0.00674749,0.02794808,-0.02891638,-0.083
 40055,0.02656988,0.03989143,0.57247870,0.00310792,0.00565160,0.0007093
 7,-0.00114184,0.00057586,0.00079466,-0.00033594,0.00023894,0.00012204,
 0.00009857,-0.00000522,-0.00009019,-0.00112315,-0.00060869,0.00114578,
 0.00544301,0.00755051,0.00100638,-0.00019367,-0.00260678,-0.00160484,-
 0.03062756,0.02972278,-0.02435110,-0.07395106,0.01748408,-0.02183591,0
 .57343206,0.00373461,0.00733765,0.00047283,-0.00080744,0.00025415,0.00
 074647,-0.00002110,0.00001907,0.00004530,-0.00001011,-0.00002668,0.000
 01814,0.00031815,0.00019582,-0.00060685,-0.00098769,0.00019606,0.00003
 371,0.00085172,-0.00027204,0.00158656,0.01409216,-0.01251733,0.0092109
 0,0.02580918,-0.12377691,0.06264165,0.01314933,0.54820042,-0.00041869,
 -0.00125951,0.00001462,0.00013262,0.00007353,0.00018240,0.00017916,-0.
 00018089,0.00004137,-0.00002683,0.00000680,0.00002981,0.00012508,0.000
 54936,-0.00080371,-0.00195125,-0.00398577,-0.00063173,-0.00017452,0.00
 204315,0.00072234,0.00572196,-0.00522903,0.01200100,-0.03168196,0.0668
 0679,-0.17014870,-0.02342455,0.04071443,0.54026998,0.01274256,0.032657
 29,0.00428457,-0.00117876,0.00740927,0.00228114,-0.00057704,0.00051517
 ,0.00016222,0.00011586,-0.00008163,0.00000868,-0.00189959,-0.00008397,
 -0.00035690,0.00325310,0.00453488,0.00506766,-0.00053786,-0.00113464,-
 0.00077254,-0.04212064,-0.01368138,0.00307655,-0.09636506,-0.07415303,
 0.00692106,0.00185079,0.00025663,-0.00082546,0.12516397,0.02923630,0.0
 4869532,0.00514139,-0.00674883,-0.00341629,0.00013527,-0.00040638,0.00
 024939,0.00004550,0.00009173,-0.00014433,-0.00005193,-0.00058292,0.000
 61551,0.00055727,0.00889522,-0.00209335,0.00056891,-0.00272823,0.00099
 084,0.00016644,0.00296393,0.01408558,-0.00233229,-0.05055401,-0.110636
 45,-0.00150309,-0.02065916,-0.02591527,0.00424324,0.04840517,0.0916872
 4,0.00091873,-0.00168836,-0.00092545,-0.00060403,-0.00284036,0.0013367
 0,0.00002863,-0.00000981,-0.00005391,-0.00000328,-0.00000762,-0.000013
 12,0.00028262,-0.00004506,0.00035519,-0.00024581,-0.00289827,-0.001335
 73,-0.00150836,0.00103870,0.00074700,0.00898136,0.00494587,-0.00082847
 ,0.01830199,0.01756366,-0.04262859,0.01212804,0.01830173,-0.00436575,-
 0.02131319,-0.01780210,0.04592966,0.00146547,0.00290474,0.00082173,-0.
 00065405,0.00050327,-0.00010124,-0.00008047,0.00003321,0.00002818,0.00
 004561,-0.00003013,0.00004237,-0.00030076,0.00020097,-0.00085809,0.004
 54942,0.00620585,0.00383946,-0.00199329,-0.00339462,-0.00096418,-0.012
 85585,0.02016319,0.03194529,-0.05000978,-0.01578117,-0.03998360,0.0007
 5868,-0.00575114,-0.00697535,-0.00306186,-0.01319073,-0.01618797,0.061
 57579,0.00168933,0.00346435,0.00100285,-0.00037223,0.00068625,-0.00014
 919,0.00003922,-0.00000400,0.00004901,-0.00000925,0.00000469,0.0000068
 3,0.00027558,-0.00015695,-0.00025971,-0.00299946,-0.00090637,-0.000685
 97,-0.00140575,0.00047026,0.00110692,0.00787020,-0.01036375,-0.0141791
 7,-0.00761455,-0.10219516,-0.11210746,0.00170197,0.01185289,0.02080098
 ,-0.00608470,-0.01462539,-0.01837108,0.00605847,0.11318502,-0.00185279
 ,-0.00330248,0.00005867,0.00051316,-0.00009762,-0.00013504,-0.00000453
 ,-0.00000039,0.00006869,-0.00001698,-0.00000232,-0.00000047,0.00026590
 ,0.00019357,-0.00027942,-0.00304239,-0.00348589,-0.00040378,-0.0016073
 0,0.00170286,0.00105557,0.00749579,-0.00539499,-0.00372252,-0.02766411
 ,-0.10876199,-0.26249696,-0.00366016,-0.01060761,-0.01790997,0.0019724
 8,0.00621396,0.00306798,0.02907296,0.12056408,0.28154038,0.00001842,0.
 00002835,-0.00007979,-0.00005897,-0.00007421,-0.00001251,-0.00005734,0
 .00003811,-0.00002574,0.00002211,-0.00001398,-0.00000576,-0.00011614,0
 .00000574,0.00026231,0.00134338,0.00024883,0.00033944,-0.00021942,-0.0
 0005715,-0.00048469,0.00003404,0.00086254,-0.00213649,-0.00920825,0.00
 155993,0.00391669,-0.26928791,0.09235479,0.05581960,0.00038096,0.00034
 019,-0.00004522,0.00012578,-0.00013291,-0.00042656,0.29024141,-0.00045
 619,-0.00014785,-0.00004532,0.00012610,0.00013140,-0.00011038,0.000064
 36,-0.00003362,-0.00003433,-0.00002090,0.00000029,0.00001323,0.0002771
 0,0.00011214,-0.00010487,-0.00170385,-0.00275268,-0.00042935,-0.000123
 30,0.00129892,0.00010352,0.00492787,-0.00207087,0.00429541,0.01631390,
 -0.00748679,-0.00805304,0.09056718,-0.08293170,-0.02170156,0.00013509,
 0.00052696,-0.00043834,-0.00018266,0.00060016,0.00019379,-0.10158892,0
 .08807800,0.00012976,0.00011732,0.00000257,-0.00007205,-0.00001166,-0.
 00003651,-0.00010235,0.00009536,0.00001126,0.00001799,0.00000509,-0.00
 001757,-0.00027846,-0.00026717,0.00033694,0.00132977,0.00196763,0.0002
 4937,-0.00011989,-0.00079840,-0.00047028,-0.00518476,0.00456685,-0.003
 59002,-0.02116202,0.00638683,0.00808463,0.05756072,-0.02300072,-0.0620
 5668,0.00011459,-0.00034528,0.00079544,0.00032770,-0.00114451,0.000200
 63,-0.06071845,0.02286905,0.06322538,-0.00025211,-0.00012717,-0.000172
 31,0.00012688,-0.00001421,-0.00006737,0.00000744,0.00000738,0.00002881
 ,-0.00002019,0.00000641,-0.00000789,0.00005179,0.00001218,0.00001032,-
 0.00095810,-0.00123063,-0.00063007,-0.00017794,0.00086074,0.00011175,0
 .00171031,-0.00098473,0.00051703,-0.00270114,-0.00474621,-0.00918845,-
 0.04823391,-0.01009463,-0.01497075,0.00031088,0.00065673,0.00067967,0.
 00027734,0.00142406,-0.00153862,0.00359056,0.01413062,0.02590203,0.047
 27869,-0.00001102,0.00019194,-0.00052488,0.00013542,-0.00011534,0.0002
 0480,-0.00003409,-0.00000442,-0.00000633,0.00000615,0.00000491,-0.0000
 0821,-0.00003492,0.00003349,0.00014932,0.00035941,0.00006623,-0.000236
 90,-0.00019320,0.00017329,-0.00024541,-0.00203970,0.00123097,-0.001135
 69,0.00166730,0.01123468,0.02200497,-0.00973319,-0.11965457,-0.1218740
 2,-0.00007147,0.00134400,-0.00035279,0.00179185,-0.00276213,0.00321545
 ,-0.00199840,-0.00646312,-0.00892916,0.00941249,0.12595190,0.00007510,
 -0.00010657,0.00057132,-0.00006531,0.00010270,-0.00030981,-0.00003282,
 0.00003531,0.00001896,-0.00000162,-0.00000632,-0.00000266,-0.00003050,
 0.00002293,-0.00002641,-0.00032106,-0.00052799,-0.00030749,0.00002782,
 0.00033186,0.00024068,0.00102867,-0.00038050,0.00267636,-0.00118977,-0
 .01299048,-0.02466028,-0.01569572,-0.11874003,-0.24747768,0.00006398,-
 0.00033290,0.00041170,-0.00133541,0.00393491,-0.00185875,-0.00055571,-
 0.00215843,-0.00477639,0.01815583,0.12813927,0.27091545,-0.00080787,-0
 .00157690,-0.00023249,0.00022923,-0.00012225,-0.00011276,0.00007117,-0
 .00005954,-0.00003895,-0.00002381,0.00001937,0.00001462,0.00013991,-0.
 00005878,-0.00003087,-0.00066655,0.00084441,-0.00011134,-0.00053650,-0
 .00033844,-0.00053098,0.00175269,-0.00140635,0.00087683,0.00537020,0.0
 0855327,-0.00072103,-0.15979601,-0.13289445,0.01847096,0.00192269,0.00
 428100,-0.00141319,0.00015797,-0.00043999,0.00049314,-0.01680864,-0.02
 246640,0.00225540,-0.00101050,0.00074339,-0.00012348,0.17000602,-0.000
 02734,0.00002628,0.00002403,-0.00010792,0.00028971,0.00008602,-0.00006
 621,0.00006493,0.00001204,0.00001673,-0.00002340,-0.00001765,-0.000012
 97,0.00004811,0.00020599,0.00039532,-0.00203343,0.00007876,-0.00048295
 ,0.00116523,-0.00049850,0.00040979,0.00192813,-0.00113667,-0.01297718,
 -0.01742139,0.00431724,-0.13302922,-0.20296157,0.01899250,0.00137730,-
 0.00136375,0.00260383,0.00046891,0.00075012,-0.00043038,0.00842709,0.0
 1113875,-0.00151124,-0.00931303,-0.01123184,0.00267623,0.14492167,0.21
 962411,-0.00068410,-0.00144511,0.00011056,0.00024160,-0.00024297,-0.00
 032024,0.00009091,-0.00006143,-0.00003225,-0.00000621,0.00001844,0.000
 02165,0.00000478,-0.00014538,-0.00022338,-0.00006058,0.00217832,0.0008
 8332,0.00024799,-0.00149788,-0.00043399,-0.00041182,-0.00252640,0.0010
 0097,0.01721165,0.02001381,-0.00457756,0.01719547,0.01918351,-0.049867
 29,-0.00068485,0.00529560,-0.00249265,0.00032814,-0.00056850,0.0008149
 9,0.00415286,0.00560063,-0.00195879,-0.01882998,-0.02040042,0.00458499
 ,-0.01879586,-0.02540220,0.05248966\\-0.00408165,-0.01017770,-0.001276
 27,0.00011604,0.00009887,-0.00006606,0.00009526,-0.00004793,-0.0000143
 0,0.00001249,0.00000258,0.00000463,0.00008358,-0.00001868,-0.00009723,
 -0.00018701,-0.00017583,-0.00029947,0.00048389,-0.00015881,-0.00023765
 ,-0.00018254,-0.00007159,0.00049059,0.00137182,0.00542534,0.00206109,0
 .00113463,0.00195886,-0.00100072,0.00015980,0.00165122,0.00127657,0.00
 100063,0.00126682,-0.00043195,0.00007186,0.00012609,-0.00007263,-0.000
 04548,-0.00007059,0.00006196,-0.00003333,0.00019136,-0.00039855\\\@


 ALL SCIENCE IS EITHER PHYSICS, OR STAMP COLLECTING.
   --ERNEST RUTHERFORD, 1871-1937.
 Job cpu time:       0 days  0 hours 56 minutes 52.4 seconds.
 Elapsed time:       0 days  0 hours  2 minutes 22.2 seconds.
 File lengths (MBytes):  RWF=    153 Int=      0 D2E=      0 Chk=      8 Scr=      1
 Normal termination of Gaussian 16 at Mon Jun 23 01:04:43 2025.
