 Entering Gaussian System, Link 0=g16
 Initial command:
 /opt/g16/l1.exe "/home/aayush/scratches/g16/Gau-22296.inp" -scrdir="/home/aayush/scratches/g16/"
 Entering Link 1 = /opt/g16/l1.exe PID=     22299.
  
 Copyright (c) 1988,1990,1992,1993,1995,1998,2003,2009,2016,
            Gaussian, Inc.  All Rights Reserved.
  
 This is part of the Gaussian(R) 16 program.  It is based on
 the Gaussian(R) 09 system (copyright 2009, Gaussian, Inc.),
 the Gaussian(R) 03 system (copyright 2003, Gaussian, Inc.),
 the Gaussian(R) 98 system (copyright 1998, Gaussian, Inc.),
 the Gaussian(R) 94 system (copyright 1995, Gaussian, Inc.),
 the Gaussian 92(TM) system (copyright 1992, Gaussian, Inc.),
 the Gaussian 90(TM) system (copyright 1990, Gaussian, Inc.),
 the Gaussian 88(TM) system (copyright 1988, Gaussian, Inc.),
 the Gaussian 86(TM) system (copyright 1986, Carnegie Mellon
 University), and the Gaussian 82(TM) system (copyright 1983,
 Carnegie Mellon University). Gaussian is a federally registered
 trademark of Gaussian, Inc.
  
 This software contains proprietary and confidential information,
 including trade secrets, belonging to Gaussian, Inc.
  
 This software is provided under written license and may be
 used, copied, transmitted, or stored only in accord with that
 written license.
  
 The following legend is applicable only to US Government
 contracts under FAR:
  
                    RESTRICTED RIGHTS LEGEND
  
 Use, reproduction and disclosure by the US Government is
 subject to restrictions as set forth in subparagraphs (a)
 and (c) of the Commercial Computer Software - Restricted
 Rights clause in FAR 52.227-19.
  
 Gaussian, Inc.
 340 Quinnipiac St., Bldg. 40, Wallingford CT 06492
  
  
 ---------------------------------------------------------------
 Warning -- This program may not be used in any manner that
 competes with the business of Gaussian, Inc. or will provide
 assistance to any competitor of Gaussian, Inc.  The licensee
 of this program is prohibited from giving any competitor of
 Gaussian, Inc. access to this program.  By using this program,
 the user acknowledges that Gaussian, Inc. is engaged in the
 business of creating and licensing software in the field of
 computational chemistry and represents and warrants to the
 licensee that it is not a competitor of Gaussian, Inc. and that
 it will not use this program in any manner prohibited above.
 ---------------------------------------------------------------
  

 Cite this work as:
 Gaussian 16, Revision A.03,
 M. J. Frisch, G. W. Trucks, H. B. Schlegel, G. E. Scuseria, 
 M. A. Robb, J. R. Cheeseman, G. Scalmani, V. Barone, 
 G. A. Petersson, H. Nakatsuji, X. Li, M. Caricato, A. V. Marenich, 
 J. Bloino, B. G. Janesko, R. Gomperts, B. Mennucci, H. P. Hratchian, 
 J. V. Ortiz, A. F. Izmaylov, J. L. Sonnenberg, D. Williams-Young, 
 F. Ding, F. Lipparini, F. Egidi, J. Goings, B. Peng, A. Petrone, 
 T. Henderson, D. Ranasinghe, V. G. Zakrzewski, J. Gao, N. Rega, 
 G. Zheng, W. Liang, M. Hada, M. Ehara, K. Toyota, R. Fukuda, 
 J. Hasegawa, M. Ishida, T. Nakajima, Y. Honda, O. Kitao, H. Nakai, 
 T. Vreven, K. Throssell, J. A. Montgomery, Jr., J. E. Peralta, 
 F. Ogliaro, M. J. Bearpark, J. J. Heyd, E. N. Brothers, K. N. Kudin, 
 V. N. Staroverov, T. A. Keith, R. Kobayashi, J. Normand, 
 K. Raghavachari, A. P. Rendell, J. C. Burant, S. S. Iyengar, 
 J. Tomasi, M. Cossi, J. M. Millam, M. Klene, C. Adamo, R. Cammi, 
 J. W. Ochterski, R. L. Martin, K. Morokuma, O. Farkas, 
 J. B. Foresman, and D. J. Fox, Gaussian, Inc., Wallingford CT, 2016.
 
 ******************************************
 Gaussian 16:  ES64L-G16RevA.03 25-Dec-2016
                23-Jun-2025 
 ******************************************
 %nprocshared=24
 Will use up to   24 processors via shared memory.
 %mem=12GB
 %chk=ethyl_propiolate_ts1.chk
 --------------------------
 # freq 6-311++g(d,p) m062x
 --------------------------
 1/10=4,30=1,38=1/1,3;
 2/12=2,17=6,18=5,40=1/2;
 3/5=4,6=6,7=1111,11=2,25=1,30=1,71=2,74=-55,140=1/1,2,3;
 4//1;
 5/5=2,38=5,98=1/2;
 8/6=4,10=90,11=11/1;
 11/6=1,8=1,9=11,15=111,16=1/1,2,10;
 10/6=1/2;
 6/7=2,8=2,9=2,10=2,28=1/1;
 7/8=1,10=1,25=1/1,2,3,16;
 1/10=4,30=1/3;
 99//99;
 -------------------
 Title Card Required
 -------------------
 Symbolic Z-matrix:
 Charge =  0 Multiplicity = 2
 O                     2.64638   1.76757  -0.24705 
 H                     1.82402   2.23155  -0.01598 
 C                    -3.19226   1.03073   0.4032 
 H                    -4.0727    1.5768    0.64991 
 C                    -2.20283   0.41526   0.12554 
 C                    -1.03334  -0.37382  -0.22782 
 O                    -1.07879  -1.47601  -0.69381 
 O                     0.0959    0.29859   0.03679 
 C                     1.31768  -0.37347  -0.28447 
 C                     1.77155  -1.29546   0.81617 
 H                     2.07385   0.47804  -0.39224 
 H                     1.23556  -0.84824  -1.2627 
 H                     2.75436  -1.70079   0.57152 
 H                     1.84234  -0.75274   1.75968 
 H                     1.06982  -2.12522   0.92664 
 

 GradGradGradGradGradGradGradGradGradGradGradGradGradGradGradGradGradGrad
 Berny optimization.
 Initialization pass.
 Trust Radius=3.00D-01 FncErr=1.00D-07 GrdErr=1.00D-07 EigMax=2.50D+02 EigMin=1.00D-04
 Number of steps in this run=      2 maximum allowed number of steps=      2.
 GradGradGradGradGradGradGradGradGradGradGradGradGradGradGradGradGradGrad

                          Input orientation:                          
 ---------------------------------------------------------------------
 Center     Atomic      Atomic             Coordinates (Angstroms)
 Number     Number       Type             X           Y           Z
 ---------------------------------------------------------------------
      1          8           0        2.646384    1.767565   -0.247045
      2          1           0        1.824024    2.231546   -0.015979
      3          6           0       -3.192259    1.030735    0.403197
      4          1           0       -4.072701    1.576804    0.649912
      5          6           0       -2.202831    0.415257    0.125536
      6          6           0       -1.033344   -0.373819   -0.227818
      7          8           0       -1.078786   -1.476010   -0.693810
      8          8           0        0.095898    0.298594    0.036791
      9          6           0        1.317678   -0.373474   -0.284468
     10          6           0        1.771554   -1.295463    0.816172
     11          1           0        2.073854    0.478039   -0.392242
     12          1           0        1.235555   -0.848240   -1.262703
     13          1           0        2.754361   -1.700794    0.571517
     14          1           0        1.842338   -0.752738    1.759675
     15          1           0        1.069817   -2.125224    0.926641
 ---------------------------------------------------------------------
                    Distance matrix (angstroms):
                    1          2          3          4          5
     1  O    0.000000
     2  H    0.972083   0.000000
     3  C    5.920767   5.175012   0.000000
     4  H    6.781373   5.970215   1.065006   0.000000
     5  C    5.048013   4.419784   1.197863   2.262869   0.000000
     6  C    4.257498   3.872642   2.651767   3.716589   1.454373
     7  O    4.959563   4.757282   3.457450   4.482052   2.347700
     8  O    2.956927   2.593358   3.388548   4.403062   2.303398
     9  C    2.520101   2.667321   4.773282   5.807998   3.631003
    10  C    3.358258   3.624227   5.497380   6.514052   4.381698
    11  H    1.418362   1.810739   5.354451   6.330364   4.308372
    12  H    3.140770   3.374270   5.090315   6.141377   3.917414
    13  H    3.565279   4.083378   6.546134   7.573478   5.408357
    14  H    3.320443   3.472641   5.510715   6.453373   4.516416
    15  H    4.360838   4.520930   5.329105   6.342482   4.219720
                    6          7          8          9         10
     6  C    0.000000
     7  O    1.197513   0.000000
     8  O    1.340651   2.250084   0.000000
     9  C    2.351704   2.669492   1.430954   0.000000
    10  C    3.131580   3.230647   2.440548   1.505814   0.000000
    11  H    3.226047   3.721342   2.031891   1.143893   2.167247
    12  H    2.538497   2.464530   2.074303   1.090454   2.192949
    13  H    4.092250   4.042845   3.369111   2.135075   1.090898
    14  H    3.516142   3.882741   2.669022   2.144208   1.090761
    15  H    2.970435   2.768363   2.759573   2.144026   1.092310
                   11         12         13         14         15
    11  H    0.000000
    12  H    1.794286   0.000000
    13  H    2.477748   2.529423   0.000000
    14  H    2.489811   3.084165   1.772658   0.000000
    15  H    3.086182   2.539958   1.773117   1.781699   0.000000
 Stoichiometry    C5H7O3(2)
 Framework group  C1[X(C5H7O3)]
 Deg. of freedom    39
 Full point group                 C1      NOp   1
 Largest Abelian subgroup         C1      NOp   1
 Largest concise Abelian subgroup C1      NOp   1
                         Standard orientation:                         
 ---------------------------------------------------------------------
 Center     Atomic      Atomic             Coordinates (Angstroms)
 Number     Number       Type             X           Y           Z
 ---------------------------------------------------------------------
      1          8           0        2.646384    1.767565   -0.247045
      2          1           0        1.824024    2.231546   -0.015979
      3          6           0       -3.192259    1.030735    0.403197
      4          1           0       -4.072701    1.576804    0.649912
      5          6           0       -2.202831    0.415257    0.125536
      6          6           0       -1.033344   -0.373819   -0.227818
      7          8           0       -1.078786   -1.476010   -0.693810
      8          8           0        0.095898    0.298594    0.036791
      9          6           0        1.317678   -0.373474   -0.284468
     10          6           0        1.771554   -1.295463    0.816172
     11          1           0        2.073854    0.478039   -0.392242
     12          1           0        1.235555   -0.848240   -1.262703
     13          1           0        2.754361   -1.700794    0.571517
     14          1           0        1.842338   -0.752738    1.759675
     15          1           0        1.069817   -2.125224    0.926641
 ---------------------------------------------------------------------
 Rotational constants (GHZ):           3.0165676           1.1290293           0.9000618
 Standard basis: 6-311++G(d,p) (5D, 7F)
 There are   233 symmetry adapted cartesian basis functions of A   symmetry.
 There are   225 symmetry adapted basis functions of A   symmetry.
   225 basis functions,   351 primitive gaussians,   233 cartesian basis functions
    31 alpha electrons       30 beta electrons
       nuclear repulsion energy       348.3477373524 Hartrees.
 NAtoms=   15 NActive=   15 NUniq=   15 SFac= 1.00D+00 NAtFMM=   60 NAOKFM=F Big=F
 Integral buffers will be    131072 words long.
 Raffenetti 2 integral format.
 Two-electron integral symmetry is turned on.
 One-electron integrals computed using PRISM.
 NBasis=   225 RedAO= T EigKep=  7.81D-06  NBF=   225
 NBsUse=   224 1.00D-06 EigRej=  8.18D-07 NBFU=   224
 ExpMin= 3.60D-02 ExpMax= 8.59D+03 ExpMxC= 1.30D+03 IAcc=3 IRadAn=         5 AccDes= 0.00D+00
 Harris functional with IExCor= 1009 and IRadAn=       5 diagonalized for initial guess.
 HarFok:  IExCor= 1009 AccDes= 0.00D+00 IRadAn=         5 IDoV= 1 UseB2=F ITyADJ=14
 ICtDFT=  3500011 ScaDFX=  1.000000  1.000000  1.000000  1.000000
 FoFCou: FMM=F IPFlag=           0 FMFlag=      100000 FMFlg1=           0
         NFxFlg=           0 DoJE=T BraDBF=F KetDBF=T FulRan=T
         wScrn=  0.000000 ICntrl=       500 IOpCl=  0 I1Cent=   200000004 NGrid=           0
         NMat0=    1 NMatS0=      1 NMatT0=    0 NMatD0=    1 NMtDS0=    0 NMtDT0=    0
 Petite list used in FoFCou.
 Initial guess <Sx>= 0.0000 <Sy>= 0.0000 <Sz>= 0.5000 <S**2>= 0.7500 S= 0.5000
 Requested convergence on RMS density matrix=1.00D-08 within 128 cycles.
 Requested convergence on MAX density matrix=1.00D-06.
 Requested convergence on             energy=1.00D-06.
 No special actions if energy rises.
 Restarting incremental Fock formation.
 SCF Done:  E(UM062X) =  -420.199249900     A.U. after   21 cycles
            NFock= 21  Conv=0.38D-08     -V/T= 2.0032
 <Sx>= 0.0000 <Sy>= 0.0000 <Sz>= 0.5000 <S**2>= 0.7574 S= 0.5037
 <L.S>=  0.00000000000    
 Annihilation of the first spin contaminant:
 S**2 before annihilation     0.7574,   after     0.7500
 DoSCS=F DFT=T ScalE2(SS,OS)=  1.000000  1.000000
 Range of M.O.s used for correlation:     1   224
 NBasis=   225 NAE=    31 NBE=    30 NFC=     0 NFV=     0
 NROrb=    224 NOA=    31 NOB=    30 NVA=   193 NVB=   194

 **** Warning!!: The largest alpha MO coefficient is  0.11388800D+03


 **** Warning!!: The largest beta MO coefficient is  0.10689886D+03

 Symmetrizing basis deriv contribution to polar:
 IMax=3 JMax=2 DiffMx= 0.00D+00
 G2DrvN: will do    16 centers at a time, making    1 passes.
 Calling FoFCou, ICntrl=  3107 FMM=F I1Cent=   0 AccDes= 0.00D+00.
 End of G2Drv F.D. properties file   721 does not exist.
 End of G2Drv F.D. properties file   722 does not exist.
 End of G2Drv F.D. properties file   788 does not exist.
          IDoAtm=111111111111111
          Differentiating once with respect to electric field.
                with respect to dipole field.
          Differentiating once with respect to nuclear coordinates.
 Keep R1 and R2 ints in memory in canonical form, NReq=671901989.
          There are    48 degrees of freedom in the 1st order CPHF.  IDoFFX=6 NUNeed=     3.
     45 vectors produced by pass  0 Test12= 2.46D-14 2.08D-09 XBig12= 9.06D+01 3.59D+00.
 AX will form    45 AO Fock derivatives at one time.
     45 vectors produced by pass  1 Test12= 2.46D-14 2.08D-09 XBig12= 1.90D+01 7.19D-01.
     45 vectors produced by pass  2 Test12= 2.46D-14 2.08D-09 XBig12= 6.31D-01 1.24D-01.
     45 vectors produced by pass  3 Test12= 2.46D-14 2.08D-09 XBig12= 9.31D-03 1.29D-02.
     45 vectors produced by pass  4 Test12= 2.46D-14 2.08D-09 XBig12= 8.46D-05 9.30D-04.
     45 vectors produced by pass  5 Test12= 2.46D-14 2.08D-09 XBig12= 6.37D-07 1.19D-04.
     41 vectors produced by pass  6 Test12= 2.46D-14 2.08D-09 XBig12= 4.43D-09 5.79D-06.
     18 vectors produced by pass  7 Test12= 2.46D-14 2.08D-09 XBig12= 2.63D-11 4.65D-07.
      3 vectors produced by pass  8 Test12= 2.46D-14 2.08D-09 XBig12= 1.79D-13 3.94D-08.
      2 vectors produced by pass  9 Test12= 2.46D-14 2.08D-09 XBig12= 1.66D-15 4.84D-09.
 InvSVY:  IOpt=1 It=  1 EMax= 3.55D-15
 Solved reduced A of dimension   334 with    48 vectors.
 Isotropic polarizability for W=    0.000000       76.23 Bohr**3.
 End of Minotr F.D. properties file   721 does not exist.
 End of Minotr F.D. properties file   722 does not exist.
 End of Minotr F.D. properties file   788 does not exist.

 **********************************************************************

            Population analysis using the SCF density.

 **********************************************************************

 Orbital symmetries:
 Alpha Orbitals:
       Occupied  (A) (A) (A) (A) (A) (A) (A) (A) (A) (A) (A) (A)
                 (A) (A) (A) (A) (A) (A) (A) (A) (A) (A) (A) (A)
                 (A) (A) (A) (A) (A) (A) (A)
       Virtual   (A) (A) (A) (A) (A) (A) (A) (A) (A) (A) (A) (A)
                 (A) (A) (A) (A) (A) (A) (A) (A) (A) (A) (A) (A)
                 (A) (A) (A) (A) (A) (A) (A) (A) (A) (A) (A) (A)
                 (A) (A) (A) (A) (A) (A) (A) (A) (A) (A) (A) (A)
                 (A) (A) (A) (A) (A) (A) (A) (A) (A) (A) (A) (A)
                 (A) (A) (A) (A) (A) (A) (A) (A) (A) (A) (A) (A)
                 (A) (A) (A) (A) (A) (A) (A) (A) (A) (A) (A) (A)
                 (A) (A) (A) (A) (A) (A) (A) (A) (A) (A) (A) (A)
                 (A) (A) (A) (A) (A) (A) (A) (A) (A) (A) (A) (A)
                 (A) (A) (A) (A) (A) (A) (A) (A) (A) (A) (A) (A)
                 (A) (A) (A) (A) (A) (A) (A) (A) (A) (A) (A) (A)
                 (A) (A) (A) (A) (A) (A) (A) (A) (A) (A) (A) (A)
                 (A) (A) (A) (A) (A) (A) (A) (A) (A) (A) (A) (A)
                 (A) (A) (A) (A) (A) (A) (A) (A) (A) (A) (A) (A)
                 (A) (A) (A) (A) (A) (A) (A) (A) (A) (A) (A) (A)
                 (A) (A) (A) (A) (A) (A) (A) (A) (A) (A) (A) (A)
                 (A)
 Beta  Orbitals:
       Occupied  (A) (A) (A) (A) (A) (A) (A) (A) (A) (A) (A) (A)
                 (A) (A) (A) (A) (A) (A) (A) (A) (A) (A) (A) (A)
                 (A) (A) (A) (A) (A) (A)
       Virtual   (A) (A) (A) (A) (A) (A) (A) (A) (A) (A) (A) (A)
                 (A) (A) (A) (A) (A) (A) (A) (A) (A) (A) (A) (A)
                 (A) (A) (A) (A) (A) (A) (A) (A) (A) (A) (A) (A)
                 (A) (A) (A) (A) (A) (A) (A) (A) (A) (A) (A) (A)
                 (A) (A) (A) (A) (A) (A) (A) (A) (A) (A) (A) (A)
                 (A) (A) (A) (A) (A) (A) (A) (A) (A) (A) (A) (A)
                 (A) (A) (A) (A) (A) (A) (A) (A) (A) (A) (A) (A)
                 (A) (A) (A) (A) (A) (A) (A) (A) (A) (A) (A) (A)
                 (A) (A) (A) (A) (A) (A) (A) (A) (A) (A) (A) (A)
                 (A) (A) (A) (A) (A) (A) (A) (A) (A) (A) (A) (A)
                 (A) (A) (A) (A) (A) (A) (A) (A) (A) (A) (A) (A)
                 (A) (A) (A) (A) (A) (A) (A) (A) (A) (A) (A) (A)
                 (A) (A) (A) (A) (A) (A) (A) (A) (A) (A) (A) (A)
                 (A) (A) (A) (A) (A) (A) (A) (A) (A) (A) (A) (A)
                 (A) (A) (A) (A) (A) (A) (A) (A) (A) (A) (A) (A)
                 (A) (A) (A) (A) (A) (A) (A) (A) (A) (A) (A) (A)
                 (A) (A)
 The electronic state is 2-A.
 Alpha  occ. eigenvalues --  -19.69710 -19.67185 -19.64335 -10.71777 -10.62209
 Alpha  occ. eigenvalues --  -10.57860 -10.57422 -10.54645  -1.26981  -1.17739
 Alpha  occ. eigenvalues --   -1.13710  -0.91539  -0.87956  -0.79167  -0.71791
 Alpha  occ. eigenvalues --   -0.65953  -0.62182  -0.60379  -0.58244  -0.57322
 Alpha  occ. eigenvalues --   -0.54432  -0.50515  -0.50040  -0.47508  -0.45559
 Alpha  occ. eigenvalues --   -0.42605  -0.40869  -0.40401  -0.38023  -0.37183
 Alpha  occ. eigenvalues --   -0.36896
 Alpha virt. eigenvalues --   -0.02472  -0.00544   0.00616   0.01390   0.01902
 Alpha virt. eigenvalues --    0.03280   0.03457   0.04665   0.06019   0.06051
 Alpha virt. eigenvalues --    0.06596   0.07405   0.08090   0.09478   0.10265
 Alpha virt. eigenvalues --    0.11365   0.11863   0.12455   0.12775   0.12921
 Alpha virt. eigenvalues --    0.13962   0.14331   0.14995   0.15904   0.16541
 Alpha virt. eigenvalues --    0.17662   0.18071   0.18486   0.19487   0.19944
 Alpha virt. eigenvalues --    0.21557   0.22219   0.23881   0.25020   0.25524
 Alpha virt. eigenvalues --    0.26597   0.27903   0.28206   0.28602   0.29883
 Alpha virt. eigenvalues --    0.30585   0.31160   0.32127   0.32693   0.33800
 Alpha virt. eigenvalues --    0.34484   0.35281   0.37073   0.37833   0.41024
 Alpha virt. eigenvalues --    0.42596   0.44457   0.46510   0.47884   0.50556
 Alpha virt. eigenvalues --    0.50881   0.53365   0.56159   0.57640   0.60094
 Alpha virt. eigenvalues --    0.60557   0.62996   0.64718   0.66824   0.67709
 Alpha virt. eigenvalues --    0.68070   0.69442   0.70896   0.72370   0.73894
 Alpha virt. eigenvalues --    0.74945   0.76372   0.79509   0.82167   0.84173
 Alpha virt. eigenvalues --    0.88966   0.92553   0.95762   1.00461   1.04113
 Alpha virt. eigenvalues --    1.07183   1.08539   1.10320   1.12133   1.13874
 Alpha virt. eigenvalues --    1.15476   1.16995   1.17542   1.18765   1.21289
 Alpha virt. eigenvalues --    1.22972   1.23691   1.29065   1.29698   1.34198
 Alpha virt. eigenvalues --    1.35752   1.36554   1.38068   1.41026   1.43074
 Alpha virt. eigenvalues --    1.47362   1.49257   1.50740   1.54735   1.58640
 Alpha virt. eigenvalues --    1.59723   1.60762   1.62101   1.63009   1.65190
 Alpha virt. eigenvalues --    1.66403   1.68102   1.70510   1.73961   1.75983
 Alpha virt. eigenvalues --    1.80229   1.83643   1.84438   1.87617   1.90124
 Alpha virt. eigenvalues --    1.95260   2.00135   2.01746   2.05257   2.08643
 Alpha virt. eigenvalues --    2.10161   2.13861   2.19130   2.27607   2.32471
 Alpha virt. eigenvalues --    2.41643   2.45112   2.50484   2.51068   2.53801
 Alpha virt. eigenvalues --    2.57583   2.59488   2.60550   2.62637   2.64499
 Alpha virt. eigenvalues --    2.66038   2.69334   2.71826   2.73513   2.78931
 Alpha virt. eigenvalues --    2.81946   2.82822   2.88479   2.92971   2.95858
 Alpha virt. eigenvalues --    2.97971   3.01377   3.03601   3.05715   3.09268
 Alpha virt. eigenvalues --    3.13282   3.16703   3.16990   3.20658   3.24025
 Alpha virt. eigenvalues --    3.30159   3.33013   3.37694   3.43150   3.44884
 Alpha virt. eigenvalues --    3.56272   3.65793   3.72678   3.81595   3.85349
 Alpha virt. eigenvalues --    3.86089   3.95790   4.06020   4.12471   4.17900
 Alpha virt. eigenvalues --    4.27335   5.06477   5.13025   5.16184   5.22336
 Alpha virt. eigenvalues --    5.30908   5.45522   5.57219   5.72412   5.93864
 Alpha virt. eigenvalues --   23.61952  23.91332  23.93698  24.04756  25.17108
 Alpha virt. eigenvalues --   49.95208  49.98506  50.10156
  Beta  occ. eigenvalues --  -19.69710 -19.65787 -19.64331 -10.71766 -10.61891
  Beta  occ. eigenvalues --  -10.57859 -10.57422 -10.54648  -1.26912  -1.17655
  Beta  occ. eigenvalues --   -1.07866  -0.91122  -0.87582  -0.78989  -0.70937
  Beta  occ. eigenvalues --   -0.65649  -0.61865  -0.59552  -0.57544  -0.55284
  Beta  occ. eigenvalues --   -0.51971  -0.50278  -0.47743  -0.46296  -0.42788
  Beta  occ. eigenvalues --   -0.40425  -0.39800  -0.39270  -0.38014  -0.37116
  Beta virt. eigenvalues --   -0.11175  -0.02443  -0.00401   0.00670   0.01636
  Beta virt. eigenvalues --    0.01997   0.03319   0.03489   0.04846   0.06097
  Beta virt. eigenvalues --    0.06114   0.06692   0.07526   0.08134   0.09652
  Beta virt. eigenvalues --    0.10381   0.11531   0.12097   0.12552   0.12996
  Beta virt. eigenvalues --    0.13053   0.14049   0.14455   0.15071   0.16144
  Beta virt. eigenvalues --    0.16645   0.17765   0.18125   0.18518   0.19784
  Beta virt. eigenvalues --    0.20023   0.21637   0.22403   0.23657   0.24568
  Beta virt. eigenvalues --    0.25608   0.26710   0.27982   0.28538   0.28751
  Beta virt. eigenvalues --    0.30075   0.30883   0.31387   0.32271   0.32812
  Beta virt. eigenvalues --    0.33951   0.34770   0.35392   0.37638   0.38237
  Beta virt. eigenvalues --    0.41841   0.42860   0.44579   0.46580   0.47993
  Beta virt. eigenvalues --    0.50606   0.50970   0.53581   0.56208   0.57875
  Beta virt. eigenvalues --    0.60477   0.60748   0.63109   0.64895   0.66966
  Beta virt. eigenvalues --    0.67783   0.68719   0.69910   0.71145   0.72482
  Beta virt. eigenvalues --    0.73946   0.75026   0.76534   0.79729   0.82386
  Beta virt. eigenvalues --    0.84210   0.89076   0.92707   0.95806   1.01038
  Beta virt. eigenvalues --    1.04718   1.07321   1.09419   1.10395   1.14039
  Beta virt. eigenvalues --    1.14153   1.15753   1.17070   1.18039   1.20096
  Beta virt. eigenvalues --    1.21732   1.23154   1.23911   1.29168   1.29841
  Beta virt. eigenvalues --    1.34338   1.35914   1.36628   1.38510   1.41318
  Beta virt. eigenvalues --    1.43163   1.47676   1.49753   1.51153   1.56495
  Beta virt. eigenvalues --    1.58796   1.59906   1.60841   1.62448   1.63037
  Beta virt. eigenvalues --    1.65372   1.66613   1.68629   1.70824   1.73880
  Beta virt. eigenvalues --    1.76371   1.80264   1.83649   1.84531   1.88384
  Beta virt. eigenvalues --    1.90215   1.95292   2.00163   2.01638   2.05352
  Beta virt. eigenvalues --    2.08977   2.10826   2.14228   2.19323   2.28135
  Beta virt. eigenvalues --    2.32647   2.41653   2.45441   2.50490   2.51178
  Beta virt. eigenvalues --    2.53852   2.57420   2.59841   2.60591   2.62930
  Beta virt. eigenvalues --    2.64588   2.66041   2.69389   2.71786   2.73188
  Beta virt. eigenvalues --    2.78603   2.82066   2.82492   2.89719   2.93309
  Beta virt. eigenvalues --    2.97900   2.99230   3.01570   3.03608   3.05744
  Beta virt. eigenvalues --    3.09375   3.13505   3.18460   3.20067   3.21968
  Beta virt. eigenvalues --    3.24299   3.30397   3.33047   3.37804   3.43255
  Beta virt. eigenvalues --    3.47258   3.56283   3.65866   3.72943   3.82917
  Beta virt. eigenvalues --    3.85883   3.86330   3.97527   4.06616   4.12754
  Beta virt. eigenvalues --    4.18022   4.27801   5.08369   5.13206   5.16261
  Beta virt. eigenvalues --    5.29105   5.31096   5.45853   5.59759   5.72506
  Beta virt. eigenvalues --    5.93894  23.61953  23.91515  23.93711  24.04763
  Beta virt. eigenvalues --   25.17109  49.94665  49.98517  50.10154
          Condensed to atoms (all electrons):
               1          2          3          4          5          6
     1  O    8.019365   0.275035  -0.001113  -0.000042   0.010569  -0.002001
     2  H    0.275035   0.480874  -0.000592  -0.000169  -0.000156  -0.001485
     3  C   -0.001113  -0.000592   5.787839   0.447464  -0.455027   0.937772
     4  H   -0.000042  -0.000169   0.447464   0.425908  -0.076199   0.024198
     5  C    0.010569  -0.000156  -0.455027  -0.076199   8.073125  -2.187885
     6  C   -0.002001  -0.001485   0.937772   0.024198  -2.187885   7.526340
     7  O   -0.000339  -0.000413  -0.095973  -0.003245   0.120870   0.358586
     8  O    0.019910   0.008452  -0.093848  -0.005133  -0.271866   0.049410
     9  C   -0.016985   0.008848   0.046071   0.000772  -0.228283   0.079728
    10  C   -0.011790   0.016037  -0.013955  -0.001312  -0.069377  -0.089773
    11  H    0.013166  -0.044675   0.005178   0.000464  -0.013766   0.014228
    12  H    0.001548  -0.000873  -0.001956  -0.000077   0.009725   0.000693
    13  H   -0.001790   0.001927  -0.000661  -0.000033  -0.000411  -0.003896
    14  H    0.006010  -0.001634   0.000396   0.000028   0.005914   0.005253
    15  H   -0.003942   0.000286   0.004161   0.000034  -0.029739   0.008913
               7          8          9         10         11         12
     1  O   -0.000339   0.019910  -0.016985  -0.011790   0.013166   0.001548
     2  H   -0.000413   0.008452   0.008848   0.016037  -0.044675  -0.000873
     3  C   -0.095973  -0.093848   0.046071  -0.013955   0.005178  -0.001956
     4  H   -0.003245  -0.005133   0.000772  -0.001312   0.000464  -0.000077
     5  C    0.120870  -0.271866  -0.228283  -0.069377  -0.013766   0.009725
     6  C    0.358586   0.049410   0.079728  -0.089773   0.014228   0.000693
     7  O    7.982157  -0.145138   0.074304  -0.086745   0.010211  -0.014028
     8  O   -0.145138   8.386749   0.157351   0.014442  -0.088515  -0.021153
     9  C    0.074304   0.157351   5.964087  -0.320485   0.378151   0.429463
    10  C   -0.086745   0.014442  -0.320485   5.896818  -0.120295  -0.071249
    11  H    0.010211  -0.088515   0.378151  -0.120295   0.619764  -0.049469
    12  H   -0.014028  -0.021153   0.429463  -0.071249  -0.049469   0.500174
    13  H   -0.002237   0.020405  -0.054630   0.421957  -0.016640  -0.005464
    14  H    0.000544  -0.007904  -0.030550   0.398366  -0.013195   0.003892
    15  H    0.003273  -0.019855  -0.008411   0.379696   0.017154  -0.005356
              13         14         15
     1  O   -0.001790   0.006010  -0.003942
     2  H    0.001927  -0.001634   0.000286
     3  C   -0.000661   0.000396   0.004161
     4  H   -0.000033   0.000028   0.000034
     5  C   -0.000411   0.005914  -0.029739
     6  C   -0.003896   0.005253   0.008913
     7  O   -0.002237   0.000544   0.003273
     8  O    0.020405  -0.007904  -0.019855
     9  C   -0.054630  -0.030550  -0.008411
    10  C    0.421957   0.398366   0.379696
    11  H   -0.016640  -0.013195   0.017154
    12  H   -0.005464   0.003892  -0.005356
    13  H    0.522800  -0.029796  -0.030648
    14  H   -0.029796   0.530096  -0.047863
    15  H   -0.030648  -0.047863   0.542273
          Atomic-Atomic Spin Densities.
               1          2          3          4          5          6
     1  O    0.879157   0.007538  -0.000369  -0.000010   0.004605   0.001425
     2  H    0.007538  -0.030139   0.000085  -0.000000  -0.000877  -0.000488
     3  C   -0.000369   0.000085   0.002266   0.000524  -0.008962   0.005638
     4  H   -0.000010  -0.000000   0.000524  -0.000003  -0.001644   0.001090
     5  C    0.004605  -0.000877  -0.008962  -0.001644   0.021976  -0.002632
     6  C    0.001425  -0.000488   0.005638   0.001090  -0.002632  -0.006714
     7  O    0.000126   0.000004  -0.000958  -0.000009   0.006189  -0.003748
     8  O    0.031822  -0.003193   0.001218  -0.000048  -0.007740   0.011053
     9  C   -0.111982   0.008823   0.000474  -0.000010  -0.012463  -0.004464
    10  C    0.026269  -0.002749  -0.001223  -0.000000   0.012835  -0.002214
    11  H   -0.069727   0.004487   0.001369   0.000093  -0.006789   0.005015
    12  H    0.004275  -0.000218   0.000214  -0.000008  -0.001083   0.000531
    13  H    0.000109   0.000048  -0.000001   0.000001   0.000015   0.000177
    14  H    0.003191  -0.000432  -0.000053  -0.000014   0.000249   0.000307
    15  H   -0.001689   0.000177  -0.000087   0.000012   0.000213  -0.001365
               7          8          9         10         11         12
     1  O    0.000126   0.031822  -0.111982   0.026269  -0.069727   0.004275
     2  H    0.000004  -0.003193   0.008823  -0.002749   0.004487  -0.000218
     3  C   -0.000958   0.001218   0.000474  -0.001223   0.001369   0.000214
     4  H   -0.000009  -0.000048  -0.000010  -0.000000   0.000093  -0.000008
     5  C    0.006189  -0.007740  -0.012463   0.012835  -0.006789  -0.001083
     6  C   -0.003748   0.011053  -0.004464  -0.002214   0.005015   0.000531
     7  O    0.000966   0.001256   0.000295  -0.001211  -0.001983   0.000488
     8  O    0.001256   0.020816  -0.056280   0.011054  -0.022073   0.003534
     9  C    0.000295  -0.056280   0.369087  -0.014432   0.110739  -0.018903
    10  C   -0.001211   0.011054  -0.014432  -0.019477  -0.029171   0.008758
    11  H   -0.001983  -0.022073   0.110739  -0.029171  -0.026955   0.002437
    12  H    0.000488   0.003534  -0.018903   0.008758   0.002437  -0.000034
    13  H   -0.000022   0.000075  -0.001514   0.002742  -0.001653  -0.000045
    14  H    0.000279   0.002159  -0.012268   0.008101  -0.001018   0.000277
    15  H   -0.000671  -0.000317   0.005355  -0.001683  -0.000060  -0.001309
              13         14         15
     1  O    0.000109   0.003191  -0.001689
     2  H    0.000048  -0.000432   0.000177
     3  C   -0.000001  -0.000053  -0.000087
     4  H    0.000001  -0.000014   0.000012
     5  C    0.000015   0.000249   0.000213
     6  C    0.000177   0.000307  -0.001365
     7  O   -0.000022   0.000279  -0.000671
     8  O    0.000075   0.002159  -0.000317
     9  C   -0.001514  -0.012268   0.005355
    10  C    0.002742   0.008101  -0.001683
    11  H   -0.001653  -0.001018  -0.000060
    12  H   -0.000045   0.000277  -0.001309
    13  H    0.000648  -0.000276  -0.000333
    14  H   -0.000276   0.004372  -0.002707
    15  H   -0.000333  -0.002707   0.018901
 Mulliken charges and spin densities:
               1          2
     1  O   -0.307604   0.774740
     2  H    0.258539  -0.016936
     3  C   -0.565757   0.000135
     4  H    0.187342  -0.000026
     5  C    1.112506   0.003892
     6  C   -0.720082   0.003611
     7  O   -0.201826   0.001001
     8  O   -0.003306  -0.006666
     9  C   -0.479431   0.262456
    10  C   -0.342333  -0.002403
    11  H    0.288238  -0.035291
    12  H    0.224130  -0.001086
    13  H    0.179119  -0.000031
    14  H    0.180442   0.002167
    15  H    0.190022   0.014436
 Sum of Mulliken charges =  -0.00000   1.00000
 Mulliken charges and spin densities with hydrogens summed into heavy atoms:
               1          2
     1  O   -0.049065   0.757804
     3  C   -0.378415   0.000109
     5  C    1.112506   0.003892
     6  C   -0.720082   0.003611
     7  O   -0.201826   0.001001
     8  O   -0.003306  -0.006666
     9  C    0.032937   0.226079
    10  C    0.207250   0.014170
 APT charges:
               1
     1  O   -0.118517
     2  H    0.305952
     3  C   -0.179506
     4  H    0.237102
     5  C   -0.312472
     6  C    1.548761
     7  O   -0.790390
     8  O   -1.040688
     9  C    0.900752
    10  C   -0.157616
    11  H   -0.425723
    12  H   -0.054249
    13  H    0.025387
    14  H    0.026625
    15  H    0.034582
 Sum of APT charges =  -0.00000
 APT charges with hydrogens summed into heavy atoms:
               1
     1  O    0.187435
     3  C    0.057596
     5  C   -0.312472
     6  C    1.548761
     7  O   -0.790390
     8  O   -1.040688
     9  C    0.420780
    10  C   -0.071022
 Electronic spatial extent (au):  <R**2>=           1264.1852
 Charge=             -0.0000 electrons
 Dipole moment (field-independent basis, Debye):
    X=             -1.2369    Y=              1.1068    Z=              1.2029  Tot=              2.0498
 Quadrupole moment (field-independent basis, Debye-Ang):
   XX=            -45.5578   YY=            -47.7462   ZZ=            -48.2524
   XY=            -11.2870   XZ=             -1.9008   YZ=             -0.3403
 Traceless Quadrupole moment (field-independent basis, Debye-Ang):
   XX=              1.6276   YY=             -0.5607   ZZ=             -1.0669
   XY=            -11.2870   XZ=             -1.9008   YZ=             -0.3403
 Octapole moment (field-independent basis, Debye-Ang**2):
  XXX=            -51.2881  YYY=             16.9538  ZZZ=             -3.2378  XYY=              1.5113
  XXY=              7.8474  XXZ=             12.3494  XZZ=              4.6443  YZZ=             -0.3265
  YYZ=              6.2233  XYZ=              1.0407
 Hexadecapole moment (field-independent basis, Debye-Ang**3):
 XXXX=          -1021.4405 YYYY=           -371.6336 ZZZZ=           -123.9150 XXXY=           -141.1881
 XXXZ=            -37.0512 YYYX=              8.7210 YYYZ=              1.9373 ZZZX=              3.3407
 ZZZY=              3.7152 XXYY=           -239.9066 XXZZ=           -217.0772 YYZZ=            -91.9174
 XXYZ=             22.9505 YYXZ=             -5.0961 ZZXY=              0.2911
 N-N= 3.483477373524D+02 E-N=-1.680976447849D+03  KE= 4.188589671600D+02
  Exact polarizability:  94.182  -0.977  83.174  -4.471   3.569  51.336
 Approx polarizability:  95.482  -7.376  93.319  -6.759  10.193  60.600
                          Isotropic Fermi Contact Couplings
        Atom                 a.u.       MegaHertz       Gauss      10(-4) cm-1
     1  O(17)              0.12604     -76.40302     -27.26250     -25.48530
     2  H(1)              -0.01329     -59.41596     -21.20109     -19.81903
     3  C(13)              0.00014       0.15595       0.05565       0.05202
     4  H(1)              -0.00000      -0.01562      -0.00557      -0.00521
     5  C(13)             -0.00032      -0.36067      -0.12869      -0.12031
     6  C(13)              0.00828       9.31047       3.32221       3.10564
     7  O(17)              0.00140      -0.84791      -0.30256      -0.28283
     8  O(17)              0.00740      -4.48471      -1.60026      -1.49594
     9  C(13)              0.12775     143.61943      51.24698      47.90629
    10  C(13)             -0.00283      -3.18703      -1.13721      -1.06308
    11  H(1)              -0.00984     -43.97031     -15.68970     -14.66692
    12  H(1)               0.00099       4.42220       1.57795       1.47509
    13  H(1)               0.00046       2.04352       0.72918       0.68165
    14  H(1)               0.00130       5.83226       2.08109       1.94543
    15  H(1)               0.00763      34.12218      12.17564      11.38193
 --------------------------------------------------------
       Center         ----  Spin Dipole Couplings  ----
                      3XX-RR        3YY-RR        3ZZ-RR
 --------------------------------------------------------
     1   Atom       -0.422884      1.959705     -1.536821
     2   Atom        0.088819      0.006273     -0.095092
     3   Atom        0.001369     -0.000898     -0.000470
     4   Atom        0.000986     -0.000474     -0.000512
     5   Atom        0.002868     -0.001060     -0.001808
     6   Atom        0.011294     -0.004864     -0.006430
     7   Atom        0.001638     -0.004326      0.002688
     8   Atom       -0.001606      0.008703     -0.007097
     9   Atom        0.013886      0.173441     -0.187327
    10   Atom       -0.011587      0.013380     -0.001794
    11   Atom       -0.018117      0.118126     -0.100009
    12   Atom       -0.015917     -0.001617      0.017534
    13   Atom       -0.001284      0.005330     -0.004045
    14   Atom       -0.005319     -0.000656      0.005976
    15   Atom       -0.001950      0.003703     -0.001753
 --------------------------------------------------------
                        XY            XZ            YZ
 --------------------------------------------------------
     1   Atom        2.007686      0.145110      0.249047
     2   Atom       -0.073780     -0.049094      0.033648
     3   Atom       -0.000052     -0.000078      0.000576
     4   Atom       -0.000170     -0.000217      0.000050
     5   Atom       -0.000095     -0.000505     -0.000130
     6   Atom        0.005190      0.003250      0.001663
     7   Atom        0.004124     -0.005440     -0.000687
     8   Atom        0.033243     -0.002742     -0.016206
     9   Atom        0.273801     -0.014947     -0.020198
    10   Atom        0.004669     -0.001727     -0.016497
    11   Atom        0.128387     -0.000644      0.007859
    12   Atom        0.010694      0.001279      0.016613
    13   Atom       -0.004096      0.002360     -0.004129
    14   Atom        0.001554      0.000364     -0.005634
    15   Atom        0.003202     -0.000009     -0.003926
 --------------------------------------------------------


 ---------------------------------------------------------------------------------
              Anisotropic Spin Dipole Couplings in Principal Axis System
 ---------------------------------------------------------------------------------

       Atom             a.u.   MegaHertz   Gauss  10(-4) cm-1        Axes

              Baa    -1.5668   113.371    40.454    37.817  0.8528 -0.4693 -0.2291
     1 O(17)  Bbb    -1.5540   112.445    40.123    37.508  0.1697 -0.1658  0.9715
              Bcc     3.1208  -225.817   -80.577   -75.324  0.4939  0.8673  0.0618
 
              Baa    -0.1099   -58.637   -20.923   -19.559  0.1770 -0.1684  0.9697
     2 H(1)   Bbb    -0.0368   -19.620    -7.001    -6.544  0.5211  0.8519  0.0528
              Bcc     0.1467    78.257    27.924    26.104  0.8349 -0.4959 -0.2386
 
              Baa    -0.0013    -0.174    -0.062    -0.058 -0.0008  0.8210 -0.5709
     3 C(13)  Bbb    -0.0001    -0.010    -0.004    -0.003  0.0649  0.5697  0.8193
              Bcc     0.0014     0.184     0.066     0.062  0.9979 -0.0364 -0.0537
 
              Baa    -0.0006    -0.295    -0.105    -0.099  0.0864 -0.3890  0.9172
     4 H(1)   Bbb    -0.0005    -0.258    -0.092    -0.086  0.1607  0.9140  0.3725
              Bcc     0.0010     0.554     0.198     0.185  0.9832 -0.1152 -0.1415
 
              Baa    -0.0019    -0.253    -0.090    -0.084  0.1074  0.1671  0.9801
     5 C(13)  Bbb    -0.0010    -0.139    -0.050    -0.046  0.0023  0.9857 -0.1684
              Bcc     0.0029     0.392     0.140     0.131  0.9942 -0.0204 -0.1055
 
              Baa    -0.0075    -1.004    -0.358    -0.335  0.0042 -0.5416  0.8406
     6 C(13)  Bbb    -0.0060    -0.802    -0.286    -0.268 -0.3341  0.7915  0.5117
              Bcc     0.0135     1.807     0.645     0.603  0.9425  0.2830  0.1776
 
              Baa    -0.0069     0.501     0.179     0.167 -0.5451  0.7997 -0.2515
     7 O(17)  Bbb    -0.0016     0.115     0.041     0.038  0.4757  0.5420  0.6928
              Bcc     0.0085    -0.615    -0.220    -0.205  0.6903  0.2581 -0.6759
 
              Baa    -0.0332     2.400     0.856     0.801  0.6674 -0.6619 -0.3412
     8 O(17)  Bbb    -0.0082     0.593     0.212     0.198  0.4440 -0.0142  0.8959
              Bcc     0.0414    -2.994    -1.068    -0.999  0.5978  0.7495 -0.2844
 
              Baa    -0.1915   -25.702    -9.171    -8.573  0.7974 -0.6011 -0.0529
     9 C(13)  Bbb    -0.1884   -25.286    -9.023    -8.434  0.0689  0.0035  0.9976
              Bcc     0.3800    50.987    18.194    17.008  0.5995  0.7991 -0.0442
 
              Baa    -0.0134    -1.793    -0.640    -0.598  0.6801 -0.4672 -0.5649
    10 C(13)  Bbb    -0.0112    -1.509    -0.538    -0.503  0.7209  0.2862  0.6312
              Bcc     0.0246     3.302     1.178     1.101  0.1333  0.8365 -0.5315
 
              Baa    -0.1029   -54.921   -19.597   -18.320  0.4344 -0.2827  0.8552
    11 H(1)   Bbb    -0.0925   -49.380   -17.620   -16.471  0.7390 -0.4310 -0.5179
              Bcc     0.1955   104.300    37.217    34.791  0.5150  0.8569  0.0217
 
              Baa    -0.0230   -12.290    -4.385    -4.100  0.8036 -0.5592  0.2037
    12 H(1)   Bbb    -0.0051    -2.715    -0.969    -0.906  0.5756  0.6432 -0.5049
              Bcc     0.0281    15.005     5.354     5.005  0.1513  0.5230  0.8388
 
              Baa    -0.0058    -3.100    -1.106    -1.034 -0.2601  0.2501  0.9326
    13 H(1)   Bbb    -0.0032    -1.708    -0.609    -0.570  0.8723  0.4750  0.1159
              Bcc     0.0090     4.808     1.716     1.604 -0.4140  0.8437 -0.3417
 
              Baa    -0.0063    -3.361    -1.199    -1.121  0.8451 -0.4759 -0.2435
    14 H(1)   Bbb    -0.0029    -1.554    -0.555    -0.518  0.5336  0.7240  0.4371
              Bcc     0.0092     4.915     1.754     1.639 -0.0317 -0.4993  0.8658
 
              Baa    -0.0048    -2.579    -0.920    -0.860 -0.5646  0.5102  0.6487
    15 H(1)   Bbb    -0.0019    -1.002    -0.358    -0.334  0.7615  0.0189  0.6479
              Bcc     0.0067     3.581     1.278     1.194  0.3183  0.8598 -0.3992
 

 ---------------------------------------------------------------------------------

 Calling FoFJK, ICntrl=    100127 FMM=F ISym2X=0 I1Cent= 0 IOpClX= 1 NMat=1 NMatS=1 NMatT=0.
 Full mass-weighted force constant matrix:
 Low frequencies --- -613.3861  -47.3179  -30.3778   -9.3188   -0.0006    0.0008
 Low frequencies ---    0.0009   19.5942   43.5861
 ******    2 imaginary frequencies (negative Signs) ****** 
 Diagonal vibrational polarizability:
       54.5580871     188.7992678     130.6394258
 Harmonic frequencies (cm**-1), IR intensities (KM/Mole), Raman scattering
 activities (A**4/AMU), depolarization ratios for plane and unpolarized
 incident light, reduced masses (AMU), force constants (mDyne/A),
 and normal coordinates:
                      1                      2                      3
                      A                      A                      A
 Frequencies --   -613.3860               -28.2435                38.7795
 Red. masses --      1.9067                 5.1254                 5.6610
 Frc consts  --      0.4227                 0.0024                 0.0050
 IR Inten    --    583.3021                 2.5933                 4.6604
  Atom  AN      X      Y      Z        X      Y      Z        X      Y      Z
     1   8     0.08   0.19   0.02     0.19  -0.13   0.24     0.38  -0.05  -0.15
     2   1    -0.05  -0.01   0.03     0.28  -0.04   0.36     0.54   0.25  -0.19
     3   6    -0.00   0.00   0.00    -0.06  -0.02  -0.02    -0.15  -0.20   0.09
     4   1    -0.00  -0.00  -0.00    -0.06  -0.02  -0.04    -0.20  -0.30   0.14
     5   6    -0.00   0.00   0.00    -0.05  -0.02  -0.00    -0.09  -0.08   0.03
     6   6     0.01   0.00   0.01    -0.05  -0.03   0.02    -0.04   0.03  -0.03
     7   8    -0.01   0.00   0.00    -0.05  -0.10   0.19     0.02   0.07  -0.15
     8   8    -0.00   0.00  -0.01    -0.05   0.05  -0.17    -0.08   0.04   0.07
     9   6    -0.02  -0.12  -0.05    -0.06   0.05  -0.19    -0.05   0.08   0.10
    10   6    -0.03  -0.05   0.02     0.07   0.21  -0.11    -0.09   0.06   0.10
    11   1    -0.15  -0.70  -0.36    -0.09   0.05  -0.35    -0.05   0.05   0.12
    12   1    -0.30  -0.40   0.11    -0.13  -0.08  -0.12    -0.02   0.08   0.10
    13   1    -0.02  -0.04   0.02     0.07   0.23  -0.14    -0.07   0.07   0.13
    14   1     0.02   0.02  -0.02     0.13   0.34  -0.19    -0.14   0.03   0.12
    15   1     0.01  -0.06   0.12     0.12   0.19   0.06    -0.08   0.05   0.05
                      4                      5                      6
                      A                      A                      A
 Frequencies --     74.5788                92.9607               155.1000
 Red. masses --      3.2972                 3.8642                 3.2728
 Frc consts  --      0.0108                 0.0197                 0.0464
 IR Inten    --      3.5009                 2.4386                10.8257
  Atom  AN      X      Y      Z        X      Y      Z        X      Y      Z
     1   8     0.09   0.09  -0.02     0.03  -0.00  -0.04     0.07   0.11   0.01
     2   1     0.11   0.17  -0.09     0.12   0.02   0.24     0.12   0.27  -0.14
     3   6    -0.07  -0.01  -0.15    -0.05   0.08  -0.16     0.18   0.20   0.07
     4   1    -0.10  -0.01  -0.27    -0.05   0.14  -0.29     0.35   0.43   0.15
     5   6    -0.02  -0.00  -0.01    -0.05   0.01  -0.00    -0.03  -0.10  -0.03
     6   6     0.01   0.00   0.10    -0.06  -0.03   0.06    -0.06  -0.14  -0.04
     7   8     0.05  -0.04   0.19    -0.08   0.03  -0.07    -0.01  -0.14  -0.05
     8   8    -0.01   0.05   0.06    -0.05  -0.12   0.25    -0.11  -0.08  -0.01
     9   6    -0.00   0.08   0.01    -0.05  -0.01   0.02    -0.03   0.07   0.04
    10   6    -0.08  -0.19  -0.18     0.27   0.04  -0.07    -0.02   0.03   0.00
    11   1     0.03   0.08   0.23    -0.14   0.03  -0.15    -0.09   0.15   0.17
    12   1     0.04   0.30  -0.10    -0.21  -0.04   0.05     0.11   0.14  -0.01
    13   1    -0.06  -0.12  -0.22     0.25   0.12  -0.29     0.11   0.27   0.13
    14   1    -0.15  -0.43  -0.04     0.43   0.05  -0.09    -0.31  -0.07   0.08
    15   1    -0.08  -0.22  -0.44     0.36  -0.02   0.09     0.13  -0.13  -0.22
                      7                      8                      9
                      A                      A                      A
 Frequencies --    208.3464               221.8353               269.4590
 Red. masses --      1.1064                 1.2578                 4.1167
 Frc consts  --      0.0283                 0.0365                 0.1761
 IR Inten    --    103.3885                 1.6788                 4.0146
  Atom  AN      X      Y      Z        X      Y      Z        X      Y      Z
     1   8    -0.01   0.01  -0.07     0.00   0.01  -0.01    -0.02  -0.05   0.00
     2   1     0.17  -0.17   0.94     0.03   0.01   0.10    -0.07  -0.08  -0.12
     3   6     0.01   0.00   0.00     0.04   0.04  -0.00     0.02   0.06  -0.17
     4   1     0.02   0.01   0.01     0.09   0.11  -0.01     0.02   0.24  -0.58
     5   6     0.00  -0.01  -0.01    -0.01  -0.06   0.00     0.03  -0.17   0.37
     6   6     0.01  -0.00  -0.00     0.00  -0.03   0.00     0.03  -0.04   0.12
     7   8     0.02  -0.01   0.00     0.07  -0.02  -0.02     0.07   0.06  -0.11
     8   8    -0.00   0.01  -0.00    -0.03   0.02   0.03     0.02   0.04  -0.02
     9   6    -0.00   0.01   0.00    -0.03   0.03   0.00    -0.03  -0.00  -0.09
    10   6    -0.03  -0.00   0.01    -0.05   0.01  -0.01    -0.10   0.07  -0.00
    11   1    -0.01   0.01  -0.03    -0.02   0.03  -0.00     0.00  -0.06  -0.16
    12   1     0.00   0.00   0.00    -0.05   0.04  -0.00    -0.10  -0.06  -0.05
    13   1     0.01   0.06   0.08    -0.31  -0.45  -0.27     0.00   0.19   0.23
    14   1    -0.15  -0.04   0.04     0.47   0.09  -0.10    -0.38   0.11  -0.01
    15   1     0.01  -0.05  -0.08    -0.37   0.31   0.31    -0.02  -0.02  -0.12
                     10                     11                     12
                      A                      A                      A
 Frequencies --    299.9175               418.9068               558.3428
 Red. masses --      3.6927                 3.6754                 4.2653
 Frc consts  --      0.1957                 0.3800                 0.7834
 IR Inten    --     10.1392                 3.4069                 2.3838
  Atom  AN      X      Y      Z        X      Y      Z        X      Y      Z
     1   8    -0.05  -0.13   0.00     0.00   0.02   0.01    -0.02  -0.03  -0.00
     2   1    -0.13  -0.15  -0.23     0.02   0.07  -0.07     0.07   0.13   0.01
     3   6     0.04   0.03   0.07     0.07  -0.09  -0.01     0.17  -0.13  -0.06
     4   1     0.12   0.08   0.24     0.00  -0.23   0.04     0.01  -0.34  -0.16
     5   6    -0.08  -0.04  -0.17     0.16   0.11  -0.08     0.32   0.11   0.07
     6   6     0.03   0.05  -0.00     0.05  -0.05   0.04     0.02  -0.04  -0.05
     7   8     0.27   0.02   0.02    -0.07  -0.03   0.01    -0.05  -0.05  -0.02
     8   8    -0.05   0.10   0.14     0.05  -0.14   0.21    -0.13   0.12  -0.04
     9   6    -0.15  -0.04  -0.04     0.00   0.05  -0.15    -0.23   0.05   0.14
    10   6    -0.02   0.02  -0.05    -0.18   0.14  -0.06    -0.01  -0.01   0.00
    11   1    -0.11  -0.20  -0.29    -0.03   0.10  -0.19    -0.20  -0.08  -0.01
    12   1    -0.43  -0.16   0.05    -0.13   0.07  -0.16    -0.29  -0.05   0.19
    13   1     0.12   0.33   0.03    -0.17  -0.03   0.31    -0.00   0.23  -0.39
    14   1    -0.25   0.01  -0.02    -0.42   0.31  -0.14     0.22  -0.19   0.09
    15   1     0.21  -0.18  -0.14    -0.35   0.27  -0.11     0.21  -0.19   0.03
                     13                     14                     15
                      A                      A                      A
 Frequencies --    603.6347               708.7511               742.9094
 Red. masses --      6.2027                 1.3879                 1.3172
 Frc consts  --      1.3316                 0.4108                 0.4283
 IR Inten    --      8.1613                84.1749                34.4361
  Atom  AN      X      Y      Z        X      Y      Z        X      Y      Z
     1   8    -0.01   0.03   0.00    -0.05  -0.00   0.01     0.00   0.00  -0.00
     2   1     0.21   0.38   0.05     0.43   0.80   0.08    -0.01  -0.02  -0.00
     3   6    -0.20   0.11   0.05     0.04  -0.02  -0.01    -0.09  -0.12  -0.03
     4   1    -0.43  -0.20  -0.07     0.09   0.04   0.01     0.55   0.79   0.21
     5   6     0.05   0.38   0.16    -0.00  -0.06  -0.03     0.04   0.06   0.02
     6   6    -0.08  -0.08  -0.03     0.03   0.05   0.02    -0.00  -0.00  -0.00
     7   8     0.32  -0.10  -0.05    -0.01   0.06   0.02     0.01  -0.00  -0.00
     8   8    -0.08  -0.19  -0.07     0.02  -0.02  -0.02    -0.00  -0.00  -0.00
     9   6    -0.05  -0.08  -0.04    -0.05  -0.09  -0.04    -0.01   0.00   0.00
    10   6    -0.00  -0.01   0.01    -0.00  -0.03   0.01    -0.00   0.00  -0.00
    11   1    -0.17   0.13   0.19    -0.16   0.11   0.15    -0.00  -0.00   0.00
    12   1     0.17   0.03  -0.11     0.02   0.02  -0.10    -0.00  -0.00   0.00
    13   1     0.01  -0.00   0.04     0.03   0.02   0.06    -0.00   0.01  -0.01
    14   1     0.00   0.12  -0.06    -0.01   0.13  -0.08     0.00  -0.00   0.00
    15   1     0.02  -0.01   0.14     0.06  -0.06   0.17     0.00  -0.00  -0.00
                     16                     17                     18
                      A                      A                      A
 Frequencies --    773.4268               781.7773               785.8071
 Red. masses --      1.5392                 1.7709                 2.0102
 Frc consts  --      0.5425                 0.6377                 0.7314
 IR Inten    --     13.1863                68.0128                33.0466
  Atom  AN      X      Y      Z        X      Y      Z        X      Y      Z
     1   8    -0.00  -0.00   0.00     0.03   0.03  -0.00    -0.03  -0.03   0.00
     2   1     0.03   0.05  -0.00    -0.16  -0.32   0.01     0.18   0.34   0.00
     3   6    -0.01   0.05  -0.15     0.02   0.00  -0.05    -0.03   0.02  -0.02
     4   1     0.07  -0.29   0.92     0.05  -0.16   0.42    -0.01  -0.08   0.28
     5   6     0.00  -0.03   0.10     0.01   0.01  -0.06    -0.01   0.05  -0.06
     6   6    -0.00   0.04  -0.10    -0.01  -0.07   0.20     0.01  -0.11   0.21
     7   8     0.00  -0.01   0.03    -0.00   0.04  -0.05    -0.00   0.00  -0.07
     8   8     0.00  -0.01   0.02    -0.01   0.02  -0.04     0.01   0.04  -0.06
     9   6     0.01   0.01   0.00    -0.06  -0.04  -0.02     0.06   0.06   0.03
    10   6     0.00   0.00  -0.00    -0.02  -0.02  -0.01     0.02   0.02   0.02
    11   1    -0.01   0.02  -0.07     0.08  -0.08   0.42    -0.07   0.06  -0.44
    12   1    -0.03  -0.04   0.03     0.15   0.29  -0.20    -0.11  -0.32   0.22
    13   1    -0.01  -0.03   0.01     0.05   0.16  -0.02    -0.06  -0.16  -0.04
    14   1    -0.02  -0.03   0.02     0.04   0.26  -0.16     0.00  -0.32   0.21
    15   1    -0.03   0.02  -0.05     0.16  -0.12   0.33    -0.14   0.09  -0.34
                     19                     20                     21
                      A                      A                      A
 Frequencies --    896.4413               942.3112              1087.4541
 Red. masses --      3.0030                 2.8430                 3.4841
 Frc consts  --      1.4218                 1.4874                 2.4275
 IR Inten    --     20.9535                28.8427               155.0777
  Atom  AN      X      Y      Z        X      Y      Z        X      Y      Z
     1   8    -0.02  -0.02  -0.00    -0.03  -0.02  -0.00    -0.03  -0.04  -0.00
     2   1     0.12   0.22   0.03     0.13   0.24   0.04     0.10   0.18   0.04
     3   6    -0.04   0.02   0.01    -0.10   0.06   0.03     0.05  -0.03  -0.02
     4   1    -0.05   0.01   0.00    -0.11   0.07   0.03     0.05  -0.05  -0.02
     5   6     0.01   0.06   0.02    -0.07   0.03   0.02     0.04   0.01   0.00
     6   6    -0.00  -0.10  -0.05     0.13  -0.08  -0.05    -0.11   0.02   0.01
     7   8    -0.05  -0.14  -0.06    -0.05  -0.12  -0.04     0.02   0.02   0.01
     8   8    -0.03   0.24   0.09     0.19   0.05   0.04    -0.19   0.07   0.05
     9   6     0.08   0.01  -0.10    -0.01  -0.02   0.09     0.28  -0.16   0.07
    10   6     0.09  -0.13   0.03    -0.14   0.08  -0.07    -0.06   0.11  -0.13
    11   1     0.13  -0.08  -0.02     0.17  -0.27   0.18     0.23  -0.37   0.29
    12   1    -0.19   0.26  -0.20    -0.01  -0.06   0.11     0.39  -0.32   0.15
    13   1     0.17  -0.25   0.55    -0.09   0.46  -0.50    -0.04   0.18  -0.21
    14   1    -0.16   0.27  -0.17     0.17   0.09  -0.09    -0.00   0.19  -0.19
    15   1    -0.01  -0.01   0.31     0.21  -0.18   0.11    -0.03   0.09  -0.17
                     22                     23                     24
                      A                      A                      A
 Frequencies --   1127.0767              1158.1508              1267.1606
 Red. masses --      2.1020                 2.0422                 1.5340
 Frc consts  --      1.5732                 1.6139                 1.4512
 IR Inten    --     94.8904               164.1499               580.9302
  Atom  AN      X      Y      Z        X      Y      Z        X      Y      Z
     1   8     0.01   0.02   0.00    -0.02  -0.03  -0.00     0.02   0.03   0.00
     2   1    -0.03  -0.06   0.01     0.04   0.09  -0.00    -0.06  -0.10  -0.03
     3   6    -0.01   0.01   0.00     0.00  -0.00  -0.00     0.02  -0.01  -0.01
     4   1    -0.01   0.01   0.00     0.01   0.00   0.00     0.02  -0.03  -0.01
     5   6    -0.01  -0.00   0.00    -0.00  -0.01  -0.00     0.01   0.00   0.00
     6   6     0.02  -0.01   0.00     0.01   0.01   0.01    -0.14  -0.01  -0.00
     7   8    -0.01  -0.01  -0.01     0.01   0.04   0.01     0.01  -0.02  -0.01
     8   8     0.06   0.02  -0.04    -0.02  -0.09  -0.06     0.08   0.06   0.02
     9   6    -0.12  -0.10   0.18     0.07   0.17   0.13     0.01  -0.07   0.05
    10   6     0.11   0.05  -0.15    -0.04  -0.10  -0.09    -0.05  -0.04  -0.02
    11   1    -0.12  -0.02   0.25     0.11  -0.16  -0.38    -0.36   0.59  -0.47
    12   1    -0.12  -0.05   0.17    -0.25   0.03   0.23     0.35  -0.14   0.04
    13   1     0.06  -0.30   0.34     0.15   0.17   0.22     0.01   0.12  -0.06
    14   1    -0.39   0.22  -0.21    -0.05   0.40  -0.37    -0.01   0.15  -0.14
    15   1    -0.33   0.40  -0.23     0.05  -0.09   0.44     0.04  -0.10   0.15
                     25                     26                     27
                      A                      A                      A
 Frequencies --   1279.5297              1371.7167              1387.3933
 Red. masses --      3.5018                 1.1933                 1.1270
 Frc consts  --      3.3779                 1.3229                 1.2782
 IR Inten    --    490.4249                 8.2170               112.2981
  Atom  AN      X      Y      Z        X      Y      Z        X      Y      Z
     1   8     0.02   0.01   0.00    -0.00  -0.00   0.00    -0.01  -0.02   0.00
     2   1    -0.12  -0.20  -0.03     0.02   0.05  -0.01     0.03   0.07  -0.01
     3   6    -0.07   0.04   0.02     0.01  -0.00  -0.00    -0.00   0.00   0.00
     4   1    -0.06   0.07   0.03     0.01  -0.01  -0.00    -0.00   0.00   0.00
     5   6    -0.02   0.00   0.00     0.00  -0.00   0.00    -0.00  -0.00  -0.00
     6   6     0.39   0.01  -0.00    -0.04   0.00   0.00     0.01  -0.01  -0.01
     7   8    -0.05  -0.00  -0.00     0.01   0.00  -0.00    -0.00   0.01   0.00
     8   8    -0.19   0.00  -0.00     0.01  -0.01  -0.02    -0.00   0.00   0.01
     9   6     0.05  -0.10   0.04     0.04  -0.07   0.07    -0.06   0.01   0.03
    10   6    -0.02  -0.02  -0.01     0.01   0.01   0.06     0.01   0.05  -0.05
    11   1    -0.55   0.50  -0.30    -0.00  -0.15  -0.35    -0.01  -0.40  -0.35
    12   1     0.18   0.09  -0.07    -0.27   0.71  -0.29     0.64   0.23  -0.14
    13   1     0.00   0.06  -0.05    -0.04   0.09  -0.25    -0.03  -0.19   0.22
    14   1    -0.01   0.12  -0.10    -0.02   0.12  -0.01    -0.02  -0.26   0.13
    15   1    -0.02  -0.02   0.00    -0.10   0.07  -0.27     0.13  -0.03   0.19
                     28                     29                     30
                      A                      A                      A
 Frequencies --   1421.1097              1485.9825              1495.5844
 Red. masses --      1.3223                 1.0400                 1.0462
 Frc consts  --      1.5733                 1.3531                 1.3788
 IR Inten    --     57.3288                13.0754                 7.5432
  Atom  AN      X      Y      Z        X      Y      Z        X      Y      Z
     1   8    -0.01  -0.01  -0.00    -0.00  -0.00  -0.00     0.00   0.00   0.00
     2   1     0.02   0.03   0.00     0.00   0.00  -0.00    -0.00  -0.00  -0.00
     3   6    -0.00   0.00   0.00     0.00  -0.00  -0.00     0.00  -0.00  -0.00
     4   1    -0.00   0.00   0.00     0.00  -0.00  -0.00     0.00  -0.00  -0.00
     5   6    -0.00   0.00  -0.00     0.00   0.00   0.00     0.00   0.00  -0.00
     6   6     0.02  -0.00  -0.00    -0.00   0.00   0.00    -0.00   0.00   0.00
     7   8    -0.00   0.00   0.00    -0.00  -0.00  -0.00     0.00  -0.00  -0.00
     8   8    -0.00   0.00   0.02     0.01   0.00   0.00    -0.00   0.00  -0.00
     9   6    -0.06   0.06  -0.03    -0.02  -0.02  -0.00     0.02  -0.02  -0.01
    10   6     0.06  -0.09   0.08    -0.03  -0.03  -0.02     0.03  -0.01  -0.04
    11   1     0.06  -0.23  -0.06    -0.04  -0.04   0.01     0.01   0.05   0.00
    12   1     0.49  -0.16   0.02     0.05   0.04  -0.04    -0.11   0.05  -0.04
    13   1     0.07   0.24  -0.39     0.28   0.44   0.43     0.12   0.34  -0.20
    14   1    -0.22   0.36  -0.16     0.59  -0.12   0.00    -0.33  -0.40   0.23
    15   1    -0.34   0.21  -0.23    -0.31   0.20  -0.19    -0.29   0.33   0.53
                     31                     32                     33
                      A                      A                      A
 Frequencies --   1777.9273              1848.7257              2269.6438
 Red. masses --      1.1833                 9.7865                 5.7450
 Frc consts  --      2.2038                19.7070                17.4363
 IR Inten    --   1107.8644               209.1377                77.5958
  Atom  AN      X      Y      Z        X      Y      Z        X      Y      Z
     1   8     0.01   0.03   0.01     0.00   0.01   0.00    -0.00  -0.00  -0.00
     2   1     0.04   0.05   0.00     0.01   0.01  -0.00     0.00   0.00   0.00
     3   6    -0.01   0.00   0.00     0.05  -0.03  -0.02    -0.31   0.19   0.09
     4   1    -0.01   0.01   0.00     0.09  -0.03  -0.02    -0.62   0.39   0.17
     5   6     0.00  -0.00  -0.00    -0.04   0.01   0.00     0.44  -0.27  -0.12
     6   6     0.02  -0.04  -0.01     0.01   0.65   0.27    -0.07   0.06   0.03
     7   8    -0.00   0.03   0.01    -0.01  -0.43  -0.18     0.00  -0.01  -0.00
     8   8    -0.03  -0.00   0.00    -0.03  -0.04  -0.02    -0.01  -0.00  -0.00
     9   6    -0.07  -0.07   0.01    -0.05  -0.00   0.01     0.00   0.00   0.00
    10   6    -0.00  -0.00  -0.00     0.01  -0.00  -0.01    -0.00   0.00  -0.00
    11   1     0.89   0.32  -0.27     0.46   0.10  -0.17    -0.01  -0.01   0.00
    12   1     0.01  -0.07  -0.00     0.11  -0.02   0.02    -0.00   0.00  -0.00
    13   1     0.01   0.00   0.03    -0.01  -0.05   0.04     0.00  -0.00  -0.00
    14   1     0.02   0.00  -0.01    -0.02   0.01  -0.01    -0.00  -0.00   0.00
    15   1    -0.01  -0.02  -0.01     0.03  -0.03   0.03     0.00  -0.00   0.00
                     34                     35                     36
                      A                      A                      A
 Frequencies --   3070.1093              3130.7413              3149.2299
 Red. masses --      1.0348                 1.0862                 1.1021
 Frc consts  --      5.7469                 6.2724                 6.4402
 IR Inten    --      4.3553                 5.0930                 3.4024
  Atom  AN      X      Y      Z        X      Y      Z        X      Y      Z
     1   8    -0.00  -0.00  -0.00     0.00   0.00   0.00     0.00   0.00   0.00
     2   1     0.00   0.00   0.00     0.00   0.00  -0.00     0.00   0.00  -0.00
     3   6    -0.00   0.00   0.00    -0.00   0.00   0.00     0.00  -0.00  -0.00
     4   1     0.00  -0.00  -0.00    -0.00  -0.00   0.00    -0.00   0.00   0.00
     5   6     0.00  -0.00  -0.00     0.00   0.00  -0.00    -0.00   0.00   0.00
     6   6    -0.00  -0.00  -0.00    -0.00  -0.00  -0.00     0.00  -0.00  -0.00
     7   8    -0.00   0.00  -0.00    -0.00   0.00   0.00    -0.00   0.00  -0.00
     8   8     0.00   0.00   0.00     0.00  -0.00   0.00     0.00  -0.00   0.00
     9   6    -0.00   0.00  -0.00    -0.01  -0.03  -0.07    -0.00  -0.01  -0.01
    10   6     0.01  -0.03   0.03     0.00   0.02   0.02    -0.08  -0.04  -0.01
    11   1     0.01   0.01  -0.00     0.00   0.00  -0.01     0.01   0.01  -0.00
    12   1     0.00  -0.00   0.00     0.08   0.42   0.85     0.01   0.07   0.14
    13   1    -0.47   0.19   0.12     0.08  -0.03  -0.02     0.50  -0.22  -0.13
    14   1    -0.03  -0.28  -0.47    -0.02  -0.13  -0.22     0.01   0.17   0.31
    15   1     0.42   0.49  -0.06    -0.10  -0.11   0.02     0.46   0.56  -0.07
                     37                     38                     39
                      A                      A                      A
 Frequencies --   3160.7789              3489.5251              3787.9398
 Red. masses --      1.1021                 1.1712                 1.0669
 Frc consts  --      6.4872                 8.4028                 9.0194
 IR Inten    --      9.7573                62.4082                38.5797
  Atom  AN      X      Y      Z        X      Y      Z        X      Y      Z
     1   8     0.00   0.00   0.00     0.00  -0.00  -0.00    -0.05   0.03   0.01
     2   1    -0.00   0.00  -0.00    -0.00  -0.00   0.00     0.84  -0.48  -0.24
     3   6    -0.00   0.00   0.00    -0.10   0.06   0.03    -0.00   0.00   0.00
     4   1    -0.00  -0.00  -0.00     0.82  -0.51  -0.23     0.00  -0.00  -0.00
     5   6     0.00  -0.00  -0.00     0.03  -0.02  -0.01    -0.00   0.00  -0.00
     6   6    -0.00  -0.00  -0.00    -0.00   0.00   0.00     0.00  -0.00   0.00
     7   8    -0.00   0.00   0.00     0.00   0.00   0.00    -0.00   0.00   0.00
     8   8    -0.00   0.00   0.00     0.00  -0.00  -0.00    -0.00   0.00   0.00
     9   6    -0.00  -0.01  -0.02    -0.00  -0.00   0.00     0.00   0.00  -0.00
    10   6     0.04  -0.05  -0.06     0.00   0.00  -0.00    -0.00  -0.00  -0.00
    11   1     0.00   0.00  -0.00     0.00   0.00  -0.00    -0.01  -0.01   0.00
    12   1     0.02   0.11   0.24     0.00  -0.00  -0.00    -0.00  -0.00   0.00
    13   1    -0.58   0.23   0.13     0.00  -0.00   0.00     0.00   0.00  -0.00
    14   1     0.05   0.35   0.62    -0.00   0.00   0.00     0.00   0.00   0.00
    15   1     0.06   0.06  -0.02    -0.00   0.00  -0.00     0.00  -0.00   0.00

 -------------------
 - Thermochemistry -
 -------------------
 Temperature   298.150 Kelvin.  Pressure   1.00000 Atm.
 Atom     1 has atomic number  8 and mass  15.99491
 Atom     2 has atomic number  1 and mass   1.00783
 Atom     3 has atomic number  6 and mass  12.00000
 Atom     4 has atomic number  1 and mass   1.00783
 Atom     5 has atomic number  6 and mass  12.00000
 Atom     6 has atomic number  6 and mass  12.00000
 Atom     7 has atomic number  8 and mass  15.99491
 Atom     8 has atomic number  8 and mass  15.99491
 Atom     9 has atomic number  6 and mass  12.00000
 Atom    10 has atomic number  6 and mass  12.00000
 Atom    11 has atomic number  1 and mass   1.00783
 Atom    12 has atomic number  1 and mass   1.00783
 Atom    13 has atomic number  1 and mass   1.00783
 Atom    14 has atomic number  1 and mass   1.00783
 Atom    15 has atomic number  1 and mass   1.00783
 Molecular mass:   115.03952 amu.
 Principal axes and moments of inertia in atomic units:
                           1         2         3
     Eigenvalues --   598.276411598.489212005.13035
           X            0.99927  -0.03816   0.00281
           Y            0.03821   0.99904  -0.02129
           Z           -0.00200   0.02138   0.99977
 This molecule is an asymmetric top.
 Rotational symmetry number  1.
 Warning -- assumption of classical behavior for rotation
           may cause significant error
 Rotational temperatures (Kelvin)      0.14477     0.05418     0.04320
 Rotational constants (GHZ):           3.01657     1.12903     0.90006
    2 imaginary frequencies ignored.
 Zero-point vibrational energy     283150.5 (Joules/Mol)
                                   67.67459 (Kcal/Mol)
 Warning -- explicit consideration of  11 degrees of freedom as
           vibrations may cause significant error
 Vibrational temperatures:     55.80   107.30   133.75   223.15   299.76
          (Kelvin)            319.17   387.69   431.51   602.71   803.33
                              868.50  1019.73  1068.88  1112.79  1124.80
                             1130.60  1289.78  1355.78  1564.60  1621.61
                             1666.32  1823.16  1840.96  1973.59  1996.15
                             2044.66  2138.00  2151.81  2558.04  2659.90
                             3265.51  4417.20  4504.44  4531.04  4547.66
                             5020.65  5450.00
 
 Zero-point correction=                           0.107846 (Hartree/Particle)
 Thermal correction to Energy=                    0.116982
 Thermal correction to Enthalpy=                  0.117926
 Thermal correction to Gibbs Free Energy=         0.071934
 Sum of electronic and zero-point Energies=           -420.091404
 Sum of electronic and thermal Energies=              -420.082268
 Sum of electronic and thermal Enthalpies=            -420.081324
 Sum of electronic and thermal Free Energies=         -420.127316
 
                     E (Thermal)             CV                S
                      KCal/Mol        Cal/Mol-Kelvin    Cal/Mol-Kelvin
 Total                   73.407             30.576             96.798
 Electronic               0.000              0.000              1.377
 Translational            0.889              2.981             40.136
 Rotational               0.889              2.981             29.040
 Vibrational             71.630             24.614             26.245
 Vibration     1          0.594              1.981              5.320
 Vibration     2          0.599              1.966              4.029
 Vibration     3          0.602              1.954              3.597
 Vibration     4          0.620              1.897              2.609
 Vibration     5          0.642              1.828              2.058
 Vibration     6          0.648              1.808              1.944
 Vibration     7          0.674              1.729              1.600
 Vibration     8          0.692              1.674              1.417
 Vibration     9          0.782              1.429              0.896
 Vibration    10          0.914              1.121              0.527
 Vibration    11          0.962              1.024              0.443
                       Q            Log10(Q)             Ln(Q)
 Total Bot       0.817634D-33        -33.087441        -76.186649
 Total V=0       0.329899D+17         16.518381         38.034979
 Vib (Bot)       0.170052D-46        -46.769418       -107.690566
 Vib (Bot)    1  0.533588D+01          0.727206          1.674453
 Vib (Bot)    2  0.276366D+01          0.441485          1.016556
 Vib (Bot)    3  0.221058D+01          0.344506          0.793255
 Vib (Bot)    4  0.130539D+01          0.115739          0.266500
 Vib (Bot)    5  0.953926D+00         -0.020485         -0.047169
 Vib (Bot)    6  0.890980D+00         -0.050132         -0.115433
 Vib (Bot)    7  0.717417D+00         -0.144228         -0.332098
 Vib (Bot)    8  0.634125D+00         -0.197825         -0.455508
 Vib (Bot)    9  0.419510D+00         -0.377257         -0.868667
 Vib (Bot)   10  0.278812D+00         -0.554688         -1.277216
 Vib (Bot)   11  0.246442D+00         -0.608285         -1.400628
 Vib (V=0)       0.686126D+03          2.836404          6.531062
 Vib (V=0)    1  0.585925D+01          0.767842          1.768022
 Vib (V=0)    2  0.330853D+01          0.519634          1.196503
 Vib (V=0)    3  0.276642D+01          0.441918          1.017555
 Vib (V=0)    4  0.189787D+01          0.278266          0.640731
 Vib (V=0)    5  0.157702D+01          0.197838          0.455538
 Vib (V=0)    6  0.152169D+01          0.182325          0.419820
 Vib (V=0)    7  0.137446D+01          0.138133          0.318064
 Vib (V=0)    8  0.130754D+01          0.116454          0.268145
 Vib (V=0)    9  0.115268D+01          0.061708          0.142088
 Vib (V=0)   10  0.107248D+01          0.030390          0.069976
 Vib (V=0)   11  0.105743D+01          0.024254          0.055846
 Electronic      0.200000D+01          0.301030          0.693147
 Translational   0.484981D+08          7.685724         17.697035
 Rotational      0.495704D+06          5.695223         13.113735
 ***** Axes restored to original set *****
 -------------------------------------------------------------------
 Center     Atomic                   Forces (Hartrees/Bohr)
 Number     Number              X              Y              Z
 -------------------------------------------------------------------
      1        8           0.002477730    0.006004773    0.000685406
      2        1          -0.000055019   -0.000055890    0.000023753
      3        6          -0.000054186    0.000030275    0.000007462
      4        1          -0.000005867   -0.000002109   -0.000001802
      5        6          -0.000066983   -0.000012434    0.000034679
      6        6           0.000260251    0.000051240    0.000201101
      7        8          -0.000203865    0.000045150    0.000059325
      8        8          -0.000386749    0.000254842   -0.000140171
      9        6          -0.000617223   -0.002875103   -0.001057827
     10        6          -0.000754123   -0.001188166    0.000454745
     11        1          -0.000031778   -0.001336634   -0.000802477
     12        1          -0.000621605   -0.000770673    0.000319069
     13        1          -0.000027398   -0.000037464    0.000027875
     14        1           0.000031129    0.000025902   -0.000030649
     15        1           0.000055684   -0.000133708    0.000219510
 -------------------------------------------------------------------
 Cartesian Forces:  Max     0.006004773 RMS     0.001141311

 GradGradGradGradGradGradGradGradGradGradGradGradGradGradGradGradGradGrad
 Berny optimization.
 Search for a local minimum.
 Step number   1 out of a maximum of    2
 All quantities printed in internal units (Hartrees-Bohrs-Radians)
 Second derivative matrix not updated -- analytic derivatives used.
 ITU=  0
     Eigenvalues ---   -0.05761  -0.00021   0.00030   0.00100   0.00158
     Eigenvalues ---    0.00197   0.00288   0.00486   0.01458   0.02046
     Eigenvalues ---    0.02790   0.03203   0.04209   0.05397   0.06254
     Eigenvalues ---    0.07632   0.07931   0.09034   0.09304   0.09657
     Eigenvalues ---    0.10651   0.12452   0.15319   0.17016   0.19208
     Eigenvalues ---    0.27981   0.29245   0.41211   0.48522   0.53554
     Eigenvalues ---    0.69155   0.72076   0.78062   0.81342   0.86538
     Eigenvalues ---    0.89711   0.95889   1.74302   2.73809
 Eigenvalue     1 is  -5.76D-02 should be greater than     0.000000 Eigenvector:
                          Y11       Y1        X1        Y12       X11
   1                    0.62084  -0.58763  -0.25833   0.22009   0.16754
                          Z11       X12       Y10       Y2        Y15
   1                    0.14887   0.12480   0.11426  -0.11297   0.09443
 Eigenvalue     2 is  -2.09D-04 should be greater than     0.000000 Eigenvector:
                          Z2        Z11       Y14       X2        Z1
   1                    0.34910  -0.32770   0.32554   0.31549   0.31329
                          X1        Z7        Y13       Y1        Y10
   1                    0.23326   0.19934   0.19524  -0.19009   0.18578
 Quadratic step=4.306D-01 exceeds max=3.000D-01 adjusted using Lamda=-1.453D-04.
 Angle between NR and scaled steps=   7.37 degrees.
 Angle between quadratic step and forces=  71.00 degrees.
 Linear search not attempted -- first point.
 B after Tr=     0.002049    0.003180   -0.002333
         Rot=    1.000000    0.000355   -0.000442   -0.000202 Ang=   0.07 deg.
 Variable       Old X    -DE/DX   Delta X   Delta X   Delta X     New X
                                 (Linear)    (Quad)   (Total)
    X1        5.00094   0.00248   0.00000   0.13470   0.13488   5.13583
    Y1        3.34021   0.00600   0.00000   0.08045   0.08533   3.42554
    Z1       -0.46685   0.00069   0.00000  -0.06907  -0.07838  -0.54523
    X2        3.44691  -0.00006   0.00000   0.13491   0.13512   3.58203
    Y2        4.21701  -0.00006   0.00000   0.08265   0.08721   4.30422
    Z2       -0.03020   0.00002   0.00000  -0.07361  -0.08216  -0.11236
    X3       -6.03250  -0.00005   0.00000  -0.03516  -0.03320  -6.06570
    Y3        1.94781   0.00003   0.00000  -0.03651  -0.03523   1.91257
    Z3        0.76193   0.00001   0.00000   0.00995   0.01163   0.77356
    X4       -7.69629  -0.00001   0.00000  -0.04462  -0.04266  -7.73895
    Y4        2.97973  -0.00000   0.00000  -0.05394  -0.05301   2.92672
    Z4        1.22816  -0.00000   0.00000   0.01425   0.01669   1.24484
    X5       -4.16275  -0.00007   0.00000  -0.02463  -0.02267  -4.18542
    Y5        0.78472  -0.00001   0.00000  -0.01863  -0.01697   0.76775
    Z5        0.23723   0.00003   0.00000   0.00712   0.00795   0.24518
    X6       -1.95274   0.00026   0.00000  -0.01256  -0.01060  -1.96334
    Y6       -0.70642   0.00005   0.00000  -0.00119   0.00089  -0.70553
    Z6       -0.43051   0.00020   0.00000   0.00031   0.00022  -0.43030
    X7       -2.03861  -0.00020   0.00000  -0.00704  -0.00505  -2.04366
    Y7       -2.78925   0.00005   0.00000   0.01161   0.01301  -2.77624
    Z7       -1.31111   0.00006   0.00000  -0.03217  -0.03073  -1.34184
    X8        0.18122  -0.00039   0.00000  -0.02169  -0.01978   0.16144
    Y8        0.56426   0.00025   0.00000  -0.00208   0.00123   0.56549
    Z8        0.06952  -0.00014   0.00000   0.02985   0.02697   0.09650
    X9        2.49005  -0.00062   0.00000  -0.00404  -0.00216   2.48789
    Y9       -0.70576  -0.00288   0.00000   0.00956   0.01338  -0.69238
    Z9       -0.53757  -0.00106   0.00000   0.02871   0.02467  -0.51289
   X10        3.34775  -0.00075   0.00000  -0.03296  -0.02853   3.31922
   Y10       -2.44807  -0.00119   0.00000  -0.02914  -0.02351  -2.47158
   Z10        1.54234   0.00045   0.00000   0.01511   0.01160   1.55394
   X11        3.91902  -0.00003   0.00000  -0.02496  -0.02386   3.89515
   Y11        0.90336  -0.00134   0.00000  -0.03482  -0.03055   0.87281
   Z11       -0.74123  -0.00080   0.00000   0.06071   0.05432  -0.68691
   X12        2.33486  -0.00062   0.00000  -0.00054   0.00006   2.33492
   Y12       -1.60294  -0.00077   0.00000   0.03054   0.03298  -1.56996
   Z12       -2.38616   0.00032   0.00000   0.02037   0.01709  -2.36908
   X13        5.20499  -0.00003   0.00000  -0.02252  -0.01819   5.18679
   Y13       -3.21403  -0.00004   0.00000  -0.00866  -0.00261  -3.21664
   Z13        1.08001   0.00003   0.00000   0.01958   0.01495   1.09496
   X14        3.48151   0.00003   0.00000  -0.04636  -0.04075   3.44076
   Y14       -1.42247   0.00003   0.00000  -0.05128  -0.04433  -1.46680
   Z14        3.32530  -0.00003   0.00000   0.03040   0.02607   3.35137
   X15        2.02166   0.00006   0.00000  -0.02783  -0.02261   1.99905
   Y15       -4.01609  -0.00013   0.00000  -0.03304  -0.02782  -4.04391
   Z15        1.75110   0.00022   0.00000  -0.01966  -0.02089   1.73021
         Item               Value     Threshold  Converged?
 Maximum Force            0.006005     0.000450     NO 
 RMS     Force            0.001141     0.000300     NO 
 Maximum Displacement     0.135124     0.001800     NO 
 RMS     Displacement     0.044615     0.001200     NO 
 Predicted change in Energy=-9.861300D-04
 GradGradGradGradGradGradGradGradGradGradGradGradGradGradGradGradGradGrad


 ----------------------------------------------------------------------

 Electric dipole moment (input orientation):
 (Debye = 10**-18 statcoulomb cm , SI units = C m)
                  (au)            (Debye)         (10**-30 SI)
   Tot        0.806464D+00      0.204983D+01      0.683749D+01
   x         -0.486651D+00     -0.123694D+01     -0.412600D+01
   y          0.435431D+00      0.110675D+01      0.369174D+01
   z          0.473240D+00      0.120285D+01      0.401229D+01

 Dipole polarizability, Alpha (input orientation).
 (esu units = cm**3 , SI units = C**2 m**2 J**-1)
 Alpha(0;0):
               (au)            (10**-24 esu)      (10**-40 SI)
   iso        0.762308D+02      0.112962D+02      0.125688D+02
   aniso      0.398291D+02      0.590207D+01      0.656693D+01
   xx         0.941823D+02      0.139564D+02      0.155286D+02
   yx        -0.976843D+00     -0.144753D+00     -0.161060D+00
   yy         0.831739D+02      0.123251D+02      0.137135D+02
   zx        -0.447127D+01     -0.662574D+00     -0.737214D+00
   zy         0.356915D+01      0.528893D+00      0.588473D+00
   zz         0.513363D+02      0.760725D+01      0.846421D+01

 ----------------------------------------------------------------------

 Dipole orientation:
     8          4.25745444          4.00544875         -1.48823622
     1          3.50355534          4.16632357          0.17916243
     6         -3.78846235         -0.06004283          5.13901142
     1         -4.57723745          0.18895415          6.97375143
     6         -2.90321521         -0.34224503          3.07485622
     6         -1.90946088         -0.74513700          0.54431358
     8         -2.93467212         -1.98750265         -1.04518761
     8          0.29744565          0.46026877          0.23610132
     6          1.44934158          0.22541135         -2.19909765
     6          3.00757479         -2.14369664         -2.43687643
     1          2.75788769          1.94228307         -2.31209108
     1          0.03003928          0.45929885         -3.67463059
     1          4.00235774         -2.13798081         -4.24246543
     1          4.39712930         -2.24171574         -0.91758843
     1          1.78980918         -3.80864165         -2.36077916

 Electric dipole moment (dipole orientation):
 (Debye = 10**-18 statcoulomb cm , SI units = C m)
                  (au)            (Debye)         (10**-30 SI)
   Tot        0.806464D+00      0.204983D+01      0.683749D+01
   x          0.000000D+00      0.000000D+00      0.000000D+00
   y          0.000000D+00      0.000000D+00      0.000000D+00
   z          0.806464D+00      0.204983D+01      0.683749D+01

 Dipole polarizability, Alpha (dipole orientation).
 (esu units = cm**3 , SI units = C**2 m**2 J**-1)
 Alpha(0;0):
               (au)            (10**-24 esu)      (10**-40 SI)
   iso        0.762308D+02      0.112962D+02      0.125688D+02
   aniso      0.398291D+02      0.590207D+01      0.656693D+01
   xx         0.745338D+02      0.110448D+02      0.122890D+02
   yx         0.141277D+02      0.209350D+01      0.232934D+01
   yy         0.718746D+02      0.106507D+02      0.118505D+02
   zx        -0.154782D+02     -0.229364D+01     -0.255202D+01
   zy         0.776978D+01      0.115136D+01      0.128106D+01
   zz         0.822842D+02      0.121933D+02      0.135668D+02

 ----------------------------------------------------------------------
 1\1\GINC-AJ\Freq\UM062X\6-311++G(d,p)\C5H7O3(2)\AAYUSH\23-Jun-2025\0\\
 # freq 6-311++g(d,p) m062x\\Title Card Required\\0,2\O,2.646384,1.7675
 65,-0.247045\H,1.824024,2.231546,-0.015979\C,-3.192259,1.030735,0.4031
 97\H,-4.072701,1.576804,0.649912\C,-2.202831,0.415257,0.125536\C,-1.03
 3344,-0.373819,-0.227818\O,-1.078786,-1.47601,-0.69381\O,0.095898,0.29
 8594,0.036791\C,1.317678,-0.373474,-0.284468\C,1.771554,-1.295463,0.81
 6172\H,2.073854,0.478039,-0.392242\H,1.235555,-0.84824,-1.262703\H,2.7
 54361,-1.700794,0.571517\H,1.842338,-0.752738,1.759675\H,1.069817,-2.1
 25224,0.926641\\Version=ES64L-G16RevA.03\State=2-A\HF=-420.1992499\S2=
 0.757443\S2-1=0.\S2A=0.750031\RMSD=3.824e-09\RMSF=1.141e-03\ZeroPoint=
 0.1078463\Thermal=0.1169822\Dipole=-0.4866505,0.4354308,0.4732396\Dipo
 leDeriv=-0.12192,0.2623212,-0.0478612,0.2768942,0.1932365,-0.0011727,0
 .0041547,0.0849905,-0.4268668,0.1805289,0.0088639,0.0410947,0.1777141,
 0.4255849,-0.0268994,0.0569139,0.0122969,0.3117415,-0.2299076,0.022905
 4,0.0105047,0.0446245,-0.1636066,-0.0107831,0.0166461,-0.010295,-0.145
 0047,0.2649676,-0.0160121,-0.0071439,-0.0255267,0.2336503,0.0114461,-0
 .0110195,0.0118411,0.2126884,-0.5602551,0.1990159,0.0917984,0.2325203,
 -0.2514706,-0.0694111,0.1098522,-0.0734127,-0.1256904,2.5207305,-0.022
 5921,-0.0087453,0.2617122,1.5179432,0.5206888,0.152611,0.5274637,0.607
 6104,-0.8238405,0.070676,0.0280458,-0.1299347,-1.0628643,-0.3273561,-0
 .0794864,-0.3198988,-0.4844657,-2.1413906,-0.3159462,-0.1150531,-0.134
 2137,-0.6133584,-0.1127519,-0.0773648,-0.0953376,-0.3673142,1.4467526,
 0.629543,-0.0194397,0.0397083,0.9333393,-0.0997588,-0.234757,-0.298788
 9,0.3221641,-0.1956031,-0.198799,0.0173498,-0.0468684,-0.2328875,0.087
 1774,-0.0177287,0.0878629,-0.0443585,-0.3854397,-0.6291143,0.0452572,-
 0.6958781,-1.0105059,0.0955744,-0.0156467,-0.0285562,0.1187777,-0.0568
 531,-0.0797025,-0.0643896,0.0042494,-0.0603303,-0.0232492,0.0611595,0.
 0684482,-0.0455638,-0.0578916,0.0739166,0.0243641,0.0688494,0.0770676,
 0.0031249,0.0257279,-0.010989,0.0569836,0.0961286,0.0241585,-0.0004453
 ,0.0031803,0.0249582,-0.0789821,-0.0213909,-0.0277909,-0.0412106,0.063
 9933,-0.0292342,0.0046634,-0.0770312,-0.0107565,0.0323527,0.0303288,0.
 0721657,0.0505091\Polar=94.1823171,-0.9768432,83.1739467,-4.4712741,3.
 5691457,51.3362774\Quadrupole=1.2101054,-0.4168868,-0.7932185,-8.39164
 25,-1.4132217,-0.2529734\PG=C01 [X(C5H7O3)]\NImag=2\\0.38773977,-0.196
 84733,0.12398438,-0.10503933,0.05661305,0.03017630,-0.37473904,0.20701
 497,0.10402342,0.37163367,0.18852733,-0.12967336,-0.05684682,-0.200224
 66,0.13470037,0.10052605,-0.06021956,-0.03075990,-0.10218540,0.0598449
 3,0.03067632,0.00009380,0.00020971,0.00004041,0.00000905,0.00028831,0.
 00003143,1.08914822,-0.00013949,-0.00014754,-0.00003395,0.00010388,-0.
 00021488,-0.00002245,-0.64275491,0.45677237,-0.00002004,-0.00007583,0.
 00004807,-0.00000014,-0.00007230,-0.00008396,-0.29031303,0.17938622,0.
 14170342,0.00001640,-0.00004938,-0.00001520,-0.00005576,-0.00005574,0.
 00000241,-0.29807458,0.16829660,0.07594721,0.28838371,0.00003167,0.000
 04137,0.00001216,-0.00000358,0.00008563,0.00000677,0.16807905,-0.13156
 913,-0.04629039,-0.16858340,0.12127205,-0.00000597,0.00001766,-0.00003
 199,0.00001509,0.00001146,0.00004090,0.07584880,-0.04628156,-0.0508495
 1,-0.07612098,0.04694739,0.03921893,0.00021923,0.00057923,0.00008947,0
 .00000543,0.00057213,0.00009087,-0.79210438,0.47130182,0.21300786,0.00
 814919,-0.00228717,-0.00094736,1.05050933,-0.00003698,-0.00016255,-0.0
 0004512,-0.00005521,-0.00026110,-0.00002290,0.47315673,-0.32831323,-0.
 13296172,-0.00216895,0.00649959,-0.00045367,-0.58756955,0.47114137,-0.
 00001968,0.00002224,-0.00000549,-0.00001095,-0.00002427,0.00000578,0.2
 1377972,-0.13294446,-0.09399380,-0.00090764,-0.00043843,0.00753488,-0.
 26619885,0.18353667,0.14367284,0.00007580,-0.00307650,-0.00089701,-0.0
 0144485,-0.00459376,-0.00032215,0.00721739,-0.00120681,-0.00055950,0.0
 0064764,0.00352248,0.00155935,-0.20714347,0.09353776,0.04183412,0.6028
 1500,0.00070437,-0.00046263,-0.00013741,-0.00116071,-0.00109729,-0.000
 15226,-0.00043241,0.00252789,-0.00014192,0.00257174,0.00375509,-0.0009
 4098,0.08300106,-0.11432684,-0.01808609,-0.02522254,0.90205266,-0.0001
 6815,-0.00161059,-0.00055767,-0.00035133,-0.00109300,-0.00003357,-0.00
 018492,-0.00012475,0.00254637,0.00117077,-0.00092344,0.00546595,0.0374
 0793,-0.01890179,-0.08201635,-0.01895072,0.29459661,0.33434968,0.00013
 744,0.00047218,0.00021831,0.00009492,0.00116491,0.00002401,-0.00334059
 ,0.00180772,0.00081307,-0.00025718,-0.00126822,-0.00055638,0.00629155,
 0.03311339,0.01448356,-0.10863359,-0.00238107,-0.00000746,0.11039961,-
 0.00075218,0.00011531,0.00027299,0.00094835,0.00132557,-0.00007293,0.0
 0040224,0.00135422,0.00047298,0.00023865,0.00068765,0.00071486,0.02666
 556,-0.04830712,-0.03024093,-0.00940022,-0.66605236,-0.24756940,0.0363
 4335,0.77386386,-0.00023890,0.00029685,0.00029677,0.00041668,0.0006889
 6,-0.00002707,0.00021980,0.00048372,0.00042142,0.00008940,0.00072740,-
 0.00070802,0.01166245,-0.03032110,0.00895754,-0.00365731,-0.24939162,-
 0.18578238,0.01302734,0.31278191,0.16631219,0.00251628,0.00948340,0.00
 191066,-0.00010493,0.00550582,0.00064558,-0.00347361,0.00273135,0.0012
 0048,0.00133507,0.00026925,0.00007451,-0.06481274,-0.00691218,-0.00144
 553,-0.23227016,-0.06998668,-0.02823768,-0.00791779,-0.06356428,-0.024
 34977,0.53057591,-0.00280354,-0.00186471,-0.00026984,0.00158442,0.0010
 4565,0.00030712,0.00217749,-0.00150607,-0.00083747,-0.00049426,-0.0006
 8845,-0.00010942,0.01244374,0.01342644,0.00048933,-0.05340030,-0.14359
 543,-0.03442910,-0.06158448,-0.05669661,-0.03563790,0.03238641,0.31371
 630,-0.00029876,-0.00055095,0.00071831,0.00005592,0.00013129,-0.000781
 98,0.00095613,-0.00087536,0.00009257,-0.00024075,-0.00014045,-0.000446
 02,0.00655252,0.00128465,0.01138591,-0.01957905,-0.03332075,-0.0792426
 9,-0.02468528,-0.03558133,0.01560530,0.00498405,0.10320244,0.12866298,
 -0.03277344,-0.06510949,-0.00614477,0.00716410,-0.00234969,-0.00204687
 ,0.00155877,-0.00095652,-0.00036398,-0.00039583,0.00036552,0.00017432,
 0.00229706,-0.00263918,-0.00171722,-0.07554919,-0.00519112,-0.00045678
 ,0.00686850,0.01594287,0.00733782,-0.14029809,0.03475254,0.02219299,0.
 42464211,-0.03196647,-0.06499178,-0.00611502,0.00111404,-0.00453762,-0
 .00111961,-0.00052384,0.00067876,0.00036300,0.00013000,0.00013628,0.00
 013958,-0.00445038,-0.00065389,-0.00224804,-0.00679656,0.02354972,0.00
 933701,-0.00342830,-0.00942101,-0.00123841,0.07040009,-0.11600283,-0.0
 2945636,0.00861895,0.47534670,0.00650809,0.01266753,0.00228016,-0.0019
 7653,0.00079930,0.00008283,-0.00053430,0.00053324,0.00006793,0.0001091
 2,0.00008592,-0.00024672,-0.00199604,-0.00243574,0.00512638,0.00438916
 ,0.01374661,0.00639345,-0.00038583,-0.00332761,-0.00669846,0.02840688,
 -0.02899987,-0.08400652,0.02857752,0.04519901,0.57529343,0.00365852,0.
 00653346,0.00075361,-0.00131164,0.00066126,0.00087669,-0.00034815,0.00
 024569,0.00012571,0.00010160,-0.00001170,-0.00009124,-0.00115944,-0.00
 057023,0.00114278,0.00578629,0.00749881,0.00119413,-0.00026589,-0.0026
 0996,-0.00167159,-0.03131254,0.03016359,-0.02443145,-0.07225471,0.0196
 7322,-0.02139407,0.57333153,0.00436951,0.00852648,0.00045192,-0.000970
 61,0.00038925,0.00084112,-0.00003421,0.00003362,0.00004709,-0.00000805
 ,-0.00003105,0.00001661,0.00027570,0.00019365,-0.00058268,-0.00083296,
 0.00020498,0.00015173,0.00083833,-0.00025681,0.00148657,0.01344893,-0.
 01237367,0.00899087,0.02909878,-0.12120340,0.06242469,0.01020709,0.544
 10743,-0.00042366,-0.00140434,0.00013280,0.00010779,0.00005811,0.00017
 250,0.00017219,-0.00017507,0.00004185,-0.00002579,0.00000498,0.0000279
 4,0.00012727,0.00055823,-0.00078426,-0.00176793,-0.00400196,-0.0005512
 7,-0.00025037,0.00203008,0.00067602,0.00558341,-0.00483283,0.01195061,
 -0.03178895,0.06551248,-0.16905420,-0.02297490,0.04295726,0.53899944,0
 .01253513,0.03930303,0.00471386,-0.00088564,0.01022167,0.00267933,-0.0
 0061552,0.00054441,0.00017194,0.00012400,-0.00009519,0.00000589,-0.001
 97816,-0.00002817,-0.00033190,0.00401111,0.00444412,0.00526879,-0.0006
 2902,-0.00123626,-0.00091945,-0.04426937,-0.01320647,0.00287784,-0.066
 53850,-0.04563407,0.00083021,0.00001046,-0.00181380,-0.00048208,0.0986
 3891,0.03738046,0.06031824,0.00560787,-0.00803324,-0.00283421,0.000571
 76,-0.00054849,0.00035178,0.00008604,0.00012592,-0.00017262,-0.0000543
 6,-0.00101682,0.00069747,0.00049532,0.01100828,-0.00097024,0.00183246,
 -0.00290968,0.00035786,-0.00026107,-0.00460011,0.01277659,-0.00180599,
 -0.01413611,-0.07202704,-0.00901149,-0.02218947,-0.02821990,0.00426313
 ,0.01237015,0.04475568,0.00165326,-0.00084857,-0.00322617,-0.00080278,
 -0.00320406,0.00149902,0.00001862,-0.00000190,-0.00005551,-0.00000019,
 -0.00001044,-0.00001004,0.00022641,-0.00003473,0.00032965,0.00009323,-
 0.00253745,-0.00107176,-0.00138662,0.00089153,0.00063825,0.00821678,0.
 00472663,-0.00063292,0.01359063,0.01243126,-0.03945529,0.01066684,0.01
 684183,-0.00405878,-0.01673307,-0.01272432,0.04513473,0.00174436,0.003
 42545,0.00086178,-0.00072573,0.00053254,-0.00010580,-0.00009823,0.0000
 4592,0.00002894,0.00004871,-0.00003354,0.00004234,-0.00035304,0.000222
 27,-0.00085128,0.00481695,0.00619160,0.00374273,-0.00176922,-0.0033945
 4,-0.00101648,-0.01350802,0.01950885,0.03234861,-0.04788851,-0.0115234
 1,-0.03689837,0.00121120,-0.00569043,-0.00678791,-0.00334307,-0.013428
 83,-0.01496039,0.05925617,0.00208589,0.00420749,0.00109765,-0.00047262
 ,0.00074606,-0.00015758,0.00002264,0.00000367,0.00005211,-0.00000720,0
 .00000223,0.00000560,0.00026417,-0.00013668,-0.00023682,-0.00272658,-0
 .00087501,-0.00069189,-0.00128927,0.00043309,0.00100998,0.00763606,-0.
 00948290,-0.01385772,-0.00353522,-0.09649319,-0.11040299,0.00142420,0.
 01157292,0.02097160,-0.00635922,-0.01548110,-0.01741236,0.00207565,0.1
 0698937,-0.00199909,-0.00348089,0.00019714,0.00056183,-0.00011683,-0.0
 0013527,-0.00000018,-0.00000450,0.00006673,-0.00001714,-0.00000079,0.0
 0000141,0.00026333,0.00019175,-0.00030153,-0.00299570,-0.00323842,-0.0
 0029695,-0.00145867,0.00158223,0.00097881,0.00738579,-0.00529981,-0.00
 337284,-0.02378410,-0.10623665,-0.26854387,-0.00323373,-0.01035411,-0.
 01731497,0.00225633,0.00640860,0.00212270,0.02447870,0.11751321,0.2874
 0370,0.00001509,0.00002000,-0.00008254,-0.00005294,-0.00007559,-0.0000
 1482,-0.00005478,0.00003633,-0.00002648,0.00002168,-0.00001343,-0.0000
 0546,-0.00011605,0.00000436,0.00026062,0.00132115,0.00024758,0.0003342
 0,-0.00021745,-0.00005855,-0.00047762,0.00005618,0.00085532,-0.0021028
 2,-0.00911089,0.00144477,0.00386731,-0.26970796,0.09271307,0.05582996,
 0.00033468,0.00038816,-0.00004279,0.00015207,-0.00011539,-0.00042603,0
 .29062325,-0.00052032,-0.00017565,-0.00003763,0.00012956,0.00014893,-0
 .00011337,0.00006169,-0.00003194,-0.00003417,-0.00002041,0.00000012,0.
 00001305,0.00027731,0.00011340,-0.00010054,-0.00166241,-0.00275081,-0.
 00042267,-0.00013344,0.00128701,0.00010032,0.00490602,-0.00197083,0.00
 428603,0.01639719,-0.00765745,-0.00805763,0.09090333,-0.08297734,-0.02
 187207,0.00023855,0.00054968,-0.00040644,-0.00023036,0.00059683,0.0002
 2622,-0.10187958,0.08816089,0.00016281,0.00015272,0.00000283,-0.000076
 03,-0.00001653,-0.00003679,-0.00010140,0.00009333,0.00001175,0.0000182
 5,0.00000495,-0.00001747,-0.00027959,-0.00026198,0.00033242,0.00135120
 ,0.00195793,0.00025694,-0.00012659,-0.00080041,-0.00046982,-0.00520244
 ,0.00460023,-0.00355649,-0.02108611,0.00629760,0.00819178,0.05763967,-
 0.02308993,-0.06227873,0.00003339,-0.00039655,0.00069943,0.00035852,-0
 .00112598,0.00019462,-0.06074565,0.02294558,0.06325075,-0.00027316,-0.
 00013160,-0.00017961,0.00013215,-0.00001556,-0.00006731,0.00000706,0.0
 0000704,0.00002842,-0.00002005,0.00000675,-0.00000779,0.00004996,0.000
 01302,0.00001190,-0.00093335,-0.00121156,-0.00062186,-0.00019390,0.000
 84511,0.00010458,0.00165749,-0.00092542,0.00051758,-0.00257660,-0.0049
 4736,-0.00893208,-0.04820200,-0.00924852,-0.01454115,0.00034325,0.0006
 9989,0.00063741,0.00031354,0.00142925,-0.00147533,0.00357302,0.0139408
 5,0.02594784,0.04710721,-0.00002722,0.00018655,-0.00058782,0.00014356,
 -0.00012020,0.00020934,-0.00003324,-0.00000554,-0.00000665,0.00000622,
 0.00000534,-0.00000775,-0.00003520,0.00003356,0.00014574,0.00032875,0.
 00006714,-0.00025010,-0.00020801,0.00016991,-0.00022901,-0.00200263,0.
 00114412,-0.00114812,0.00143214,0.01109666,0.02222353,-0.00894941,-0.1
 1834585,-0.12158622,0.00002341,0.00138444,-0.00015566,0.00180276,-0.00
 280692,0.00318897,-0.00201432,-0.00638542,-0.00891954,0.00879952,0.124
 69322,0.00014199,0.00001810,0.00061375,-0.00006511,0.00010471,-0.00028
 812,-0.00002956,0.00003324,0.00001678,-0.00000213,-0.00000596,-0.00000
 238,-0.00002633,0.00002086,-0.00002057,-0.00032821,-0.00052430,-0.0002
 9779,0.00003746,0.00032939,0.00022729,0.00103433,-0.00032838,0.0026231
 4,-0.00097130,-0.01252839,-0.02477804,-0.01511300,-0.11844125,-0.24890
 689,-0.00009401,-0.00055299,0.00028127,-0.00142120,0.00385543,-0.00177
 206,-0.00053828,-0.00209043,-0.00468545,0.01745946,0.12756864,0.272580
 17,-0.00096618,-0.00182712,-0.00025307,0.00028122,-0.00015897,-0.00013
 402,0.00007554,-0.00006302,-0.00004047,-0.00002460,0.00002152,0.000014
 88,0.00014553,-0.00006707,-0.00002965,-0.00071673,0.00092682,-0.000139
 67,-0.00056738,-0.00037013,-0.00052696,0.00182632,-0.00145789,0.000852
 47,0.00485522,0.00788933,-0.00057108,-0.15953726,-0.13235281,0.0172221
 1,0.00226174,0.00488988,-0.00117733,0.00014283,-0.00043236,0.00044398,
 -0.01683707,-0.02240799,0.00210614,-0.00098463,0.00073367,-0.00008410,
 0.17004545,-0.00000570,0.00009841,0.00001798,-0.00011816,0.00029721,0.
 00009963,-0.00007075,0.00006603,0.00001302,0.00001826,-0.00002410,-0.0
 0001847,-0.00002159,0.00005594,0.00021296,0.00052137,-0.00202688,0.000
 09891,-0.00053741,0.00113944,-0.00049659,0.00029856,0.00207238,-0.0011
 5826,-0.01269066,-0.01781992,0.00455551,-0.13297988,-0.20162031,0.0175
 1663,0.00122784,-0.00148663,0.00244468,0.00049608,0.00072415,-0.000379
 00,0.00844726,0.01109257,-0.00144143,-0.00926139,-0.01111701,0.0025413
 3,0.14467615,0.21854871,-0.00077861,-0.00159741,0.00011508,0.00028754,
 -0.00026495,-0.00033070,0.00009628,-0.00006575,-0.00003411,-0.00000735
 ,0.00002032,0.00002214,0.00002007,-0.00015340,-0.00022341,-0.00016949,
 0.00217203,0.00083805,0.00025345,-0.00148338,-0.00042785,-0.00020706,-
 0.00258113,0.00100064,0.01648680,0.01966253,-0.00465288,0.01651055,0.0
 1825827,-0.04905207,-0.00027707,0.00554161,-0.00219459,0.00017981,-0.0
 0062024,0.00077240,0.00417040,0.00556375,-0.00189576,-0.01888207,-0.02
 044535,0.00440889,-0.01768324,-0.02400691,0.05165417\\-0.00247773,-0.0
 0600477,-0.00068541,0.00005502,0.00005589,-0.00002375,0.00005419,-0.00
 003028,-0.00000746,0.00000587,0.00000211,0.00000180,0.00006698,0.00001
 243,-0.00003468,-0.00026025,-0.00005124,-0.00020110,0.00020386,-0.0000
 4515,-0.00005933,0.00038675,-0.00025484,0.00014017,0.00061722,0.002875
 10,0.00105783,0.00075412,0.00118817,-0.00045475,0.00003178,0.00133663,
 0.00080248,0.00062160,0.00077067,-0.00031907,0.00002740,0.00003746,-0.
 00002787,-0.00003113,-0.00002590,0.00003065,-0.00005568,0.00013371,-0.
 00021951\\\@


 SCIENCE IS LONG AND LIFE IS SHORT.

                     DON MOSER IN THE FEBRUARY 1979 SMITHSONIAN
 Job cpu time:       0 days  0 hours 57 minutes 28.4 seconds.
 Elapsed time:       0 days  0 hours  2 minutes 23.7 seconds.
 File lengths (MBytes):  RWF=    153 Int=      0 D2E=      0 Chk=      8 Scr=      1
 Normal termination of Gaussian 16 at Mon Jun 23 01:44:54 2025.
