 Entering Gaussian System, Link 0=g16
 Initial command:
 /opt/g16/l1.exe "/home/aayush/scratches/g16/Gau-23279.inp" -scrdir="/home/aayush/scratches/g16/"
 Entering Link 1 = /opt/g16/l1.exe PID=     23282.
  
 Copyright (c) 1988,1990,1992,1993,1995,1998,2003,2009,2016,
            Gaussian, Inc.  All Rights Reserved.
  
 This is part of the Gaussian(R) 16 program.  It is based on
 the Gaussian(R) 09 system (copyright 2009, Gaussian, Inc.),
 the Gaussian(R) 03 system (copyright 2003, Gaussian, Inc.),
 the Gaussian(R) 98 system (copyright 1998, Gaussian, Inc.),
 the Gaussian(R) 94 system (copyright 1995, Gaussian, Inc.),
 the Gaussian 92(TM) system (copyright 1992, Gaussian, Inc.),
 the Gaussian 90(TM) system (copyright 1990, Gaussian, Inc.),
 the Gaussian 88(TM) system (copyright 1988, Gaussian, Inc.),
 the Gaussian 86(TM) system (copyright 1986, Carnegie Mellon
 University), and the Gaussian 82(TM) system (copyright 1983,
 Carnegie Mellon University). Gaussian is a federally registered
 trademark of Gaussian, Inc.
  
 This software contains proprietary and confidential information,
 including trade secrets, belonging to Gaussian, Inc.
  
 This software is provided under written license and may be
 used, copied, transmitted, or stored only in accord with that
 written license.
  
 The following legend is applicable only to US Government
 contracts under FAR:
  
                    RESTRICTED RIGHTS LEGEND
  
 Use, reproduction and disclosure by the US Government is
 subject to restrictions as set forth in subparagraphs (a)
 and (c) of the Commercial Computer Software - Restricted
 Rights clause in FAR 52.227-19.
  
 Gaussian, Inc.
 340 Quinnipiac St., Bldg. 40, Wallingford CT 06492
  
  
 ---------------------------------------------------------------
 Warning -- This program may not be used in any manner that
 competes with the business of Gaussian, Inc. or will provide
 assistance to any competitor of Gaussian, Inc.  The licensee
 of this program is prohibited from giving any competitor of
 Gaussian, Inc. access to this program.  By using this program,
 the user acknowledges that Gaussian, Inc. is engaged in the
 business of creating and licensing software in the field of
 computational chemistry and represents and warrants to the
 licensee that it is not a competitor of Gaussian, Inc. and that
 it will not use this program in any manner prohibited above.
 ---------------------------------------------------------------
  

 Cite this work as:
 Gaussian 16, Revision A.03,
 M. J. Frisch, G. W. Trucks, H. B. Schlegel, G. E. Scuseria, 
 M. A. Robb, J. R. Cheeseman, G. Scalmani, V. Barone, 
 G. A. Petersson, H. Nakatsuji, X. Li, M. Caricato, A. V. Marenich, 
 J. Bloino, B. G. Janesko, R. Gomperts, B. Mennucci, H. P. Hratchian, 
 J. V. Ortiz, A. F. Izmaylov, J. L. Sonnenberg, D. Williams-Young, 
 F. Ding, F. Lipparini, F. Egidi, J. Goings, B. Peng, A. Petrone, 
 T. Henderson, D. Ranasinghe, V. G. Zakrzewski, J. Gao, N. Rega, 
 G. Zheng, W. Liang, M. Hada, M. Ehara, K. Toyota, R. Fukuda, 
 J. Hasegawa, M. Ishida, T. Nakajima, Y. Honda, O. Kitao, H. Nakai, 
 T. Vreven, K. Throssell, J. A. Montgomery, Jr., J. E. Peralta, 
 F. Ogliaro, M. J. Bearpark, J. J. Heyd, E. N. Brothers, K. N. Kudin, 
 V. N. Staroverov, T. A. Keith, R. Kobayashi, J. Normand, 
 K. Raghavachari, A. P. Rendell, J. C. Burant, S. S. Iyengar, 
 J. Tomasi, M. Cossi, J. M. Millam, M. Klene, C. Adamo, R. Cammi, 
 J. W. Ochterski, R. L. Martin, K. Morokuma, O. Farkas, 
 J. B. Foresman, and D. J. Fox, Gaussian, Inc., Wallingford CT, 2016.
 
 ******************************************
 Gaussian 16:  ES64L-G16RevA.03 25-Dec-2016
                23-Jun-2025 
 ******************************************
 %nprocshared=24
 Will use up to   24 processors via shared memory.
 %mem=12GB
 %chk=ethyl_propiolate_ts1.chk
 --------------------------
 # freq 6-311++g(d,p) m062x
 --------------------------
 1/10=4,30=1,38=1/1,3;
 2/12=2,17=6,18=5,40=1/2;
 3/5=4,6=6,7=1111,11=2,25=1,30=1,71=2,74=-55,140=1/1,2,3;
 4//1;
 5/5=2,38=5,98=1/2;
 8/6=4,10=90,11=11/1;
 11/6=1,8=1,9=11,15=111,16=1/1,2,10;
 10/6=1/2;
 6/7=2,8=2,9=2,10=2,28=1/1;
 7/8=1,10=1,25=1/1,2,3,16;
 1/10=4,30=1/3;
 99//99;
 -------------------
 Title Card Required
 -------------------
 Symbolic Z-matrix:
 Charge =  0 Multiplicity = 2
 O                     2.63639   1.74131  -0.24798 
 H                     1.8373    2.23354  -0.01664 
 C                    -3.19253   1.03026   0.40357 
 H                    -4.07256   1.57713   0.65071 
 C                    -2.20345   0.41443   0.12547 
 C                    -1.03689  -0.37555  -0.22937 
 O                    -1.08055  -1.47714  -0.69494 
 O                     0.09833   0.29509   0.03712 
 C                     1.30907  -0.37661  -0.27964 
 C                     1.77305  -1.29399   0.81362 
 H                     2.18231   0.71358  -0.35454 
 H                     1.27034  -0.80363  -1.28127 
 H                     2.75289  -1.70489   0.5695 
 H                     1.83852  -0.75918   1.7619 
 H                     1.06234  -2.12183   0.91481 
 

 GradGradGradGradGradGradGradGradGradGradGradGradGradGradGradGradGradGrad
 Berny optimization.
 Initialization pass.
 Trust Radius=3.00D-01 FncErr=1.00D-07 GrdErr=1.00D-07 EigMax=2.50D+02 EigMin=1.00D-04
 Number of steps in this run=      2 maximum allowed number of steps=      2.
 GradGradGradGradGradGradGradGradGradGradGradGradGradGradGradGradGradGrad

                          Input orientation:                          
 ---------------------------------------------------------------------
 Center     Atomic      Atomic             Coordinates (Angstroms)
 Number     Number       Type             X           Y           Z
 ---------------------------------------------------------------------
      1          8           0        2.636394    1.741313   -0.247978
      2          1           0        1.837295    2.233542   -0.016643
      3          6           0       -3.192531    1.030258    0.403574
      4          1           0       -4.072559    1.577125    0.650709
      5          6           0       -2.203449    0.414426    0.125472
      6          6           0       -1.036892   -0.375552   -0.229369
      7          8           0       -1.080548   -1.477138   -0.694938
      8          8           0        0.098330    0.295087    0.037115
      9          6           0        1.309068   -0.376613   -0.279638
     10          6           0        1.773046   -1.293988    0.813617
     11          1           0        2.182312    0.713580   -0.354540
     12          1           0        1.270336   -0.803629   -1.281269
     13          1           0        2.752892   -1.704894    0.569503
     14          1           0        1.838520   -0.759184    1.761898
     15          1           0        1.062342   -2.121833    0.914812
 ---------------------------------------------------------------------
                    Distance matrix (angstroms):
                    1          2          3          4          5
     1  O    0.000000
     2  H    0.966625   0.000000
     3  C    5.908171   5.188798   0.000000
     4  H    6.770867   5.983529   1.065171   0.000000
     5  C    5.032313   4.433621   1.197862   2.263032   0.000000
     6  C    4.239634   3.887618   2.650226   3.715206   1.452870
     7  O    4.936989   4.768966   3.457490   4.482345   2.347764
     8  O    2.935067   2.604707   3.391834   4.406408   2.306564
     9  C    2.499681   2.676023   4.765549   5.800392   3.623207
    10  C    3.329475   3.624490   5.497928   6.514670   4.382321
    11  H    1.128619   1.594834   5.437275   6.393719   4.422081
    12  H    3.067659   3.338432   5.110677   6.160118   3.940782
    13  H    3.543754   4.085727   6.546499   7.573970   5.408696
    14  H    3.305857   3.481324   5.509866   6.452436   4.515835
    15  H    4.330545   4.520780   5.319867   6.333976   4.209639
                    6          7          8          9         10
     6  C    0.000000
     7  O    1.196726   0.000000
     8  O    1.345176   2.250875   0.000000
     9  C    2.346499   2.663437   1.420352   0.000000
    10  C    3.134820   3.232999   2.435732   1.500686   0.000000
    11  H    3.400757   3.944790   2.161368   1.398816   2.358478
    12  H    2.571584   2.514767   2.078199   1.089545   2.209461
    13  H    4.094852   4.043012   3.366016   2.137756   1.090199
    14  H    3.518567   3.882327   2.667325   2.143490   1.090660
    15  H    2.960647   2.756611   2.746120   2.129173   1.095750
                   11         12         13         14         15
    11  H    0.000000
    12  H    1.998112   0.000000
    13  H    2.651119   2.536850   0.000000
    14  H    2.601257   3.096074   1.775458   0.000000
    15  H    3.302295   2.569766   1.775116   1.782363   0.000000
 Stoichiometry    C5H7O3(2)
 Framework group  C1[X(C5H7O3)]
 Deg. of freedom    39
 Full point group                 C1      NOp   1
 Largest Abelian subgroup         C1      NOp   1
 Largest concise Abelian subgroup C1      NOp   1
                         Standard orientation:                         
 ---------------------------------------------------------------------
 Center     Atomic      Atomic             Coordinates (Angstroms)
 Number     Number       Type             X           Y           Z
 ---------------------------------------------------------------------
      1          8           0        2.636394    1.741313   -0.247978
      2          1           0        1.837295    2.233542   -0.016643
      3          6           0       -3.192531    1.030258    0.403574
      4          1           0       -4.072559    1.577125    0.650709
      5          6           0       -2.203449    0.414426    0.125472
      6          6           0       -1.036892   -0.375552   -0.229369
      7          8           0       -1.080548   -1.477138   -0.694938
      8          8           0        0.098330    0.295087    0.037115
      9          6           0        1.309068   -0.376613   -0.279638
     10          6           0        1.773046   -1.293988    0.813617
     11          1           0        2.182312    0.713580   -0.354540
     12          1           0        1.270336   -0.803629   -1.281269
     13          1           0        2.752892   -1.704894    0.569503
     14          1           0        1.838520   -0.759184    1.761898
     15          1           0        1.062342   -2.121833    0.914812
 ---------------------------------------------------------------------
 Rotational constants (GHZ):           3.0388491           1.1299952           0.9025300
 Standard basis: 6-311++G(d,p) (5D, 7F)
 There are   233 symmetry adapted cartesian basis functions of A   symmetry.
 There are   225 symmetry adapted basis functions of A   symmetry.
   225 basis functions,   351 primitive gaussians,   233 cartesian basis functions
    31 alpha electrons       30 beta electrons
       nuclear repulsion energy       348.6974438984 Hartrees.
 NAtoms=   15 NActive=   15 NUniq=   15 SFac= 1.00D+00 NAtFMM=   60 NAOKFM=F Big=F
 Integral buffers will be    131072 words long.
 Raffenetti 2 integral format.
 Two-electron integral symmetry is turned on.
 One-electron integrals computed using PRISM.
 NBasis=   225 RedAO= T EigKep=  7.82D-06  NBF=   225
 NBsUse=   224 1.00D-06 EigRej=  8.30D-07 NBFU=   224
 ExpMin= 3.60D-02 ExpMax= 8.59D+03 ExpMxC= 1.30D+03 IAcc=3 IRadAn=         5 AccDes= 0.00D+00
 Harris functional with IExCor= 1009 and IRadAn=       5 diagonalized for initial guess.
 HarFok:  IExCor= 1009 AccDes= 0.00D+00 IRadAn=         5 IDoV= 1 UseB2=F ITyADJ=14
 ICtDFT=  3500011 ScaDFX=  1.000000  1.000000  1.000000  1.000000
 FoFCou: FMM=F IPFlag=           0 FMFlag=      100000 FMFlg1=           0
         NFxFlg=           0 DoJE=T BraDBF=F KetDBF=T FulRan=T
         wScrn=  0.000000 ICntrl=       500 IOpCl=  0 I1Cent=   200000004 NGrid=           0
         NMat0=    1 NMatS0=      1 NMatT0=    0 NMatD0=    1 NMtDS0=    0 NMtDT0=    0
 Petite list used in FoFCou.
 Initial guess <Sx>= 0.0000 <Sy>= 0.0000 <Sz>= 0.5000 <S**2>= 0.7500 S= 0.5000
 Requested convergence on RMS density matrix=1.00D-08 within 128 cycles.
 Requested convergence on MAX density matrix=1.00D-06.
 Requested convergence on             energy=1.00D-06.
 No special actions if energy rises.
 SCF Done:  E(UM062X) =  -420.208070988     A.U. after   17 cycles
            NFock= 17  Conv=0.52D-08     -V/T= 2.0034
 <Sx>= 0.0000 <Sy>= 0.0000 <Sz>= 0.5000 <S**2>= 0.7586 S= 0.5043
 <L.S>=  0.00000000000    
 Annihilation of the first spin contaminant:
 S**2 before annihilation     0.7586,   after     0.7500
 DoSCS=F DFT=T ScalE2(SS,OS)=  1.000000  1.000000
 Range of M.O.s used for correlation:     1   224
 NBasis=   225 NAE=    31 NBE=    30 NFC=     0 NFV=     0
 NROrb=    224 NOA=    31 NOB=    30 NVA=   193 NVB=   194

 **** Warning!!: The largest alpha MO coefficient is  0.10387784D+03


 **** Warning!!: The largest beta MO coefficient is  0.10184960D+03

 Symmetrizing basis deriv contribution to polar:
 IMax=3 JMax=2 DiffMx= 0.00D+00
 G2DrvN: will do    16 centers at a time, making    1 passes.
 Calling FoFCou, ICntrl=  3107 FMM=F I1Cent=   0 AccDes= 0.00D+00.
 End of G2Drv F.D. properties file   721 does not exist.
 End of G2Drv F.D. properties file   722 does not exist.
 End of G2Drv F.D. properties file   788 does not exist.
          IDoAtm=111111111111111
          Differentiating once with respect to electric field.
                with respect to dipole field.
          Differentiating once with respect to nuclear coordinates.
 Keep R1 and R2 ints in memory in canonical form, NReq=671901989.
          There are    48 degrees of freedom in the 1st order CPHF.  IDoFFX=6 NUNeed=     3.
     45 vectors produced by pass  0 Test12= 2.46D-14 2.08D-09 XBig12= 9.09D+01 3.44D+00.
 AX will form    45 AO Fock derivatives at one time.
     45 vectors produced by pass  1 Test12= 2.46D-14 2.08D-09 XBig12= 1.84D+01 7.47D-01.
     45 vectors produced by pass  2 Test12= 2.46D-14 2.08D-09 XBig12= 6.55D-01 1.23D-01.
     45 vectors produced by pass  3 Test12= 2.46D-14 2.08D-09 XBig12= 9.81D-03 1.31D-02.
     45 vectors produced by pass  4 Test12= 2.46D-14 2.08D-09 XBig12= 1.02D-04 1.42D-03.
     45 vectors produced by pass  5 Test12= 2.46D-14 2.08D-09 XBig12= 9.73D-07 9.68D-05.
     45 vectors produced by pass  6 Test12= 2.46D-14 2.08D-09 XBig12= 6.69D-09 7.07D-06.
     24 vectors produced by pass  7 Test12= 2.46D-14 2.08D-09 XBig12= 3.62D-11 4.69D-07.
      3 vectors produced by pass  8 Test12= 2.46D-14 2.08D-09 XBig12= 2.22D-13 5.26D-08.
      2 vectors produced by pass  9 Test12= 2.46D-14 2.08D-09 XBig12= 2.20D-15 6.26D-09.
 InvSVY:  IOpt=1 It=  1 EMax= 3.55D-15
 Solved reduced A of dimension   344 with    48 vectors.
 Isotropic polarizability for W=    0.000000       74.70 Bohr**3.
 End of Minotr F.D. properties file   721 does not exist.
 End of Minotr F.D. properties file   722 does not exist.
 End of Minotr F.D. properties file   788 does not exist.

 **********************************************************************

            Population analysis using the SCF density.

 **********************************************************************

 Orbital symmetries:
 Alpha Orbitals:
       Occupied  (A) (A) (A) (A) (A) (A) (A) (A) (A) (A) (A) (A)
                 (A) (A) (A) (A) (A) (A) (A) (A) (A) (A) (A) (A)
                 (A) (A) (A) (A) (A) (A) (A)
       Virtual   (A) (A) (A) (A) (A) (A) (A) (A) (A) (A) (A) (A)
                 (A) (A) (A) (A) (A) (A) (A) (A) (A) (A) (A) (A)
                 (A) (A) (A) (A) (A) (A) (A) (A) (A) (A) (A) (A)
                 (A) (A) (A) (A) (A) (A) (A) (A) (A) (A) (A) (A)
                 (A) (A) (A) (A) (A) (A) (A) (A) (A) (A) (A) (A)
                 (A) (A) (A) (A) (A) (A) (A) (A) (A) (A) (A) (A)
                 (A) (A) (A) (A) (A) (A) (A) (A) (A) (A) (A) (A)
                 (A) (A) (A) (A) (A) (A) (A) (A) (A) (A) (A) (A)
                 (A) (A) (A) (A) (A) (A) (A) (A) (A) (A) (A) (A)
                 (A) (A) (A) (A) (A) (A) (A) (A) (A) (A) (A) (A)
                 (A) (A) (A) (A) (A) (A) (A) (A) (A) (A) (A) (A)
                 (A) (A) (A) (A) (A) (A) (A) (A) (A) (A) (A) (A)
                 (A) (A) (A) (A) (A) (A) (A) (A) (A) (A) (A) (A)
                 (A) (A) (A) (A) (A) (A) (A) (A) (A) (A) (A) (A)
                 (A) (A) (A) (A) (A) (A) (A) (A) (A) (A) (A) (A)
                 (A) (A) (A) (A) (A) (A) (A) (A) (A) (A) (A) (A)
                 (A)
 Beta  Orbitals:
       Occupied  (A) (A) (A) (A) (A) (A) (A) (A) (A) (A) (A) (A)
                 (A) (A) (A) (A) (A) (A) (A) (A) (A) (A) (A) (A)
                 (A) (A) (A) (A) (A) (A)
       Virtual   (A) (A) (A) (A) (A) (A) (A) (A) (A) (A) (A) (A)
                 (A) (A) (A) (A) (A) (A) (A) (A) (A) (A) (A) (A)
                 (A) (A) (A) (A) (A) (A) (A) (A) (A) (A) (A) (A)
                 (A) (A) (A) (A) (A) (A) (A) (A) (A) (A) (A) (A)
                 (A) (A) (A) (A) (A) (A) (A) (A) (A) (A) (A) (A)
                 (A) (A) (A) (A) (A) (A) (A) (A) (A) (A) (A) (A)
                 (A) (A) (A) (A) (A) (A) (A) (A) (A) (A) (A) (A)
                 (A) (A) (A) (A) (A) (A) (A) (A) (A) (A) (A) (A)
                 (A) (A) (A) (A) (A) (A) (A) (A) (A) (A) (A) (A)
                 (A) (A) (A) (A) (A) (A) (A) (A) (A) (A) (A) (A)
                 (A) (A) (A) (A) (A) (A) (A) (A) (A) (A) (A) (A)
                 (A) (A) (A) (A) (A) (A) (A) (A) (A) (A) (A) (A)
                 (A) (A) (A) (A) (A) (A) (A) (A) (A) (A) (A) (A)
                 (A) (A) (A) (A) (A) (A) (A) (A) (A) (A) (A) (A)
                 (A) (A) (A) (A) (A) (A) (A) (A) (A) (A) (A) (A)
                 (A) (A) (A) (A) (A) (A) (A) (A) (A) (A) (A) (A)
                 (A) (A)
 The electronic state is 2-A.
 Alpha  occ. eigenvalues --  -19.70833 -19.65188 -19.62629 -10.72672 -10.64291
 Alpha  occ. eigenvalues --  -10.58413 -10.57932 -10.55897  -1.28047  -1.18742
 Alpha  occ. eigenvalues --   -1.11511  -0.92252  -0.88594  -0.80197  -0.71934
 Alpha  occ. eigenvalues --   -0.67127  -0.62546  -0.61036  -0.59036  -0.58257
 Alpha  occ. eigenvalues --   -0.52737  -0.51685  -0.49381  -0.48458  -0.46370
 Alpha  occ. eigenvalues --   -0.41547  -0.41291  -0.39189  -0.38555  -0.37745
 Alpha  occ. eigenvalues --   -0.32078
 Alpha virt. eigenvalues --   -0.03167  -0.00532   0.00424   0.01498   0.01808
 Alpha virt. eigenvalues --    0.02959   0.03142   0.04557   0.05822   0.05921
 Alpha virt. eigenvalues --    0.06498   0.07307   0.07768   0.09220   0.10091
 Alpha virt. eigenvalues --    0.11129   0.11880   0.12191   0.12535   0.12894
 Alpha virt. eigenvalues --    0.13568   0.14140   0.14585   0.15959   0.16165
 Alpha virt. eigenvalues --    0.17442   0.17585   0.18168   0.19434   0.19941
 Alpha virt. eigenvalues --    0.21425   0.21826   0.23678   0.24853   0.25863
 Alpha virt. eigenvalues --    0.26658   0.28245   0.28281   0.29120   0.29534
 Alpha virt. eigenvalues --    0.30353   0.31013   0.31632   0.32570   0.33643
 Alpha virt. eigenvalues --    0.34140   0.34971   0.36799   0.37410   0.40415
 Alpha virt. eigenvalues --    0.41825   0.44063   0.45769   0.47892   0.49979
 Alpha virt. eigenvalues --    0.50448   0.53159   0.55708   0.57082   0.59427
 Alpha virt. eigenvalues --    0.60520   0.62455   0.65042   0.65946   0.66286
 Alpha virt. eigenvalues --    0.67244   0.68406   0.70123   0.71448   0.73339
 Alpha virt. eigenvalues --    0.74190   0.75122   0.78121   0.81195   0.83766
 Alpha virt. eigenvalues --    0.88371   0.91266   0.95163   1.00531   1.04901
 Alpha virt. eigenvalues --    1.06709   1.09563   1.10230   1.12760   1.13541
 Alpha virt. eigenvalues --    1.15196   1.16443   1.16887   1.18790   1.20871
 Alpha virt. eigenvalues --    1.22231   1.23102   1.28688   1.28970   1.33028
 Alpha virt. eigenvalues --    1.34860   1.35721   1.38013   1.41702   1.42947
 Alpha virt. eigenvalues --    1.45415   1.47784   1.50278   1.54316   1.57713
 Alpha virt. eigenvalues --    1.58687   1.59085   1.60332   1.61307   1.63340
 Alpha virt. eigenvalues --    1.64692   1.66721   1.67393   1.70919   1.75072
 Alpha virt. eigenvalues --    1.78442   1.81861   1.83172   1.84890   1.88593
 Alpha virt. eigenvalues --    1.92261   1.96770   1.99376   2.03982   2.07365
 Alpha virt. eigenvalues --    2.10794   2.13847   2.14693   2.22792   2.29487
 Alpha virt. eigenvalues --    2.40987   2.41891   2.50040   2.50681   2.53731
 Alpha virt. eigenvalues --    2.57262   2.58615   2.59767   2.60810   2.63635
 Alpha virt. eigenvalues --    2.65439   2.68852   2.71306   2.72775   2.78168
 Alpha virt. eigenvalues --    2.80968   2.82740   2.88214   2.91425   2.97113
 Alpha virt. eigenvalues --    2.99864   3.03056   3.05081   3.07632   3.10234
 Alpha virt. eigenvalues --    3.13152   3.19196   3.20569   3.22178   3.26862
 Alpha virt. eigenvalues --    3.30111   3.32373   3.36528   3.42454   3.50415
 Alpha virt. eigenvalues --    3.55687   3.65486   3.73385   3.81517   3.84100
 Alpha virt. eigenvalues --    3.84650   3.98512   4.06266   4.11083   4.16577
 Alpha virt. eigenvalues --    4.23790   5.09415   5.13106   5.15447   5.30065
 Alpha virt. eigenvalues --    5.43430   5.48361   5.68984   5.72392   5.92544
 Alpha virt. eigenvalues --   23.61339  23.84008  23.92796  24.02944  25.16657
 Alpha virt. eigenvalues --   49.97353  50.00100  50.09325
  Beta  occ. eigenvalues --  -19.70801 -19.65181 -19.61933 -10.72634 -10.63566
  Beta  occ. eigenvalues --  -10.58413 -10.57932 -10.55909  -1.27825  -1.18556
  Beta  occ. eigenvalues --   -1.08869  -0.91469  -0.87855  -0.79754  -0.70691
  Beta  occ. eigenvalues --   -0.66222  -0.62266  -0.60188  -0.58270  -0.55967
  Beta  occ. eigenvalues --   -0.51712  -0.50799  -0.48391  -0.47130  -0.44142
  Beta  occ. eigenvalues --   -0.41206  -0.40873  -0.38538  -0.37871  -0.37665
  Beta virt. eigenvalues --   -0.09535  -0.03060  -0.00458   0.00491   0.01646
  Beta virt. eigenvalues --    0.01983   0.03048   0.03203   0.04784   0.05889
  Beta virt. eigenvalues --    0.05979   0.06677   0.07404   0.07811   0.09340
  Beta virt. eigenvalues --    0.10198   0.11200   0.11999   0.12288   0.12679
  Beta virt. eigenvalues --    0.13031   0.13676   0.14224   0.14739   0.16187
  Beta virt. eigenvalues --    0.16338   0.17515   0.17718   0.18174   0.19609
  Beta virt. eigenvalues --    0.20163   0.21570   0.22325   0.24153   0.25380
  Beta virt. eigenvalues --    0.25583   0.26768   0.28393   0.28444   0.29383
  Beta virt. eigenvalues --    0.29767   0.31017   0.31205   0.31826   0.32791
  Beta virt. eigenvalues --    0.34001   0.34335   0.35067   0.37424   0.38090
  Beta virt. eigenvalues --    0.41388   0.42285   0.44275   0.46001   0.48015
  Beta virt. eigenvalues --    0.50178   0.50653   0.53351   0.55767   0.57533
  Beta virt. eigenvalues --    0.60038   0.60769   0.62616   0.65349   0.66446
  Beta virt. eigenvalues --    0.67268   0.67568   0.69222   0.70874   0.71772
  Beta virt. eigenvalues --    0.73457   0.74377   0.75511   0.78490   0.81439
  Beta virt. eigenvalues --    0.83851   0.88609   0.91562   0.95146   1.01610
  Beta virt. eigenvalues --    1.05994   1.06882   1.09766   1.10585   1.13423
  Beta virt. eigenvalues --    1.14356   1.15506   1.16769   1.17159   1.19674
  Beta virt. eigenvalues --    1.21057   1.22503   1.23277   1.29107   1.29224
  Beta virt. eigenvalues --    1.33168   1.35065   1.35833   1.38439   1.41843
  Beta virt. eigenvalues --    1.43289   1.45979   1.48278   1.50889   1.56165
  Beta virt. eigenvalues --    1.58289   1.58920   1.59709   1.60529   1.61792
  Beta virt. eigenvalues --    1.63914   1.64973   1.67023   1.68112   1.71613
  Beta virt. eigenvalues --    1.75339   1.78931   1.82475   1.83245   1.85479
  Beta virt. eigenvalues --    1.88977   1.92761   1.97339   1.99626   2.04323
  Beta virt. eigenvalues --    2.07928   2.12051   2.14559   2.15549   2.25021
  Beta virt. eigenvalues --    2.30345   2.41085   2.43803   2.50332   2.50902
  Beta virt. eigenvalues --    2.53409   2.57584   2.58962   2.59834   2.62174
  Beta virt. eigenvalues --    2.63809   2.65553   2.69434   2.71581   2.73308
  Beta virt. eigenvalues --    2.76472   2.81005   2.81965   2.88827   2.92133
  Beta virt. eigenvalues --    2.97200   3.00242   3.03089   3.05163   3.08093
  Beta virt. eigenvalues --    3.12134   3.13605   3.19350   3.21135   3.23034
  Beta virt. eigenvalues --    3.28372   3.30708   3.32560   3.37018   3.42610
  Beta virt. eigenvalues --    3.52678   3.55734   3.65576   3.73670   3.82511
  Beta virt. eigenvalues --    3.84752   3.84995   3.99969   4.07385   4.11679
  Beta virt. eigenvalues --    4.16809   4.25126   5.10131   5.13703   5.15551
  Beta virt. eigenvalues --    5.30102   5.43892   5.50260   5.69905   5.73539
  Beta virt. eigenvalues --    5.92703  23.61347  23.85144  23.92846  24.02955
  Beta virt. eigenvalues --   25.16662  49.97394  49.99344  50.09320
          Condensed to atoms (all electrons):
               1          2          3          4          5          6
     1  O    7.952648   0.306247  -0.001838  -0.000098   0.012762  -0.004162
     2  H    0.306247   0.474022  -0.000722  -0.000224  -0.000065  -0.000488
     3  C   -0.001838  -0.000722   5.800586   0.447520  -0.483495   0.940582
     4  H   -0.000098  -0.000224   0.447520   0.424428  -0.078026   0.023924
     5  C    0.012762  -0.000065  -0.483495  -0.078026   8.128396  -2.222426
     6  C   -0.004162  -0.000488   0.940582   0.023924  -2.222426   7.570621
     7  O   -0.000005  -0.000203  -0.098175  -0.003384   0.132125   0.349279
     8  O    0.028461   0.014130  -0.095064  -0.004880  -0.266369   0.035322
     9  C   -0.050364  -0.004017   0.053683   0.001374  -0.254433   0.099678
    10  C   -0.003708   0.018896  -0.015100  -0.001466  -0.065349  -0.085803
    11  H    0.224080  -0.063022   0.003696   0.000414  -0.005917   0.013442
    12  H   -0.002902  -0.001830  -0.001200  -0.000021   0.007362  -0.003614
    13  H   -0.000891   0.001772  -0.000581  -0.000036  -0.001037  -0.003039
    14  H    0.003828  -0.001426   0.000218   0.000032   0.005477   0.003030
    15  H   -0.004595   0.000454   0.004111   0.000018  -0.028925   0.011345
               7          8          9         10         11         12
     1  O   -0.000005   0.028461  -0.050364  -0.003708   0.224080  -0.002902
     2  H   -0.000203   0.014130  -0.004017   0.018896  -0.063022  -0.001830
     3  C   -0.098175  -0.095064   0.053683  -0.015100   0.003696  -0.001200
     4  H   -0.003384  -0.004880   0.001374  -0.001466   0.000414  -0.000021
     5  C    0.132125  -0.266369  -0.254433  -0.065349  -0.005917   0.007362
     6  C    0.349279   0.035322   0.099678  -0.085803   0.013442  -0.003614
     7  O    7.978422  -0.144110   0.076575  -0.088260   0.004470  -0.011628
     8  O   -0.144110   8.381057   0.074074   0.031714  -0.038553  -0.024650
     9  C    0.076575   0.074074   6.447755  -0.430776   0.152072   0.423851
    10  C   -0.088260   0.031714  -0.430776   5.937610  -0.081495  -0.091363
    11  H    0.004470  -0.038553   0.152072  -0.081495   0.482915  -0.028349
    12  H   -0.011628  -0.024650   0.423851  -0.091363  -0.028349   0.505112
    13  H   -0.001830   0.020160  -0.069322   0.430359  -0.010916  -0.006331
    14  H    0.001068  -0.003857  -0.060206   0.421297  -0.005768   0.000350
    15  H    0.003272  -0.022429   0.013262   0.355982   0.008615  -0.003010
              13         14         15
     1  O   -0.000891   0.003828  -0.004595
     2  H    0.001772  -0.001426   0.000454
     3  C   -0.000581   0.000218   0.004111
     4  H   -0.000036   0.000032   0.000018
     5  C   -0.001037   0.005477  -0.028925
     6  C   -0.003039   0.003030   0.011345
     7  O   -0.001830   0.001068   0.003272
     8  O    0.020160  -0.003857  -0.022429
     9  C   -0.069322  -0.060206   0.013262
    10  C    0.430359   0.421297   0.355982
    11  H   -0.010916  -0.005768   0.008615
    12  H   -0.006331   0.000350  -0.003010
    13  H    0.511187  -0.024835  -0.032111
    14  H   -0.024835   0.514712  -0.049551
    15  H   -0.032111  -0.049551   0.546265
          Atomic-Atomic Spin Densities.
               1          2          3          4          5          6
     1  O    0.430949  -0.002526  -0.000378  -0.000001   0.005267   0.002461
     2  H   -0.002526  -0.009829   0.000232   0.000006  -0.001829   0.000007
     3  C   -0.000378   0.000232  -0.003490  -0.000145  -0.001234   0.005975
     4  H   -0.000001   0.000006  -0.000145  -0.000110   0.000100   0.000435
     5  C    0.005267  -0.001829  -0.001234   0.000100   0.027903  -0.016767
     6  C    0.002461   0.000007   0.005975   0.000435  -0.016767   0.023072
     7  O    0.000028   0.000010   0.000359   0.000021   0.000485  -0.000706
     8  O    0.037857  -0.006127  -0.001845  -0.000172   0.010966   0.000125
     9  C   -0.171424   0.015466   0.001385  -0.000161  -0.028211  -0.009237
    10  C    0.023146  -0.002792   0.000052   0.000065   0.007756   0.002638
    11  H   -0.011136   0.005436   0.000530   0.000029  -0.002929   0.002702
    12  H    0.004770  -0.000514   0.000045  -0.000001   0.001368   0.000962
    13  H    0.000345   0.000072   0.000033   0.000002  -0.000142   0.000908
    14  H    0.005666  -0.000768  -0.000144   0.000001   0.002693   0.001177
    15  H   -0.002998   0.000335   0.000033  -0.000010  -0.003732  -0.003008
               7          8          9         10         11         12
     1  O    0.000028   0.037857  -0.171424   0.023146  -0.011136   0.004770
     2  H    0.000010  -0.006127   0.015466  -0.002792   0.005436  -0.000514
     3  C    0.000359  -0.001845   0.001385   0.000052   0.000530   0.000045
     4  H    0.000021  -0.000172  -0.000161   0.000065   0.000029  -0.000001
     5  C    0.000485   0.010966  -0.028211   0.007756  -0.002929   0.001368
     6  C   -0.000706   0.000125  -0.009237   0.002638   0.002702   0.000962
     7  O    0.002789   0.001537  -0.000754  -0.001276  -0.000660   0.000006
     8  O    0.001537   0.077943  -0.165757   0.021064  -0.016048   0.009852
     9  C   -0.000754  -0.165757   1.129973  -0.084368   0.099719  -0.039311
    10  C   -0.001276   0.021064  -0.084368  -0.016782  -0.014087   0.013076
    11  H   -0.000660  -0.016048   0.099719  -0.014087  -0.105848   0.005490
    12  H    0.000006   0.009852  -0.039311   0.013076   0.005490  -0.007093
    13  H    0.000003  -0.000119  -0.002245   0.003984  -0.001533   0.000125
    14  H    0.000113   0.007434  -0.033199   0.015235  -0.000938   0.001804
    15  H   -0.000386  -0.004027   0.009744   0.003049   0.000220  -0.004227
              13         14         15
     1  O    0.000345   0.005666  -0.002998
     2  H    0.000072  -0.000768   0.000335
     3  C    0.000033  -0.000144   0.000033
     4  H    0.000002   0.000001  -0.000010
     5  C   -0.000142   0.002693  -0.003732
     6  C    0.000908   0.001177  -0.003008
     7  O    0.000003   0.000113  -0.000386
     8  O   -0.000119   0.007434  -0.004027
     9  C   -0.002245  -0.033199   0.009744
    10  C    0.003984   0.015235   0.003049
    11  H   -0.001533  -0.000938   0.000220
    12  H    0.000125   0.001804  -0.004227
    13  H    0.002326   0.000307  -0.001682
    14  H    0.000307   0.021075  -0.012617
    15  H   -0.001682  -0.012617   0.062043
 Mulliken charges and spin densities:
               1          2
     1  O   -0.459462   0.322026
     2  H    0.256476  -0.002822
     3  C   -0.554219   0.001407
     4  H    0.190425   0.000061
     5  C    1.119919   0.001694
     6  C   -0.727691   0.010745
     7  O   -0.197615   0.001569
     8  O    0.014994  -0.027318
     9  C   -0.473204   0.721619
    10  C   -0.332538  -0.029241
    11  H    0.344315  -0.039054
    12  H    0.238221  -0.013649
    13  H    0.187451   0.002384
    14  H    0.195632   0.007840
    15  H    0.197297   0.042738
 Sum of Mulliken charges =  -0.00000   1.00000
 Mulliken charges and spin densities with hydrogens summed into heavy atoms:
               1          2
     1  O    0.141329   0.280150
     3  C   -0.363794   0.001468
     5  C    1.119919   0.001694
     6  C   -0.727691   0.010745
     7  O   -0.197615   0.001569
     8  O    0.014994  -0.027318
     9  C   -0.234983   0.707970
    10  C    0.247841   0.023721
 APT charges:
               1
     1  O   -0.456440
     2  H    0.256526
     3  C   -0.164783
     4  H    0.238978
     5  C   -0.325780
     6  C    1.557586
     7  O   -0.782226
     8  O   -1.051333
     9  C    0.796303
    10  C   -0.150012
    11  H   -0.020691
    12  H   -0.016269
    13  H    0.034824
    14  H    0.040828
    15  H    0.042492
 Sum of APT charges =  -0.00000
 APT charges with hydrogens summed into heavy atoms:
               1
     1  O   -0.220606
     3  C    0.074194
     5  C   -0.325780
     6  C    1.557586
     7  O   -0.782226
     8  O   -1.051333
     9  C    0.780034
    10  C   -0.031868
 Electronic spatial extent (au):  <R**2>=           1265.4081
 Charge=             -0.0000 electrons
 Dipole moment (field-independent basis, Debye):
    X=             -2.1351    Y=             -0.0688    Z=              1.3099  Tot=              2.5059
 Quadrupole moment (field-independent basis, Debye-Ang):
   XX=            -47.7078   YY=            -49.4709   ZZ=            -47.8948
   XY=            -14.6923   XZ=             -1.6112   YZ=             -0.2457
 Traceless Quadrupole moment (field-independent basis, Debye-Ang):
   XX=              0.6500   YY=             -1.1131   ZZ=              0.4631
   XY=            -14.6923   XZ=             -1.6112   YZ=             -0.2457
 Octapole moment (field-independent basis, Debye-Ang**2):
  XXX=            -63.2274  YYY=             10.3500  ZZZ=             -2.8680  XYY=             -5.1007
  XXY=             -1.2286  XXZ=             13.5915  XZZ=              4.6743  YZZ=             -1.0961
  YYZ=              7.1404  XYZ=              1.2416
 Hexadecapole moment (field-independent basis, Debye-Ang**3):
 XXXX=          -1048.8039 YYYY=           -380.3119 ZZZZ=           -122.1504 XXXY=           -173.8772
 XXXZ=            -34.3923 YYYX=            -10.0940 YYYZ=              2.6742 ZZZX=              4.1669
 ZZZY=              3.7399 XXYY=           -257.5645 XXZZ=           -216.6172 YYZZ=            -91.5975
 XXYZ=             24.6287 YYXZ=             -2.9563 ZZXY=             -1.6528
 N-N= 3.486974438984D+02 E-N=-1.681415764554D+03  KE= 4.187834283633D+02
  Exact polarizability:  92.984  -4.079  79.502  -4.226   3.597  51.612
 Approx polarizability:  95.892  -8.000  93.874  -6.896   9.781  61.073
                          Isotropic Fermi Contact Couplings
        Atom                 a.u.       MegaHertz       Gauss      10(-4) cm-1
     1  O(17)              0.07572     -45.90211     -16.37901     -15.31129
     2  H(1)              -0.00497     -22.21243      -7.92595      -7.40927
     3  C(13)              0.00050       0.56758       0.20253       0.18932
     4  H(1)              -0.00000      -0.00997      -0.00356      -0.00333
     5  C(13)             -0.00032      -0.35759      -0.12760      -0.11928
     6  C(13)              0.02949      33.15487      11.83048      11.05927
     7  O(17)              0.00272      -1.64663      -0.58756      -0.54926
     8  O(17)              0.05490     -33.27895     -11.87476     -11.10066
     9  C(13)              0.27310     307.01326     109.54997     102.40860
    10  C(13)             -0.00739      -8.30882      -2.96479      -2.77152
    11  H(1)              -0.02964    -132.50644     -47.28159     -44.19939
    12  H(1)              -0.00127      -5.65737      -2.01869      -1.88709
    13  H(1)               0.00114       5.10090       1.82013       1.70148
    14  H(1)               0.00477      21.31527       7.60582       7.11001
    15  H(1)               0.02072      92.60585      33.04407      30.88999
 --------------------------------------------------------
       Center         ----  Spin Dipole Couplings  ----
                      3XX-RR        3YY-RR        3ZZ-RR
 --------------------------------------------------------
     1   Atom       -0.210774      0.938965     -0.728191
     2   Atom        0.032791      0.014625     -0.047416
     3   Atom        0.001475     -0.001439     -0.000037
     4   Atom        0.001140     -0.000508     -0.000632
     5   Atom        0.004430     -0.001199     -0.003231
     6   Atom        0.030058     -0.014352     -0.015705
     7   Atom       -0.001610     -0.011437      0.013047
     8   Atom       -0.032098      0.056842     -0.024743
     9   Atom        0.014741      0.411295     -0.426035
    10   Atom       -0.022033      0.027127     -0.005094
    11   Atom       -0.025497      0.150240     -0.124743
    12   Atom       -0.036689     -0.012635      0.049325
    13   Atom        0.001449      0.004612     -0.006061
    14   Atom       -0.008229     -0.006267      0.014497
    15   Atom       -0.003182      0.005505     -0.002323
 --------------------------------------------------------
                        XY            XZ            YZ
 --------------------------------------------------------
     1   Atom        0.957595      0.065065      0.105959
     2   Atom       -0.034337     -0.021950      0.017651
     3   Atom       -0.000784     -0.000081      0.001675
     4   Atom       -0.000524     -0.000275      0.000138
     5   Atom       -0.001928     -0.001121     -0.000033
     6   Atom        0.013941      0.012522      0.005891
     7   Atom        0.006287     -0.002495      0.000304
     8   Atom        0.099430     -0.001418     -0.046324
     9   Atom        0.615250     -0.012375     -0.016949
    10   Atom        0.008519     -0.002454     -0.029591
    11   Atom        0.161236      0.001537      0.009526
    12   Atom        0.018588     -0.002483      0.032964
    13   Atom       -0.009441      0.005488     -0.006717
    14   Atom        0.000384      0.003523     -0.005880
    15   Atom        0.004845      0.000724     -0.008176
 --------------------------------------------------------


 ---------------------------------------------------------------------------------
              Anisotropic Spin Dipole Couplings in Principal Axis System
 ---------------------------------------------------------------------------------

       Atom             a.u.   MegaHertz   Gauss  10(-4) cm-1        Axes

              Baa    -0.7539    54.548    19.464    18.195  0.8532 -0.4682 -0.2299
     1 O(17)  Bbb    -0.7341    53.120    18.954    17.719  0.1735 -0.1608  0.9716
              Bcc     1.4880  -107.668   -38.419   -35.914  0.4919  0.8688  0.0560
 
              Baa    -0.0544   -29.027   -10.358    -9.682  0.1823 -0.1575  0.9705
     2 H(1)   Bbb    -0.0118    -6.297    -2.247    -2.101  0.6140  0.7892  0.0127
              Bcc     0.0662    35.325    12.605    11.783  0.7680 -0.5936 -0.2406
 
              Baa    -0.0026    -0.355    -0.127    -0.118  0.1483  0.8342 -0.5312
     3 C(13)  Bbb     0.0008     0.103     0.037     0.034  0.5209  0.3907  0.7590
              Bcc     0.0019     0.252     0.090     0.084  0.8406 -0.3892 -0.3766
 
              Baa    -0.0007    -0.387    -0.138    -0.129 -0.0736 -0.6563  0.7509
     4 H(1)   Bbb    -0.0006    -0.327    -0.117    -0.109  0.3102  0.7006  0.6426
              Bcc     0.0013     0.715     0.255     0.238  0.9478 -0.2803 -0.1520
 
              Baa    -0.0034    -0.462    -0.165    -0.154  0.1792  0.1681  0.9693
     5 C(13)  Bbb    -0.0017    -0.230    -0.082    -0.077  0.2572  0.9430 -0.2111
              Bcc     0.0052     0.693     0.247     0.231  0.9496 -0.2872 -0.1257
 
              Baa    -0.0210    -2.812    -1.004    -0.938 -0.0032 -0.6618  0.7497
     6 C(13)  Bbb    -0.0166    -2.230    -0.796    -0.744 -0.3725  0.6965  0.6133
              Bcc     0.0376     5.043     1.799     1.682  0.9280  0.2773  0.2487
 
              Baa    -0.0146     1.054     0.376     0.352 -0.4436  0.8948 -0.0499
     7 O(17)  Bbb     0.0011    -0.079    -0.028    -0.026  0.8787  0.4453  0.1720
              Bcc     0.0135    -0.976    -0.348    -0.325 -0.1761 -0.0324  0.9838
 
              Baa    -0.1045     7.559     2.697     2.522  0.7658 -0.5619 -0.3128
     8 O(17)  Bbb    -0.0270     1.957     0.698     0.653  0.3988  0.0333  0.9164
              Bcc     0.1315    -9.516    -3.396    -3.174  0.5045  0.8266 -0.2496
 
              Baa    -0.4334   -58.157   -20.752   -19.399  0.8083 -0.5887  0.0034
     9 C(13)  Bbb    -0.4264   -57.216   -20.416   -19.085  0.0069  0.0152  0.9999
              Bcc     0.8598   115.373    41.168    38.484  0.5887  0.8082 -0.0163
 
              Baa    -0.0251    -3.372    -1.203    -1.125  0.7356 -0.4206 -0.5310
    10 C(13)  Bbb    -0.0207    -2.773    -0.989    -0.925  0.6657  0.3035  0.6818
              Bcc     0.0458     6.145     2.193     2.050  0.1256  0.8550 -0.5032
 
              Baa    -0.1271   -67.817   -24.199   -22.621  0.4347 -0.2821  0.8553
    11 H(1)   Bbb    -0.1191   -63.551   -22.676   -21.198  0.7421 -0.4259 -0.5176
              Bcc     0.2462   131.368    46.875    43.819  0.5103  0.8597  0.0242
 
              Baa    -0.0506   -27.016    -9.640    -9.012  0.7956 -0.5692  0.2075
    12 H(1)   Bbb    -0.0132    -7.051    -2.516    -2.352  0.6035  0.7150 -0.3529
              Bcc     0.0638    34.067    12.156    11.364  0.0525  0.4060  0.9124
 
              Baa    -0.0095    -5.056    -1.804    -1.686 -0.1995  0.3096  0.9297
    13 H(1)   Bbb    -0.0065    -3.487    -1.244    -1.163  0.7752  0.6302 -0.0436
              Bcc     0.0160     8.543     3.048     2.850 -0.5994  0.7120 -0.3657
 
              Baa    -0.0096    -5.108    -1.823    -1.704  0.8062 -0.5367 -0.2491
    14 H(1)   Bbb    -0.0069    -3.691    -1.317    -1.231  0.5765  0.8072  0.1268
              Bcc     0.0165     8.798     3.139     2.935  0.1330 -0.2458  0.9601
 
              Baa    -0.0093    -4.983    -1.778    -1.662 -0.5023  0.5371  0.6777
    15 H(1)   Bbb    -0.0023    -1.217    -0.434    -0.406  0.8273  0.0705  0.5573
              Bcc     0.0116     6.201     2.213     2.068  0.2516  0.8405 -0.4798
 

 ---------------------------------------------------------------------------------

 Calling FoFJK, ICntrl=    100127 FMM=F ISym2X=0 I1Cent= 0 IOpClX= 1 NMat=1 NMatS=1 NMatT=0.
 Full mass-weighted force constant matrix:
 Low frequencies ----1161.9254  -23.9226   -0.0002    0.0009    0.0009    9.7684
 Low frequencies ---   22.5867   43.7058   82.1413
 ******    1 imaginary frequencies (negative Signs) ****** 
 Diagonal vibrational polarizability:
       31.9779773      25.0787601     121.4596377
 Harmonic frequencies (cm**-1), IR intensities (KM/Mole), Raman scattering
 activities (A**4/AMU), depolarization ratios for plane and unpolarized
 incident light, reduced masses (AMU), force constants (mDyne/A),
 and normal coordinates:
                      1                      2                      3
                      A                      A                      A
 Frequencies --  -1161.9243                42.9689                81.3857
 Red. masses --      1.1583                 6.9500                 4.4974
 Frc consts  --      0.9213                 0.0076                 0.0176
 IR Inten    --    243.2465                 4.4640                 1.4217
  Atom  AN      X      Y      Z        X      Y      Z        X      Y      Z
     1   8    -0.00   0.00  -0.00     0.08   0.04   0.22     0.21  -0.10  -0.02
     2   1     0.07   0.07   0.00     0.07   0.05   0.15     0.23  -0.00  -0.14
     3   6    -0.00  -0.00   0.00    -0.01   0.01  -0.08    -0.06  -0.20   0.21
     4   1     0.00   0.00   0.00    -0.01   0.03  -0.14    -0.10  -0.32   0.35
     5   6    -0.00   0.00  -0.00     0.00  -0.01  -0.01    -0.02  -0.05   0.03
     6   6    -0.01   0.00  -0.00     0.01  -0.03   0.08     0.00   0.04  -0.09
     7   8    -0.00   0.00   0.00     0.03  -0.16   0.38     0.03   0.04  -0.07
     8   8     0.02  -0.01  -0.00     0.00   0.12  -0.25    -0.01   0.11  -0.18
     9   6    -0.07  -0.09   0.01     0.01   0.08  -0.17    -0.01   0.03   0.00
    10   6     0.01   0.01  -0.00    -0.15  -0.06  -0.22    -0.19   0.11   0.15
    11   1     0.54   0.82   0.01     0.08   0.06   0.15     0.13  -0.06   0.00
    12   1     0.05   0.07  -0.05     0.13   0.22  -0.23     0.10  -0.06   0.04
    13   1     0.00   0.00  -0.00    -0.11  -0.03  -0.14    -0.17   0.05   0.33
    14   1    -0.00   0.01   0.00    -0.27  -0.18  -0.15    -0.29   0.21   0.11
    15   1     0.01  -0.01   0.02    -0.15  -0.08  -0.42    -0.24   0.15   0.14
                      4                      5                      6
                      A                      A                      A
 Frequencies --    112.5887               155.3083               183.8686
 Red. masses --      4.7360                 3.4494                 1.4635
 Frc consts  --      0.0354                 0.0490                 0.0292
 IR Inten    --      1.9017                 3.5150                 2.9201
  Atom  AN      X      Y      Z        X      Y      Z        X      Y      Z
     1   8     0.22  -0.08  -0.09     0.12  -0.10   0.13    -0.08  -0.03   0.04
     2   1     0.31   0.03  -0.02     0.20  -0.04   0.28    -0.12  -0.11   0.10
     3   6    -0.25  -0.17  -0.18    -0.01   0.06   0.00    -0.04  -0.06  -0.01
     4   1    -0.39  -0.32  -0.33     0.04   0.13   0.02    -0.10  -0.15  -0.01
     5   6    -0.08   0.01   0.02    -0.06  -0.02  -0.01     0.03   0.05  -0.00
     6   6    -0.01   0.08   0.11    -0.09  -0.06  -0.02     0.03   0.05  -0.00
     7   8     0.03   0.10   0.05    -0.11  -0.06  -0.01    -0.01   0.04   0.03
     8   8    -0.01   0.06   0.20    -0.08  -0.06  -0.03     0.05   0.02  -0.05
     9   6    -0.04   0.07   0.03    -0.05   0.02  -0.08     0.02  -0.06  -0.04
    10   6     0.06  -0.05  -0.12     0.21   0.23  -0.02     0.02   0.00   0.01
    11   1     0.08  -0.02  -0.04    -0.03  -0.04  -0.05     0.01  -0.04  -0.04
    12   1    -0.16   0.16  -0.01    -0.11  -0.09  -0.03    -0.03  -0.11  -0.01
    13   1     0.01  -0.07  -0.30     0.21   0.30  -0.13    -0.21  -0.41  -0.22
    14   1     0.21  -0.15  -0.08     0.34   0.40  -0.13     0.52   0.17  -0.12
    15   1     0.04  -0.03  -0.11     0.31   0.18   0.25    -0.25   0.28   0.41
                      7                      8                      9
                      A                      A                      A
 Frequencies --    206.8876               223.0149               272.0135
 Red. masses --      1.9116                 1.1482                 4.9141
 Frc consts  --      0.0482                 0.0336                 0.2142
 IR Inten    --     10.9551                87.6456                 1.5627
  Atom  AN      X      Y      Z        X      Y      Z        X      Y      Z
     1   8    -0.07  -0.04   0.01    -0.00   0.01  -0.07    -0.01  -0.00   0.02
     2   1    -0.06  -0.17   0.33     0.18  -0.17   0.95    -0.04  -0.04  -0.01
     3   6    -0.08  -0.08  -0.01     0.02   0.02  -0.00    -0.01   0.05  -0.20
     4   1    -0.17  -0.23  -0.01     0.04   0.05  -0.00    -0.05   0.20  -0.69
     5   6     0.04   0.11  -0.00    -0.01  -0.03  -0.01     0.06  -0.15   0.45
     6   6     0.02   0.07  -0.00     0.00  -0.01   0.00     0.03  -0.05   0.13
     7   8    -0.08   0.06   0.04     0.04  -0.01  -0.00    -0.04   0.06  -0.13
     8   8     0.07  -0.01  -0.06    -0.01   0.01   0.01     0.04  -0.00  -0.09
     9   6     0.04  -0.08  -0.03    -0.01   0.01   0.01     0.03  -0.02  -0.09
    10   6     0.07   0.00   0.03    -0.04   0.00   0.01    -0.07   0.06   0.02
    11   1     0.00  -0.05  -0.07    -0.02   0.03  -0.11     0.03  -0.01  -0.04
    12   1     0.03  -0.14  -0.00    -0.02   0.01   0.01     0.05  -0.06  -0.07
    13   1     0.29   0.37   0.27    -0.06  -0.05   0.00    -0.05   0.03   0.19
    14   1    -0.38  -0.03   0.07    -0.01  -0.00   0.01    -0.19   0.16  -0.03
    15   1     0.35  -0.26  -0.22    -0.08   0.04   0.02    -0.09   0.08   0.03
                     10                     11                     12
                      A                      A                      A
 Frequencies --    294.3157               427.6591               540.2436
 Red. masses --      5.2886                 3.6099                 5.1756
 Frc consts  --      0.2699                 0.3890                 0.8900
 IR Inten    --     10.3274                 5.4627                 0.3563
  Atom  AN      X      Y      Z        X      Y      Z        X      Y      Z
     1   8    -0.16  -0.26   0.05     0.01   0.01   0.02    -0.07  -0.13  -0.02
     2   1    -0.25  -0.29  -0.21     0.00   0.03  -0.06     0.00  -0.04   0.02
     3   6     0.05   0.05   0.01     0.07  -0.08  -0.01     0.19  -0.14  -0.07
     4   1     0.11   0.15   0.03     0.00  -0.21   0.03     0.05  -0.34  -0.16
     5   6    -0.05  -0.09  -0.02     0.15   0.10  -0.07     0.33   0.09   0.06
     6   6     0.05   0.06   0.03     0.05  -0.04   0.05     0.03  -0.06  -0.05
     7   8     0.32   0.06   0.01    -0.04  -0.02   0.01    -0.12  -0.06  -0.02
     8   8    -0.02   0.16   0.06     0.04  -0.13   0.20    -0.11   0.12  -0.02
     9   6    -0.18  -0.06  -0.08    -0.02   0.02  -0.19    -0.16   0.18   0.20
    10   6    -0.01   0.09  -0.06    -0.18   0.16  -0.07    -0.01   0.04  -0.03
    11   1    -0.01  -0.13  -0.13    -0.02   0.02  -0.12     0.01   0.06   0.11
    12   1    -0.39  -0.13  -0.03    -0.23  -0.00  -0.17     0.06   0.35   0.12
    13   1     0.11   0.35  -0.01    -0.15   0.01   0.31    -0.04   0.19  -0.41
    14   1    -0.18   0.15  -0.09    -0.42   0.39  -0.18     0.22  -0.23   0.11
    15   1     0.22  -0.12  -0.04    -0.31   0.27  -0.05     0.12  -0.08  -0.08
                     13                     14                     15
                      A                      A                      A
 Frequencies --    606.9699               638.6859               745.5800
 Red. masses --      5.3013                 2.2669                 1.3115
 Frc consts  --      1.1507                 0.5448                 0.4295
 IR Inten    --     10.6970                 1.4923                42.4942
  Atom  AN      X      Y      Z        X      Y      Z        X      Y      Z
     1   8     0.05   0.09   0.01    -0.07  -0.13  -0.02    -0.00  -0.00  -0.00
     2   1     0.22   0.36   0.03    -0.14  -0.26  -0.01     0.02   0.03   0.00
     3   6    -0.13   0.06   0.03    -0.10   0.06   0.03    -0.08  -0.12  -0.03
     4   1    -0.37  -0.26  -0.10    -0.13   0.02   0.02     0.55   0.79   0.21
     5   6     0.12   0.35   0.16    -0.05   0.09   0.03     0.04   0.06   0.02
     6   6    -0.07  -0.08  -0.05    -0.02  -0.05   0.00    -0.00  -0.00  -0.00
     7   8     0.26  -0.10  -0.05     0.06  -0.04  -0.02     0.01   0.00  -0.00
     8   8    -0.13  -0.12  -0.07     0.02  -0.08  -0.00    -0.00  -0.00  -0.00
     9   6    -0.12  -0.09  -0.01     0.13   0.13   0.04    -0.01   0.00   0.00
    10   6    -0.00  -0.04   0.02     0.00   0.06  -0.03    -0.00   0.00  -0.00
    11   1    -0.34  -0.02   0.04     0.26   0.06   0.14    -0.02   0.00   0.01
    12   1    -0.17  -0.25   0.05     0.55   0.55  -0.15     0.01   0.01  -0.00
    13   1     0.02   0.07  -0.08    -0.03  -0.07   0.06    -0.00   0.01  -0.01
    14   1     0.07  -0.00  -0.00    -0.05   0.02  -0.00     0.00   0.00  -0.00
    15   1     0.11  -0.12   0.13    -0.13   0.16  -0.11     0.00  -0.00   0.00
                     16                     17                     18
                      A                      A                      A
 Frequencies --    763.8299               773.6895               780.3939
 Red. masses --      1.2921                 2.6745                 1.7761
 Frc consts  --      0.4441                 0.9433                 0.6373
 IR Inten    --     75.6185                 8.2342                63.9277
  Atom  AN      X      Y      Z        X      Y      Z        X      Y      Z
     1   8    -0.04  -0.05  -0.01     0.02   0.03   0.00     0.01   0.01   0.00
     2   1     0.38   0.59   0.06    -0.18  -0.27  -0.02    -0.07  -0.12  -0.00
     3   6     0.02  -0.01   0.01     0.00  -0.04   0.14    -0.01   0.04  -0.12
     4   1     0.01  -0.01  -0.05    -0.07   0.25  -0.78     0.07  -0.29   0.90
     5   6    -0.01  -0.02  -0.05     0.00   0.08  -0.15     0.01   0.02  -0.02
     6   6     0.02   0.00   0.09    -0.00  -0.13   0.26    -0.00  -0.09   0.19
     7   8     0.00   0.06  -0.01    -0.00   0.01  -0.09    -0.00   0.01  -0.06
     8   8     0.01  -0.02  -0.03    -0.01   0.05  -0.06    -0.01   0.03  -0.04
     9   6    -0.01  -0.03  -0.01    -0.01   0.00  -0.00    -0.01  -0.00  -0.00
    10   6    -0.01  -0.01  -0.00    -0.00  -0.01   0.01    -0.00  -0.01   0.01
    11   1    -0.42   0.09   0.29     0.19  -0.06  -0.09     0.08  -0.03  -0.03
    12   1     0.25   0.27  -0.13    -0.06  -0.09   0.04    -0.01  -0.03   0.01
    13   1     0.03   0.04   0.03    -0.00   0.01  -0.04     0.00   0.02  -0.02
    14   1    -0.00   0.12  -0.07     0.04  -0.04   0.02     0.02  -0.01   0.01
    15   1     0.05  -0.04   0.15     0.04  -0.04   0.01     0.03  -0.03   0.02
                     19                     20                     21
                      A                      A                      A
 Frequencies --    829.6321               897.5874               953.0844
 Red. masses --      1.2141                 3.0407                 3.5301
 Frc consts  --      0.4924                 1.4433                 1.8893
 IR Inten    --      8.7432                11.2889                 1.2145
  Atom  AN      X      Y      Z        X      Y      Z        X      Y      Z
     1   8     0.03   0.05  -0.02    -0.03  -0.04   0.01    -0.01   0.01  -0.01
     2   1    -0.19  -0.31   0.02     0.16   0.26   0.00     0.09   0.16   0.03
     3   6     0.02  -0.01  -0.01    -0.04   0.02   0.01    -0.12   0.07   0.03
     4   1     0.02  -0.01  -0.01    -0.06   0.01   0.00    -0.13   0.08   0.04
     5   6     0.02  -0.01   0.01     0.01   0.06   0.02    -0.08   0.03   0.02
     6   6    -0.02   0.02  -0.02     0.00  -0.09  -0.05     0.15  -0.10  -0.05
     7   8     0.00   0.01   0.01    -0.05  -0.13  -0.05    -0.06  -0.14  -0.06
     8   8    -0.03   0.01   0.02    -0.03   0.24   0.08     0.24   0.09   0.05
     9   6    -0.04  -0.04  -0.03     0.09   0.00  -0.10    -0.03  -0.04   0.08
    10   6    -0.02  -0.06  -0.00     0.11  -0.12   0.04    -0.15   0.06  -0.06
    11   1     0.19  -0.24   0.36    -0.09   0.17  -0.17    -0.07  -0.10   0.25
    12   1     0.15   0.38  -0.21    -0.20   0.18  -0.16    -0.05  -0.14   0.12
    13   1     0.09   0.15   0.08     0.15  -0.33   0.58    -0.08   0.45  -0.49
    14   1     0.01   0.30  -0.20    -0.19   0.20  -0.12     0.16   0.09  -0.10
    15   1     0.19  -0.18   0.43    -0.08   0.06   0.17     0.23  -0.23   0.18
                     22                     23                     24
                      A                      A                      A
 Frequencies --   1020.0055              1101.2132              1130.0982
 Red. masses --      1.1253                 3.8905                 2.1570
 Frc consts  --      0.6898                 2.7797                 1.6231
 IR Inten    --     60.8176                59.8873                53.5125
  Atom  AN      X      Y      Z        X      Y      Z        X      Y      Z
     1   8    -0.01   0.00  -0.03     0.01   0.01   0.00     0.01   0.02   0.00
     2   1     0.02   0.01   0.07     0.01   0.01  -0.00    -0.04  -0.06  -0.00
     3   6     0.00  -0.00   0.00     0.04  -0.03  -0.01    -0.01   0.00   0.00
     4   1     0.00  -0.01   0.00     0.04  -0.04  -0.02    -0.01   0.01   0.00
     5   6     0.00   0.00   0.00     0.03   0.01   0.00    -0.01  -0.00   0.00
     6   6    -0.01  -0.01   0.00    -0.09   0.01   0.01     0.01  -0.01   0.00
     7   8    -0.00  -0.01  -0.01     0.01   0.00   0.00     0.00   0.01  -0.00
     8   8    -0.01   0.03   0.01    -0.17   0.10   0.06     0.06  -0.02  -0.06
     9   6    -0.01  -0.04  -0.03     0.26  -0.26   0.12    -0.10  -0.02   0.22
    10   6     0.05   0.05  -0.00    -0.08   0.10  -0.15     0.08  -0.01  -0.17
    11   1     0.16  -0.14   0.85    -0.05   0.02  -0.10    -0.09  -0.10  -0.03
    12   1    -0.11  -0.20   0.05     0.58  -0.34   0.15    -0.18   0.03   0.21
    13   1    -0.03  -0.16   0.03    -0.06   0.22  -0.27     0.11  -0.21   0.40
    14   1    -0.06  -0.14   0.11    -0.05   0.26  -0.25    -0.40   0.38  -0.34
    15   1    -0.13   0.16  -0.26    -0.01   0.04  -0.09    -0.26   0.30   0.03
                     25                     26                     27
                      A                      A                      A
 Frequencies --   1199.4919              1259.6612              1366.3921
 Red. masses --      1.6637                 8.2736                 1.2338
 Frc consts  --      1.4103                 7.7348                 1.3572
 IR Inten    --     92.7629               773.1013                 6.8337
  Atom  AN      X      Y      Z        X      Y      Z        X      Y      Z
     1   8    -0.04  -0.04  -0.01     0.01   0.01  -0.00     0.00  -0.00   0.00
     2   1     0.10   0.15   0.03    -0.07  -0.11  -0.00    -0.01  -0.02  -0.00
     3   6     0.00  -0.00  -0.00    -0.12   0.08   0.03    -0.01   0.01   0.00
     4   1     0.01  -0.00   0.00    -0.11   0.13   0.05    -0.01   0.01   0.01
     5   6    -0.00  -0.00  -0.00    -0.05   0.00   0.00    -0.00   0.00  -0.00
     6   6     0.01   0.01   0.01     0.68   0.03   0.00     0.06  -0.01  -0.01
     7   8     0.01   0.02   0.01    -0.08   0.01   0.00    -0.01   0.00   0.00
     8   8    -0.04  -0.05  -0.03    -0.33  -0.07  -0.05    -0.02   0.01   0.02
     9   6     0.13   0.14   0.01     0.02  -0.10   0.03    -0.07   0.06  -0.04
    10   6    -0.06  -0.08  -0.04     0.03   0.02   0.02     0.00   0.01  -0.08
    11   1     0.31   0.18   0.26     0.06   0.00  -0.03     0.01   0.01  -0.00
    12   1    -0.46  -0.40   0.26    -0.32   0.39  -0.14     0.60  -0.46   0.16
    13   1     0.10   0.20   0.08    -0.02  -0.05  -0.04     0.02  -0.18   0.31
    14   1     0.07   0.23  -0.22    -0.04   0.01   0.02    -0.04  -0.27   0.10
    15   1     0.09  -0.15   0.30    -0.09   0.10  -0.18     0.15  -0.07   0.37
                     28                     29                     30
                      A                      A                      A
 Frequencies --   1408.3287              1477.5214              1479.9968
 Red. masses --      1.3304                 1.0410                 1.0516
 Frc consts  --      1.5546                 1.3390                 1.3572
 IR Inten    --     17.8574                10.3682                 3.4054
  Atom  AN      X      Y      Z        X      Y      Z        X      Y      Z
     1   8     0.00  -0.00  -0.00     0.00   0.00   0.00     0.00   0.00  -0.00
     2   1    -0.01  -0.02   0.00    -0.00  -0.01  -0.00    -0.01  -0.02  -0.00
     3   6    -0.01   0.00   0.00     0.00  -0.00  -0.00    -0.00   0.00   0.00
     4   1    -0.01   0.01   0.00     0.00  -0.00  -0.00    -0.00   0.00   0.00
     5   6    -0.00   0.00  -0.00     0.00   0.00   0.00    -0.00  -0.00   0.00
     6   6     0.03  -0.00  -0.00    -0.01   0.00   0.00     0.00   0.00   0.00
     7   8    -0.00  -0.00  -0.00     0.00  -0.00  -0.00    -0.00  -0.00  -0.00
     8   8    -0.00   0.01   0.02     0.00   0.00  -0.00     0.00   0.00   0.00
     9   6    -0.06   0.05  -0.04     0.02  -0.02  -0.01    -0.02  -0.02   0.01
    10   6     0.04  -0.11   0.08     0.01  -0.02  -0.04    -0.05  -0.01  -0.02
    11   1     0.01   0.02   0.01    -0.02   0.00  -0.00    -0.04  -0.00   0.01
    12   1     0.43  -0.30   0.08    -0.09   0.08  -0.05     0.05   0.00   0.00
    13   1     0.12   0.31  -0.32     0.23   0.51  -0.01     0.19   0.22   0.54
    14   1    -0.11   0.41  -0.21    -0.07  -0.42   0.21     0.69   0.01  -0.07
    15   1    -0.36   0.21  -0.28    -0.39   0.38   0.39    -0.11   0.02  -0.34
                     31                     32                     33
                      A                      A                      A
 Frequencies --   1654.3231              1846.1581              2269.5769
 Red. masses --      1.0448                12.7692                 5.7421
 Frc consts  --      1.6847                25.6420                17.4266
 IR Inten    --     50.3689               334.4628                85.9906
  Atom  AN      X      Y      Z        X      Y      Z        X      Y      Z
     1   8    -0.04   0.01   0.01     0.00  -0.00  -0.00    -0.00  -0.00   0.00
     2   1     0.24   0.41   0.03    -0.02  -0.03  -0.00     0.00   0.00  -0.00
     3   6     0.00   0.00  -0.00     0.07  -0.04  -0.02    -0.31   0.19   0.09
     4   1     0.00   0.00  -0.00     0.11  -0.04  -0.02    -0.62   0.39   0.18
     5   6    -0.00   0.00   0.00    -0.04   0.01   0.01     0.44  -0.27  -0.12
     6   6    -0.00   0.00   0.00    -0.01   0.75   0.32    -0.07   0.06   0.03
     7   8     0.00  -0.00   0.00    -0.01  -0.50  -0.21     0.00  -0.01  -0.00
     8   8    -0.01  -0.00   0.00    -0.00  -0.04  -0.02    -0.01  -0.00  -0.00
     9   6    -0.02  -0.02   0.01    -0.02   0.03   0.01     0.00  -0.00   0.00
    10   6     0.00   0.01  -0.00     0.01  -0.00  -0.01    -0.00   0.00  -0.00
    11   1     0.64  -0.53  -0.24     0.00   0.03  -0.00     0.00  -0.00  -0.00
    12   1     0.07   0.05  -0.03     0.09  -0.03   0.05    -0.00   0.00  -0.00
    13   1     0.01   0.01   0.01    -0.01  -0.06   0.03    -0.00  -0.00  -0.00
    14   1     0.01  -0.02   0.01    -0.03   0.01  -0.01    -0.00  -0.00   0.00
    15   1    -0.02   0.03  -0.03     0.04  -0.03   0.04     0.00  -0.00   0.00
                     34                     35                     36
                      A                      A                      A
 Frequencies --   3049.7016              3132.0848              3143.5925
 Red. masses --      1.0411                 1.0929                 1.0876
 Frc consts  --      5.7049                 6.3171                 6.3323
 IR Inten    --      0.4460                 3.0371                 7.1759
  Atom  AN      X      Y      Z        X      Y      Z        X      Y      Z
     1   8    -0.00  -0.00  -0.00     0.00  -0.00  -0.00     0.00   0.00   0.00
     2   1     0.00   0.00   0.00    -0.00  -0.00  -0.00    -0.00   0.00   0.00
     3   6     0.00   0.00  -0.00     0.00  -0.00  -0.00    -0.00  -0.00   0.00
     4   1     0.00  -0.00  -0.00    -0.00   0.00  -0.00    -0.00  -0.00   0.00
     5   6     0.00   0.00   0.00    -0.00   0.00   0.00     0.00   0.00  -0.00
     6   6     0.00  -0.00  -0.00     0.00   0.00   0.00    -0.00  -0.00  -0.00
     7   8    -0.00   0.00  -0.00    -0.00  -0.00  -0.00    -0.00   0.00   0.00
     8   8     0.00   0.00   0.00     0.00   0.00  -0.00     0.00  -0.00   0.00
     9   6    -0.00  -0.00   0.00    -0.00   0.01   0.02    -0.00  -0.03  -0.07
    10   6    -0.01  -0.05   0.03    -0.06  -0.04  -0.04    -0.03   0.00   0.01
    11   1     0.00   0.01   0.00     0.00   0.00   0.00    -0.00  -0.00  -0.01
    12   1     0.00  -0.00  -0.00    -0.01  -0.10  -0.24     0.03   0.35   0.85
    13   1    -0.34   0.13   0.09     0.41  -0.19  -0.11     0.32  -0.13  -0.08
    14   1    -0.03  -0.21  -0.35     0.03   0.32   0.58    -0.01  -0.01  -0.01
    15   1     0.54   0.62  -0.07     0.33   0.39  -0.06     0.09   0.12  -0.01
                     37                     38                     39
                      A                      A                      A
 Frequencies --   3167.3425              3488.2890              3851.9833
 Red. masses --      1.1020                 1.1715                 1.0658
 Frc consts  --      6.5136                 8.3987                 9.3175
 IR Inten    --      6.0961                63.4139                46.6297
  Atom  AN      X      Y      Z        X      Y      Z        X      Y      Z
     1   8    -0.00  -0.00  -0.00     0.00   0.00  -0.00    -0.05   0.03   0.01
     2   1    -0.00  -0.00   0.00    -0.00  -0.00   0.00     0.82  -0.52  -0.24
     3   6     0.00  -0.00  -0.00    -0.10   0.06   0.03    -0.00   0.00   0.00
     4   1     0.00   0.00   0.00     0.82  -0.51  -0.23     0.00  -0.00  -0.00
     5   6    -0.00   0.00   0.00     0.03  -0.02  -0.01    -0.00   0.00   0.00
     6   6     0.00   0.00   0.00    -0.00   0.00   0.00     0.00  -0.00   0.00
     7   8     0.00  -0.00  -0.00     0.00   0.00   0.00    -0.00   0.00   0.00
     8   8     0.00  -0.00  -0.00     0.00  -0.00  -0.00    -0.00   0.00   0.00
     9   6    -0.00   0.01   0.02    -0.00   0.00   0.00     0.00   0.00  -0.00
    10   6    -0.05   0.05   0.06     0.00  -0.00  -0.00    -0.00  -0.00  -0.00
    11   1     0.00   0.00   0.00     0.00   0.00   0.00    -0.02  -0.01   0.00
    12   1    -0.01  -0.11  -0.27     0.00  -0.00  -0.00    -0.00  -0.00   0.00
    13   1     0.65  -0.27  -0.15     0.00  -0.00   0.00     0.00   0.00  -0.00
    14   1    -0.05  -0.31  -0.54    -0.00   0.00   0.00     0.00   0.00   0.00
    15   1    -0.00   0.02   0.01    -0.00   0.00  -0.00     0.00  -0.00   0.00

 -------------------
 - Thermochemistry -
 -------------------
 Temperature   298.150 Kelvin.  Pressure   1.00000 Atm.
 Atom     1 has atomic number  8 and mass  15.99491
 Atom     2 has atomic number  1 and mass   1.00783
 Atom     3 has atomic number  6 and mass  12.00000
 Atom     4 has atomic number  1 and mass   1.00783
 Atom     5 has atomic number  6 and mass  12.00000
 Atom     6 has atomic number  6 and mass  12.00000
 Atom     7 has atomic number  8 and mass  15.99491
 Atom     8 has atomic number  8 and mass  15.99491
 Atom     9 has atomic number  6 and mass  12.00000
 Atom    10 has atomic number  6 and mass  12.00000
 Atom    11 has atomic number  1 and mass   1.00783
 Atom    12 has atomic number  1 and mass   1.00783
 Atom    13 has atomic number  1 and mass   1.00783
 Atom    14 has atomic number  1 and mass   1.00783
 Atom    15 has atomic number  1 and mass   1.00783
 Molecular mass:   115.03952 amu.
 Principal axes and moments of inertia in atomic units:
                           1         2         3
     Eigenvalues --   593.889711597.122941999.64676
           X            0.99936  -0.03578   0.00266
           Y            0.03583   0.99911  -0.02216
           Z           -0.00187   0.02224   0.99975
 This molecule is an asymmetric top.
 Rotational symmetry number  1.
 Warning -- assumption of classical behavior for rotation
           may cause significant error
 Rotational temperatures (Kelvin)      0.14584     0.05423     0.04331
 Rotational constants (GHZ):           3.03885     1.13000     0.90253
    1 imaginary frequencies ignored.
 Zero-point vibrational energy     278583.2 (Joules/Mol)
                                   66.58297 (Kcal/Mol)
 Warning -- explicit consideration of  12 degrees of freedom as
           vibrations may cause significant error
 Vibrational temperatures:     61.82   117.10   161.99   223.45   264.55
          (Kelvin)            297.67   320.87   391.37   423.45   615.31
                              777.29   873.29   918.93  1072.72  1098.98
                             1113.17  1122.81  1193.66  1291.43  1371.28
                             1467.56  1584.40  1625.96  1725.80  1812.37
                             1965.93  2026.27  2125.82  2129.39  2380.20
                             2656.21  3265.41  4387.84  4506.37  4522.93
                             4557.10  5018.87  5542.14
 
 Zero-point correction=                           0.106107 (Hartree/Particle)
 Thermal correction to Energy=                    0.115892
 Thermal correction to Enthalpy=                  0.116836
 Thermal correction to Gibbs Free Energy=         0.069956
 Sum of electronic and zero-point Energies=           -420.101964
 Sum of electronic and thermal Energies=              -420.092179
 Sum of electronic and thermal Enthalpies=            -420.091235
 Sum of electronic and thermal Free Energies=         -420.138115
 
                     E (Thermal)             CV                S
                      KCal/Mol        Cal/Mol-Kelvin    Cal/Mol-Kelvin
 Total                   72.723             33.275             98.668
 Electronic               0.000              0.000              1.377
 Translational            0.889              2.981             40.136
 Rotational               0.889              2.981             29.030
 Vibrational             70.946             27.314             28.125
 Vibration     1          0.595              1.980              5.117
 Vibration     2          0.600              1.962              3.857
 Vibration     3          0.607              1.939              3.224
 Vibration     4          0.620              1.897              2.606
 Vibration     5          0.631              1.862              2.289
 Vibration     6          0.641              1.830              2.071
 Vibration     7          0.649              1.806              1.934
 Vibration     8          0.675              1.725              1.583
 Vibration     9          0.689              1.684              1.449
 Vibration    10          0.789              1.410              0.866
 Vibration    11          0.895              1.161              0.565
 Vibration    12          0.966              1.017              0.438
                       Q            Log10(Q)             Ln(Q)
 Total Bot       0.664666D-32        -32.177396        -74.091193
 Total V=0       0.424879D+17         16.628266         38.287996
 Vib (Bot)       0.138997D-45        -45.856995       -105.589634
 Vib (Bot)    1  0.481403D+01          0.682509          1.571535
 Vib (Bot)    2  0.252991D+01          0.403106          0.928186
 Vib (Bot)    3  0.181810D+01          0.259618          0.597792
 Vib (Bot)    4  0.130356D+01          0.115129          0.265095
 Vib (Bot)    5  0.109089D+01          0.037780          0.086991
 Vib (Bot)    6  0.961208D+00         -0.017182         -0.039564
 Vib (Bot)    7  0.885825D+00         -0.052652         -0.121236
 Vib (Bot)    8  0.709753D+00         -0.148893         -0.342839
 Vib (Bot)    9  0.648217D+00         -0.188279         -0.433529
 Vib (Bot)   10  0.408167D+00         -0.389162         -0.896080
 Vib (Bot)   11  0.293198D+00         -0.532840         -1.226908
 Vib (Bot)   12  0.244243D+00         -0.612178         -1.409592
 Vib (V=0)       0.888519D+03          2.948667          6.789556
 Vib (V=0)    1  0.533993D+01          0.727535          1.675212
 Vib (V=0)    2  0.307885D+01          0.488389          1.124556
 Vib (V=0)    3  0.238560D+01          0.377598          0.869451
 Vib (V=0)    4  0.189616D+01          0.277874          0.639829
 Vib (V=0)    5  0.170001D+01          0.230453          0.530637
 Vib (V=0)    6  0.158348D+01          0.199612          0.459623
 Vib (V=0)    7  0.151719D+01          0.181041          0.416863
 Vib (V=0)    8  0.136819D+01          0.136145          0.313487
 Vib (V=0)    9  0.131865D+01          0.120129          0.276607
 Vib (V=0)   10  0.114545D+01          0.058974          0.135794
 Vib (V=0)   11  0.107962D+01          0.033273          0.076614
 Vib (V=0)   12  0.105647D+01          0.023856          0.054930
 Electronic      0.200000D+01          0.301030          0.693147
 Translational   0.484981D+08          7.685724         17.697035
 Rotational      0.492997D+06          5.692844         13.108258
 ***** Axes restored to original set *****
 -------------------------------------------------------------------
 Center     Atomic                   Forces (Hartrees/Bohr)
 Number     Number              X              Y              Z
 -------------------------------------------------------------------
      1        8          -0.013334305   -0.025919073   -0.002390323
      2        1           0.002077324    0.001440363   -0.000164426
      3        6           0.000196547   -0.000097503   -0.000019014
      4        1           0.000018648    0.000015431    0.000006804
      5        6           0.000248180    0.000040463   -0.000126607
      6        6          -0.002659494   -0.000019476   -0.001234919
      7        8           0.000394379    0.000318076    0.000288091
      8        8           0.007336271   -0.001278694   -0.000229711
      9        6          -0.019804220   -0.018362949    0.005022525
     10        6           0.003600917    0.005695845   -0.001355968
     11        1           0.019402836    0.033963973    0.002150933
     12        1           0.002958285    0.003924312   -0.001774456
     13        1           0.000053547   -0.000036391   -0.000034841
     14        1          -0.000146354   -0.000116457    0.000311149
     15        1          -0.000342559    0.000432080   -0.000449237
 -------------------------------------------------------------------
 Cartesian Forces:  Max     0.033963973 RMS     0.008551514

 GradGradGradGradGradGradGradGradGradGradGradGradGradGradGradGradGradGrad
 Berny optimization.
 Search for a local minimum.
 Step number   1 out of a maximum of    2
 All quantities printed in internal units (Hartrees-Bohrs-Radians)
 Second derivative matrix not updated -- analytic derivatives used.
 ITU=  0
     Eigenvalues ---   -0.07832   0.00063   0.00110   0.00152   0.00201
     Eigenvalues ---    0.00266   0.00557   0.00813   0.01526   0.02022
     Eigenvalues ---    0.02388   0.03163   0.04107   0.04972   0.05509
     Eigenvalues ---    0.07050   0.08115   0.08703   0.09071   0.10141
     Eigenvalues ---    0.10878   0.13675   0.15218   0.16636   0.18735
     Eigenvalues ---    0.26145   0.28697   0.35109   0.45241   0.49576
     Eigenvalues ---    0.65021   0.70925   0.76416   0.79978   0.84172
     Eigenvalues ---    0.89653   0.99580   1.74395   2.73801
 Eigenvalue     1 is  -7.83D-02 should be greater than     0.000000 Eigenvector:
                          Y11       X11       Y9        X9        Z12
   1                    0.78383   0.47191  -0.28487  -0.20759  -0.07651
                          Z15       X1        Y1        Y2        X15
   1                    0.07325  -0.06504  -0.06451   0.05607   0.04894
 Quadratic step=8.043D-01 exceeds max=3.000D-01 adjusted using Lamda=-1.011D-01.
 Angle between NR and scaled steps=  28.10 degrees.
 Angle between quadratic step and forces=  16.62 degrees.
 Linear search not attempted -- first point.
 B after Tr=    -0.006909   -0.011520    0.000611
         Rot=    0.999999    0.000862   -0.000246    0.000903 Ang=   0.15 deg.
 Variable       Old X    -DE/DX   Delta X   Delta X   Delta X     New X
                                 (Linear)    (Quad)   (Total)
    X1        4.98206  -0.01333   0.00000  -0.06361  -0.06500   4.91706
    Y1        3.29060  -0.02592   0.00000  -0.09834  -0.11957   3.17104
    Z1       -0.46861  -0.00239   0.00000  -0.00290  -0.01021  -0.47882
    X2        3.47198   0.00208   0.00000   0.00806   0.00875   3.48073
    Y2        4.22078   0.00144   0.00000   0.00057  -0.01730   4.20348
    Z2       -0.03145  -0.00016   0.00000  -0.00001  -0.00838  -0.03983
    X3       -6.03301   0.00020   0.00000   0.00407   0.00106  -6.03195
    Y3        1.94691  -0.00010   0.00000  -0.00425  -0.00357   1.94334
    Z3        0.76264  -0.00002   0.00000   0.00148   0.00169   0.76434
    X4       -7.69602   0.00002   0.00000   0.00212   0.00120  -7.69482
    Y4        2.98033   0.00002   0.00000  -0.00675  -0.00226   2.97807
    Z4        1.22966   0.00001   0.00000   0.00070  -0.00004   1.22962
    X5       -4.16392   0.00025   0.00000   0.00747   0.00211  -4.16181
    Y5        0.78315   0.00004   0.00000   0.00457   0.00096   0.78411
    Z5        0.23711  -0.00013   0.00000  -0.00213  -0.00084   0.23627
    X6       -1.95944  -0.00266   0.00000   0.00395  -0.00442  -1.96386
    Y6       -0.70969  -0.00002   0.00000   0.01831   0.00957  -0.70012
    Z6       -0.43344  -0.00123   0.00000  -0.00513  -0.00237  -0.43582
    X7       -2.04194   0.00039   0.00000   0.02891   0.01635  -2.02559
    Y7       -2.79139   0.00032   0.00000   0.01979   0.00964  -2.78175
    Z7       -1.31324   0.00029   0.00000  -0.00693  -0.00056  -1.31380
    X8        0.18582   0.00734   0.00000   0.01973   0.01388   0.19970
    Y8        0.55763  -0.00128   0.00000   0.00886  -0.00291   0.55472
    Z8        0.07014  -0.00023   0.00000   0.00459   0.00412   0.07426
    X9        2.47378  -0.01980   0.00000  -0.08615  -0.09475   2.37903
    Y9       -0.71170  -0.01836   0.00000  -0.08351  -0.10022  -0.81191
    Z9       -0.52844   0.00502   0.00000   0.01674   0.01755  -0.51089
   X10        3.35057   0.00360   0.00000   0.01751   0.00699   3.35756
   Y10       -2.44528   0.00570   0.00000   0.02614   0.01120  -2.43409
   Z10        1.53751  -0.00136   0.00000   0.00046   0.00359   1.54111
   X11        4.12397   0.01940   0.00000   0.10894   0.10450   4.22848
   Y11        1.34847   0.03396   0.00000   0.20612   0.18582   1.53429
   Z11       -0.66998   0.00215   0.00000   0.01464   0.01049  -0.65949
   X12        2.40059   0.00296   0.00000   0.02156   0.01077   2.41136
   Y12       -1.51864   0.00392   0.00000   0.03713   0.01704  -1.50160
   Z12       -2.42125  -0.00177   0.00000  -0.01923  -0.01725  -2.43850
   X13        5.20221   0.00005   0.00000   0.01064  -0.00153   5.20068
   Y13       -3.22178  -0.00004   0.00000   0.02127   0.00218  -3.21960
   Z13        1.07620  -0.00003   0.00000  -0.00855  -0.00498   1.07122
   X14        3.47430  -0.00015   0.00000   0.00642  -0.00141   3.47289
   Y14       -1.43465  -0.00012   0.00000   0.01485   0.00279  -1.43186
   Z14        3.32950   0.00031   0.00000   0.00501   0.00635   3.33586
   X15        2.00754  -0.00034   0.00000   0.01477   0.00150   2.00904
   Y15       -4.00968   0.00043   0.00000   0.01884   0.00664  -4.00304
   Z15        1.72874  -0.00045   0.00000  -0.00567   0.00082   1.72957
         Item               Value     Threshold  Converged?
 Maximum Force            0.033964     0.000450     NO 
 RMS     Force            0.008552     0.000300     NO 
 Maximum Displacement     0.185820     0.001800     NO 
 RMS     Displacement     0.043641     0.001200     NO 
 Predicted change in Energy=-1.848558D-02
 GradGradGradGradGradGradGradGradGradGradGradGradGradGradGradGradGradGrad


 ----------------------------------------------------------------------

 Electric dipole moment (input orientation):
 (Debye = 10**-18 statcoulomb cm , SI units = C m)
                  (au)            (Debye)         (10**-30 SI)
   Tot        0.985880D+00      0.250586D+01      0.835864D+01
   x         -0.840018D+00     -0.213511D+01     -0.712197D+01
   y         -0.270703D-01     -0.688058D-01     -0.229512D+00
   z          0.515360D+00      0.130991D+01      0.436940D+01

 Dipole polarizability, Alpha (input orientation).
 (esu units = cm**3 , SI units = C**2 m**2 J**-1)
 Alpha(0;0):
               (au)            (10**-24 esu)      (10**-40 SI)
   iso        0.746994D+02      0.110693D+02      0.123163D+02
   aniso      0.384445D+02      0.569688D+01      0.633864D+01
   xx         0.929841D+02      0.137788D+02      0.153310D+02
   yx        -0.407947D+01     -0.604515D+00     -0.672613D+00
   yy         0.795023D+02      0.117810D+02      0.131082D+02
   zx        -0.422582D+01     -0.626202D+00     -0.696744D+00
   zy         0.359733D+01      0.533069D+00      0.593119D+00
   zz         0.516117D+02      0.764807D+01      0.850963D+01

 ----------------------------------------------------------------------

 Dipole orientation:
     8          2.15696024          3.19956329         -4.58027730
     1          1.72502251          4.16448530         -3.09063592
     6         -2.53679228          2.05957409          5.48562733
     1         -3.02489662          3.13086537          7.11834845
     6         -1.98871709          0.85324929          3.65030215
     6         -1.38366365         -0.69113547          1.46244792
     8         -2.14447710         -2.79469062          1.12999272
     8          0.14841887          0.55642843         -0.13697292
     6          0.85505022         -0.76386040         -2.36447717
     6          3.10074734         -2.45333372         -1.98398681
     1          1.56623548          1.26604548         -3.90108082
     1         -0.78361447         -1.62125238         -3.26940524
     1          3.68846581         -3.27056452         -3.78149933
     1          4.67682337         -1.39589745         -1.18041116
     1          2.58499572         -3.99107409         -0.69673474

 Electric dipole moment (dipole orientation):
 (Debye = 10**-18 statcoulomb cm , SI units = C m)
                  (au)            (Debye)         (10**-30 SI)
   Tot        0.985880D+00      0.250586D+01      0.835864D+01
   x          0.000000D+00      0.000000D+00      0.000000D+00
   y          0.000000D+00      0.000000D+00      0.000000D+00
   z          0.985880D+00      0.250586D+01      0.835864D+01

 Dipole polarizability, Alpha (dipole orientation).
 (esu units = cm**3 , SI units = C**2 m**2 J**-1)
 Alpha(0;0):
               (au)            (10**-24 esu)      (10**-40 SI)
   iso        0.746994D+02      0.110693D+02      0.123163D+02
   aniso      0.384445D+02      0.569688D+01      0.633864D+01
   xx         0.591486D+02      0.876491D+01      0.975228D+01
   yx         0.161343D+00      0.239086D-01      0.266019D-01
   yy         0.798108D+02      0.118267D+02      0.131590D+02
   zx        -0.166288D+02     -0.246413D+01     -0.274171D+01
   zy         0.525826D+01      0.779194D+00      0.866970D+00
   zz         0.851388D+02      0.126163D+02      0.140375D+02

 ----------------------------------------------------------------------
 1\1\GINC-AJ\Freq\UM062X\6-311++G(d,p)\C5H7O3(2)\AAYUSH\23-Jun-2025\0\\
 # freq 6-311++g(d,p) m062x\\Title Card Required\\0,2\O,2.636394,1.7413
 13,-0.247978\H,1.837295,2.233542,-0.016643\C,-3.192531,1.030258,0.4035
 74\H,-4.072559,1.577125,0.650709\C,-2.203449,0.414426,0.125472\C,-1.03
 6892,-0.375552,-0.229369\O,-1.080548,-1.477138,-0.694938\O,0.09833,0.2
 95087,0.037115\C,1.309068,-0.376613,-0.279638\C,1.773046,-1.293988,0.8
 13617\H,2.182312,0.71358,-0.35454\H,1.270336,-0.803629,-1.281269\H,2.7
 52892,-1.704894,0.569503\H,1.83852,-0.759184,1.761898\H,1.062342,-2.12
 1833,0.914812\\Version=ES64L-G16RevA.03\State=2-A\HF=-420.208071\S2=0.
 758602\S2-1=0.\S2A=0.750039\RMSD=5.186e-09\RMSF=8.552e-03\ZeroPoint=0.
 1061067\Thermal=0.1158919\Dipole=-0.8400178,-0.0270703,0.51536\DipoleD
 eriv=-0.3415131,0.0681858,-0.0385867,-0.037483,-0.4567601,0.0481772,-0
 .0345085,0.0388346,-0.5710481,0.1154408,-0.0259331,0.0490116,0.0818921
 ,0.348614,-0.0117255,0.0505019,0.0061368,0.3055222,-0.209056,0.0196904
 ,0.0071318,0.0352067,-0.1513267,-0.0087307,0.0146272,-0.0103886,-0.133
 9672,0.2694337,-0.0199779,-0.0082475,-0.0276092,0.2353109,0.012293,-0.
 0118105,0.0128849,0.2121887,-0.5842202,0.224597,0.0965459,0.2450991,-0
 .263947,-0.0738754,0.1100971,-0.0748302,-0.1291743,2.5564233,-0.055464
 4,-0.007348,0.2605157,1.5024105,0.5246963,0.1731665,0.5137418,0.613924
 1,-0.8120191,0.0860359,0.0279399,-0.1370164,-1.0546367,-0.3283942,-0.0
 914282,-0.3206787,-0.4800233,-2.1994583,-0.2176889,-0.1320087,-0.10312
 58,-0.5887583,-0.1079845,-0.0803713,-0.0957856,-0.3657832,1.248338,0.2
 868822,0.0260382,-0.1062515,0.7981571,-0.0966016,-0.1333449,-0.1801943
 ,0.3424138,-0.1435657,-0.1893163,0.0456626,0.0141003,-0.2299862,0.1158
 511,-0.0353429,0.0883254,-0.0764846,0.005425,-0.2256692,0.0054483,-0.2
 655091,-0.2686254,0.0040812,-0.0262487,-0.0573484,0.2011262,-0.0185588
 ,-0.0317813,-0.0787265,0.0440452,-0.007452,-0.0277089,0.0461965,0.0634
 542,-0.0227953,-0.041524,0.0692206,0.0216891,0.0602851,0.0838907,0.000
 1291,0.0231266,-0.0094511,0.062106,0.0959179,0.0291518,-0.002699,0.005
 314,0.0418484,-0.0756363,-0.0190163,-0.0362847,-0.0152835,0.0589366,-0
 .0179325,-0.011851,-0.0694634,0.0112607,0.0254292,0.0143554,0.0615839,
 0.0572786\Polar=92.9840747,-4.0794683,79.5023066,-4.2258202,3.5973282,
 51.6117405\Quadrupole=0.483293,-0.8275673,0.3442743,-10.9233602,-1.197
 8596,-0.1826684\PG=C01 [X(C5H7O3)]\NImag=1\\0.43250852,-0.17138362,0.2
 6020900,-0.10452299,0.07314836,0.05327922,-0.37092818,0.22584143,0.106
 15864,0.36586902,0.18519585,-0.15545405,-0.06069056,-0.21109242,0.1755
 0092,0.09873405,-0.06794535,-0.03313016,-0.10276521,0.06902980,0.03271
 794,-0.00007134,-0.00021469,0.00000078,-0.00003202,0.00019897,0.000024
 77,1.08818710,-0.00003510,0.00021972,-0.00000067,0.00012972,-0.0001414
 3,-0.00001555,-0.64270435,0.45764206,0.00002282,0.00004327,0.00007484,
 0.00001207,-0.00004336,-0.00007456,-0.29057076,0.17978260,0.14238436,0
 .00006224,0.00003274,-0.00001087,-0.00004274,-0.00004077,0.00000260,-0
 .29765108,0.16818632,0.07592506,0.28785711,-0.00000816,-0.00006471,0.0
 0000417,-0.00001088,0.00007411,0.00000627,0.16802475,-0.13194352,-0.04
 636840,-0.16850081,0.12152749,-0.00001966,0.00000484,-0.00004327,0.000
 01466,0.00001050,0.00003930,0.07586126,-0.04636365,-0.05113186,-0.0761
 0722,0.04702115,0.03938643,-0.00015240,-0.00040261,0.00000530,-0.00008
 510,0.00041546,0.00007583,-0.79119915,0.47118072,0.21319088,0.00829789
 ,-0.00234505,-0.00098673,1.04972500,0.00010242,0.00002706,-0.00002914,
 -0.00003704,-0.00025472,-0.00002658,0.47296305,-0.32849037,-0.13322638
 ,-0.00216824,0.00664385,-0.00042369,-0.58849408,0.47235329,0.00001614,
 0.00001703,-0.00001277,-0.00002512,-0.00005570,0.00000228,0.21395962,-
 0.13323530,-0.09420784,-0.00089982,-0.00041395,0.00765430,-0.26703442,
 0.18445285,0.14394949,0.00259861,0.00067878,-0.00081996,-0.00084750,-0
 .00414283,-0.00033579,0.00645720,-0.00058891,-0.00029793,0.00054670,0.
 00356581,0.00158182,-0.20749434,0.09408454,0.04233436,0.59034660,0.001
 12344,-0.00014229,-0.00015528,-0.00100450,-0.00093285,-0.00012062,0.00
 021769,0.00205018,-0.00024787,0.00259747,0.00371238,-0.00098931,0.0843
 5397,-0.11535589,-0.01838065,-0.03434666,0.89801996,0.00038428,-0.0003
 3708,-0.00056012,-0.00005275,-0.00083139,-0.00002115,0.00006368,-0.000
 21767,0.00229421,0.00117070,-0.00094889,0.00545229,0.03836311,-0.01958
 078,-0.08195393,-0.02236812,0.29436860,0.33037214,-0.00071901,-0.00109
 746,0.00018592,-0.00000487,0.00099011,0.00002445,-0.00317546,0.0016810
 7,0.00077131,-0.00023651,-0.00126646,-0.00055963,0.00628025,0.03339264
 ,0.01463216,-0.10866001,-0.00312412,-0.00012115,0.10968806,-0.00106175
 ,0.00017610,0.00038260,0.00071661,0.00125215,-0.00004471,-0.00006476,0
 .00157577,0.00056119,0.00021509,0.00069749,0.00073497,0.02678250,-0.04
 831165,-0.03051963,-0.00614168,-0.66842337,-0.24816997,0.03579745,0.77
 614477,-0.00040291,0.00011790,0.00037561,0.00024452,0.00062447,-0.0000
 1573,-0.00001428,0.00058485,0.00051942,0.00008047,0.00072916,-0.000703
 87,0.01170260,-0.03033724,0.00888366,-0.00209689,-0.25014683,-0.185337
 24,0.01323449,0.31361611,0.16642029,0.00178219,0.00407223,0.00125517,-
 0.00194880,0.00361075,0.00065703,-0.00325615,0.00242608,0.00105835,0.0
 0139641,0.00023107,0.00005943,-0.06514200,-0.00646260,-0.00142436,-0.2
 1447728,-0.06016929,-0.02223223,-0.00778943,-0.06719188,-0.02651461,0.
 49499105,-0.00179966,0.00082945,-0.00012974,0.00131246,0.00111888,0.00
 034600,0.00218110,-0.00151030,-0.00083590,-0.00046542,-0.00064322,-0.0
 0007796,0.01149768,0.01294546,0.00008181,-0.05608349,-0.13493599,-0.03
 323263,-0.05993288,-0.05513944,-0.03455664,0.02572199,0.29648125,-0.00
 065326,-0.00069423,0.00100338,0.00017183,0.00029559,-0.00067520,0.0010
 0662,-0.00087275,0.00003148,-0.00023619,-0.00013841,-0.00044012,0.0063
 3711,0.00123377,0.01135919,-0.02037145,-0.03350354,-0.07628232,-0.0250
 7350,-0.03457070,0.01547183,0.00661620,0.10090120,0.12844477,-0.033506
 91,-0.06467730,-0.00550956,0.00809126,-0.00040581,-0.00169615,0.001131
 53,-0.00057345,-0.00019690,-0.00034379,0.00034552,0.00018966,0.0015777
 4,-0.00303595,-0.00203964,-0.07883524,-0.00403013,-0.00108852,0.006576
 91,0.01667459,0.00757488,-0.13982485,0.03761866,0.02221162,0.33652157,
 -0.04462000,-0.08510992,-0.00671962,0.00324052,-0.00326040,-0.00135230
 ,-0.00057343,0.00065152,0.00033233,0.00014850,0.00007712,0.00010786,-0
 .00399990,-0.00027139,-0.00191111,0.00113425,0.02245119,0.00928597,-0.
 00492339,-0.01015071,-0.00154316,0.08257586,-0.10410347,-0.03009444,-0
 .09429397,0.32384999,0.00288267,0.00517046,0.00194784,-0.00168600,-0.0
 0008142,0.00035910,-0.00040395,0.00040383,0.00005267,0.00008000,0.0001
 1301,-0.00026179,-0.00157359,-0.00251549,0.00529288,0.00316458,0.01212
 598,0.00431629,-0.00101799,-0.00272400,-0.00597083,0.03311379,-0.02802
 201,-0.08837035,0.02429010,0.04689642,0.57108727,0.00141743,0.00116525
 ,0.00032286,-0.00152104,0.00002649,0.00071798,-0.00021736,0.00014127,0
 .00008443,0.00007895,-0.00000680,-0.00008819,-0.00099374,-0.00046180,0
 .00113704,0.00544724,0.00686067,0.00146612,-0.00001524,-0.00230953,-0.
 00177697,-0.02985665,0.03049416,-0.02452106,-0.07330498,0.02329116,-0.
 01725140,0.56989007,0.00259521,0.00452879,0.00000110,-0.00114984,-0.00
 000957,0.00071477,0.00007198,-0.00002555,0.00000476,-0.00003698,-0.000
 01874,0.00001746,0.00050320,0.00014930,-0.00047807,-0.00205249,-0.0008
 0756,0.00006129,0.00108833,0.00029060,0.00125455,0.01500098,-0.0123863
 4,0.00911825,0.03741069,-0.11260654,0.06644660,-0.00584009,0.51742006,
 -0.00059649,-0.00211251,0.00037628,0.00001188,-0.00005369,0.00010532,0
 .00016077,-0.00017771,0.00004365,-0.00002161,-0.00000516,0.00002339,0.
 00017397,0.00067853,-0.00078026,-0.00054785,-0.00419019,-0.00007143,-0
 .00042974,0.00186664,0.00058288,0.00548435,-0.00257892,0.01249877,-0.0
 3503041,0.05755229,-0.16783326,-0.01937103,0.05336647,0.53191996,-0.03
 357617,0.00403987,0.00244857,0.00173980,0.02511806,0.00484091,-0.00010
 132,0.00013319,0.00001580,0.00000865,-0.00001952,0.00000974,-0.0004294
 6,-0.00003736,-0.00006250,0.00022324,0.00078295,0.00185914,0.00046409,
 -0.00016115,-0.00036666,-0.02476381,-0.00619186,0.00230230,0.01936948,
 0.03630593,-0.00250434,-0.00076845,-0.00357419,0.00062365,0.03874427,0
 .02948100,-0.02742063,-0.00608142,-0.01744410,-0.01836246,-0.00060996,
 -0.00011151,-0.00001053,-0.00001629,0.00004510,-0.00005432,-0.00002770
 ,-0.00026845,0.00045703,0.00028201,0.00713593,0.00057223,0.00209088,-0
 .00063380,-0.00118434,-0.00091999,-0.01291127,0.00200872,-0.00004990,0
 .06409292,0.06720661,-0.00952054,-0.01038444,-0.01720841,0.00414100,-0
 .05468543,0.00230973,0.00444086,-0.00721243,-0.02532094,-0.00288063,-0
 .00837785,0.00134929,-0.00001543,0.00002229,-0.00005456,0.00001098,-0.
 00001347,0.00000938,-0.00002721,-0.00002362,0.00016103,0.00110955,-0.0
 0050039,0.00025345,-0.00064735,-0.00003730,-0.00013308,0.00230954,0.00
 193636,-0.00076367,0.00739086,0.00641684,-0.00961973,0.00261921,0.0057
 3272,-0.00263265,-0.00862856,0.00795730,0.03859883,0.00093855,0.001587
 65,0.00088450,-0.00074340,0.00013717,-0.00011337,-0.00007509,0.0000258
 8,0.00001712,0.00004116,-0.00002653,0.00004072,-0.00033704,0.00021948,
 -0.00080013,0.00451647,0.00609281,0.00281356,-0.00129416,-0.00325000,-
 0.00086167,-0.01293250,0.01710871,0.03289622,-0.04401108,-0.00122236,-
 0.03454156,0.00499603,-0.00420802,-0.00527940,-0.00177068,-0.00677040,
 -0.00589333,0.05039904,0.00139824,0.00253319,0.00121982,-0.00058019,0.
 00028088,-0.00016704,0.00004988,-0.00002973,0.00004651,-0.00002227,0.0
 0001031,0.00000002,0.00053598,-0.00013447,-0.00011418,-0.00289143,-0.0
 0150104,-0.00195014,-0.00093178,0.00064004,0.00112715,0.00953215,-0.00
 682215,-0.01357366,0.00506209,-0.08127456,-0.11032150,0.00272482,0.011
 73243,0.02170043,-0.00366749,-0.00921222,-0.00733829,-0.01167987,0.085
 42127,-0.00106750,-0.00127257,0.00076501,0.00060485,0.00008345,-0.0001
 3094,-0.00003648,0.00002059,0.00007756,-0.00000590,-0.00000365,0.00000
 941,0.00009552,0.00021275,-0.00042579,-0.00225121,-0.00193749,0.000656
 07,-0.00114445,0.00090700,0.00053584,0.00461426,-0.00569814,-0.0021179
 1,-0.01085199,-0.09606149,-0.28701797,-0.00325891,-0.01101776,-0.01541
 647,0.00125436,0.00316829,-0.00076376,0.01324013,0.10842510,0.30438464
 ,0.00012700,0.00026018,-0.00006348,-0.00003874,-0.00002965,-0.00000997
 ,-0.00004624,0.00003253,-0.00002938,0.00002039,-0.00001202,-0.00000431
 ,-0.00012745,-0.00000337,0.00025483,0.00123479,0.00025887,0.00031282,-
 0.00020134,-0.00006443,-0.00044971,-0.00000140,0.00066592,-0.00199407,
 -0.00819168,0.00165869,0.00360991,-0.27019409,0.09466904,0.05574886,-0
 .00015879,0.00005340,-0.00001386,0.00015514,-0.00013330,-0.00039424,0.
 29077360,-0.00072433,-0.00012595,-0.00002489,0.00011677,0.00017577,-0.
 00012541,0.00005133,-0.00002927,-0.00003381,-0.00001830,-0.00000127,0.
 00001231,0.00029975,0.00013182,-0.00008729,-0.00139771,-0.00277341,-0.
 00036096,-0.00018077,0.00123500,0.00008871,0.00495858,-0.00123241,0.00
 428393,0.01633633,-0.00889870,-0.00784443,0.09273534,-0.08344803,-0.02
 300525,0.00081889,0.00028851,-0.00008470,-0.00052587,0.00045411,0.0004
 0748,-0.10375236,0.08969538,0.00026714,0.00024880,-0.00000662,-0.00007
 895,-0.00003256,-0.00004572,-0.00009213,0.00008917,0.00000975,0.000018
 58,0.00000424,-0.00001618,-0.00029502,-0.00025634,0.00032109,0.0013882
 7,0.00194656,0.00027789,-0.00013362,-0.00080511,-0.00046765,-0.0054318
 6,0.00451480,-0.00348894,-0.02047530,0.00661502,0.00896100,0.05773674,
 -0.02391160,-0.06349721,-0.00041273,-0.00038851,0.00024146,0.00055109,
 -0.00105409,0.00011763,-0.06083405,0.02329645,0.06355244,-0.00014043,0
 .00035456,-0.00018092,0.00012778,0.00002577,-0.00006603,-0.00000055,0.
 00001106,0.00002829,-0.00001802,0.00000633,-0.00000683,0.00003116,0.00
 002097,0.00000845,-0.00070157,-0.00108626,-0.00052906,-0.00023615,0.00
 073384,0.00008370,0.00112778,-0.00059842,0.00062219,-0.00140070,-0.005
 55870,-0.00768950,-0.04814193,-0.00671103,-0.01477558,0.00000940,0.000
 01917,0.00028165,0.00035920,0.00135690,-0.00129001,0.00370359,0.013292
 76,0.02593942,0.04638339,0.00002316,0.00026235,-0.00082591,0.00013664,
 -0.00014744,0.00022873,-0.00003437,-0.00000673,-0.00000601,0.00000809,
 0.00000740,-0.00000641,-0.00005395,0.00002108,0.00013043,0.00022571,0.
 00016011,-0.00030294,-0.00022370,0.00011861,-0.00017286,-0.00192116,0.
 00077015,-0.00123690,0.00056062,0.01128058,0.02182737,-0.00644648,-0.1
 1468162,-0.12061128,0.00025375,0.00082807,0.00067522,0.00164171,-0.002
 95093,0.00315472,-0.00212444,-0.00620268,-0.00888279,0.00761290,0.1214
 4903,0.00040351,0.00049080,0.00088502,-0.00007776,0.00017069,-0.000223
 09,-0.00001437,0.00002465,0.00000649,-0.00000483,-0.00000575,-0.000000
 17,-0.00000107,0.00002411,-0.00000696,-0.00035440,-0.00059532,-0.00020
 975,0.00007358,0.00034872,0.00019588,0.00112561,0.00001657,0.00246210,
 -0.00009660,-0.01054202,-0.02513174,-0.01454611,-0.11864811,-0.2509603
 4,-0.00084147,-0.00148595,-0.00072683,-0.00187412,0.00339103,-0.001612
 94,-0.00046437,-0.00186162,-0.00431594,0.01641048,0.12655045,0.2757537
 0,-0.00034011,-0.00025701,-0.00015397,0.00036453,-0.00000715,-0.000091
 11,0.00004994,-0.00004602,-0.00003116,-0.00001735,0.00002273,0.0000152
 7,0.00004863,-0.00008265,-0.00005661,-0.00035489,0.00147309,-0.0000415
 7,-0.00067712,-0.00067491,-0.00043694,0.00069543,-0.00152895,0.0006854
 4,0.00615074,0.00683684,-0.00047272,-0.15681625,-0.12776679,0.01384863
 ,0.00100975,0.00238186,-0.00005629,-0.00024163,-0.00075375,0.00049159,
 -0.01705478,-0.02201042,0.00185242,-0.00110296,0.00034154,0.00026191,0
 .16828608,-0.00028671,-0.00046810,-0.00009883,-0.00017518,0.00016020,0
 .00008194,-0.00005563,0.00004818,0.00000737,0.00001946,-0.00002437,-0.
 00002038,-0.00000521,0.00008959,0.00023175,0.00082017,-0.00209365,0.00
 012571,-0.00063523,0.00107898,-0.00046617,0.00052650,0.00261940,-0.001
 09821,-0.01108482,-0.01984135,0.00804571,-0.13199004,-0.19292883,0.013
 42933,0.00088436,-0.00021800,0.00084733,0.00086964,0.00085290,-0.00038
 825,0.00852095,0.01073114,-0.00138406,-0.00947986,-0.01090798,0.002121
 74,0.14207159,0.21090191,0.00011135,0.00033269,0.00036669,0.00034798,-
 0.00004797,-0.00025668,0.00006989,-0.00004469,-0.00002559,-0.00000195,
 0.00001967,0.00002277,-0.00002627,-0.00018277,-0.00023637,-0.00013499,
 0.00232637,0.00081360,0.00020552,-0.00154581,-0.00035702,-0.00069067,-
 0.00266480,0.00086700,0.01532794,0.02101742,-0.00781138,0.01672928,0.0
 1733756,-0.04435862,-0.00053822,0.00146078,-0.00059822,-0.00107976,-0.
 00139115,0.00093961,0.00433103,0.00533948,-0.00164299,-0.01883626,-0.0
 2052182,0.00388459,-0.01581487,-0.02143496,0.04839260\\0.01333431,0.02
 591907,0.00239032,-0.00207732,-0.00144036,0.00016443,-0.00019655,0.000
 09750,0.00001901,-0.00001865,-0.00001543,-0.00000680,-0.00024818,-0.00
 004046,0.00012661,0.00265949,0.00001948,0.00123492,-0.00039438,-0.0003
 1808,-0.00028809,-0.00733627,0.00127869,0.00022971,0.01980422,0.018362
 95,-0.00502253,-0.00360092,-0.00569585,0.00135597,-0.01940284,-0.03396
 397,-0.00215093,-0.00295828,-0.00392431,0.00177446,-0.00005355,0.00003
 639,0.00003484,0.00014635,0.00011646,-0.00031115,0.00034256,-0.0004320
 8,0.00044924\\\@


 NECESSARY EVIL: ONE WE LIKE TOO MUCH TO RELINQUISH.
 Job cpu time:       0 days  0 hours 56 minutes 29.1 seconds.
 Elapsed time:       0 days  0 hours  2 minutes 21.3 seconds.
 File lengths (MBytes):  RWF=    153 Int=      0 D2E=      0 Chk=      8 Scr=      1
 Normal termination of Gaussian 16 at Mon Jun 23 01:49:37 2025.
