 Entering Gaussian System, Link 0=g16
 Initial command:
 /opt/g16/l1.exe "/home/aayush/scratches/g16/Gau-17949.inp" -scrdir="/home/aayush/scratches/g16/"
 Entering Link 1 = /opt/g16/l1.exe PID=     17952.
  
 Copyright (c) 1988,1990,1992,1993,1995,1998,2003,2009,2016,
            Gaussian, Inc.  All Rights Reserved.
  
 This is part of the Gaussian(R) 16 program.  It is based on
 the Gaussian(R) 09 system (copyright 2009, Gaussian, Inc.),
 the Gaussian(R) 03 system (copyright 2003, Gaussian, Inc.),
 the Gaussian(R) 98 system (copyright 1998, Gaussian, Inc.),
 the Gaussian(R) 94 system (copyright 1995, Gaussian, Inc.),
 the Gaussian 92(TM) system (copyright 1992, Gaussian, Inc.),
 the Gaussian 90(TM) system (copyright 1990, Gaussian, Inc.),
 the Gaussian 88(TM) system (copyright 1988, Gaussian, Inc.),
 the Gaussian 86(TM) system (copyright 1986, Carnegie Mellon
 University), and the Gaussian 82(TM) system (copyright 1983,
 Carnegie Mellon University). Gaussian is a federally registered
 trademark of Gaussian, Inc.
  
 This software contains proprietary and confidential information,
 including trade secrets, belonging to Gaussian, Inc.
  
 This software is provided under written license and may be
 used, copied, transmitted, or stored only in accord with that
 written license.
  
 The following legend is applicable only to US Government
 contracts under FAR:
  
                    RESTRICTED RIGHTS LEGEND
  
 Use, reproduction and disclosure by the US Government is
 subject to restrictions as set forth in subparagraphs (a)
 and (c) of the Commercial Computer Software - Restricted
 Rights clause in FAR 52.227-19.
  
 Gaussian, Inc.
 340 Quinnipiac St., Bldg. 40, Wallingford CT 06492
  
  
 ---------------------------------------------------------------
 Warning -- This program may not be used in any manner that
 competes with the business of Gaussian, Inc. or will provide
 assistance to any competitor of Gaussian, Inc.  The licensee
 of this program is prohibited from giving any competitor of
 Gaussian, Inc. access to this program.  By using this program,
 the user acknowledges that Gaussian, Inc. is engaged in the
 business of creating and licensing software in the field of
 computational chemistry and represents and warrants to the
 licensee that it is not a competitor of Gaussian, Inc. and that
 it will not use this program in any manner prohibited above.
 ---------------------------------------------------------------
  

 Cite this work as:
 Gaussian 16, Revision A.03,
 M. J. Frisch, G. W. Trucks, H. B. Schlegel, G. E. Scuseria, 
 M. A. Robb, J. R. Cheeseman, G. Scalmani, V. Barone, 
 G. A. Petersson, H. Nakatsuji, X. Li, M. Caricato, A. V. Marenich, 
 J. Bloino, B. G. Janesko, R. Gomperts, B. Mennucci, H. P. Hratchian, 
 J. V. Ortiz, A. F. Izmaylov, J. L. Sonnenberg, D. Williams-Young, 
 F. Ding, F. Lipparini, F. Egidi, J. Goings, B. Peng, A. Petrone, 
 T. Henderson, D. Ranasinghe, V. G. Zakrzewski, J. Gao, N. Rega, 
 G. Zheng, W. Liang, M. Hada, M. Ehara, K. Toyota, R. Fukuda, 
 J. Hasegawa, M. Ishida, T. Nakajima, Y. Honda, O. Kitao, H. Nakai, 
 T. Vreven, K. Throssell, J. A. Montgomery, Jr., J. E. Peralta, 
 F. Ogliaro, M. J. Bearpark, J. J. Heyd, E. N. Brothers, K. N. Kudin, 
 V. N. Staroverov, T. A. Keith, R. Kobayashi, J. Normand, 
 K. Raghavachari, A. P. Rendell, J. C. Burant, S. S. Iyengar, 
 J. Tomasi, M. Cossi, J. M. Millam, M. Klene, C. Adamo, R. Cammi, 
 J. W. Ochterski, R. L. Martin, K. Morokuma, O. Farkas, 
 J. B. Foresman, and D. J. Fox, Gaussian, Inc., Wallingford CT, 2016.
 
 ******************************************
 Gaussian 16:  ES64L-G16RevA.03 25-Dec-2016
                16-Aug-2025 
 ******************************************
 %nprocshared=24
 Will use up to   24 processors via shared memory.
 %mem=12GB
 %chk=ethyl_propiolate.chk
 --------------------------
 # freq 6-311++g(d,p) m062x
 --------------------------
 1/10=4,30=1,38=1/1,3;
 2/12=2,17=6,18=5,40=1/2;
 3/5=4,6=6,7=1111,11=2,25=1,30=1,71=2,74=-55,140=1/1,2,3;
 4//1;
 5/5=2,38=5,98=1/2;
 8/6=4,10=90,11=11/1;
 11/6=1,8=1,9=11,15=111,16=1/1,2,10;
 10/6=1/2;
 6/7=2,8=2,9=2,10=2,28=1/1;
 7/8=1,10=1,25=1/1,2,3,16;
 1/10=4,30=1/3;
 99//99;
 -------------------
 Title Card Required
 -------------------
 Symbolic Z-matrix:
 Charge =  0 Multiplicity = 2
 O                     2.69395   1.73647  -0.23002 
 H                     1.89437   2.22804   0.00104 
 C                    -3.1342    1.01992   0.42241 
 H                    -4.01477   1.56606   0.66924 
 C                    -2.14452   0.40491   0.14466 
 C                    -0.97718  -0.38412  -0.20972 
 O                    -1.01975  -1.48607  -0.67454 
 O                     0.15738   0.28785   0.05623 
 C                     1.36878  -0.38283  -0.26015 
 C                     1.83376  -1.29899   0.83369 
 H                     2.24091   0.7082   -0.33586 
 H                     1.33041  -0.81057  -1.26149 
 H                     2.81401  -1.70907   0.58979 
 H                     1.89876  -0.76348   1.78161 
 H                     1.12391  -2.12749   0.9355 
 

 GradGradGradGradGradGradGradGradGradGradGradGradGradGradGradGradGradGrad
 Berny optimization.
 Initialization pass.
 Trust Radius=3.00D-01 FncErr=1.00D-07 GrdErr=1.00D-07 EigMax=2.50D+02 EigMin=1.00D-04
 Number of steps in this run=      2 maximum allowed number of steps=      2.
 GradGradGradGradGradGradGradGradGradGradGradGradGradGradGradGradGradGrad

                          Input orientation:                          
 ---------------------------------------------------------------------
 Center     Atomic      Atomic             Coordinates (Angstroms)
 Number     Number       Type             X           Y           Z
 ---------------------------------------------------------------------
      1          8           0        2.693950    1.736466   -0.230021
      2          1           0        1.894367    2.228038    0.001035
      3          6           0       -3.134204    1.019925    0.422413
      4          1           0       -4.014771    1.566064    0.669237
      5          6           0       -2.144515    0.404911    0.144661
      6          6           0       -0.977180   -0.384121   -0.209724
      7          8           0       -1.019747   -1.486066   -0.674543
      8          8           0        0.157378    0.287853    0.056227
      9          6           0        1.368777   -0.382830   -0.260154
     10          6           0        1.833762   -1.298991    0.833692
     11          1           0        2.240906    0.708199   -0.335855
     12          1           0        1.330411   -0.810565   -1.261492
     13          1           0        2.814009   -1.709066    0.589789
     14          1           0        1.898756   -0.763478    1.781605
     15          1           0        1.123907   -2.127490    0.935497
 ---------------------------------------------------------------------
                    Distance matrix (angstroms):
                    1          2          3          4          5
     1  O    0.000000
     2  H    0.966624   0.000000
     3  C    5.908171   5.188798   0.000000
     4  H    6.770867   5.983529   1.065170   0.000000
     5  C    5.032312   4.433620   1.197862   2.263032   0.000000
     6  C    4.239634   3.887618   2.650225   3.715206   1.452870
     7  O    4.936989   4.768966   3.457489   4.482344   2.347763
     8  O    2.935066   2.604706   3.391833   4.406408   2.306563
     9  C    2.499681   2.676022   4.765549   5.800392   3.623207
    10  C    3.329476   3.624490   5.497928   6.514670   4.382321
    11  H    1.128620   1.594834   5.437274   6.393719   4.422081
    12  H    3.067660   3.338432   5.110677   6.160118   3.940782
    13  H    3.543754   4.085726   6.546499   7.573970   5.408697
    14  H    3.305857   3.481324   5.509865   6.452436   4.515834
    15  H    4.330545   4.520780   5.319867   6.333976   4.209639
                    6          7          8          9         10
     6  C    0.000000
     7  O    1.196725   0.000000
     8  O    1.345177   2.250875   0.000000
     9  C    2.346499   2.663437   1.420352   0.000000
    10  C    3.134820   3.232999   2.435732   1.500687   0.000000
    11  H    3.400757   3.944790   2.161367   1.398815   2.358478
    12  H    2.571584   2.514767   2.078199   1.089544   2.209461
    13  H    4.094852   4.043012   3.366016   2.137756   1.090199
    14  H    3.518567   3.882326   2.667325   2.143490   1.090659
    15  H    2.960647   2.756611   2.746120   2.129174   1.095750
                   11         12         13         14         15
    11  H    0.000000
    12  H    1.998111   0.000000
    13  H    2.651119   2.536850   0.000000
    14  H    2.601257   3.096074   1.775458   0.000000
    15  H    3.302295   2.569766   1.775116   1.782363   0.000000
 Stoichiometry    C5H7O3(2)
 Framework group  C1[X(C5H7O3)]
 Deg. of freedom    39
 Full point group                 C1      NOp   1
 Largest Abelian subgroup         C1      NOp   1
 Largest concise Abelian subgroup C1      NOp   1
                         Standard orientation:                         
 ---------------------------------------------------------------------
 Center     Atomic      Atomic             Coordinates (Angstroms)
 Number     Number       Type             X           Y           Z
 ---------------------------------------------------------------------
      1          8           0        2.636394    1.741313   -0.247978
      2          1           0        1.837295    2.233542   -0.016643
      3          6           0       -3.192531    1.030258    0.403574
      4          1           0       -4.072559    1.577125    0.650709
      5          6           0       -2.203449    0.414426    0.125472
      6          6           0       -1.036892   -0.375552   -0.229369
      7          8           0       -1.080548   -1.477138   -0.694938
      8          8           0        0.098330    0.295087    0.037115
      9          6           0        1.309068   -0.376613   -0.279638
     10          6           0        1.773046   -1.293988    0.813617
     11          1           0        2.182312    0.713580   -0.354540
     12          1           0        1.270336   -0.803629   -1.281269
     13          1           0        2.752892   -1.704894    0.569503
     14          1           0        1.838520   -0.759184    1.761898
     15          1           0        1.062342   -2.121833    0.914812
 ---------------------------------------------------------------------
 Rotational constants (GHZ):           3.0388489           1.1299952           0.9025301
 Standard basis: 6-311++G(d,p) (5D, 7F)
 There are   233 symmetry adapted cartesian basis functions of A   symmetry.
 There are   225 symmetry adapted basis functions of A   symmetry.
   225 basis functions,   351 primitive gaussians,   233 cartesian basis functions
    31 alpha electrons       30 beta electrons
       nuclear repulsion energy       348.6974436429 Hartrees.
 NAtoms=   15 NActive=   15 NUniq=   15 SFac= 1.00D+00 NAtFMM=   60 NAOKFM=F Big=F
 Integral buffers will be    131072 words long.
 Raffenetti 2 integral format.
 Two-electron integral symmetry is turned on.
 One-electron integrals computed using PRISM.
 NBasis=   225 RedAO= T EigKep=  7.82D-06  NBF=   225
 NBsUse=   224 1.00D-06 EigRej=  8.30D-07 NBFU=   224
 ExpMin= 3.60D-02 ExpMax= 8.59D+03 ExpMxC= 1.30D+03 IAcc=3 IRadAn=         5 AccDes= 0.00D+00
 Harris functional with IExCor= 1009 and IRadAn=       5 diagonalized for initial guess.
 HarFok:  IExCor= 1009 AccDes= 0.00D+00 IRadAn=         5 IDoV= 1 UseB2=F ITyADJ=14
 ICtDFT=  3500011 ScaDFX=  1.000000  1.000000  1.000000  1.000000
 FoFCou: FMM=F IPFlag=           0 FMFlag=      100000 FMFlg1=           0
         NFxFlg=           0 DoJE=T BraDBF=F KetDBF=T FulRan=T
         wScrn=  0.000000 ICntrl=       500 IOpCl=  0 I1Cent=   200000004 NGrid=           0
         NMat0=    1 NMatS0=      1 NMatT0=    0 NMatD0=    1 NMtDS0=    0 NMtDT0=    0
 Petite list used in FoFCou.
 Initial guess <Sx>= 0.0000 <Sy>= 0.0000 <Sz>= 0.5000 <S**2>= 0.7500 S= 0.5000
 Requested convergence on RMS density matrix=1.00D-08 within 128 cycles.
 Requested convergence on MAX density matrix=1.00D-06.
 Requested convergence on             energy=1.00D-06.
 No special actions if energy rises.
 SCF Done:  E(UM062X) =  -420.208070920     A.U. after   17 cycles
            NFock= 17  Conv=0.52D-08     -V/T= 2.0034
 <Sx>= 0.0000 <Sy>= 0.0000 <Sz>= 0.5000 <S**2>= 0.7586 S= 0.5043
 <L.S>=  0.00000000000    
 Annihilation of the first spin contaminant:
 S**2 before annihilation     0.7586,   after     0.7500
 DoSCS=F DFT=T ScalE2(SS,OS)=  1.000000  1.000000
 Range of M.O.s used for correlation:     1   224
 NBasis=   225 NAE=    31 NBE=    30 NFC=     0 NFV=     0
 NROrb=    224 NOA=    31 NOB=    30 NVA=   193 NVB=   194

 **** Warning!!: The largest alpha MO coefficient is  0.10387800D+03


 **** Warning!!: The largest beta MO coefficient is  0.10184956D+03

 Symmetrizing basis deriv contribution to polar:
 IMax=3 JMax=2 DiffMx= 0.00D+00
 G2DrvN: will do    16 centers at a time, making    1 passes.
 Calling FoFCou, ICntrl=  3107 FMM=F I1Cent=   0 AccDes= 0.00D+00.
 End of G2Drv F.D. properties file   721 does not exist.
 End of G2Drv F.D. properties file   722 does not exist.
 End of G2Drv F.D. properties file   788 does not exist.
          IDoAtm=111111111111111
          Differentiating once with respect to electric field.
                with respect to dipole field.
          Differentiating once with respect to nuclear coordinates.
 Keep R1 and R2 ints in memory in canonical form, NReq=671901989.
          There are    48 degrees of freedom in the 1st order CPHF.  IDoFFX=6 NUNeed=     3.
     45 vectors produced by pass  0 Test12= 2.46D-14 2.08D-09 XBig12= 9.09D+01 3.44D+00.
 AX will form    45 AO Fock derivatives at one time.
     45 vectors produced by pass  1 Test12= 2.46D-14 2.08D-09 XBig12= 1.84D+01 7.47D-01.
     45 vectors produced by pass  2 Test12= 2.46D-14 2.08D-09 XBig12= 6.55D-01 1.23D-01.
     45 vectors produced by pass  3 Test12= 2.46D-14 2.08D-09 XBig12= 9.81D-03 1.31D-02.
     45 vectors produced by pass  4 Test12= 2.46D-14 2.08D-09 XBig12= 1.02D-04 1.42D-03.
     45 vectors produced by pass  5 Test12= 2.46D-14 2.08D-09 XBig12= 9.73D-07 9.68D-05.
     45 vectors produced by pass  6 Test12= 2.46D-14 2.08D-09 XBig12= 6.69D-09 7.07D-06.
     24 vectors produced by pass  7 Test12= 2.46D-14 2.08D-09 XBig12= 3.62D-11 4.69D-07.
      3 vectors produced by pass  8 Test12= 2.46D-14 2.08D-09 XBig12= 2.22D-13 5.26D-08.
      2 vectors produced by pass  9 Test12= 2.46D-14 2.08D-09 XBig12= 2.20D-15 6.26D-09.
 InvSVY:  IOpt=1 It=  1 EMax= 3.00D-15
 Solved reduced A of dimension   344 with    48 vectors.
 Isotropic polarizability for W=    0.000000       74.70 Bohr**3.
 End of Minotr F.D. properties file   721 does not exist.
 End of Minotr F.D. properties file   722 does not exist.
 End of Minotr F.D. properties file   788 does not exist.

 **********************************************************************

            Population analysis using the SCF density.

 **********************************************************************

 Orbital symmetries:
 Alpha Orbitals:
       Occupied  (A) (A) (A) (A) (A) (A) (A) (A) (A) (A) (A) (A)
                 (A) (A) (A) (A) (A) (A) (A) (A) (A) (A) (A) (A)
                 (A) (A) (A) (A) (A) (A) (A)
       Virtual   (A) (A) (A) (A) (A) (A) (A) (A) (A) (A) (A) (A)
                 (A) (A) (A) (A) (A) (A) (A) (A) (A) (A) (A) (A)
                 (A) (A) (A) (A) (A) (A) (A) (A) (A) (A) (A) (A)
                 (A) (A) (A) (A) (A) (A) (A) (A) (A) (A) (A) (A)
                 (A) (A) (A) (A) (A) (A) (A) (A) (A) (A) (A) (A)
                 (A) (A) (A) (A) (A) (A) (A) (A) (A) (A) (A) (A)
                 (A) (A) (A) (A) (A) (A) (A) (A) (A) (A) (A) (A)
                 (A) (A) (A) (A) (A) (A) (A) (A) (A) (A) (A) (A)
                 (A) (A) (A) (A) (A) (A) (A) (A) (A) (A) (A) (A)
                 (A) (A) (A) (A) (A) (A) (A) (A) (A) (A) (A) (A)
                 (A) (A) (A) (A) (A) (A) (A) (A) (A) (A) (A) (A)
                 (A) (A) (A) (A) (A) (A) (A) (A) (A) (A) (A) (A)
                 (A) (A) (A) (A) (A) (A) (A) (A) (A) (A) (A) (A)
                 (A) (A) (A) (A) (A) (A) (A) (A) (A) (A) (A) (A)
                 (A) (A) (A) (A) (A) (A) (A) (A) (A) (A) (A) (A)
                 (A) (A) (A) (A) (A) (A) (A) (A) (A) (A) (A) (A)
                 (A)
 Beta  Orbitals:
       Occupied  (A) (A) (A) (A) (A) (A) (A) (A) (A) (A) (A) (A)
                 (A) (A) (A) (A) (A) (A) (A) (A) (A) (A) (A) (A)
                 (A) (A) (A) (A) (A) (A)
       Virtual   (A) (A) (A) (A) (A) (A) (A) (A) (A) (A) (A) (A)
                 (A) (A) (A) (A) (A) (A) (A) (A) (A) (A) (A) (A)
                 (A) (A) (A) (A) (A) (A) (A) (A) (A) (A) (A) (A)
                 (A) (A) (A) (A) (A) (A) (A) (A) (A) (A) (A) (A)
                 (A) (A) (A) (A) (A) (A) (A) (A) (A) (A) (A) (A)
                 (A) (A) (A) (A) (A) (A) (A) (A) (A) (A) (A) (A)
                 (A) (A) (A) (A) (A) (A) (A) (A) (A) (A) (A) (A)
                 (A) (A) (A) (A) (A) (A) (A) (A) (A) (A) (A) (A)
                 (A) (A) (A) (A) (A) (A) (A) (A) (A) (A) (A) (A)
                 (A) (A) (A) (A) (A) (A) (A) (A) (A) (A) (A) (A)
                 (A) (A) (A) (A) (A) (A) (A) (A) (A) (A) (A) (A)
                 (A) (A) (A) (A) (A) (A) (A) (A) (A) (A) (A) (A)
                 (A) (A) (A) (A) (A) (A) (A) (A) (A) (A) (A) (A)
                 (A) (A) (A) (A) (A) (A) (A) (A) (A) (A) (A) (A)
                 (A) (A) (A) (A) (A) (A) (A) (A) (A) (A) (A) (A)
                 (A) (A) (A) (A) (A) (A) (A) (A) (A) (A) (A) (A)
                 (A) (A)
 The electronic state is 2-A.
 Alpha  occ. eigenvalues --  -19.70833 -19.65188 -19.62629 -10.72672 -10.64291
 Alpha  occ. eigenvalues --  -10.58413 -10.57932 -10.55897  -1.28047  -1.18742
 Alpha  occ. eigenvalues --   -1.11511  -0.92252  -0.88594  -0.80197  -0.71934
 Alpha  occ. eigenvalues --   -0.67127  -0.62546  -0.61036  -0.59036  -0.58257
 Alpha  occ. eigenvalues --   -0.52737  -0.51685  -0.49381  -0.48458  -0.46370
 Alpha  occ. eigenvalues --   -0.41547  -0.41291  -0.39189  -0.38555  -0.37745
 Alpha  occ. eigenvalues --   -0.32078
 Alpha virt. eigenvalues --   -0.03167  -0.00532   0.00424   0.01498   0.01808
 Alpha virt. eigenvalues --    0.02959   0.03142   0.04557   0.05822   0.05921
 Alpha virt. eigenvalues --    0.06498   0.07307   0.07768   0.09220   0.10091
 Alpha virt. eigenvalues --    0.11129   0.11880   0.12191   0.12535   0.12894
 Alpha virt. eigenvalues --    0.13568   0.14140   0.14585   0.15959   0.16165
 Alpha virt. eigenvalues --    0.17442   0.17585   0.18168   0.19434   0.19941
 Alpha virt. eigenvalues --    0.21425   0.21826   0.23678   0.24853   0.25863
 Alpha virt. eigenvalues --    0.26658   0.28245   0.28281   0.29120   0.29534
 Alpha virt. eigenvalues --    0.30353   0.31013   0.31632   0.32570   0.33643
 Alpha virt. eigenvalues --    0.34140   0.34971   0.36799   0.37410   0.40415
 Alpha virt. eigenvalues --    0.41825   0.44063   0.45769   0.47892   0.49979
 Alpha virt. eigenvalues --    0.50448   0.53159   0.55708   0.57082   0.59427
 Alpha virt. eigenvalues --    0.60520   0.62455   0.65042   0.65946   0.66286
 Alpha virt. eigenvalues --    0.67244   0.68405   0.70123   0.71448   0.73339
 Alpha virt. eigenvalues --    0.74190   0.75122   0.78121   0.81195   0.83766
 Alpha virt. eigenvalues --    0.88371   0.91266   0.95163   1.00531   1.04901
 Alpha virt. eigenvalues --    1.06709   1.09563   1.10230   1.12760   1.13541
 Alpha virt. eigenvalues --    1.15196   1.16443   1.16887   1.18790   1.20871
 Alpha virt. eigenvalues --    1.22231   1.23102   1.28688   1.28970   1.33028
 Alpha virt. eigenvalues --    1.34860   1.35721   1.38013   1.41702   1.42947
 Alpha virt. eigenvalues --    1.45415   1.47784   1.50278   1.54316   1.57713
 Alpha virt. eigenvalues --    1.58687   1.59085   1.60332   1.61307   1.63340
 Alpha virt. eigenvalues --    1.64692   1.66721   1.67393   1.70919   1.75072
 Alpha virt. eigenvalues --    1.78442   1.81861   1.83172   1.84890   1.88593
 Alpha virt. eigenvalues --    1.92261   1.96770   1.99376   2.03982   2.07365
 Alpha virt. eigenvalues --    2.10794   2.13847   2.14693   2.22792   2.29487
 Alpha virt. eigenvalues --    2.40987   2.41891   2.50040   2.50681   2.53731
 Alpha virt. eigenvalues --    2.57262   2.58615   2.59767   2.60810   2.63635
 Alpha virt. eigenvalues --    2.65439   2.68852   2.71306   2.72775   2.78168
 Alpha virt. eigenvalues --    2.80968   2.82740   2.88214   2.91425   2.97113
 Alpha virt. eigenvalues --    2.99864   3.03056   3.05081   3.07632   3.10234
 Alpha virt. eigenvalues --    3.13152   3.19196   3.20569   3.22178   3.26862
 Alpha virt. eigenvalues --    3.30111   3.32373   3.36528   3.42454   3.50415
 Alpha virt. eigenvalues --    3.55687   3.65486   3.73385   3.81517   3.84100
 Alpha virt. eigenvalues --    3.84650   3.98512   4.06266   4.11083   4.16577
 Alpha virt. eigenvalues --    4.23790   5.09415   5.13106   5.15447   5.30065
 Alpha virt. eigenvalues --    5.43430   5.48361   5.68984   5.72392   5.92544
 Alpha virt. eigenvalues --   23.61339  23.84008  23.92796  24.02944  25.16657
 Alpha virt. eigenvalues --   49.97353  50.00100  50.09325
  Beta  occ. eigenvalues --  -19.70801 -19.65181 -19.61933 -10.72634 -10.63566
  Beta  occ. eigenvalues --  -10.58413 -10.57932 -10.55909  -1.27825  -1.18556
  Beta  occ. eigenvalues --   -1.08869  -0.91469  -0.87855  -0.79754  -0.70691
  Beta  occ. eigenvalues --   -0.66222  -0.62266  -0.60188  -0.58270  -0.55967
  Beta  occ. eigenvalues --   -0.51712  -0.50799  -0.48391  -0.47130  -0.44142
  Beta  occ. eigenvalues --   -0.41206  -0.40873  -0.38538  -0.37871  -0.37665
  Beta virt. eigenvalues --   -0.09535  -0.03060  -0.00458   0.00491   0.01646
  Beta virt. eigenvalues --    0.01983   0.03048   0.03203   0.04784   0.05889
  Beta virt. eigenvalues --    0.05979   0.06677   0.07404   0.07811   0.09340
  Beta virt. eigenvalues --    0.10198   0.11200   0.11999   0.12288   0.12679
  Beta virt. eigenvalues --    0.13031   0.13676   0.14224   0.14739   0.16187
  Beta virt. eigenvalues --    0.16338   0.17515   0.17718   0.18174   0.19609
  Beta virt. eigenvalues --    0.20163   0.21570   0.22325   0.24153   0.25380
  Beta virt. eigenvalues --    0.25583   0.26768   0.28393   0.28444   0.29383
  Beta virt. eigenvalues --    0.29767   0.31017   0.31205   0.31826   0.32791
  Beta virt. eigenvalues --    0.34001   0.34335   0.35067   0.37424   0.38090
  Beta virt. eigenvalues --    0.41388   0.42285   0.44275   0.46001   0.48015
  Beta virt. eigenvalues --    0.50178   0.50653   0.53351   0.55767   0.57533
  Beta virt. eigenvalues --    0.60038   0.60769   0.62616   0.65349   0.66446
  Beta virt. eigenvalues --    0.67268   0.67568   0.69222   0.70874   0.71772
  Beta virt. eigenvalues --    0.73457   0.74377   0.75511   0.78490   0.81439
  Beta virt. eigenvalues --    0.83851   0.88609   0.91562   0.95146   1.01610
  Beta virt. eigenvalues --    1.05994   1.06882   1.09766   1.10585   1.13423
  Beta virt. eigenvalues --    1.14356   1.15506   1.16769   1.17159   1.19674
  Beta virt. eigenvalues --    1.21057   1.22503   1.23277   1.29107   1.29224
  Beta virt. eigenvalues --    1.33168   1.35065   1.35833   1.38439   1.41843
  Beta virt. eigenvalues --    1.43289   1.45979   1.48278   1.50889   1.56165
  Beta virt. eigenvalues --    1.58289   1.58920   1.59709   1.60529   1.61792
  Beta virt. eigenvalues --    1.63914   1.64973   1.67023   1.68112   1.71613
  Beta virt. eigenvalues --    1.75339   1.78931   1.82475   1.83245   1.85479
  Beta virt. eigenvalues --    1.88977   1.92761   1.97339   1.99626   2.04323
  Beta virt. eigenvalues --    2.07928   2.12051   2.14559   2.15549   2.25021
  Beta virt. eigenvalues --    2.30345   2.41085   2.43803   2.50332   2.50902
  Beta virt. eigenvalues --    2.53409   2.57584   2.58962   2.59834   2.62174
  Beta virt. eigenvalues --    2.63809   2.65553   2.69434   2.71581   2.73308
  Beta virt. eigenvalues --    2.76472   2.81005   2.81965   2.88827   2.92133
  Beta virt. eigenvalues --    2.97200   3.00242   3.03089   3.05163   3.08093
  Beta virt. eigenvalues --    3.12134   3.13605   3.19350   3.21135   3.23034
  Beta virt. eigenvalues --    3.28372   3.30708   3.32560   3.37018   3.42610
  Beta virt. eigenvalues --    3.52678   3.55735   3.65576   3.73670   3.82511
  Beta virt. eigenvalues --    3.84752   3.84995   3.99969   4.07385   4.11679
  Beta virt. eigenvalues --    4.16809   4.25126   5.10131   5.13703   5.15551
  Beta virt. eigenvalues --    5.30102   5.43892   5.50260   5.69905   5.73539
  Beta virt. eigenvalues --    5.92703  23.61347  23.85144  23.92846  24.02955
  Beta virt. eigenvalues --   25.16662  49.97394  49.99344  50.09320
          Condensed to atoms (all electrons):
               1          2          3          4          5          6
     1  O    7.952648   0.306247  -0.001838  -0.000098   0.012762  -0.004162
     2  H    0.306247   0.474022  -0.000722  -0.000224  -0.000065  -0.000488
     3  C   -0.001838  -0.000722   5.800588   0.447520  -0.483498   0.940583
     4  H   -0.000098  -0.000224   0.447520   0.424428  -0.078026   0.023924
     5  C    0.012762  -0.000065  -0.483498  -0.078026   8.128401  -2.222429
     6  C   -0.004162  -0.000488   0.940583   0.023924  -2.222429   7.570623
     7  O   -0.000005  -0.000203  -0.098176  -0.003384   0.132126   0.349278
     8  O    0.028461   0.014130  -0.095064  -0.004880  -0.266369   0.035323
     9  C   -0.050365  -0.004017   0.053683   0.001374  -0.254432   0.099678
    10  C   -0.003708   0.018896  -0.015100  -0.001466  -0.065349  -0.085802
    11  H    0.224079  -0.063022   0.003696   0.000414  -0.005917   0.013442
    12  H   -0.002902  -0.001830  -0.001200  -0.000021   0.007362  -0.003614
    13  H   -0.000891   0.001772  -0.000581  -0.000036  -0.001037  -0.003039
    14  H    0.003828  -0.001426   0.000218   0.000032   0.005477   0.003030
    15  H   -0.004595   0.000454   0.004111   0.000018  -0.028925   0.011345
               7          8          9         10         11         12
     1  O   -0.000005   0.028461  -0.050365  -0.003708   0.224079  -0.002902
     2  H   -0.000203   0.014130  -0.004017   0.018896  -0.063022  -0.001830
     3  C   -0.098176  -0.095064   0.053683  -0.015100   0.003696  -0.001200
     4  H   -0.003384  -0.004880   0.001374  -0.001466   0.000414  -0.000021
     5  C    0.132126  -0.266369  -0.254432  -0.065349  -0.005917   0.007362
     6  C    0.349278   0.035323   0.099678  -0.085802   0.013442  -0.003614
     7  O    7.978422  -0.144110   0.076575  -0.088260   0.004470  -0.011628
     8  O   -0.144110   8.381057   0.074075   0.031713  -0.038553  -0.024650
     9  C    0.076575   0.074075   6.447752  -0.430774   0.152073   0.423851
    10  C   -0.088260   0.031713  -0.430774   5.937607  -0.081494  -0.091362
    11  H    0.004470  -0.038553   0.152073  -0.081494   0.482915  -0.028349
    12  H   -0.011628  -0.024650   0.423851  -0.091362  -0.028349   0.505112
    13  H   -0.001830   0.020160  -0.069322   0.430359  -0.010916  -0.006331
    14  H    0.001068  -0.003857  -0.060206   0.421297  -0.005768   0.000350
    15  H    0.003272  -0.022429   0.013262   0.355982   0.008615  -0.003010
              13         14         15
     1  O   -0.000891   0.003828  -0.004595
     2  H    0.001772  -0.001426   0.000454
     3  C   -0.000581   0.000218   0.004111
     4  H   -0.000036   0.000032   0.000018
     5  C   -0.001037   0.005477  -0.028925
     6  C   -0.003039   0.003030   0.011345
     7  O   -0.001830   0.001068   0.003272
     8  O    0.020160  -0.003857  -0.022429
     9  C   -0.069322  -0.060206   0.013262
    10  C    0.430359   0.421297   0.355982
    11  H   -0.010916  -0.005768   0.008615
    12  H   -0.006331   0.000350  -0.003010
    13  H    0.511187  -0.024835  -0.032111
    14  H   -0.024835   0.514712  -0.049551
    15  H   -0.032111  -0.049551   0.546265
          Atomic-Atomic Spin Densities.
               1          2          3          4          5          6
     1  O    0.430950  -0.002526  -0.000378  -0.000001   0.005267   0.002461
     2  H   -0.002526  -0.009829   0.000232   0.000006  -0.001829   0.000007
     3  C   -0.000378   0.000232  -0.003490  -0.000145  -0.001234   0.005975
     4  H   -0.000001   0.000006  -0.000145  -0.000110   0.000100   0.000435
     5  C    0.005267  -0.001829  -0.001234   0.000100   0.027903  -0.016768
     6  C    0.002461   0.000007   0.005975   0.000435  -0.016768   0.023072
     7  O    0.000028   0.000010   0.000359   0.000021   0.000485  -0.000706
     8  O    0.037857  -0.006127  -0.001845  -0.000172   0.010966   0.000125
     9  C   -0.171424   0.015466   0.001385  -0.000161  -0.028211  -0.009237
    10  C    0.023146  -0.002792   0.000052   0.000065   0.007756   0.002638
    11  H   -0.011136   0.005436   0.000530   0.000029  -0.002929   0.002702
    12  H    0.004770  -0.000514   0.000045  -0.000001   0.001368   0.000962
    13  H    0.000345   0.000072   0.000033   0.000002  -0.000142   0.000908
    14  H    0.005666  -0.000768  -0.000144   0.000001   0.002693   0.001177
    15  H   -0.002998   0.000335   0.000033  -0.000010  -0.003732  -0.003008
               7          8          9         10         11         12
     1  O    0.000028   0.037857  -0.171424   0.023146  -0.011136   0.004770
     2  H    0.000010  -0.006127   0.015466  -0.002792   0.005436  -0.000514
     3  C    0.000359  -0.001845   0.001385   0.000052   0.000530   0.000045
     4  H    0.000021  -0.000172  -0.000161   0.000065   0.000029  -0.000001
     5  C    0.000485   0.010966  -0.028211   0.007756  -0.002929   0.001368
     6  C   -0.000706   0.000125  -0.009237   0.002638   0.002702   0.000962
     7  O    0.002789   0.001537  -0.000754  -0.001276  -0.000660   0.000006
     8  O    0.001537   0.077943  -0.165757   0.021064  -0.016048   0.009852
     9  C   -0.000754  -0.165757   1.129970  -0.084368   0.099719  -0.039311
    10  C   -0.001276   0.021064  -0.084368  -0.016782  -0.014087   0.013076
    11  H   -0.000660  -0.016048   0.099719  -0.014087  -0.105848   0.005490
    12  H    0.000006   0.009852  -0.039311   0.013076   0.005490  -0.007093
    13  H    0.000003  -0.000119  -0.002245   0.003984  -0.001533   0.000125
    14  H    0.000113   0.007434  -0.033199   0.015235  -0.000938   0.001804
    15  H   -0.000386  -0.004027   0.009743   0.003049   0.000220  -0.004227
              13         14         15
     1  O    0.000345   0.005666  -0.002998
     2  H    0.000072  -0.000768   0.000335
     3  C    0.000033  -0.000144   0.000033
     4  H    0.000002   0.000001  -0.000010
     5  C   -0.000142   0.002693  -0.003732
     6  C    0.000908   0.001177  -0.003008
     7  O    0.000003   0.000113  -0.000386
     8  O   -0.000119   0.007434  -0.004027
     9  C   -0.002245  -0.033199   0.009743
    10  C    0.003984   0.015235   0.003049
    11  H   -0.001533  -0.000938   0.000220
    12  H    0.000125   0.001804  -0.004227
    13  H    0.002326   0.000307  -0.001682
    14  H    0.000307   0.021075  -0.012617
    15  H   -0.001682  -0.012617   0.062043
 Mulliken charges and spin densities:
               1          2
     1  O   -0.459462   0.322027
     2  H    0.256476  -0.002822
     3  C   -0.554219   0.001407
     4  H    0.190425   0.000061
     5  C    1.119920   0.001694
     6  C   -0.727692   0.010745
     7  O   -0.197615   0.001569
     8  O    0.014994  -0.027318
     9  C   -0.473204   0.721618
    10  C   -0.332538  -0.029241
    11  H    0.344315  -0.039054
    12  H    0.238221  -0.013649
    13  H    0.187451   0.002384
    14  H    0.195632   0.007840
    15  H    0.197297   0.042737
 Sum of Mulliken charges =  -0.00000   1.00000
 Mulliken charges and spin densities with hydrogens summed into heavy atoms:
               1          2
     1  O    0.141329   0.280151
     3  C   -0.363794   0.001468
     5  C    1.119920   0.001694
     6  C   -0.727692   0.010745
     7  O   -0.197615   0.001569
     8  O    0.014994  -0.027318
     9  C   -0.234983   0.707969
    10  C    0.247841   0.023721
 APT charges:
               1
     1  O   -0.456440
     2  H    0.256526
     3  C   -0.164783
     4  H    0.238978
     5  C   -0.325781
     6  C    1.557586
     7  O   -0.782226
     8  O   -1.051334
     9  C    0.796304
    10  C   -0.150012
    11  H   -0.020693
    12  H   -0.016269
    13  H    0.034824
    14  H    0.040828
    15  H    0.042492
 Sum of APT charges =  -0.00000
 APT charges with hydrogens summed into heavy atoms:
               1
     1  O   -0.220607
     3  C    0.074195
     5  C   -0.325781
     6  C    1.557586
     7  O   -0.782226
     8  O   -1.051334
     9  C    0.780035
    10  C   -0.031868
 Electronic spatial extent (au):  <R**2>=           1265.4081
 Charge=             -0.0000 electrons
 Dipole moment (field-independent basis, Debye):
    X=             -2.1351    Y=             -0.0688    Z=              1.3099  Tot=              2.5059
 Quadrupole moment (field-independent basis, Debye-Ang):
   XX=            -47.7078   YY=            -49.4709   ZZ=            -47.8948
   XY=            -14.6923   XZ=             -1.6112   YZ=             -0.2457
 Traceless Quadrupole moment (field-independent basis, Debye-Ang):
   XX=              0.6501   YY=             -1.1131   ZZ=              0.4631
   XY=            -14.6923   XZ=             -1.6112   YZ=             -0.2457
 Octapole moment (field-independent basis, Debye-Ang**2):
  XXX=            -63.2274  YYY=             10.3500  ZZZ=             -2.8680  XYY=             -5.1007
  XXY=             -1.2286  XXZ=             13.5914  XZZ=              4.6743  YZZ=             -1.0961
  YYZ=              7.1404  XYZ=              1.2416
 Hexadecapole moment (field-independent basis, Debye-Ang**3):
 XXXX=          -1048.8036 YYYY=           -380.3120 ZZZZ=           -122.1504 XXXY=           -173.8771
 XXXZ=            -34.3923 YYYX=            -10.0940 YYYZ=              2.6742 ZZZX=              4.1669
 ZZZY=              3.7400 XXYY=           -257.5645 XXZZ=           -216.6172 YYZZ=            -91.5975
 XXYZ=             24.6287 YYXZ=             -2.9563 ZZXY=             -1.6528
 N-N= 3.486974436429D+02 E-N=-1.681415766318D+03  KE= 4.187834301002D+02
  Exact polarizability:  92.984  -4.079  79.502  -4.226   3.597  51.612
 Approx polarizability:  95.892  -8.000  93.874  -6.896   9.781  61.073
                          Isotropic Fermi Contact Couplings
        Atom                 a.u.       MegaHertz       Gauss      10(-4) cm-1
     1  O(17)              0.07572     -45.90219     -16.37904     -15.31132
     2  H(1)              -0.00497     -22.21250      -7.92597      -7.40929
     3  C(13)              0.00050       0.56758       0.20253       0.18932
     4  H(1)              -0.00000      -0.00997      -0.00356      -0.00333
     5  C(13)             -0.00032      -0.35758      -0.12759      -0.11928
     6  C(13)              0.02949      33.15479      11.83045      11.05925
     7  O(17)              0.00272      -1.64662      -0.58756      -0.54925
     8  O(17)              0.05490     -33.27888     -11.87473     -11.10064
     9  C(13)              0.27310     307.01304     109.54989     102.40853
    10  C(13)             -0.00739      -8.30876      -2.96477      -2.77150
    11  H(1)              -0.02964    -132.50657     -47.28164     -44.19943
    12  H(1)              -0.00127      -5.65728      -2.01866      -1.88707
    13  H(1)               0.00114       5.10089       1.82012       1.70147
    14  H(1)               0.00477      21.31510       7.60576       7.10995
    15  H(1)               0.02072      92.60560      33.04398      30.88990
 --------------------------------------------------------
       Center         ----  Spin Dipole Couplings  ----
                      3XX-RR        3YY-RR        3ZZ-RR
 --------------------------------------------------------
     1   Atom       -0.210776      0.938968     -0.728193
     2   Atom        0.032791      0.014625     -0.047416
     3   Atom        0.001475     -0.001439     -0.000037
     4   Atom        0.001140     -0.000508     -0.000632
     5   Atom        0.004430     -0.001199     -0.003231
     6   Atom        0.030058     -0.014352     -0.015705
     7   Atom       -0.001610     -0.011437      0.013047
     8   Atom       -0.032098      0.056841     -0.024743
     9   Atom        0.014741      0.411294     -0.426035
    10   Atom       -0.022033      0.027127     -0.005094
    11   Atom       -0.025497      0.150240     -0.124743
    12   Atom       -0.036689     -0.012635      0.049325
    13   Atom        0.001449      0.004612     -0.006061
    14   Atom       -0.008229     -0.006267      0.014497
    15   Atom       -0.003182      0.005505     -0.002323
 --------------------------------------------------------
                        XY            XZ            YZ
 --------------------------------------------------------
     1   Atom        0.957598      0.065066      0.105960
     2   Atom       -0.034337     -0.021950      0.017652
     3   Atom       -0.000784     -0.000081      0.001675
     4   Atom       -0.000524     -0.000275      0.000138
     5   Atom       -0.001928     -0.001121     -0.000033
     6   Atom        0.013941      0.012522      0.005891
     7   Atom        0.006287     -0.002495      0.000304
     8   Atom        0.099430     -0.001418     -0.046325
     9   Atom        0.615249     -0.012375     -0.016950
    10   Atom        0.008519     -0.002454     -0.029590
    11   Atom        0.161236      0.001537      0.009526
    12   Atom        0.018588     -0.002483      0.032964
    13   Atom       -0.009441      0.005488     -0.006717
    14   Atom        0.000384      0.003523     -0.005880
    15   Atom        0.004845      0.000724     -0.008176
 --------------------------------------------------------


 ---------------------------------------------------------------------------------
              Anisotropic Spin Dipole Couplings in Principal Axis System
 ---------------------------------------------------------------------------------

       Atom             a.u.   MegaHertz   Gauss  10(-4) cm-1        Axes

              Baa    -0.7539    54.548    19.464    18.195  0.8532 -0.4682 -0.2299
     1 O(17)  Bbb    -0.7341    53.120    18.955    17.719  0.1735 -0.1608  0.9716
              Bcc     1.4880  -107.668   -38.419   -35.914  0.4919  0.8688  0.0560
 
              Baa    -0.0544   -29.027   -10.358    -9.682  0.1823 -0.1575  0.9705
     2 H(1)   Bbb    -0.0118    -6.297    -2.247    -2.101  0.6140  0.7892  0.0127
              Bcc     0.0662    35.325    12.605    11.783  0.7680 -0.5936 -0.2406
 
              Baa    -0.0026    -0.355    -0.127    -0.118  0.1483  0.8342 -0.5312
     3 C(13)  Bbb     0.0008     0.103     0.037     0.034  0.5209  0.3907  0.7590
              Bcc     0.0019     0.252     0.090     0.084  0.8406 -0.3892 -0.3766
 
              Baa    -0.0007    -0.387    -0.138    -0.129 -0.0736 -0.6563  0.7509
     4 H(1)   Bbb    -0.0006    -0.327    -0.117    -0.109  0.3102  0.7006  0.6426
              Bcc     0.0013     0.715     0.255     0.238  0.9478 -0.2803 -0.1520
 
              Baa    -0.0034    -0.462    -0.165    -0.154  0.1792  0.1681  0.9693
     5 C(13)  Bbb    -0.0017    -0.230    -0.082    -0.077  0.2572  0.9430 -0.2111
              Bcc     0.0052     0.693     0.247     0.231  0.9496 -0.2872 -0.1257
 
              Baa    -0.0210    -2.812    -1.004    -0.938 -0.0032 -0.6618  0.7497
     6 C(13)  Bbb    -0.0166    -2.230    -0.796    -0.744 -0.3725  0.6965  0.6133
              Bcc     0.0376     5.043     1.799     1.682  0.9280  0.2773  0.2487
 
              Baa    -0.0146     1.054     0.376     0.352 -0.4436  0.8948 -0.0499
     7 O(17)  Bbb     0.0011    -0.079    -0.028    -0.026  0.8787  0.4453  0.1720
              Bcc     0.0135    -0.976    -0.348    -0.325 -0.1761 -0.0324  0.9838
 
              Baa    -0.1045     7.559     2.697     2.522  0.7658 -0.5619 -0.3128
     8 O(17)  Bbb    -0.0270     1.957     0.698     0.653  0.3988  0.0333  0.9164
              Bcc     0.1315    -9.516    -3.396    -3.174  0.5045  0.8266 -0.2496
 
              Baa    -0.4334   -58.157   -20.752   -19.399  0.8083 -0.5887  0.0034
     9 C(13)  Bbb    -0.4264   -57.216   -20.416   -19.085  0.0069  0.0152  0.9999
              Bcc     0.8598   115.373    41.168    38.484  0.5887  0.8082 -0.0163
 
              Baa    -0.0251    -3.372    -1.203    -1.125  0.7356 -0.4206 -0.5310
    10 C(13)  Bbb    -0.0207    -2.773    -0.989    -0.925  0.6657  0.3035  0.6818
              Bcc     0.0458     6.145     2.193     2.050  0.1256  0.8550 -0.5032
 
              Baa    -0.1271   -67.817   -24.199   -22.621  0.4347 -0.2821  0.8553
    11 H(1)   Bbb    -0.1191   -63.551   -22.676   -21.198  0.7421 -0.4259 -0.5176
              Bcc     0.2462   131.368    46.875    43.820  0.5103  0.8597  0.0242
 
              Baa    -0.0506   -27.016    -9.640    -9.012  0.7956 -0.5692  0.2075
    12 H(1)   Bbb    -0.0132    -7.051    -2.516    -2.352  0.6035  0.7150 -0.3529
              Bcc     0.0638    34.067    12.156    11.364  0.0525  0.4060  0.9124
 
              Baa    -0.0095    -5.056    -1.804    -1.686 -0.1995  0.3096  0.9297
    13 H(1)   Bbb    -0.0065    -3.487    -1.244    -1.163  0.7752  0.6302 -0.0436
              Bcc     0.0160     8.543     3.048     2.850 -0.5994  0.7120 -0.3657
 
              Baa    -0.0096    -5.108    -1.823    -1.704  0.8062 -0.5367 -0.2491
    14 H(1)   Bbb    -0.0069    -3.691    -1.317    -1.231  0.5765  0.8072  0.1268
              Bcc     0.0165     8.798     3.139     2.935  0.1330 -0.2458  0.9601
 
              Baa    -0.0093    -4.983    -1.778    -1.662 -0.5023  0.5371  0.6777
    15 H(1)   Bbb    -0.0023    -1.217    -0.434    -0.406  0.8273  0.0705  0.5573
              Bcc     0.0116     6.201     2.213     2.068  0.2516  0.8405 -0.4798
 

 ---------------------------------------------------------------------------------

 Calling FoFJK, ICntrl=    100127 FMM=F ISym2X=0 I1Cent= 0 IOpClX= 1 NMat=1 NMatS=1 NMatT=0.
 Full mass-weighted force constant matrix:
 Low frequencies ----1161.9361  -23.9219   -0.0011   -0.0011   -0.0005    9.7677
 Low frequencies ---   22.5857   43.7054   82.1409
 ******    1 imaginary frequencies (negative Signs) ****** 
 Diagonal vibrational polarizability:
       31.9785536      25.0795767     121.4748720
 Harmonic frequencies (cm**-1), IR intensities (KM/Mole), Raman scattering
 activities (A**4/AMU), depolarization ratios for plane and unpolarized
 incident light, reduced masses (AMU), force constants (mDyne/A),
 and normal coordinates:
                      1                      2                      3
                      A                      A                      A
 Frequencies --  -1161.9350                42.9689                81.3852
 Red. masses --      1.1583                 6.9500                 4.4974
 Frc consts  --      0.9214                 0.0076                 0.0176
 IR Inten    --    243.2500                 4.4643                 1.4215
  Atom  AN      X      Y      Z        X      Y      Z        X      Y      Z
     1   8    -0.00   0.00  -0.00     0.08   0.04   0.22     0.21  -0.10  -0.02
     2   1     0.07   0.07   0.00     0.07   0.05   0.15     0.23  -0.00  -0.14
     3   6    -0.00  -0.00   0.00    -0.01   0.01  -0.08    -0.06  -0.20   0.21
     4   1     0.00   0.00   0.00    -0.01   0.03  -0.14    -0.10  -0.32   0.35
     5   6    -0.00   0.00  -0.00     0.00  -0.01  -0.01    -0.02  -0.05   0.03
     6   6    -0.01   0.00  -0.00     0.01  -0.03   0.08     0.00   0.04  -0.09
     7   8    -0.00   0.00   0.00     0.03  -0.16   0.38     0.03   0.04  -0.07
     8   8     0.02  -0.01  -0.00     0.00   0.12  -0.25    -0.01   0.11  -0.18
     9   6    -0.07  -0.09   0.01     0.01   0.08  -0.17    -0.01   0.03   0.00
    10   6     0.01   0.01  -0.00    -0.15  -0.06  -0.22    -0.19   0.11   0.15
    11   1     0.54   0.82   0.01     0.08   0.06   0.15     0.13  -0.06   0.00
    12   1     0.05   0.07  -0.05     0.13   0.22  -0.23     0.10  -0.06   0.04
    13   1     0.00   0.00  -0.00    -0.11  -0.03  -0.14    -0.17   0.05   0.33
    14   1    -0.00   0.01   0.00    -0.27  -0.18  -0.15    -0.29   0.21   0.11
    15   1     0.01  -0.01   0.02    -0.15  -0.08  -0.42    -0.24   0.15   0.14
                      4                      5                      6
                      A                      A                      A
 Frequencies --    112.5881               155.3084               183.8691
 Red. masses --      4.7360                 3.4492                 1.4636
 Frc consts  --      0.0354                 0.0490                 0.0292
 IR Inten    --      1.9015                 3.5150                 2.9208
  Atom  AN      X      Y      Z        X      Y      Z        X      Y      Z
     1   8     0.22  -0.08  -0.09     0.12  -0.10   0.13    -0.08  -0.03   0.04
     2   1     0.31   0.03  -0.02     0.20  -0.04   0.28    -0.12  -0.11   0.10
     3   6    -0.25  -0.17  -0.18    -0.01   0.06   0.00    -0.04  -0.06  -0.01
     4   1    -0.39  -0.32  -0.33     0.04   0.13   0.02    -0.10  -0.15  -0.01
     5   6    -0.08   0.01   0.02    -0.06  -0.02  -0.01     0.03   0.05  -0.00
     6   6    -0.01   0.08   0.11    -0.09  -0.06  -0.02     0.03   0.05  -0.00
     7   8     0.03   0.10   0.05    -0.11  -0.06  -0.01    -0.01   0.04   0.03
     8   8    -0.01   0.06   0.20    -0.08  -0.06  -0.03     0.05   0.02  -0.05
     9   6    -0.04   0.07   0.03    -0.05   0.02  -0.08     0.02  -0.06  -0.04
    10   6     0.06  -0.05  -0.12     0.21   0.23  -0.02     0.02   0.00   0.01
    11   1     0.08  -0.02  -0.04    -0.03  -0.04  -0.05     0.01  -0.04  -0.04
    12   1    -0.16   0.16  -0.01    -0.11  -0.09  -0.03    -0.03  -0.11  -0.01
    13   1     0.01  -0.07  -0.30     0.21   0.30  -0.13    -0.21  -0.41  -0.22
    14   1     0.21  -0.15  -0.08     0.34   0.40  -0.13     0.52   0.17  -0.12
    15   1     0.04  -0.03  -0.11     0.31   0.18   0.25    -0.25   0.28   0.41
                      7                      8                      9
                      A                      A                      A
 Frequencies --    206.8860               222.9890               272.0128
 Red. masses --      1.9110                 1.1484                 4.9141
 Frc consts  --      0.0482                 0.0336                 0.2142
 IR Inten    --     10.9735                87.6287                 1.5626
  Atom  AN      X      Y      Z        X      Y      Z        X      Y      Z
     1   8    -0.07  -0.04   0.01    -0.00   0.01  -0.07    -0.01  -0.00   0.02
     2   1    -0.06  -0.17   0.33     0.18  -0.17   0.95    -0.04  -0.04  -0.01
     3   6    -0.08  -0.08  -0.01     0.02   0.02  -0.00    -0.01   0.05  -0.20
     4   1    -0.17  -0.23  -0.01     0.04   0.05  -0.00    -0.05   0.20  -0.69
     5   6     0.04   0.11  -0.00    -0.01  -0.03  -0.01     0.06  -0.15   0.45
     6   6     0.02   0.07  -0.00     0.00  -0.01   0.00     0.03  -0.05   0.13
     7   8    -0.08   0.06   0.04     0.04  -0.01  -0.00    -0.04   0.06  -0.13
     8   8     0.07  -0.01  -0.06    -0.01   0.01   0.01     0.04  -0.00  -0.09
     9   6     0.04  -0.08  -0.03    -0.01   0.01   0.01     0.03  -0.02  -0.09
    10   6     0.07   0.00   0.03    -0.04   0.00   0.01    -0.07   0.06   0.02
    11   1     0.00  -0.05  -0.07    -0.02   0.03  -0.11     0.03  -0.01  -0.04
    12   1     0.03  -0.14  -0.00    -0.02   0.01   0.01     0.05  -0.06  -0.07
    13   1     0.29   0.37   0.27    -0.06  -0.05   0.00    -0.05   0.03   0.19
    14   1    -0.38  -0.03   0.07    -0.01  -0.00   0.01    -0.19   0.16  -0.03
    15   1     0.35  -0.26  -0.22    -0.08   0.04   0.02    -0.09   0.08   0.03
                     10                     11                     12
                      A                      A                      A
 Frequencies --    294.3152               427.6590               540.2433
 Red. masses --      5.2887                 3.6099                 5.1756
 Frc consts  --      0.2699                 0.3890                 0.8900
 IR Inten    --     10.3260                 5.4626                 0.3562
  Atom  AN      X      Y      Z        X      Y      Z        X      Y      Z
     1   8    -0.16  -0.26   0.05     0.01   0.01   0.02    -0.07  -0.13  -0.02
     2   1    -0.25  -0.29  -0.21     0.00   0.03  -0.06     0.00  -0.04   0.02
     3   6     0.05   0.05   0.01     0.07  -0.08  -0.01     0.19  -0.14  -0.07
     4   1     0.11   0.15   0.03     0.00  -0.21   0.03     0.05  -0.34  -0.16
     5   6    -0.05  -0.09  -0.02     0.15   0.10  -0.07     0.33   0.09   0.06
     6   6     0.05   0.06   0.03     0.05  -0.04   0.05     0.03  -0.06  -0.05
     7   8     0.32   0.06   0.01    -0.04  -0.02   0.01    -0.12  -0.06  -0.02
     8   8    -0.02   0.16   0.06     0.04  -0.13   0.20    -0.11   0.12  -0.02
     9   6    -0.18  -0.06  -0.08    -0.02   0.02  -0.19    -0.16   0.18   0.20
    10   6    -0.01   0.09  -0.06    -0.18   0.16  -0.07    -0.01   0.04  -0.03
    11   1    -0.01  -0.13  -0.13    -0.02   0.02  -0.12     0.01   0.06   0.11
    12   1    -0.39  -0.13  -0.03    -0.23  -0.00  -0.17     0.06   0.35   0.12
    13   1     0.11   0.35  -0.01    -0.15   0.01   0.31    -0.04   0.19  -0.41
    14   1    -0.18   0.15  -0.09    -0.42   0.39  -0.18     0.22  -0.23   0.11
    15   1     0.22  -0.12  -0.04    -0.31   0.27  -0.05     0.12  -0.08  -0.08
                     13                     14                     15
                      A                      A                      A
 Frequencies --    606.9695               638.6851               745.5790
 Red. masses --      5.3012                 2.2669                 1.3115
 Frc consts  --      1.1507                 0.5448                 0.4295
 IR Inten    --     10.6972                 1.4922                42.4951
  Atom  AN      X      Y      Z        X      Y      Z        X      Y      Z
     1   8     0.05   0.09   0.01    -0.07  -0.13  -0.02    -0.00  -0.00  -0.00
     2   1     0.22   0.36   0.03    -0.14  -0.26  -0.01     0.02   0.03   0.00
     3   6    -0.13   0.06   0.03    -0.10   0.06   0.03    -0.08  -0.12  -0.03
     4   1    -0.37  -0.26  -0.10    -0.13   0.02   0.02     0.55   0.79   0.21
     5   6     0.12   0.35   0.16    -0.05   0.09   0.03     0.04   0.06   0.02
     6   6    -0.07  -0.08  -0.05    -0.02  -0.05   0.00    -0.00  -0.00  -0.00
     7   8     0.26  -0.10  -0.05     0.06  -0.04  -0.02     0.01   0.00  -0.00
     8   8    -0.13  -0.12  -0.07     0.02  -0.08  -0.00    -0.00  -0.00  -0.00
     9   6    -0.12  -0.09  -0.01     0.13   0.13   0.04    -0.01   0.00   0.00
    10   6    -0.00  -0.04   0.02     0.00   0.06  -0.03    -0.00   0.00  -0.00
    11   1    -0.34  -0.02   0.04     0.26   0.06   0.14    -0.02   0.00   0.01
    12   1    -0.17  -0.25   0.05     0.55   0.55  -0.15     0.01   0.01  -0.00
    13   1     0.02   0.07  -0.08    -0.03  -0.07   0.06    -0.00   0.01  -0.01
    14   1     0.07  -0.00  -0.00    -0.05   0.02  -0.00     0.00   0.00  -0.00
    15   1     0.11  -0.12   0.13    -0.13   0.16  -0.11     0.00  -0.00   0.00
                     16                     17                     18
                      A                      A                      A
 Frequencies --    763.8268               773.6887               780.3932
 Red. masses --      1.2920                 2.6747                 1.7762
 Frc consts  --      0.4441                 0.9433                 0.6373
 IR Inten    --     75.6237                 8.2298                63.9279
  Atom  AN      X      Y      Z        X      Y      Z        X      Y      Z
     1   8    -0.04  -0.05  -0.01     0.02   0.03   0.00     0.01   0.01   0.00
     2   1     0.38   0.59   0.06    -0.18  -0.27  -0.02    -0.07  -0.12  -0.00
     3   6     0.02  -0.01   0.01     0.00  -0.04   0.14    -0.01   0.04  -0.12
     4   1     0.01  -0.01  -0.05    -0.07   0.25  -0.78     0.07  -0.29   0.90
     5   6    -0.01  -0.02  -0.05     0.00   0.08  -0.15     0.01   0.02  -0.02
     6   6     0.02   0.00   0.09    -0.00  -0.13   0.26    -0.00  -0.09   0.19
     7   8     0.00   0.06  -0.01    -0.00   0.01  -0.09    -0.00   0.01  -0.06
     8   8     0.01  -0.02  -0.03    -0.01   0.05  -0.06    -0.01   0.03  -0.04
     9   6    -0.01  -0.03  -0.01    -0.01   0.00  -0.00    -0.01  -0.00  -0.00
    10   6    -0.01  -0.01  -0.00    -0.00  -0.01   0.01    -0.00  -0.01   0.01
    11   1    -0.42   0.09   0.29     0.19  -0.06  -0.09     0.08  -0.03  -0.03
    12   1     0.25   0.27  -0.13    -0.06  -0.09   0.04    -0.01  -0.03   0.01
    13   1     0.03   0.04   0.03    -0.00   0.01  -0.04     0.00   0.02  -0.02
    14   1    -0.00   0.12  -0.07     0.04  -0.04   0.02     0.02  -0.01   0.01
    15   1     0.05  -0.04   0.15     0.04  -0.04   0.01     0.03  -0.03   0.02
                     19                     20                     21
                      A                      A                      A
 Frequencies --    829.6306               897.5868               953.0844
 Red. masses --      1.2141                 3.0407                 3.5301
 Frc consts  --      0.4924                 1.4434                 1.8893
 IR Inten    --      8.7421                11.2887                 1.2145
  Atom  AN      X      Y      Z        X      Y      Z        X      Y      Z
     1   8     0.03   0.05  -0.02    -0.03  -0.04   0.01    -0.01   0.01  -0.01
     2   1    -0.19  -0.31   0.02     0.16   0.26   0.00     0.09   0.16   0.03
     3   6     0.02  -0.01  -0.01    -0.04   0.02   0.01    -0.12   0.07   0.03
     4   1     0.02  -0.01  -0.01    -0.06   0.01   0.00    -0.13   0.08   0.04
     5   6     0.02  -0.01   0.01     0.01   0.06   0.02    -0.08   0.03   0.02
     6   6    -0.02   0.02  -0.02     0.00  -0.09  -0.05     0.15  -0.10  -0.05
     7   8     0.00   0.01   0.01    -0.05  -0.13  -0.05    -0.06  -0.14  -0.06
     8   8    -0.03   0.01   0.02    -0.03   0.24   0.08     0.24   0.09   0.05
     9   6    -0.04  -0.04  -0.03     0.09   0.00  -0.10    -0.03  -0.04   0.08
    10   6    -0.02  -0.06  -0.00     0.11  -0.12   0.04    -0.15   0.06  -0.06
    11   1     0.18  -0.24   0.36    -0.09   0.17  -0.17    -0.07  -0.10   0.25
    12   1     0.15   0.38  -0.21    -0.20   0.18  -0.16    -0.05  -0.14   0.12
    13   1     0.09   0.15   0.08     0.15  -0.33   0.58    -0.08   0.45  -0.49
    14   1     0.01   0.30  -0.20    -0.19   0.20  -0.12     0.16   0.09  -0.10
    15   1     0.19  -0.18   0.43    -0.08   0.06   0.17     0.23  -0.23   0.18
                     22                     23                     24
                      A                      A                      A
 Frequencies --   1020.0064              1101.2121              1130.0977
 Red. masses --      1.1253                 3.8905                 2.1570
 Frc consts  --      0.6898                 2.7797                 1.6231
 IR Inten    --     60.8175                59.8862                53.5147
  Atom  AN      X      Y      Z        X      Y      Z        X      Y      Z
     1   8    -0.01   0.00  -0.03     0.01   0.01   0.00     0.01   0.02   0.00
     2   1     0.02   0.01   0.07     0.01   0.01  -0.00    -0.04  -0.06  -0.00
     3   6     0.00  -0.00   0.00     0.04  -0.03  -0.01    -0.01   0.00   0.00
     4   1     0.00  -0.01   0.00     0.04  -0.04  -0.02    -0.01   0.01   0.00
     5   6     0.00   0.00   0.00     0.03   0.01   0.00    -0.01  -0.00   0.00
     6   6    -0.01  -0.01   0.00    -0.09   0.01   0.01     0.01  -0.01   0.00
     7   8    -0.00  -0.01  -0.01     0.01   0.00   0.00     0.00   0.01  -0.00
     8   8    -0.01   0.03   0.01    -0.17   0.10   0.06     0.06  -0.02  -0.06
     9   6    -0.01  -0.04  -0.03     0.26  -0.26   0.12    -0.10  -0.02   0.22
    10   6     0.05   0.05  -0.00    -0.08   0.10  -0.15     0.08  -0.01  -0.17
    11   1     0.16  -0.14   0.85    -0.05   0.02  -0.10    -0.09  -0.10  -0.03
    12   1    -0.11  -0.20   0.05     0.58  -0.34   0.15    -0.18   0.03   0.21
    13   1    -0.03  -0.16   0.03    -0.06   0.22  -0.27     0.11  -0.21   0.40
    14   1    -0.06  -0.14   0.11    -0.05   0.26  -0.25    -0.40   0.38  -0.34
    15   1    -0.13   0.16  -0.26    -0.01   0.04  -0.09    -0.26   0.30   0.03
                     25                     26                     27
                      A                      A                      A
 Frequencies --   1199.4907              1259.6600              1366.3917
 Red. masses --      1.6636                 8.2735                 1.2338
 Frc consts  --      1.4103                 7.7348                 1.3572
 IR Inten    --     92.7636               773.0999                 6.8335
  Atom  AN      X      Y      Z        X      Y      Z        X      Y      Z
     1   8    -0.04  -0.04  -0.01     0.01   0.01  -0.00     0.00  -0.00   0.00
     2   1     0.10   0.15   0.03    -0.07  -0.11  -0.00    -0.01  -0.02  -0.00
     3   6     0.00  -0.00  -0.00    -0.12   0.08   0.03    -0.01   0.01   0.00
     4   1     0.01  -0.00   0.00    -0.11   0.13   0.05    -0.01   0.01   0.01
     5   6    -0.00  -0.00  -0.00    -0.05   0.00   0.00    -0.00   0.00  -0.00
     6   6     0.01   0.01   0.01     0.68   0.03   0.00     0.06  -0.01  -0.01
     7   8     0.01   0.02   0.01    -0.08   0.01   0.00    -0.01   0.00   0.00
     8   8    -0.04  -0.05  -0.03    -0.33  -0.07  -0.05    -0.02   0.01   0.02
     9   6     0.13   0.14   0.01     0.02  -0.10   0.03    -0.07   0.06  -0.04
    10   6    -0.06  -0.08  -0.04     0.03   0.02   0.02     0.00   0.01  -0.08
    11   1     0.31   0.18   0.26     0.06   0.00  -0.03     0.01   0.01  -0.00
    12   1    -0.46  -0.40   0.26    -0.32   0.39  -0.14     0.60  -0.46   0.16
    13   1     0.10   0.20   0.08    -0.02  -0.05  -0.04     0.02  -0.18   0.31
    14   1     0.07   0.23  -0.22    -0.04   0.01   0.02    -0.04  -0.27   0.10
    15   1     0.09  -0.15   0.30    -0.09   0.10  -0.18     0.15  -0.07   0.37
                     28                     29                     30
                      A                      A                      A
 Frequencies --   1408.3280              1477.5217              1479.9965
 Red. masses --      1.3304                 1.0410                 1.0516
 Frc consts  --      1.5546                 1.3390                 1.3572
 IR Inten    --     17.8574                10.3681                 3.4054
  Atom  AN      X      Y      Z        X      Y      Z        X      Y      Z
     1   8     0.00  -0.00  -0.00     0.00   0.00   0.00     0.00   0.00  -0.00
     2   1    -0.01  -0.02   0.00    -0.00  -0.01  -0.00    -0.01  -0.02  -0.00
     3   6    -0.01   0.00   0.00     0.00  -0.00  -0.00    -0.00   0.00   0.00
     4   1    -0.01   0.01   0.00     0.00  -0.00  -0.00    -0.00   0.00   0.00
     5   6    -0.00   0.00  -0.00     0.00   0.00   0.00    -0.00  -0.00   0.00
     6   6     0.03  -0.00  -0.00    -0.01   0.00   0.00     0.00   0.00   0.00
     7   8    -0.00  -0.00  -0.00     0.00  -0.00  -0.00    -0.00  -0.00  -0.00
     8   8    -0.00   0.01   0.02     0.00   0.00  -0.00     0.00   0.00   0.00
     9   6    -0.06   0.05  -0.04     0.02  -0.02  -0.01    -0.02  -0.02   0.01
    10   6     0.04  -0.11   0.08     0.01  -0.02  -0.04    -0.05  -0.01  -0.02
    11   1     0.01   0.02   0.01    -0.02   0.00  -0.00    -0.04  -0.00   0.01
    12   1     0.43  -0.30   0.08    -0.09   0.08  -0.05     0.05   0.00   0.00
    13   1     0.12   0.31  -0.32     0.23   0.51  -0.01     0.19   0.22   0.54
    14   1    -0.11   0.41  -0.21    -0.07  -0.42   0.21     0.69   0.01  -0.07
    15   1    -0.36   0.21  -0.28    -0.39   0.38   0.39    -0.11   0.02  -0.34
                     31                     32                     33
                      A                      A                      A
 Frequencies --   1654.3219              1846.1596              2269.5779
 Red. masses --      1.0448                12.7692                 5.7421
 Frc consts  --      1.6847                25.6420                17.4266
 IR Inten    --     50.3687               334.4625                85.9909
  Atom  AN      X      Y      Z        X      Y      Z        X      Y      Z
     1   8    -0.04   0.01   0.01     0.00  -0.00  -0.00    -0.00  -0.00   0.00
     2   1     0.24   0.41   0.03    -0.02  -0.03  -0.00     0.00   0.00  -0.00
     3   6     0.00   0.00  -0.00     0.07  -0.04  -0.02    -0.31   0.19   0.09
     4   1     0.00   0.00  -0.00     0.11  -0.04  -0.02    -0.62   0.39   0.18
     5   6    -0.00   0.00   0.00    -0.04   0.01   0.01     0.44  -0.27  -0.12
     6   6    -0.00   0.00   0.00    -0.01   0.75   0.32    -0.07   0.06   0.03
     7   8     0.00  -0.00   0.00    -0.01  -0.50  -0.21     0.00  -0.01  -0.00
     8   8    -0.01  -0.00   0.00    -0.00  -0.04  -0.02    -0.01  -0.00  -0.00
     9   6    -0.02  -0.02   0.01    -0.02   0.03   0.01     0.00  -0.00   0.00
    10   6     0.00   0.01  -0.00     0.01  -0.00  -0.01    -0.00   0.00  -0.00
    11   1     0.64  -0.53  -0.24     0.00   0.03  -0.00     0.00  -0.00  -0.00
    12   1     0.07   0.05  -0.03     0.09  -0.03   0.05    -0.00   0.00  -0.00
    13   1     0.01   0.01   0.01    -0.01  -0.06   0.03    -0.00  -0.00  -0.00
    14   1     0.01  -0.02   0.01    -0.03   0.01  -0.01    -0.00  -0.00   0.00
    15   1    -0.02   0.03  -0.03     0.04  -0.03   0.04     0.00  -0.00   0.00
                     34                     35                     36
                      A                      A                      A
 Frequencies --   3049.6993              3132.0859              3143.5938
 Red. masses --      1.0411                 1.0929                 1.0876
 Frc consts  --      5.7049                 6.3170                 6.3323
 IR Inten    --      0.4460                 3.0375                 7.1756
  Atom  AN      X      Y      Z        X      Y      Z        X      Y      Z
     1   8    -0.00  -0.00  -0.00     0.00  -0.00  -0.00     0.00   0.00   0.00
     2   1     0.00   0.00   0.00    -0.00  -0.00  -0.00    -0.00   0.00   0.00
     3   6     0.00   0.00  -0.00     0.00  -0.00  -0.00    -0.00  -0.00   0.00
     4   1     0.00  -0.00  -0.00    -0.00   0.00  -0.00    -0.00  -0.00   0.00
     5   6     0.00   0.00   0.00    -0.00   0.00   0.00     0.00   0.00  -0.00
     6   6     0.00  -0.00  -0.00     0.00   0.00   0.00    -0.00  -0.00  -0.00
     7   8    -0.00   0.00  -0.00    -0.00  -0.00  -0.00    -0.00   0.00   0.00
     8   8     0.00   0.00   0.00     0.00   0.00  -0.00     0.00  -0.00   0.00
     9   6    -0.00  -0.00   0.00    -0.00   0.01   0.02    -0.00  -0.03  -0.07
    10   6    -0.01  -0.05   0.03    -0.06  -0.04  -0.04    -0.03   0.00   0.01
    11   1     0.00   0.01   0.00     0.00   0.00   0.00    -0.00  -0.00  -0.01
    12   1     0.00  -0.00  -0.00    -0.01  -0.10  -0.24     0.03   0.35   0.85
    13   1    -0.34   0.13   0.09     0.41  -0.19  -0.11     0.32  -0.13  -0.08
    14   1    -0.03  -0.21  -0.35     0.03   0.32   0.58    -0.01  -0.01  -0.01
    15   1     0.54   0.62  -0.07     0.33   0.39  -0.06     0.09   0.12  -0.01
                     37                     38                     39
                      A                      A                      A
 Frequencies --   3167.3437              3488.2906              3851.9941
 Red. masses --      1.1020                 1.1715                 1.0658
 Frc consts  --      6.5136                 8.3987                 9.3176
 IR Inten    --      6.0961                63.4139                46.6298
  Atom  AN      X      Y      Z        X      Y      Z        X      Y      Z
     1   8    -0.00  -0.00  -0.00     0.00   0.00  -0.00    -0.05   0.03   0.01
     2   1    -0.00  -0.00   0.00    -0.00  -0.00   0.00     0.82  -0.52  -0.24
     3   6     0.00  -0.00  -0.00    -0.10   0.06   0.03    -0.00   0.00   0.00
     4   1     0.00   0.00   0.00     0.82  -0.51  -0.23     0.00  -0.00  -0.00
     5   6    -0.00   0.00   0.00     0.03  -0.02  -0.01    -0.00   0.00   0.00
     6   6     0.00   0.00   0.00    -0.00   0.00   0.00     0.00  -0.00   0.00
     7   8     0.00  -0.00  -0.00     0.00   0.00   0.00    -0.00   0.00   0.00
     8   8     0.00  -0.00  -0.00     0.00  -0.00  -0.00    -0.00   0.00   0.00
     9   6    -0.00   0.01   0.02    -0.00   0.00   0.00     0.00   0.00  -0.00
    10   6    -0.05   0.05   0.06     0.00  -0.00  -0.00    -0.00  -0.00  -0.00
    11   1     0.00   0.00   0.00     0.00   0.00   0.00    -0.02  -0.01   0.00
    12   1    -0.01  -0.11  -0.27     0.00  -0.00  -0.00    -0.00  -0.00   0.00
    13   1     0.65  -0.27  -0.15     0.00  -0.00   0.00     0.00   0.00  -0.00
    14   1    -0.05  -0.31  -0.54    -0.00   0.00   0.00     0.00   0.00   0.00
    15   1    -0.00   0.02   0.01    -0.00   0.00  -0.00     0.00  -0.00   0.00

 -------------------
 - Thermochemistry -
 -------------------
 Temperature   298.150 Kelvin.  Pressure   1.00000 Atm.
 Atom     1 has atomic number  8 and mass  15.99491
 Atom     2 has atomic number  1 and mass   1.00783
 Atom     3 has atomic number  6 and mass  12.00000
 Atom     4 has atomic number  1 and mass   1.00783
 Atom     5 has atomic number  6 and mass  12.00000
 Atom     6 has atomic number  6 and mass  12.00000
 Atom     7 has atomic number  8 and mass  15.99491
 Atom     8 has atomic number  8 and mass  15.99491
 Atom     9 has atomic number  6 and mass  12.00000
 Atom    10 has atomic number  6 and mass  12.00000
 Atom    11 has atomic number  1 and mass   1.00783
 Atom    12 has atomic number  1 and mass   1.00783
 Atom    13 has atomic number  1 and mass   1.00783
 Atom    14 has atomic number  1 and mass   1.00783
 Atom    15 has atomic number  1 and mass   1.00783
 Molecular mass:   115.03952 amu.
 Principal axes and moments of inertia in atomic units:
                           1         2         3
     Eigenvalues --   593.889761597.122841999.64664
           X            0.99936  -0.03578   0.00266
           Y            0.03583   0.99911  -0.02216
           Z           -0.00187   0.02224   0.99975
 This molecule is an asymmetric top.
 Rotational symmetry number  1.
 Warning -- assumption of classical behavior for rotation
           may cause significant error
 Rotational temperatures (Kelvin)      0.14584     0.05423     0.04331
 Rotational constants (GHZ):           3.03885     1.13000     0.90253
    1 imaginary frequencies ignored.
 Zero-point vibrational energy     278583.0 (Joules/Mol)
                                   66.58293 (Kcal/Mol)
 Warning -- explicit consideration of  12 degrees of freedom as
           vibrations may cause significant error
 Vibrational temperatures:     61.82   117.10   161.99   223.45   264.55
          (Kelvin)            297.66   320.83   391.37   423.45   615.31
                              777.29   873.29   918.93  1072.72  1098.98
                             1113.17  1122.81  1193.65  1291.43  1371.28
                             1467.56  1584.40  1625.96  1725.80  1812.37
                             1965.93  2026.27  2125.82  2129.38  2380.20
                             2656.21  3265.42  4387.84  4506.37  4522.93
                             4557.10  5018.87  5542.16
 
 Zero-point correction=                           0.106107 (Hartree/Particle)
 Thermal correction to Energy=                    0.115892
 Thermal correction to Enthalpy=                  0.116836
 Thermal correction to Gibbs Free Energy=         0.069956
 Sum of electronic and zero-point Energies=           -420.101964
 Sum of electronic and thermal Energies=              -420.092179
 Sum of electronic and thermal Enthalpies=            -420.091235
 Sum of electronic and thermal Free Energies=         -420.138115
 
                     E (Thermal)             CV                S
                      KCal/Mol        Cal/Mol-Kelvin    Cal/Mol-Kelvin
 Total                   72.723             33.275             98.668
 Electronic               0.000              0.000              1.377
 Translational            0.889              2.981             40.136
 Rotational               0.889              2.981             29.030
 Vibrational             70.946             27.314             28.125
 Vibration     1          0.595              1.980              5.117
 Vibration     2          0.600              1.962              3.857
 Vibration     3          0.607              1.939              3.224
 Vibration     4          0.620              1.897              2.606
 Vibration     5          0.631              1.862              2.289
 Vibration     6          0.641              1.830              2.071
 Vibration     7          0.649              1.806              1.935
 Vibration     8          0.675              1.725              1.583
 Vibration     9          0.689              1.684              1.449
 Vibration    10          0.789              1.410              0.866
 Vibration    11          0.895              1.161              0.565
 Vibration    12          0.966              1.017              0.438
                       Q            Log10(Q)             Ln(Q)
 Total Bot       0.664764D-32        -32.177332        -74.091046
 Total V=0       0.424913D+17         16.628300         38.288077
 Vib (Bot)       0.139017D-45        -45.856931       -105.589486
 Vib (Bot)    1  0.481404D+01          0.682509          1.571536
 Vib (Bot)    2  0.252993D+01          0.403108          0.928191
 Vib (Bot)    3  0.181811D+01          0.259620          0.597798
 Vib (Bot)    4  0.130355D+01          0.115129          0.265095
 Vib (Bot)    5  0.109088D+01          0.037779          0.086988
 Vib (Bot)    6  0.961217D+00         -0.017179         -0.039556
 Vib (Bot)    7  0.885937D+00         -0.052597         -0.121109
 Vib (Bot)    8  0.709755D+00         -0.148892         -0.342836
 Vib (Bot)    9  0.648219D+00         -0.188279         -0.433527
 Vib (Bot)   10  0.408167D+00         -0.389162         -0.896079
 Vib (Bot)   11  0.293198D+00         -0.532839         -1.226908
 Vib (Bot)   12  0.244243D+00         -0.612178         -1.409591
 Vib (V=0)       0.888590D+03          2.948702          6.789636
 Vib (V=0)    1  0.533993D+01          0.727536          1.675213
 Vib (V=0)    2  0.307886D+01          0.488391          1.124561
 Vib (V=0)    3  0.238561D+01          0.377599          0.869455
 Vib (V=0)    4  0.189616D+01          0.277874          0.639829
 Vib (V=0)    5  0.170001D+01          0.230452          0.530635
 Vib (V=0)    6  0.158348D+01          0.199614          0.459627
 Vib (V=0)    7  0.151729D+01          0.181069          0.416928
 Vib (V=0)    8  0.136819D+01          0.136146          0.313488
 Vib (V=0)    9  0.131865D+01          0.120129          0.276608
 Vib (V=0)   10  0.114545D+01          0.058975          0.135794
 Vib (V=0)   11  0.107962D+01          0.033273          0.076614
 Vib (V=0)   12  0.105647D+01          0.023856          0.054930
 Electronic      0.200000D+01          0.301030          0.693147
 Translational   0.484981D+08          7.685724         17.697035
 Rotational      0.492997D+06          5.692844         13.108258
 ***** Axes restored to original set *****
 -------------------------------------------------------------------
 Center     Atomic                   Forces (Hartrees/Bohr)
 Number     Number              X              Y              Z
 -------------------------------------------------------------------
      1        8          -0.013307429   -0.025934699   -0.002372037
      2        1           0.002075147    0.001442815   -0.000165339
      3        6           0.000196563   -0.000097254   -0.000018953
      4        1           0.000018528    0.000015530    0.000006833
      5        6           0.000248043    0.000040601   -0.000126606
      6        6          -0.002658939   -0.000022614   -0.001234685
      7        8           0.000394007    0.000318301    0.000287734
      8        8           0.007337337   -0.001271545   -0.000229454
      9        6          -0.019785166   -0.018379690    0.005036900
     10        6           0.003594945    0.005698184   -0.001360827
     11        1           0.019368421    0.033985067    0.002126560
     12        1           0.002954153    0.003926058   -0.001777464
     13        1           0.000053388   -0.000036267   -0.000034704
     14        1          -0.000146150   -0.000116152    0.000311602
     15        1          -0.000342847    0.000431666   -0.000449559
 -------------------------------------------------------------------
 Cartesian Forces:  Max     0.033985067 RMS     0.008551509

 GradGradGradGradGradGradGradGradGradGradGradGradGradGradGradGradGradGrad
 Berny optimization.
 Search for a local minimum.
 Step number   1 out of a maximum of    2
 All quantities printed in internal units (Hartrees-Bohrs-Radians)
 Second derivative matrix not updated -- analytic derivatives used.
 ITU=  0
     Eigenvalues ---   -0.07833   0.00063   0.00110   0.00152   0.00201
     Eigenvalues ---    0.00266   0.00557   0.00813   0.01526   0.02022
     Eigenvalues ---    0.02388   0.03163   0.04107   0.04972   0.05509
     Eigenvalues ---    0.07050   0.08115   0.08703   0.09071   0.10141
     Eigenvalues ---    0.10878   0.13675   0.15218   0.16636   0.18735
     Eigenvalues ---    0.26145   0.28697   0.35109   0.45241   0.49576
     Eigenvalues ---    0.65021   0.70925   0.76416   0.79978   0.84172
     Eigenvalues ---    0.89653   0.99581   1.74396   2.73802
 Eigenvalue     1 is  -7.83D-02 should be greater than     0.000000 Eigenvector:
                          Y11       X11       Y9        X9        Z12
   1                    0.78432   0.47111  -0.28507  -0.20730  -0.07651
                          Z15       X1        Y1        Y2        X15
   1                    0.07327  -0.06498  -0.06459   0.05612   0.04899
 Quadratic step=8.043D-01 exceeds max=3.000D-01 adjusted using Lamda=-1.011D-01.
 Angle between NR and scaled steps=  28.10 degrees.
 Angle between quadratic step and forces=  16.62 degrees.
 Linear search not attempted -- first point.
 B after Tr=    -0.006890   -0.011387    0.000650
         Rot=    0.999999    0.000862   -0.000244    0.000903 Ang=   0.15 deg.
 Variable       Old X    -DE/DX   Delta X   Delta X   Delta X     New X
                                 (Linear)    (Quad)   (Total)
    X1        5.09083  -0.01331   0.00000  -0.06351  -0.06488   5.02595
    Y1        3.28145  -0.02593   0.00000  -0.09841  -0.11964   3.16180
    Z1       -0.43468  -0.00237   0.00000  -0.00283  -0.01012  -0.44480
    X2        3.57983   0.00208   0.00000   0.00806   0.00876   3.58860
    Y2        4.21038   0.00144   0.00000   0.00058  -0.01730   4.19308
    Z2        0.00196  -0.00017   0.00000  -0.00001  -0.00836  -0.00641
    X3       -5.92279   0.00020   0.00000   0.00408   0.00106  -5.92172
    Y3        1.92738  -0.00010   0.00000  -0.00425  -0.00357   1.92381
    Z3        0.79824  -0.00002   0.00000   0.00148   0.00169   0.79994
    X4       -7.58682   0.00002   0.00000   0.00212   0.00120  -7.58562
    Y4        2.95943   0.00002   0.00000  -0.00675  -0.00226   2.95717
    Z4        1.26467   0.00001   0.00000   0.00071  -0.00004   1.26463
    X5       -4.05255   0.00025   0.00000   0.00747   0.00211  -4.05044
    Y5        0.76517   0.00004   0.00000   0.00457   0.00096   0.76613
    Z5        0.27337  -0.00013   0.00000  -0.00213  -0.00084   0.27253
    X6       -1.84660  -0.00266   0.00000   0.00394  -0.00442  -1.85103
    Y6       -0.72588  -0.00002   0.00000   0.01831   0.00956  -0.71632
    Z6       -0.39632  -0.00123   0.00000  -0.00515  -0.00238  -0.39870
    X7       -1.92704   0.00039   0.00000   0.02889   0.01634  -1.91070
    Y7       -2.80826   0.00032   0.00000   0.01981   0.00966  -2.79860
    Z7       -1.27470   0.00029   0.00000  -0.00695  -0.00056  -1.27526
    X8        0.29740   0.00734   0.00000   0.01972   0.01389   0.31129
    Y8        0.54396  -0.00127   0.00000   0.00888  -0.00289   0.54107
    Z8        0.10625  -0.00023   0.00000   0.00458   0.00412   0.11037
    X9        2.58661  -0.01979   0.00000  -0.08606  -0.09465   2.49197
    Y9       -0.72344  -0.01838   0.00000  -0.08358  -0.10030  -0.82375
    Z9       -0.49162   0.00504   0.00000   0.01680   0.01762  -0.47400
   X10        3.46531   0.00359   0.00000   0.01748   0.00698   3.47228
   Y10       -2.45474   0.00570   0.00000   0.02616   0.01121  -2.44353
   Z10        1.57545  -0.00136   0.00000   0.00045   0.00358   1.57903
   X11        4.23470   0.01937   0.00000   0.10873   0.10432   4.33901
   Y11        1.33830   0.03399   0.00000   0.20624   0.18593   1.52423
   Z11       -0.63467   0.00213   0.00000   0.01449   0.01036  -0.62431
   X12        2.51411   0.00295   0.00000   0.02152   0.01075   2.52486
   Y12       -1.53175   0.00393   0.00000   0.03714   0.01704  -1.51471
   Z12       -2.38387  -0.00178   0.00000  -0.01926  -0.01726  -2.40114
   X13        5.31771   0.00005   0.00000   0.01062  -0.00154   5.31617
   Y13       -3.22967  -0.00004   0.00000   0.02127   0.00217  -3.22749
   Z13        1.11454  -0.00003   0.00000  -0.00857  -0.00499   1.10955
   X14        3.58813  -0.00015   0.00000   0.00641  -0.00141   3.58671
   Y14       -1.44276  -0.00012   0.00000   0.01486   0.00279  -1.43997
   Z14        3.36675   0.00031   0.00000   0.00500   0.00635   3.37310
   X15        2.12388  -0.00034   0.00000   0.01475   0.00150   2.12537
   Y15       -4.02037   0.00043   0.00000   0.01885   0.00665  -4.01373
   Z15        1.76783  -0.00045   0.00000  -0.00569   0.00082   1.76865
         Item               Value     Threshold  Converged?
 Maximum Force            0.033985     0.000450     NO 
 RMS     Force            0.008552     0.000300     NO 
 Maximum Displacement     0.185932     0.001800     NO 
 RMS     Displacement     0.043641     0.001200     NO 
 Predicted change in Energy=-1.848562D-02
 GradGradGradGradGradGradGradGradGradGradGradGradGradGradGradGradGradGrad


 ----------------------------------------------------------------------

 Electric dipole moment (input orientation):
 (Debye = 10**-18 statcoulomb cm , SI units = C m)
                  (au)            (Debye)         (10**-30 SI)
   Tot        0.985881D+00      0.250586D+01      0.835865D+01
   x         -0.839957D+00     -0.213496D+01     -0.712145D+01
   y         -0.275757D-01     -0.700904D-01     -0.233796D+00
   z          0.515435D+00      0.131011D+01      0.437004D+01

 Dipole polarizability, Alpha (input orientation).
 (esu units = cm**3 , SI units = C**2 m**2 J**-1)
 Alpha(0;0):
               (au)            (10**-24 esu)      (10**-40 SI)
   iso        0.746994D+02      0.110693D+02      0.123163D+02
   aniso      0.384445D+02      0.569689D+01      0.633864D+01
   xx         0.929918D+02      0.137800D+02      0.153323D+02
   yx        -0.406834D+01     -0.602866D+00     -0.670779D+00
   yy         0.794989D+02      0.117805D+02      0.131076D+02
   zx        -0.422953D+01     -0.626752D+00     -0.697356D+00
   zy         0.357438D+01      0.529668D+00      0.589336D+00
   zz         0.516074D+02      0.764743D+01      0.850892D+01

 ----------------------------------------------------------------------

 Dipole orientation:
     8          2.24249664          3.18793481         -4.65635407
     1          1.80921558          4.15225241         -3.16671334
     6         -2.44964444          2.04140176          5.40955759
     1         -2.93924164          3.11201139          7.04227844
     6         -1.89988876          0.83584236          3.57423236
     6         -1.29268433         -0.70769842          1.38637958
     8         -2.05056193         -2.81231287          1.05392629
     8          0.23765336          0.54200182         -0.21304553
     6          0.94612231         -0.77730098         -2.44055055
     6          3.19417711         -2.46363842         -2.06006159
     1          1.65447137          1.25359362         -3.97715521
     1         -0.69134505         -1.63698062         -3.34547459
     1          3.78303215         -3.28004983         -3.85757526
     1          4.76877570         -1.40400383         -1.25648884
     1          2.68057354         -4.00209714         -0.77280758

 Electric dipole moment (dipole orientation):
 (Debye = 10**-18 statcoulomb cm , SI units = C m)
                  (au)            (Debye)         (10**-30 SI)
   Tot        0.985881D+00      0.250586D+01      0.835865D+01
   x          0.000000D+00      0.000000D+00      0.000000D+00
   y          0.000000D+00      0.000000D+00      0.000000D+00
   z          0.985881D+00      0.250586D+01      0.835865D+01

 Dipole polarizability, Alpha (dipole orientation).
 (esu units = cm**3 , SI units = C**2 m**2 J**-1)
 Alpha(0;0):
               (au)            (10**-24 esu)      (10**-40 SI)
   iso        0.746994D+02      0.110693D+02      0.123163D+02
   aniso      0.384445D+02      0.569689D+01      0.633864D+01
   xx         0.591481D+02      0.876484D+01      0.975220D+01
   yx         0.132511D+00      0.196361D-01      0.218481D-01
   yy         0.798112D+02      0.118268D+02      0.131591D+02
   zx        -0.166361D+02     -0.246521D+01     -0.274292D+01
   zy         0.523502D+01      0.775750D+00      0.863138D+00
   zz         0.851389D+02      0.126163D+02      0.140375D+02

 ----------------------------------------------------------------------
 1\1\GINC-AJ\Freq\UM062X\6-311++G(d,p)\C5H7O3(2)\AAYUSH\16-Aug-2025\0\\
 # freq 6-311++g(d,p) m062x\\Title Card Required\\0,2\O,2.69395,1.73646
 6,-0.230021\H,1.894367,2.228038,0.001035\C,-3.134204,1.019925,0.422413
 \H,-4.014771,1.566064,0.669237\C,-2.144515,0.404911,0.144661\C,-0.9771
 8,-0.384121,-0.209724\O,-1.019747,-1.486066,-0.674543\O,0.157378,0.287
 853,0.056227\C,1.368777,-0.38283,-0.260154\C,1.833762,-1.298991,0.8336
 92\H,2.240906,0.708199,-0.335855\H,1.330411,-0.810565,-1.261492\H,2.81
 4009,-1.709066,0.589789\H,1.898756,-0.763478,1.781605\H,1.123907,-2.12
 749,0.935497\\Version=ES64L-G16RevA.03\State=2-A\HF=-420.2080709\S2=0.
 758602\S2-1=0.\S2A=0.750039\RMSD=5.198e-09\RMSF=8.552e-03\ZeroPoint=0.
 1061067\Thermal=0.1158919\Dipole=-0.8399569,-0.0275757,0.5154353\Dipol
 eDeriv=-0.3415486,0.0682808,-0.0386977,-0.037385,-0.456668,0.0480628,-
 0.0345383,0.0387173,-0.5711019,0.1153907,-0.0261372,0.0490542,0.081688
 6,0.3486672,-0.0117105,0.0504533,0.0061608,0.3055193,-0.20911,0.019635
 6,0.0071324,0.0351573,-0.1512836,-0.0087141,0.014619,-0.0103633,-0.133
 9556,0.2694808,-0.0199479,-0.0082504,-0.0275816,0.2352796,0.0122708,-0
 .0118089,0.0128586,0.212173,-0.5846838,0.2243313,0.0964998,0.2448427,-
 0.2635704,-0.0737027,0.1100379,-0.0746423,-0.1290875,2.5562251,-0.0543
 63,-0.0079768,0.2617406,1.5033243,0.5240674,0.1723349,0.5133182,0.6132
 089,-0.8119716,0.08628,0.0282379,-0.1368543,-1.0551284,-0.3279662,-0.0
 90987,-0.3203876,-0.4795789,-2.1991454,-0.2194232,-0.1316253,-0.104825
 ,-0.5892244,-0.1079599,-0.0800778,-0.0957004,-0.3656308,1.2481476,0.28
 73472,0.0258796,-0.1058896,0.7981546,-0.096877,-0.1331515,-0.1806585,0
 .3426087,-0.1433866,-0.1891919,0.0456777,0.0141718,-0.2300256,0.116000
 3,-0.035438,0.0884058,-0.0766239,0.0059215,-0.2253918,0.0056104,-0.265
 2494,-0.2691637,0.004424,-0.0259974,-0.057041,0.2011633,-0.0185736,-0.
 0318418,-0.0786769,0.0440632,-0.0074156,-0.0278024,0.0461018,0.063493,
 -0.0228172,-0.0416528,0.0691071,0.021649,0.0601732,0.0840158,0.0001323
 ,0.0231024,-0.0094472,0.0621092,0.0958813,0.0292025,-0.0026493,0.00535
 1,0.0418075,-0.0756779,-0.0189906,-0.0363446,-0.0152059,0.0590255,-0.0
 178878,-0.0118648,-0.0694035,0.0112308,0.0254531,0.0143399,0.0616312,0
 .0572193\Polar=92.9918117,-4.0683426,79.4989161,-4.2295314,3.5743799,5
 1.6074439\Quadrupole=0.5053537,-0.8500368,0.3446831,-10.922822,-1.1902
 758,-0.1823328\PG=C01 [X(C5H7O3)]\NImag=1\\0.43284459,-0.17127569,0.25
 995898,-0.10450782,0.07291384,0.05319425,-0.37133415,0.22569058,0.1060
 9106,0.36628632,0.18504048,-0.15512352,-0.06051283,-0.21096471,0.17516
 541,0.09870142,-0.06777793,-0.03305684,-0.10271579,0.06884342,0.032638
 27,-0.00007109,-0.00021498,0.00000094,-0.00003235,0.00019909,0.0000246
 5,1.08945531,-0.00003538,0.00021950,-0.00000077,0.00012984,-0.00014113
 ,-0.00001549,-0.64224710,0.45657880,0.00002281,0.00004321,0.00007481,0
 .00001202,-0.00004332,-0.00007453,-0.29038229,0.17931748,0.14218030,0.
 00006221,0.00003286,-0.00001090,-0.00004269,-0.00004089,0.00000262,-0.
 29798290,0.16806598,0.07587496,0.28818970,-0.00000804,-0.00006468,0.00
 000418,-0.00001099,0.00007407,0.00000625,0.16790438,-0.13166455,-0.046
 24792,-0.16837992,0.12124859,-0.00001967,0.00000483,-0.00004328,0.0000
 1466,0.00001050,0.00003928,0.07581125,-0.04624323,-0.05107933,-0.07605
 770,0.04689961,0.03933302,-0.00015209,-0.00040279,0.00000561,-0.000085
 48,0.00041568,0.00007558,-0.79213053,0.47084498,0.21305442,0.00830235,
 -0.00234407,-0.00098474,1.05088626,0.00010224,0.00002675,-0.00002916,-
 0.00003688,-0.00025439,-0.00002633,0.47262786,-0.32771099,-0.13288320,
 -0.00216718,0.00663871,-0.00042387,-0.58807502,0.47140691,0.00001606,0
 .00001705,-0.00001276,-0.00002504,-0.00005558,0.00000233,0.21382197,-0
 .13289123,-0.09405643,-0.00089797,-0.00041401,0.00765500,-0.26688491,0
 .18399917,0.14373595,0.00259673,0.00068097,-0.00082048,-0.00084229,-0.
 00414302,-0.00033280,0.00645752,-0.00058460,-0.00029755,0.00054062,0.0
 0356360,0.00158075,-0.20767069,0.09401846,0.04229795,0.59041306,0.0011
 2647,-0.00014080,-0.00015648,-0.00100444,-0.00093873,-0.00012027,0.000
 22220,0.00204949,-0.00024803,0.00259497,0.00371733,-0.00098670,0.08428
 534,-0.11520050,-0.01832090,-0.03465603,0.89834994,0.00038364,-0.00033
 703,-0.00055975,-0.00005117,-0.00083055,-0.00002048,0.00006348,-0.0002
 1741,0.00229455,0.00117024,-0.00094676,0.00545341,0.03833455,-0.019525
 73,-0.08193373,-0.02266215,0.29396350,0.32997643,-0.00071683,-0.001098
 23,0.00018635,-0.00000659,0.00098889,0.00002383,-0.00317704,0.00167679
 ,0.00076985,-0.00023547,-0.00126774,-0.00055955,0.00622079,0.03345600,
 0.01464070,-0.10865114,-0.00257167,0.00012781,0.10961755,-0.00106290,0
 .00017424,0.00038300,0.00071549,0.00125428,-0.00004560,-0.00006959,0.0
 0157820,0.00056127,0.00021425,0.00069741,0.00073343,0.02684386,-0.0482
 9165,-0.03046781,-0.00559038,-0.66877110,-0.24784239,0.03514956,0.7766
 4319,-0.00040224,0.00011771,0.00037529,0.00024340,0.00062379,-0.000016
 14,-0.00001459,0.00058402,0.00051859,0.00007955,0.00072837,-0.00070483
 ,0.01171543,-0.03028884,0.00892310,-0.00184385,-0.24982147,-0.18499958
 ,0.01289552,0.31321385,0.16599360,0.00177994,0.00407405,0.00125249,-0.
 00195375,0.00360810,0.00065432,-0.00326069,0.00242496,0.00105777,0.001
 39663,0.00023318,0.00005923,-0.06514671,-0.00654290,-0.00141480,-0.214
 36093,-0.06026677,-0.02214790,-0.00766371,-0.06716391,-0.02643234,0.49
 493842,-0.00179915,0.00083120,-0.00012822,0.00130948,0.00112432,0.0003
 4536,0.00217995,-0.00150677,-0.00083393,-0.00046351,-0.00064360,-0.000
 07773,0.01142255,0.01295140,0.00007851,-0.05617972,-0.13509927,-0.0332
 1138,-0.05990392,-0.05531557,-0.03453150,0.02593462,0.29667030,-0.0006
 5139,-0.00069505,0.00100390,0.00017073,0.00029430,-0.00067569,0.001006
 26,-0.00087085,0.00003250,-0.00023586,-0.00013853,-0.00043996,0.006333
 30,0.00123959,0.01135797,-0.02028961,-0.03348010,-0.07623419,-0.024996
 14,-0.03454361,0.01552220,0.00647085,0.10079186,0.12830709,-0.03339606
 ,-0.06462818,-0.00545650,0.00808817,-0.00039542,-0.00169504,0.00113265
 ,-0.00057307,-0.00019692,-0.00034427,0.00034523,0.00018932,0.00158464,
 -0.00303562,-0.00203538,-0.07883199,-0.00413306,-0.00108950,0.00656540
 ,0.01669654,0.00756427,-0.13994312,0.03759529,0.02222017,0.33671640,-0
 .04456597,-0.08522217,-0.00666309,0.00325084,-0.00325847,-0.00135179,-
 0.00057319,0.00065086,0.00033176,0.00014813,0.00007777,0.00010781,-0.0
 0399921,-0.00028155,-0.00190913,0.00103399,0.02246266,0.00927249,-0.00
 490717,-0.01014162,-0.00153229,0.08255975,-0.10402065,-0.03006685,-0.0
 9426084,0.32372182,0.00291004,0.00523690,0.00194903,-0.00168865,-0.000
 08065,0.00036030,-0.00040404,0.00040306,0.00005221,0.00007979,0.000112
 84,-0.00026196,-0.00156807,-0.00251310,0.00529613,0.00315721,0.0121171
 8,0.00430163,-0.00101273,-0.00272334,-0.00596838,0.03308974,-0.0279802
 9,-0.08833472,0.02432215,0.04709618,0.57102008,0.00141361,0.00116218,0
 .00032200,-0.00151985,0.00002544,0.00071735,-0.00021756,0.00014112,0.0
 0008434,0.00007899,-0.00000676,-0.00008821,-0.00099369,-0.00046215,0.0
 0113785,0.00544239,0.00686773,0.00146101,-0.00001415,-0.00231092,-0.00
 177663,-0.02990420,0.03045953,-0.02454808,-0.07337022,0.02332301,-0.01
 734101,0.56989800,0.00259165,0.00453119,-0.00000156,-0.00115132,-0.000
 01026,0.00071566,0.00007189,-0.00002545,0.00000489,-0.00003689,-0.0000
 1877,0.00001740,0.00050212,0.00014948,-0.00047758,-0.00204649,-0.00080
 546,0.00006342,0.00108781,0.00029147,0.00125287,0.01498751,-0.01233566
 ,0.00910914,0.03743106,-0.11246035,0.06638837,-0.00579624,0.51748004,-
 0.00059616,-0.00211601,0.00037773,0.00001283,-0.00005360,0.00010482,0.
 00016092,-0.00017751,0.00004375,-0.00002159,-0.00000515,0.00002338,0.0
 0017295,0.00067811,-0.00078049,-0.00054257,-0.00419072,-0.00006870,-0.
 00043234,0.00186656,0.00058091,0.00547968,-0.00255854,0.01249562,-0.03
 512052,0.05747702,-0.16791331,-0.01942396,0.05335831,0.53185114,-0.033
 60951,0.00403518,0.00245262,0.00173208,0.02514117,0.00482445,-0.000101
 35,0.00013311,0.00001573,0.00000862,-0.00001945,0.00000979,-0.00042916
 ,-0.00003831,-0.00006272,0.00021541,0.00078383,0.00185651,0.00046482,-
 0.00015973,-0.00036566,-0.02474415,-0.00621740,0.00230820,0.01926774,0
 .03625596,-0.00252121,-0.00075407,-0.00355666,0.00062171,0.03885416,0.
 02947773,-0.02739462,-0.00607943,-0.01742569,-0.01836074,-0.00059049,-
 0.00011161,-0.00001050,-0.00001629,0.00004518,-0.00005432,-0.00002765,
 -0.00026936,0.00045690,0.00028176,0.00713651,0.00058138,0.00209209,-0.
 00063263,-0.00118580,-0.00091962,-0.01293700,0.00199055,-0.00004854,0.
 06404863,0.06730659,-0.00957961,-0.01036570,-0.01721593,0.00415222,-0.
 05465398,0.00220839,0.00442881,-0.00720667,-0.02531240,-0.00286032,-0.
 00836912,0.00135526,-0.00001537,0.00002223,-0.00005457,0.00001096,-0.0
 0001342,0.00000941,-0.00002697,-0.00002385,0.00016087,0.00110522,-0.00
 049954,0.00025216,-0.00064693,-0.00003723,-0.00013236,0.00231798,0.001
 93727,-0.00076526,0.00733896,0.00636974,-0.00961801,0.00262030,0.00574
 553,-0.00263958,-0.00859967,0.00797678,0.03858927,0.00093551,0.0015865
 4,0.00088217,-0.00074292,0.00013606,-0.00011325,-0.00007517,0.00002584
 ,0.00001707,0.00004121,-0.00002647,0.00004073,-0.00033785,0.00021874,-
 0.00080017,0.00451324,0.00610070,0.00281113,-0.00129004,-0.00325248,-0
 .00086048,-0.01295701,0.01712441,0.03289913,-0.04401807,-0.00121441,-0
 .03444511,0.00499696,-0.00421923,-0.00529999,-0.00176039,-0.00676659,-
 0.00588123,0.05042456,0.00139597,0.00253619,0.00121942,-0.00058083,0.0
 0028037,-0.00016739,0.00004982,-0.00002961,0.00004660,-0.00002224,0.00
 001025,0.00000006,0.00053583,-0.00013364,-0.00011523,-0.00288697,-0.00
 150042,-0.00194561,-0.00093444,0.00063717,0.00112627,0.00952809,-0.006
 80811,-0.01353766,0.00508513,-0.08141089,-0.11049670,0.00271724,0.0117
 3814,0.02167643,-0.00365955,-0.00922566,-0.00733831,-0.01169910,0.0855
 4486,-0.00106717,-0.00127498,0.00076505,0.00060520,0.00008378,-0.00013
 091,-0.00003653,0.00002062,0.00007751,-0.00000588,-0.00000366,0.000009
 41,0.00009494,0.00021263,-0.00042580,-0.00224754,-0.00193873,0.0006586
 7,-0.00114462,0.00090599,0.00053460,0.00461432,-0.00569142,-0.00210741
 ,-0.01077435,-0.09621222,-0.28687507,-0.00325093,-0.01103920,-0.015423
 10,0.00125370,0.00317579,-0.00076060,0.01315513,0.10858808,0.30423589,
 0.00012749,0.00026041,-0.00006364,-0.00003883,-0.00002988,-0.00000983,
 -0.00004633,0.00003250,-0.00002936,0.00002042,-0.00001200,-0.00000431,
 -0.00012776,-0.00000348,0.00025495,0.00123606,0.00026330,0.00031294,-0
 .00020113,-0.00006625,-0.00044977,-0.00000764,0.00066612,-0.00199912,-
 0.00821114,0.00166230,0.00361792,-0.27037613,0.09451485,0.05572210,-0.
 00015970,0.00005291,-0.00001378,0.00015582,-0.00013394,-0.00039457,0.2
 9097552,-0.00072389,-0.00012627,-0.00002483,0.00011649,0.00017575,-0.0
 0012558,0.00005125,-0.00002915,-0.00003382,-0.00001826,-0.00000129,0.0
 0001230,0.00029928,0.00013189,-0.00008692,-0.00139272,-0.00277349,-0.0
 0035848,-0.00018231,0.00123426,0.00008711,0.00495643,-0.00122073,0.004
 28002,0.01632260,-0.00888122,-0.00782974,0.09258255,-0.08328935,-0.022
 94141,0.00081815,0.00028907,-0.00008481,-0.00052577,0.00045300,0.00040
 688,-0.10358706,0.08951604,0.00026737,0.00024914,-0.00000679,-0.000078
 99,-0.00003279,-0.00004560,-0.00009225,0.00008910,0.00000972,0.0000185
 9,0.00000425,-0.00001619,-0.00029494,-0.00025651,0.00032133,0.00138717
 ,0.00195002,0.00027669,-0.00013270,-0.00080639,-0.00046712,-0.00544005
 ,0.00450770,-0.00349440,-0.02049191,0.00660618,0.00896297,0.05771219,-
 0.02384586,-0.06347328,-0.00041286,-0.00038896,0.00024181,0.00055251,-
 0.00105375,0.00011806,-0.06080282,0.02322398,0.06352927,-0.00014079,0.
 00035406,-0.00018025,0.00012760,0.00002602,-0.00006630,-0.00000053,0.0
 0001109,0.00002829,-0.00001803,0.00000629,-0.00000683,0.00003120,0.000
 02098,0.00000830,-0.00070075,-0.00108754,-0.00052798,-0.00023666,0.000
 73356,0.00008340,0.00113046,-0.00059763,0.00062395,-0.00139614,-0.0055
 7754,-0.00770952,-0.04813042,-0.00666134,-0.01466218,0.00000909,0.0000
 1843,0.00028091,0.00035593,0.00135962,-0.00129428,0.00369395,0.0133203
 0,0.02593888,0.04637002,0.00002297,0.00026251,-0.00082567,0.00013688,-
 0.00014700,0.00022860,-0.00003437,-0.00000674,-0.00000597,0.00000806,0
 .00000741,-0.00000642,-0.00005394,0.00002115,0.00013043,0.00022457,0.0
 0015862,-0.00030374,-0.00022402,0.00011924,-0.00017271,-0.00192012,0.0
 0076676,-0.00123499,0.00054915,0.01128311,0.02179482,-0.00639678,-0.11
 485753,-0.12071887,0.00025239,0.00082781,0.00067443,0.00164401,-0.0029
 4345,0.00315419,-0.00211530,-0.00619858,-0.00885497,0.00755620,0.12163
 645,0.00040307,0.00049161,0.00088523,-0.00007805,0.00017056,-0.0002233
 5,-0.00001437,0.00002465,0.00000648,-0.00000483,-0.00000576,-0.0000001
 6,-0.00000106,0.00002409,-0.00000706,-0.00035391,-0.00059586,-0.000209
 08,0.00007341,0.00034880,0.00019575,0.00112699,0.00001890,0.00246280,-
 0.00008785,-0.01056644,-0.02513881,-0.01443489,-0.11875543,-0.25079713
 ,-0.00084018,-0.00148786,-0.00072624,-0.00187881,0.00338993,-0.0016171
 7,-0.00046159,-0.00186171,-0.00431038,0.01629223,0.12667181,0.27558077
 ,-0.00033957,-0.00025696,-0.00015365,0.00036473,-0.00000701,-0.0000912
 3,0.00005005,-0.00004605,-0.00003114,-0.00001739,0.00002275,0.00001528
 ,0.00004872,-0.00008274,-0.00005681,-0.00035724,0.00147498,-0.00004262
 ,-0.00067580,-0.00067709,-0.00043599,0.00069646,-0.00153062,0.00068761
 ,0.00615602,0.00686437,-0.00048651,-0.15654966,-0.12771872,0.01392911,
 0.00100639,0.00238318,-0.00005888,-0.00024178,-0.00075463,0.00049258,-
 0.01704061,-0.02203703,0.00186981,-0.00109494,0.00035030,0.00025986,0.
 16799464,-0.00028651,-0.00046849,-0.00009840,-0.00017473,0.00016004,0.
 00008157,-0.00005558,0.00004805,0.00000729,0.00001947,-0.00002433,-0.0
 0002034,-0.00000526,0.00008953,0.00023147,0.00082185,-0.00208966,0.000
 12757,-0.00063690,0.00107628,-0.00046754,0.00052401,0.00261582,-0.0010
 9874,-0.01104744,-0.01982589,0.00805410,-0.13194026,-0.19317157,0.0135
 5316,0.00088529,-0.00021311,0.00084696,0.00086777,0.00085181,-0.000387
 75,0.00849553,0.01072006,-0.00139113,-0.00948250,-0.01092976,0.0021327
 0,0.14201527,0.21116122,0.00011124,0.00033338,0.00036653,0.00034811,-0
 .00004790,-0.00025672,0.00006997,-0.00004467,-0.00002557,-0.00000198,0
 .00001970,0.00002277,-0.00002610,-0.00018301,-0.00023640,-0.00013784,0
 .00232810,0.00081195,0.00020754,-0.00154653,-0.00035564,-0.00068829,-0
 .00266658,0.00086955,0.01531309,0.02104065,-0.00783209,0.01680866,0.01
 746405,-0.04438178,-0.00054040,0.00145982,-0.00059974,-0.00107885,-0.0
 0139213,0.00094086,0.00432088,0.00533699,-0.00164609,-0.01880862,-0.02
 053094,0.00389834,-0.01589741,-0.02157093,0.04842403\\0.01330743,0.025
 93470,0.00237204,-0.00207515,-0.00144281,0.00016534,-0.00019656,0.0000
 9725,0.00001895,-0.00001853,-0.00001553,-0.00000683,-0.00024804,-0.000
 04060,0.00012661,0.00265894,0.00002261,0.00123468,-0.00039401,-0.00031
 830,-0.00028773,-0.00733734,0.00127154,0.00022945,0.01978517,0.0183796
 9,-0.00503690,-0.00359494,-0.00569818,0.00136083,-0.01936842,-0.033985
 07,-0.00212656,-0.00295415,-0.00392606,0.00177746,-0.00005339,0.000036
 27,0.00003470,0.00014615,0.00011615,-0.00031160,0.00034285,-0.00043167
 ,0.00044956\\\@


 GARBAGE IN, GARBAGE OUT
 Job cpu time:       0 days  0 hours 52 minutes  0.9 seconds.
 Elapsed time:       0 days  0 hours  2 minutes 10.1 seconds.
 File lengths (MBytes):  RWF=    153 Int=      0 D2E=      0 Chk=      5 Scr=      1
 Normal termination of Gaussian 16 at Sat Aug 16 14:46:09 2025.
