 Entering Gaussian System, Link 0=g16
 Initial command:
 /opt/g16/l1.exe "/home/aayush/scratches/g16/Gau-18933.inp" -scrdir="/home/aayush/scratches/g16/"
 Entering Link 1 = /opt/g16/l1.exe PID=     18936.
  
 Copyright (c) 1988,1990,1992,1993,1995,1998,2003,2009,2016,
            Gaussian, Inc.  All Rights Reserved.
  
 This is part of the Gaussian(R) 16 program.  It is based on
 the Gaussian(R) 09 system (copyright 2009, Gaussian, Inc.),
 the Gaussian(R) 03 system (copyright 2003, Gaussian, Inc.),
 the Gaussian(R) 98 system (copyright 1998, Gaussian, Inc.),
 the Gaussian(R) 94 system (copyright 1995, Gaussian, Inc.),
 the Gaussian 92(TM) system (copyright 1992, Gaussian, Inc.),
 the Gaussian 90(TM) system (copyright 1990, Gaussian, Inc.),
 the Gaussian 88(TM) system (copyright 1988, Gaussian, Inc.),
 the Gaussian 86(TM) system (copyright 1986, Carnegie Mellon
 University), and the Gaussian 82(TM) system (copyright 1983,
 Carnegie Mellon University). Gaussian is a federally registered
 trademark of Gaussian, Inc.
  
 This software contains proprietary and confidential information,
 including trade secrets, belonging to Gaussian, Inc.
  
 This software is provided under written license and may be
 used, copied, transmitted, or stored only in accord with that
 written license.
  
 The following legend is applicable only to US Government
 contracts under FAR:
  
                    RESTRICTED RIGHTS LEGEND
  
 Use, reproduction and disclosure by the US Government is
 subject to restrictions as set forth in subparagraphs (a)
 and (c) of the Commercial Computer Software - Restricted
 Rights clause in FAR 52.227-19.
  
 Gaussian, Inc.
 340 Quinnipiac St., Bldg. 40, Wallingford CT 06492
  
  
 ---------------------------------------------------------------
 Warning -- This program may not be used in any manner that
 competes with the business of Gaussian, Inc. or will provide
 assistance to any competitor of Gaussian, Inc.  The licensee
 of this program is prohibited from giving any competitor of
 Gaussian, Inc. access to this program.  By using this program,
 the user acknowledges that Gaussian, Inc. is engaged in the
 business of creating and licensing software in the field of
 computational chemistry and represents and warrants to the
 licensee that it is not a competitor of Gaussian, Inc. and that
 it will not use this program in any manner prohibited above.
 ---------------------------------------------------------------
  

 Cite this work as:
 Gaussian 16, Revision A.03,
 M. J. Frisch, G. W. Trucks, H. B. Schlegel, G. E. Scuseria, 
 M. A. Robb, J. R. Cheeseman, G. Scalmani, V. Barone, 
 G. A. Petersson, H. Nakatsuji, X. Li, M. Caricato, A. V. Marenich, 
 J. Bloino, B. G. Janesko, R. Gomperts, B. Mennucci, H. P. Hratchian, 
 J. V. Ortiz, A. F. Izmaylov, J. L. Sonnenberg, D. Williams-Young, 
 F. Ding, F. Lipparini, F. Egidi, J. Goings, B. Peng, A. Petrone, 
 T. Henderson, D. Ranasinghe, V. G. Zakrzewski, J. Gao, N. Rega, 
 G. Zheng, W. Liang, M. Hada, M. Ehara, K. Toyota, R. Fukuda, 
 J. Hasegawa, M. Ishida, T. Nakajima, Y. Honda, O. Kitao, H. Nakai, 
 T. Vreven, K. Throssell, J. A. Montgomery, Jr., J. E. Peralta, 
 F. Ogliaro, M. J. Bearpark, J. J. Heyd, E. N. Brothers, K. N. Kudin, 
 V. N. Staroverov, T. A. Keith, R. Kobayashi, J. Normand, 
 K. Raghavachari, A. P. Rendell, J. C. Burant, S. S. Iyengar, 
 J. Tomasi, M. Cossi, J. M. Millam, M. Klene, C. Adamo, R. Cammi, 
 J. W. Ochterski, R. L. Martin, K. Morokuma, O. Farkas, 
 J. B. Foresman, and D. J. Fox, Gaussian, Inc., Wallingford CT, 2016.
 
 ******************************************
 Gaussian 16:  ES64L-G16RevA.03 25-Dec-2016
                16-Aug-2025 
 ******************************************
 %nprocshared=24
 Will use up to   24 processors via shared memory.
 %mem=12GB
 %chk=ethyl_propiolate.chk
 --------------------------
 # freq 6-311++g(d,p) m062x
 --------------------------
 1/10=4,30=1,38=1/1,3;
 2/12=2,17=6,18=5,40=1/2;
 3/5=4,6=6,7=1111,11=2,25=1,30=1,71=2,74=-55,140=1/1,2,3;
 4//1;
 5/5=2,38=5,98=1/2;
 8/6=4,10=90,11=11/1;
 11/6=1,8=1,9=11,15=111,16=1/1,2,10;
 10/6=1/2;
 6/7=2,8=2,9=2,10=2,28=1/1;
 7/8=1,10=1,25=1/1,2,3,16;
 1/10=4,30=1/3;
 99//99;
 -------------------
 Title Card Required
 -------------------
 Symbolic Z-matrix:
 Charge =  0 Multiplicity = 2
 O                     2.69526   1.73908  -0.22978 
 H                     1.89151   2.22623   0.0013 
 C                    -3.13423   1.01994   0.42242 
 H                    -4.0148    1.56604   0.66923 
 C                    -2.14455   0.40491   0.14468 
 C                    -0.97685  -0.38411  -0.20957 
 O                    -1.01979  -1.48609  -0.67457 
 O                     0.15672   0.28797   0.05624 
 C                     1.37102  -0.38086  -0.26078 
 C                     1.83331  -1.2997    0.83386 
 H                     2.21315   0.65804  -0.33939 
 H                     1.32606  -0.81631  -1.25888 
 H                     2.81393  -1.70902   0.58984 
 H                     1.89898  -0.7633    1.78115 
 H                     1.12448  -2.12815   0.93627 
 

 GradGradGradGradGradGradGradGradGradGradGradGradGradGradGradGradGradGrad
 Berny optimization.
 Initialization pass.
 Trust Radius=3.00D-01 FncErr=1.00D-07 GrdErr=1.00D-07 EigMax=2.50D+02 EigMin=1.00D-04
 Number of steps in this run=      2 maximum allowed number of steps=      2.
 GradGradGradGradGradGradGradGradGradGradGradGradGradGradGradGradGradGrad

                          Input orientation:                          
 ---------------------------------------------------------------------
 Center     Atomic      Atomic             Coordinates (Angstroms)
 Number     Number       Type             X           Y           Z
 ---------------------------------------------------------------------
      1          8           0        2.695263    1.739081   -0.229778
      2          1           0        1.891507    2.226229    0.001300
      3          6           0       -3.134229    1.019938    0.422416
      4          1           0       -4.014797    1.566040    0.669228
      5          6           0       -2.144549    0.404906    0.144676
      6          6           0       -0.976854   -0.384112   -0.209570
      7          8           0       -1.019788   -1.486094   -0.674568
      8          8           0        0.156719    0.287970    0.056242
      9          6           0        1.371023   -0.380862   -0.260780
     10          6           0        1.833309   -1.299698    0.833861
     11          1           0        2.213152    0.658039   -0.339387
     12          1           0        1.326059   -0.816309   -1.258877
     13          1           0        2.813931   -1.709016    0.589841
     14          1           0        1.898980   -0.763295    1.781153
     15          1           0        1.124482   -2.128154    0.936270
 ---------------------------------------------------------------------
                    Distance matrix (angstroms):
                    1          2          3          4          5
     1  O    0.000000
     2  H    0.967850   0.000000
     3  C    5.909780   5.185605   0.000000
     4  H    6.772227   5.980502   1.065150   0.000000
     5  C    5.034284   4.430296   1.197861   2.263010   0.000000
     6  C    4.241792   3.884050   2.650477   3.715438   1.453118
     7  O    4.939757   4.765897   3.457518   4.482342   2.347792
     8  O    2.937982   2.601799   3.391194   4.405764   2.305933
     9  C    2.499746   2.671425   4.767210   5.801931   3.625062
    10  C    3.332937   3.623356   5.497857   6.514591   4.382237
    11  H    1.188738   1.636687   5.413483   6.374097   4.391805
    12  H    3.076326   3.341379   5.108103   6.157753   3.937823
    13  H    3.546157   4.084532   6.546436   7.573891   5.408638
    14  H    3.307536   3.479251   5.509925   6.452514   4.515847
    15  H    4.333881   4.519198   5.320822   6.334869   4.210651
                    6          7          8          9         10
     6  C    0.000000
     7  O    1.196842   0.000000
     8  O    1.344373   2.250679   0.000000
     9  C    2.348438   2.666221   1.422102   0.000000
    10  C    3.134336   3.232687   2.436460   1.502068   0.000000
    11  H    3.358433   3.893784   2.126591   1.339655   2.313769
    12  H    2.567343   2.508591   2.077577   1.089878   2.206925
    13  H    4.094445   4.042997   3.366520   2.137647   1.090278
    14  H    3.518122   3.882295   2.667574   2.143475   1.090598
    15  H    2.961460   2.757704   2.747484   2.132309   1.095109
                   11         12         13         14         15
    11  H    0.000000
    12  H    1.950922   0.000000
    13  H    2.612920   2.535438   0.000000
    14  H    2.572078   3.093999   1.775035   0.000000
    15  H    3.251980   2.565198   1.774804   1.782278   0.000000
 Stoichiometry    C5H7O3(2)
 Framework group  C1[X(C5H7O3)]
 Deg. of freedom    39
 Full point group                 C1      NOp   1
 Largest Abelian subgroup         C1      NOp   1
 Largest concise Abelian subgroup C1      NOp   1
                         Standard orientation:                         
 ---------------------------------------------------------------------
 Center     Atomic      Atomic             Coordinates (Angstroms)
 Number     Number       Type             X           Y           Z
 ---------------------------------------------------------------------
      1          8           0        2.637235    1.745486   -0.248111
      2          1           0        1.833754    2.232992   -0.016831
      3          6           0       -3.192710    1.029449    0.403457
      4          1           0       -4.072968    1.575947    0.650497
      5          6           0       -2.203378    0.413972    0.125460
      6          6           0       -1.036131   -0.375558   -0.229120
      7          8           0       -1.079691   -1.477285   -0.694663
      8          8           0        0.097825    0.295727    0.037076
      9          6           0        1.311750   -0.373663   -0.280219
     10          6           0        1.773444   -1.293310    0.813990
     11          1           0        2.154493    0.664781   -0.358275
     12          1           0        1.266577   -0.808592   -1.278533
     13          1           0        2.753837   -1.703084    0.569814
     14          1           0        1.839386   -0.757412    1.761550
     15          1           0        1.064126   -2.121399    0.915958
 ---------------------------------------------------------------------
 Rotational constants (GHZ):           3.0372678           1.1299503           0.9023648
 Standard basis: 6-311++G(d,p) (5D, 7F)
 There are   233 symmetry adapted cartesian basis functions of A   symmetry.
 There are   225 symmetry adapted basis functions of A   symmetry.
   225 basis functions,   351 primitive gaussians,   233 cartesian basis functions
    31 alpha electrons       30 beta electrons
       nuclear repulsion energy       348.6331027440 Hartrees.
 NAtoms=   15 NActive=   15 NUniq=   15 SFac= 1.00D+00 NAtFMM=   60 NAOKFM=F Big=F
 Integral buffers will be    131072 words long.
 Raffenetti 2 integral format.
 Two-electron integral symmetry is turned on.
 One-electron integrals computed using PRISM.
 NBasis=   225 RedAO= T EigKep=  7.83D-06  NBF=   225
 NBsUse=   224 1.00D-06 EigRej=  8.28D-07 NBFU=   224
 ExpMin= 3.60D-02 ExpMax= 8.59D+03 ExpMxC= 1.30D+03 IAcc=3 IRadAn=         5 AccDes= 0.00D+00
 Harris functional with IExCor= 1009 and IRadAn=       5 diagonalized for initial guess.
 HarFok:  IExCor= 1009 AccDes= 0.00D+00 IRadAn=         5 IDoV= 1 UseB2=F ITyADJ=14
 ICtDFT=  3500011 ScaDFX=  1.000000  1.000000  1.000000  1.000000
 FoFCou: FMM=F IPFlag=           0 FMFlag=      100000 FMFlg1=           0
         NFxFlg=           0 DoJE=T BraDBF=F KetDBF=T FulRan=T
         wScrn=  0.000000 ICntrl=       500 IOpCl=  0 I1Cent=   200000004 NGrid=           0
         NMat0=    1 NMatS0=      1 NMatT0=    0 NMatD0=    1 NMtDS0=    0 NMtDT0=    0
 Petite list used in FoFCou.
 Initial guess <Sx>= 0.0000 <Sy>= 0.0000 <Sz>= 0.5000 <S**2>= 0.7500 S= 0.5000
 Requested convergence on RMS density matrix=1.00D-08 within 128 cycles.
 Requested convergence on MAX density matrix=1.00D-06.
 Requested convergence on             energy=1.00D-06.
 No special actions if energy rises.
 SCF Done:  E(UM062X) =  -420.203829441     A.U. after   18 cycles
            NFock= 18  Conv=0.74D-08     -V/T= 2.0034
 <Sx>= 0.0000 <Sy>= 0.0000 <Sz>= 0.5000 <S**2>= 0.7599 S= 0.5049
 <L.S>=  0.00000000000    
 Annihilation of the first spin contaminant:
 S**2 before annihilation     0.7599,   after     0.7500
 DoSCS=F DFT=T ScalE2(SS,OS)=  1.000000  1.000000
 Range of M.O.s used for correlation:     1   224
 NBasis=   225 NAE=    31 NBE=    30 NFC=     0 NFV=     0
 NROrb=    224 NOA=    31 NOB=    30 NVA=   193 NVB=   194

 **** Warning!!: The largest alpha MO coefficient is  0.10754167D+03


 **** Warning!!: The largest beta MO coefficient is  0.10290140D+03

 Symmetrizing basis deriv contribution to polar:
 IMax=3 JMax=2 DiffMx= 0.00D+00
 G2DrvN: will do    16 centers at a time, making    1 passes.
 Calling FoFCou, ICntrl=  3107 FMM=F I1Cent=   0 AccDes= 0.00D+00.
 End of G2Drv F.D. properties file   721 does not exist.
 End of G2Drv F.D. properties file   722 does not exist.
 End of G2Drv F.D. properties file   788 does not exist.
          IDoAtm=111111111111111
          Differentiating once with respect to electric field.
                with respect to dipole field.
          Differentiating once with respect to nuclear coordinates.
 Keep R1 and R2 ints in memory in canonical form, NReq=671901989.
          There are    48 degrees of freedom in the 1st order CPHF.  IDoFFX=6 NUNeed=     3.
     45 vectors produced by pass  0 Test12= 2.46D-14 2.08D-09 XBig12= 9.26D+01 3.75D+00.
 AX will form    45 AO Fock derivatives at one time.
     45 vectors produced by pass  1 Test12= 2.46D-14 2.08D-09 XBig12= 1.92D+01 7.41D-01.
     45 vectors produced by pass  2 Test12= 2.46D-14 2.08D-09 XBig12= 6.74D-01 1.23D-01.
     45 vectors produced by pass  3 Test12= 2.46D-14 2.08D-09 XBig12= 1.01D-02 1.32D-02.
     45 vectors produced by pass  4 Test12= 2.46D-14 2.08D-09 XBig12= 1.05D-04 1.44D-03.
     45 vectors produced by pass  5 Test12= 2.46D-14 2.08D-09 XBig12= 1.02D-06 1.07D-04.
     45 vectors produced by pass  6 Test12= 2.46D-14 2.08D-09 XBig12= 7.40D-09 7.03D-06.
     24 vectors produced by pass  7 Test12= 2.46D-14 2.08D-09 XBig12= 4.17D-11 5.37D-07.
      3 vectors produced by pass  8 Test12= 2.46D-14 2.08D-09 XBig12= 2.53D-13 5.47D-08.
      2 vectors produced by pass  9 Test12= 2.46D-14 2.08D-09 XBig12= 2.48D-15 6.02D-09.
 InvSVY:  IOpt=1 It=  1 EMax= 3.55D-15
 Solved reduced A of dimension   344 with    48 vectors.
 Isotropic polarizability for W=    0.000000       75.84 Bohr**3.
 End of Minotr F.D. properties file   721 does not exist.
 End of Minotr F.D. properties file   722 does not exist.
 End of Minotr F.D. properties file   788 does not exist.

 **********************************************************************

            Population analysis using the SCF density.

 **********************************************************************

 Orbital symmetries:
 Alpha Orbitals:
       Occupied  (A) (A) (A) (A) (A) (A) (A) (A) (A) (A) (A) (A)
                 (A) (A) (A) (A) (A) (A) (A) (A) (A) (A) (A) (A)
                 (A) (A) (A) (A) (A) (A) (A)
       Virtual   (A) (A) (A) (A) (A) (A) (A) (A) (A) (A) (A) (A)
                 (A) (A) (A) (A) (A) (A) (A) (A) (A) (A) (A) (A)
                 (A) (A) (A) (A) (A) (A) (A) (A) (A) (A) (A) (A)
                 (A) (A) (A) (A) (A) (A) (A) (A) (A) (A) (A) (A)
                 (A) (A) (A) (A) (A) (A) (A) (A) (A) (A) (A) (A)
                 (A) (A) (A) (A) (A) (A) (A) (A) (A) (A) (A) (A)
                 (A) (A) (A) (A) (A) (A) (A) (A) (A) (A) (A) (A)
                 (A) (A) (A) (A) (A) (A) (A) (A) (A) (A) (A) (A)
                 (A) (A) (A) (A) (A) (A) (A) (A) (A) (A) (A) (A)
                 (A) (A) (A) (A) (A) (A) (A) (A) (A) (A) (A) (A)
                 (A) (A) (A) (A) (A) (A) (A) (A) (A) (A) (A) (A)
                 (A) (A) (A) (A) (A) (A) (A) (A) (A) (A) (A) (A)
                 (A) (A) (A) (A) (A) (A) (A) (A) (A) (A) (A) (A)
                 (A) (A) (A) (A) (A) (A) (A) (A) (A) (A) (A) (A)
                 (A) (A) (A) (A) (A) (A) (A) (A) (A) (A) (A) (A)
                 (A) (A) (A) (A) (A) (A) (A) (A) (A) (A) (A) (A)
                 (A)
 Beta  Orbitals:
       Occupied  (A) (A) (A) (A) (A) (A) (A) (A) (A) (A) (A) (A)
                 (A) (A) (A) (A) (A) (A) (A) (A) (A) (A) (A) (A)
                 (A) (A) (A) (A) (A) (A)
       Virtual   (A) (A) (A) (A) (A) (A) (A) (A) (A) (A) (A) (A)
                 (A) (A) (A) (A) (A) (A) (A) (A) (A) (A) (A) (A)
                 (A) (A) (A) (A) (A) (A) (A) (A) (A) (A) (A) (A)
                 (A) (A) (A) (A) (A) (A) (A) (A) (A) (A) (A) (A)
                 (A) (A) (A) (A) (A) (A) (A) (A) (A) (A) (A) (A)
                 (A) (A) (A) (A) (A) (A) (A) (A) (A) (A) (A) (A)
                 (A) (A) (A) (A) (A) (A) (A) (A) (A) (A) (A) (A)
                 (A) (A) (A) (A) (A) (A) (A) (A) (A) (A) (A) (A)
                 (A) (A) (A) (A) (A) (A) (A) (A) (A) (A) (A) (A)
                 (A) (A) (A) (A) (A) (A) (A) (A) (A) (A) (A) (A)
                 (A) (A) (A) (A) (A) (A) (A) (A) (A) (A) (A) (A)
                 (A) (A) (A) (A) (A) (A) (A) (A) (A) (A) (A) (A)
                 (A) (A) (A) (A) (A) (A) (A) (A) (A) (A) (A) (A)
                 (A) (A) (A) (A) (A) (A) (A) (A) (A) (A) (A) (A)
                 (A) (A) (A) (A) (A) (A) (A) (A) (A) (A) (A) (A)
                 (A) (A) (A) (A) (A) (A) (A) (A) (A) (A) (A) (A)
                 (A) (A)
 The electronic state is 2-A.
 Alpha  occ. eigenvalues --  -19.70689 -19.65084 -19.63413 -10.72561 -10.64203
 Alpha  occ. eigenvalues --  -10.58346 -10.57871 -10.55756  -1.27917  -1.18619
 Alpha  occ. eigenvalues --   -1.11530  -0.92185  -0.88528  -0.80083  -0.71964
 Alpha  occ. eigenvalues --   -0.66982  -0.62509  -0.60934  -0.58868  -0.58090
 Alpha  occ. eigenvalues --   -0.52714  -0.51544  -0.49592  -0.48414  -0.46293
 Alpha  occ. eigenvalues --   -0.41451  -0.41188  -0.39628  -0.38491  -0.37673
 Alpha  occ. eigenvalues --   -0.32787
 Alpha virt. eigenvalues --   -0.03079  -0.00526   0.00451   0.01503   0.01794
 Alpha virt. eigenvalues --    0.03004   0.03177   0.04571   0.05850   0.05938
 Alpha virt. eigenvalues --    0.06505   0.07308   0.07806   0.09250   0.10106
 Alpha virt. eigenvalues --    0.11161   0.11874   0.12217   0.12574   0.12877
 Alpha virt. eigenvalues --    0.13619   0.14153   0.14630   0.15943   0.16191
 Alpha virt. eigenvalues --    0.17464   0.17642   0.18199   0.19464   0.19868
 Alpha virt. eigenvalues --    0.21430   0.21831   0.23686   0.24845   0.25770
 Alpha virt. eigenvalues --    0.26676   0.28181   0.28316   0.28993   0.29519
 Alpha virt. eigenvalues --    0.30304   0.31010   0.31705   0.32503   0.33568
 Alpha virt. eigenvalues --    0.34220   0.34997   0.36714   0.37423   0.40435
 Alpha virt. eigenvalues --    0.41910   0.44121   0.45827   0.47843   0.50009
 Alpha virt. eigenvalues --    0.50470   0.53078   0.55763   0.57080   0.59518
 Alpha virt. eigenvalues --    0.60525   0.62443   0.64859   0.66034   0.66386
 Alpha virt. eigenvalues --    0.67245   0.68459   0.70194   0.71544   0.73398
 Alpha virt. eigenvalues --    0.74257   0.75264   0.78287   0.81317   0.83808
 Alpha virt. eigenvalues --    0.88457   0.91384   0.95220   1.00326   1.04749
 Alpha virt. eigenvalues --    1.06780   1.09582   1.10050   1.12798   1.13572
 Alpha virt. eigenvalues --    1.15191   1.16541   1.16987   1.18776   1.20934
 Alpha virt. eigenvalues --    1.22328   1.23147   1.28671   1.29081   1.33187
 Alpha virt. eigenvalues --    1.35075   1.35805   1.37918   1.41751   1.42830
 Alpha virt. eigenvalues --    1.45908   1.48097   1.50387   1.54527   1.57887
 Alpha virt. eigenvalues --    1.58797   1.59277   1.60767   1.61396   1.63799
 Alpha virt. eigenvalues --    1.64936   1.67061   1.67862   1.71493   1.74857
 Alpha virt. eigenvalues --    1.78331   1.82221   1.83235   1.84875   1.88817
 Alpha virt. eigenvalues --    1.92717   1.97403   1.99552   2.04115   2.07660
 Alpha virt. eigenvalues --    2.11380   2.13465   2.14763   2.22708   2.29819
 Alpha virt. eigenvalues --    2.41020   2.41708   2.50178   2.50685   2.53770
 Alpha virt. eigenvalues --    2.57339   2.58641   2.59855   2.60976   2.63749
 Alpha virt. eigenvalues --    2.65484   2.68874   2.71366   2.72920   2.78281
 Alpha virt. eigenvalues --    2.81112   2.82734   2.88230   2.91545   2.97210
 Alpha virt. eigenvalues --    2.99963   3.03115   3.04936   3.06135   3.08336
 Alpha virt. eigenvalues --    3.13085   3.19149   3.20227   3.22190   3.25428
 Alpha virt. eigenvalues --    3.29899   3.32413   3.36670   3.42535   3.49957
 Alpha virt. eigenvalues --    3.55748   3.65492   3.73052   3.81263   3.84264
 Alpha virt. eigenvalues --    3.84871   3.98296   4.05903   4.11297   4.16791
 Alpha virt. eigenvalues --    4.24323   5.09089   5.12927   5.15529   5.30158
 Alpha virt. eigenvalues --    5.41765   5.46229   5.66124   5.71696   5.92755
 Alpha virt. eigenvalues --   23.61414  23.84391  23.92907  24.03133  25.16709
 Alpha virt. eigenvalues --   49.97475  49.99019  50.09427
  Beta  occ. eigenvalues --  -19.70663 -19.65078 -19.62550 -10.72528 -10.63555
  Beta  occ. eigenvalues --  -10.58345 -10.57871 -10.55766  -1.27726  -1.18456
  Beta  occ. eigenvalues --   -1.08294  -0.91465  -0.87874  -0.79689  -0.70804
  Beta  occ. eigenvalues --   -0.66201  -0.62223  -0.60117  -0.58187  -0.55525
  Beta  occ. eigenvalues --   -0.51603  -0.50752  -0.48333  -0.47032  -0.43764
  Beta  occ. eigenvalues --   -0.41107  -0.40639  -0.38476  -0.37874  -0.37606
  Beta virt. eigenvalues --   -0.10240  -0.02991  -0.00445   0.00515   0.01664
  Beta virt. eigenvalues --    0.01972   0.03081   0.03234   0.04793   0.05914
  Beta virt. eigenvalues --    0.06001   0.06678   0.07413   0.07853   0.09382
  Beta virt. eigenvalues --    0.10220   0.11242   0.12023   0.12321   0.12728
  Beta virt. eigenvalues --    0.13039   0.13729   0.14261   0.14777   0.16191
  Beta virt. eigenvalues --    0.16358   0.17548   0.17760   0.18213   0.19630
  Beta virt. eigenvalues --    0.20112   0.21574   0.22292   0.24070   0.25244
  Beta virt. eigenvalues --    0.25492   0.26769   0.28322   0.28480   0.29300
  Beta virt. eigenvalues --    0.29781   0.30954   0.31172   0.31877   0.32735
  Beta virt. eigenvalues --    0.33897   0.34440   0.35106   0.37445   0.37999
  Beta virt. eigenvalues --    0.41430   0.42284   0.44309   0.46019   0.47964
  Beta virt. eigenvalues --    0.50175   0.50639   0.53288   0.55822   0.57483
  Beta virt. eigenvalues --    0.60089   0.60764   0.62596   0.65129   0.66479
  Beta virt. eigenvalues --    0.67276   0.67580   0.69185   0.70823   0.71824
  Beta virt. eigenvalues --    0.73499   0.74421   0.75605   0.78630   0.81556
  Beta virt. eigenvalues --    0.83885   0.88668   0.91647   0.95216   1.01262
  Beta virt. eigenvalues --    1.05759   1.06926   1.09792   1.10480   1.13503
  Beta virt. eigenvalues --    1.14515   1.15508   1.16839   1.17347   1.19697
  Beta virt. eigenvalues --    1.21163   1.22593   1.23338   1.29016   1.29310
  Beta virt. eigenvalues --    1.33301   1.35274   1.35906   1.38354   1.41903
  Beta virt. eigenvalues --    1.43129   1.46356   1.48526   1.50950   1.56308
  Beta virt. eigenvalues --    1.58314   1.59192   1.59724   1.60929   1.61886
  Beta virt. eigenvalues --    1.64258   1.65238   1.67406   1.68613   1.72092
  Beta virt. eigenvalues --    1.75054   1.78725   1.82687   1.83308   1.85493
  Beta virt. eigenvalues --    1.89132   1.93077   1.97806   1.99785   2.04403
  Beta virt. eigenvalues --    2.08128   2.12366   2.14391   2.15332   2.24718
  Beta virt. eigenvalues --    2.30547   2.41138   2.43099   2.50431   2.50818
  Beta virt. eigenvalues --    2.53308   2.57495   2.59029   2.59896   2.62043
  Beta virt. eigenvalues --    2.63903   2.65540   2.69338   2.71556   2.72810
  Beta virt. eigenvalues --    2.76255   2.81096   2.81817   2.88657   2.92181
  Beta virt. eigenvalues --    2.97281   3.00291   3.03144   3.05194   3.07948
  Beta virt. eigenvalues --    3.09389   3.13391   3.19408   3.20958   3.23134
  Beta virt. eigenvalues --    3.27296   3.30311   3.32531   3.37058   3.42672
  Beta virt. eigenvalues --    3.52200   3.55785   3.65583   3.73397   3.82392
  Beta virt. eigenvalues --    3.84878   3.85196   3.99746   4.07041   4.11838
  Beta virt. eigenvalues --    4.17012   4.25507   5.10085   5.13551   5.15615
  Beta virt. eigenvalues --    5.30194   5.43149   5.48088   5.67965   5.72217
  Beta virt. eigenvalues --    5.92888  23.61421  23.85344  23.92948  24.03143
  Beta virt. eigenvalues --   25.16713  49.97483  49.98239  50.09423
          Condensed to atoms (all electrons):
               1          2          3          4          5          6
     1  O    7.987187   0.297828  -0.001692  -0.000085   0.012379  -0.003859
     2  H    0.297828   0.478214  -0.000814  -0.000224   0.000343  -0.000991
     3  C   -0.001692  -0.000814   5.799087   0.447705  -0.477176   0.937929
     4  H   -0.000085  -0.000224   0.447705   0.424725  -0.078004   0.023931
     5  C    0.012379   0.000343  -0.477176  -0.078004   8.109398  -2.210852
     6  C   -0.003859  -0.000991   0.937929   0.023931  -2.210852   7.560576
     7  O   -0.000067  -0.000233  -0.097946  -0.003373   0.129942   0.350213
     8  O    0.028228   0.013213  -0.095097  -0.004911  -0.266084   0.037028
     9  C   -0.051756  -0.000093   0.051801   0.001234  -0.247155   0.096247
    10  C   -0.004563   0.018470  -0.015059  -0.001449  -0.065975  -0.087145
    11  H    0.175784  -0.060551   0.004105   0.000437  -0.008004   0.013602
    12  H   -0.001779  -0.001722  -0.001376  -0.000033   0.008123  -0.002826
    13  H   -0.001126   0.001792  -0.000599  -0.000036  -0.000923  -0.003189
    14  H    0.004525  -0.001479   0.000290   0.000035   0.005494   0.003461
    15  H   -0.004603   0.000447   0.004083   0.000017  -0.029026   0.010882
               7          8          9         10         11         12
     1  O   -0.000067   0.028228  -0.051756  -0.004563   0.175784  -0.001779
     2  H   -0.000233   0.013213  -0.000093   0.018470  -0.060551  -0.001722
     3  C   -0.097946  -0.095097   0.051801  -0.015059   0.004105  -0.001376
     4  H   -0.003373  -0.004911   0.001234  -0.001449   0.000437  -0.000033
     5  C    0.129942  -0.266084  -0.247155  -0.065975  -0.008004   0.008123
     6  C    0.350213   0.037028   0.096247  -0.087145   0.013602  -0.002826
     7  O    7.979057  -0.144248   0.076891  -0.087548   0.005483  -0.012151
     8  O   -0.144248   8.382213   0.088715   0.029120  -0.050957  -0.023293
     9  C    0.076891   0.088715   6.354180  -0.414809   0.209185   0.423815
    10  C   -0.087548   0.029120  -0.414809   5.936436  -0.089782  -0.088718
    11  H    0.005483  -0.050957   0.209185  -0.089782   0.505774  -0.033214
    12  H   -0.012151  -0.023293   0.423815  -0.088718  -0.033214   0.504305
    13  H   -0.001866   0.020120  -0.066131   0.428574  -0.011874  -0.006098
    14  H    0.000956  -0.004541  -0.054281   0.417223  -0.007819   0.001072
    15  H    0.003310  -0.022260   0.009841   0.359811   0.010548  -0.003426
              13         14         15
     1  O   -0.001126   0.004525  -0.004603
     2  H    0.001792  -0.001479   0.000447
     3  C   -0.000599   0.000290   0.004083
     4  H   -0.000036   0.000035   0.000017
     5  C   -0.000923   0.005494  -0.029026
     6  C   -0.003189   0.003461   0.010882
     7  O   -0.001866   0.000956   0.003310
     8  O    0.020120  -0.004541  -0.022260
     9  C   -0.066131  -0.054281   0.009841
    10  C    0.428574   0.417223   0.359811
    11  H   -0.011874  -0.007819   0.010548
    12  H   -0.006098   0.001072  -0.003426
    13  H    0.512197  -0.025601  -0.031760
    14  H   -0.025601   0.515924  -0.049021
    15  H   -0.031760  -0.049021   0.544802
          Atomic-Atomic Spin Densities.
               1          2          3          4          5          6
     1  O    0.537959  -0.000846  -0.000404  -0.000004   0.005498   0.002632
     2  H   -0.000846  -0.014196   0.000249   0.000007  -0.001937  -0.000021
     3  C   -0.000404   0.000249  -0.002513   0.000024  -0.002386   0.005621
     4  H   -0.000004   0.000007   0.000024  -0.000121  -0.000369   0.000684
     5  C    0.005498  -0.001937  -0.002386  -0.000369   0.023292  -0.010105
     6  C    0.002632  -0.000021   0.005621   0.000684  -0.010105   0.012106
     7  O    0.000064   0.000007   0.000002   0.000017   0.002389  -0.001805
     8  O    0.039655  -0.006150  -0.001023  -0.000165   0.005157   0.004915
     9  C   -0.173426   0.015036   0.001084  -0.000128  -0.024769  -0.008935
    10  C    0.025833  -0.003070  -0.000180   0.000060   0.009239   0.001616
    11  H   -0.025888   0.006435   0.000631   0.000042  -0.003254   0.003045
    12  H    0.005240  -0.000509   0.000149  -0.000002   0.000432   0.001124
    13  H    0.000259   0.000077   0.000021   0.000002  -0.000077   0.000727
    14  H    0.005544  -0.000784  -0.000098  -0.000003   0.002021   0.001176
    15  H   -0.002901   0.000344  -0.000033  -0.000004  -0.002566  -0.002991
               7          8          9         10         11         12
     1  O    0.000064   0.039655  -0.173426   0.025833  -0.025888   0.005240
     2  H    0.000007  -0.006150   0.015036  -0.003070   0.006435  -0.000509
     3  C    0.000002  -0.001023   0.001084  -0.000180   0.000631   0.000149
     4  H    0.000017  -0.000165  -0.000128   0.000060   0.000042  -0.000002
     5  C    0.002389   0.005157  -0.024769   0.009239  -0.003254   0.000432
     6  C   -0.001805   0.004915  -0.008935   0.001616   0.003045   0.001124
     7  O    0.002280   0.001744  -0.000641  -0.001416  -0.000965   0.000193
     8  O    0.001744   0.065507  -0.144853   0.019998  -0.018904   0.008702
     9  C   -0.000641  -0.144853   0.975577  -0.071685   0.119341  -0.036986
    10  C   -0.001416   0.019998  -0.071685  -0.017523  -0.019227   0.013365
    11  H   -0.000965  -0.018904   0.119341  -0.019227  -0.110123   0.005295
    12  H    0.000193   0.008702  -0.036986   0.013365   0.005295  -0.005601
    13  H   -0.000011  -0.000090  -0.001811   0.003552  -0.001653   0.000107
    14  H    0.000176   0.006285  -0.029013   0.013845  -0.001078   0.001534
    15  H   -0.000546  -0.003014   0.009177   0.002004   0.000224  -0.003675
              13         14         15
     1  O    0.000259   0.005544  -0.002901
     2  H    0.000077  -0.000784   0.000344
     3  C    0.000021  -0.000098  -0.000033
     4  H    0.000002  -0.000003  -0.000004
     5  C   -0.000077   0.002021  -0.002566
     6  C    0.000727   0.001176  -0.002991
     7  O   -0.000011   0.000176  -0.000546
     8  O   -0.000090   0.006285  -0.003014
     9  C   -0.001811  -0.029013   0.009177
    10  C    0.003552   0.013845   0.002004
    11  H   -0.001653  -0.001078   0.000224
    12  H    0.000107   0.001534  -0.003675
    13  H    0.001877   0.000119  -0.001333
    14  H    0.000119   0.017437  -0.010356
    15  H   -0.001333  -0.010356   0.052772
 Mulliken charges and spin densities:
               1          2
     1  O   -0.436402   0.419216
     2  H    0.255799  -0.005359
     3  C   -0.555243   0.001144
     4  H    0.190029   0.000041
     5  C    1.117521   0.002565
     6  C   -0.725007   0.009791
     7  O   -0.198420   0.001490
     8  O    0.012756  -0.022234
     9  C   -0.477687   0.627970
    10  C   -0.334586  -0.023588
    11  H    0.337284  -0.046080
    12  H    0.237321  -0.010631
    13  H    0.186519   0.001767
    14  H    0.193762   0.006806
    15  H    0.196354   0.037102
 Sum of Mulliken charges =  -0.00000   1.00000
 Mulliken charges and spin densities with hydrogens summed into heavy atoms:
               1          2
     1  O    0.156681   0.367778
     3  C   -0.365214   0.001185
     5  C    1.117521   0.002565
     6  C   -0.725007   0.009791
     7  O   -0.198420   0.001490
     8  O    0.012756  -0.022234
     9  C   -0.240366   0.617339
    10  C    0.242049   0.022087
 APT charges:
               1
     1  O   -0.380192
     2  H    0.258878
     3  C   -0.166406
     4  H    0.238709
     5  C   -0.324849
     6  C    1.562018
     7  O   -0.785581
     8  O   -1.058664
     9  C    0.859462
    10  C   -0.163772
    11  H   -0.129262
    12  H   -0.026814
    13  H    0.033917
    14  H    0.039519
    15  H    0.043036
 Sum of APT charges =  -0.00000
 APT charges with hydrogens summed into heavy atoms:
               1
     1  O   -0.250576
     3  C    0.072303
     5  C   -0.324849
     6  C    1.562018
     7  O   -0.785581
     8  O   -1.058664
     9  C    0.832648
    10  C   -0.047300
 Electronic spatial extent (au):  <R**2>=           1264.8794
 Charge=             -0.0000 electrons
 Dipole moment (field-independent basis, Debye):
    X=             -2.0254    Y=              0.0711    Z=              1.3012  Tot=              2.4084
 Quadrupole moment (field-independent basis, Debye-Ang):
   XX=            -47.4299   YY=            -49.2348   ZZ=            -47.9498
   XY=            -14.2538   XZ=             -1.6335   YZ=             -0.2567
 Traceless Quadrupole moment (field-independent basis, Debye-Ang):
   XX=              0.7749   YY=             -1.0299   ZZ=              0.2550
   XY=            -14.2538   XZ=             -1.6335   YZ=             -0.2567
 Octapole moment (field-independent basis, Debye-Ang**2):
  XXX=            -61.7276  YYY=             11.1788  ZZZ=             -2.8893  XYY=             -4.1468
  XXY=              0.0047  XXZ=             13.4737  XZZ=              4.6354  YZZ=             -1.0411
  YYZ=              7.0211  XYZ=              1.2139
 Hexadecapole moment (field-independent basis, Debye-Ang**3):
 XXXX=          -1044.7543 YYYY=           -378.9496 ZZZZ=           -122.3330 XXXY=           -169.3066
 XXXZ=            -34.6368 YYYX=             -7.5558 YYYZ=              2.5066 ZZZX=              4.1173
 ZZZY=              3.7479 XXYY=           -254.8553 XXZZ=           -216.7258 YYZZ=            -91.6065
 XXYZ=             24.3713 YYXZ=             -3.2506 ZZXY=             -1.4977
 N-N= 3.486331027440D+02 E-N=-1.681294707469D+03  KE= 4.187653167172D+02
  Exact polarizability:  94.101  -2.324  81.826  -4.383   3.431  51.579
 Approx polarizability:  96.804  -6.464  96.173  -6.941   9.743  61.038
                          Isotropic Fermi Contact Couplings
        Atom                 a.u.       MegaHertz       Gauss      10(-4) cm-1
     1  O(17)              0.08519     -51.63992     -18.42641     -17.22522
     2  H(1)              -0.00660     -29.48584     -10.52128      -9.83542
     3  C(13)              0.00043       0.48453       0.17289       0.16162
     4  H(1)              -0.00000      -0.01075      -0.00384      -0.00359
     5  C(13)             -0.00031      -0.34346      -0.12255      -0.11456
     6  C(13)              0.02489      27.98181       9.98460       9.33373
     7  O(17)              0.00243      -1.47120      -0.52496      -0.49074
     8  O(17)              0.04447     -26.95672      -9.61883      -8.99179
     9  C(13)              0.24570     276.21569      98.56063      92.13564
    10  C(13)             -0.00641      -7.20682      -2.57157      -2.40394
    11  H(1)              -0.03069    -137.17252     -48.94656     -45.75583
    12  H(1)              -0.00066      -2.96305      -1.05729      -0.98837
    13  H(1)               0.00099       4.42344       1.57839       1.47550
    14  H(1)               0.00405      18.08906       6.45463       6.03386
    15  H(1)               0.01827      81.64601      29.13333      27.23418
 --------------------------------------------------------
       Center         ----  Spin Dipole Couplings  ----
                      3XX-RR        3YY-RR        3ZZ-RR
 --------------------------------------------------------
     1   Atom       -0.260002      1.168670     -0.908668
     2   Atom        0.045084      0.012933     -0.058017
     3   Atom        0.001451     -0.001318     -0.000132
     4   Atom        0.001109     -0.000501     -0.000608
     5   Atom        0.004154     -0.001200     -0.002954
     6   Atom        0.026293     -0.012368     -0.013926
     7   Atom       -0.001343     -0.009962      0.011305
     8   Atom       -0.025298      0.046346     -0.021048
     9   Atom        0.013031      0.366870     -0.379901
    10   Atom       -0.020353      0.025039     -0.004686
    11   Atom       -0.024833      0.152466     -0.127633
    12   Atom       -0.032724     -0.010501      0.043225
    13   Atom        0.000983      0.004716     -0.005698
    14   Atom       -0.007673     -0.005172      0.012845
    15   Atom       -0.002847      0.005145     -0.002298
 --------------------------------------------------------
                        XY            XZ            YZ
 --------------------------------------------------------
     1   Atom        1.195593      0.082162      0.133980
     2   Atom       -0.043842     -0.028088      0.021310
     3   Atom       -0.000631     -0.000073      0.001475
     4   Atom       -0.000451     -0.000263      0.000121
     5   Atom       -0.001563     -0.000977     -0.000077
     6   Atom        0.012183      0.010514      0.005017
     7   Atom        0.005830     -0.003283     -0.000049
     8   Atom        0.087413     -0.002652     -0.041518
     9   Atom        0.549279     -0.013452     -0.018758
    10   Atom        0.008055     -0.002465     -0.027534
    11   Atom        0.165303      0.001078      0.009116
    12   Atom        0.016881     -0.001674      0.029926
    13   Atom       -0.008401      0.004843     -0.006184
    14   Atom        0.000631      0.002904     -0.005759
    15   Atom        0.004633      0.000589     -0.007273
 --------------------------------------------------------


 ---------------------------------------------------------------------------------
              Anisotropic Spin Dipole Couplings in Principal Axis System
 ---------------------------------------------------------------------------------

       Atom             a.u.   MegaHertz   Gauss  10(-4) cm-1        Axes

              Baa    -0.9397    67.995    24.262    22.681  0.8520 -0.4683 -0.2341
     1 O(17)  Bbb    -0.9163    66.303    23.659    22.116  0.1767 -0.1637  0.9705
              Bcc     1.8560  -134.299   -47.921   -44.797  0.4928  0.8683  0.0567
 
              Baa    -0.0668   -35.624   -12.711   -11.883  0.1810 -0.1599  0.9704
     2 H(1)   Bbb    -0.0177    -9.418    -3.361    -3.142  0.5804  0.8139  0.0259
              Bcc     0.0844    45.042    16.072    15.024  0.7940 -0.5585 -0.2401
 
              Baa    -0.0024    -0.319    -0.114    -0.106  0.1266  0.8308 -0.5420
     3 C(13)  Bbb     0.0007     0.089     0.032     0.030  0.4314  0.4459  0.7843
              Bcc     0.0017     0.230     0.082     0.077  0.8932 -0.3331 -0.3020
 
              Baa    -0.0007    -0.367    -0.131    -0.122 -0.0340 -0.6005  0.7989
     4 H(1)   Bbb    -0.0006    -0.311    -0.111    -0.104  0.2928  0.7583  0.5825
              Bcc     0.0013     0.678     0.242     0.226  0.9556 -0.2537 -0.1500
 
              Baa    -0.0031    -0.421    -0.150    -0.140  0.1673  0.1736  0.9705
     5 C(13)  Bbb    -0.0016    -0.208    -0.074    -0.069  0.2250  0.9517 -0.2090
              Bcc     0.0047     0.629     0.224     0.210  0.9599 -0.2533 -0.1201
 
              Baa    -0.0182    -2.445    -0.873    -0.816 -0.0031 -0.6469  0.7626
     6 C(13)  Bbb    -0.0144    -1.936    -0.691    -0.646 -0.3675  0.7099  0.6008
              Bcc     0.0327     4.382     1.563     1.462  0.9300  0.2784  0.2399
 
              Baa    -0.0130     0.940     0.335     0.314 -0.4604  0.8856 -0.0604
     7 O(17)  Bbb     0.0008    -0.056    -0.020    -0.019  0.8476  0.4588  0.2665
              Bcc     0.0122    -0.883    -0.315    -0.295 -0.2638 -0.0715  0.9619
 
              Baa    -0.0909     6.575     2.346     2.193  0.7550 -0.5759 -0.3137
     8 O(17)  Bbb    -0.0238     1.722     0.615     0.575  0.4059  0.0347  0.9132
              Bcc     0.1147    -8.298    -2.961    -2.768  0.5150  0.8168 -0.2599
 
              Baa    -0.3871   -51.948   -18.536   -17.328  0.8077 -0.5890 -0.0255
     9 C(13)  Bbb    -0.3804   -51.041   -18.213   -17.025  0.0324  0.0012  0.9995
              Bcc     0.7675   102.989    36.749    34.353  0.5887  0.8081 -0.0201
 
              Baa    -0.0233    -3.122    -1.114    -1.041  0.7277 -0.4272 -0.5366
    10 C(13)  Bbb    -0.0193    -2.585    -0.923    -0.862  0.6737  0.2978  0.6763
              Bcc     0.0425     5.707     2.037     1.904  0.1291  0.8537 -0.5046
 
              Baa    -0.1301   -69.392   -24.761   -23.147  0.4297 -0.2791  0.8587
    11 H(1)   Bbb    -0.1215   -64.836   -23.135   -21.627  0.7429 -0.4312 -0.5119
              Bcc     0.2516   134.229    47.896    44.774  0.5132  0.8580  0.0221
 
              Baa    -0.0452   -24.098    -8.599    -8.038  0.7973 -0.5670  0.2071
    12 H(1)   Bbb    -0.0117    -6.265    -2.235    -2.090  0.6005  0.7098 -0.3682
              Bcc     0.0569    30.363    10.834    10.128  0.0618  0.4179  0.9064
 
              Baa    -0.0088    -4.670    -1.667    -1.558 -0.2043  0.3003  0.9317
    13 H(1)   Bbb    -0.0058    -3.070    -1.096    -1.024  0.7871  0.6162 -0.0260
              Bcc     0.0145     7.741     2.762     2.582 -0.5820  0.7281 -0.3623
 
              Baa    -0.0089    -4.767    -1.701    -1.590  0.8221 -0.5137 -0.2454
    14 H(1)   Bbb    -0.0059    -3.147    -1.123    -1.050  0.5574  0.8139  0.1637
              Bcc     0.0148     7.914     2.824     2.640  0.1157 -0.2714  0.9555
 
              Baa    -0.0085    -4.527    -1.615    -1.510 -0.5089  0.5335  0.6756
    15 H(1)   Bbb    -0.0021    -1.138    -0.406    -0.379  0.8173  0.0531  0.5737
              Bcc     0.0106     5.665     2.021     1.890  0.2702  0.8441 -0.4630
 

 ---------------------------------------------------------------------------------

 Calling FoFJK, ICntrl=    100127 FMM=F ISym2X=0 I1Cent= 0 IOpClX= 1 NMat=1 NMatS=1 NMatT=0.
 Full mass-weighted force constant matrix:
 Low frequencies ----1661.2405   -0.0006   -0.0003    0.0007    4.4154   17.0725
 Low frequencies ---   29.0408   58.3497   84.1624
 ******    1 imaginary frequencies (negative Signs) ****** 
 Diagonal vibrational polarizability:
       31.2128826      25.2197988      97.0458841
 Harmonic frequencies (cm**-1), IR intensities (KM/Mole), Raman scattering
 activities (A**4/AMU), depolarization ratios for plane and unpolarized
 incident light, reduced masses (AMU), force constants (mDyne/A),
 and normal coordinates:
                      1                      2                      3
                      A                      A                      A
 Frequencies --  -1661.2405                56.4132                83.2689
 Red. masses --      1.0781                 6.6829                 4.4022
 Frc consts  --      1.7530                 0.0125                 0.0180
 IR Inten    --    569.5079                 4.3699                 1.1047
  Atom  AN      X      Y      Z        X      Y      Z        X      Y      Z
     1   8    -0.02  -0.03  -0.00     0.07   0.04   0.21    -0.18   0.09   0.00
     2   1     0.05   0.04  -0.00     0.06   0.05   0.17    -0.20  -0.00   0.13
     3   6     0.00  -0.00   0.00    -0.01   0.02  -0.09     0.04   0.18  -0.21
     4   1     0.00   0.00   0.00    -0.02   0.03  -0.16     0.07   0.29  -0.37
     5   6     0.00   0.00  -0.00     0.00  -0.00  -0.01     0.01   0.05  -0.03
     6   6    -0.01   0.00  -0.00     0.02  -0.03   0.08    -0.01  -0.04   0.10
     7   8     0.00   0.00   0.00     0.04  -0.15   0.38    -0.03  -0.02   0.06
     8   8     0.01  -0.00  -0.00     0.00   0.12  -0.23     0.01  -0.11   0.21
     9   6    -0.05  -0.05   0.01     0.01   0.08  -0.16    -0.00  -0.02   0.01
    10   6     0.01   0.01  -0.00    -0.14  -0.08  -0.23     0.20  -0.11  -0.15
    11   1     0.50   0.86   0.04     0.06   0.06   0.11    -0.10   0.05  -0.01
    12   1     0.05   0.07  -0.04     0.12   0.23  -0.22    -0.11   0.06  -0.03
    13   1     0.00  -0.00  -0.00    -0.11  -0.04  -0.16     0.18  -0.04  -0.34
    14   1    -0.00  -0.00   0.01    -0.26  -0.21  -0.14     0.32  -0.21  -0.11
    15   1    -0.01   0.00  -0.00    -0.15  -0.10  -0.44     0.25  -0.15  -0.13
                      4                      5                      6
                      A                      A                      A
 Frequencies --    115.8205               161.4259               187.8015
 Red. masses --      4.8380                 3.5040                 1.5819
 Frc consts  --      0.0382                 0.0538                 0.0329
 IR Inten    --      1.7442                 4.1954                 3.4572
  Atom  AN      X      Y      Z        X      Y      Z        X      Y      Z
     1   8     0.23  -0.09  -0.09     0.15  -0.09   0.13    -0.09  -0.04   0.05
     2   1     0.33   0.04  -0.03     0.25  -0.02   0.33    -0.13  -0.15   0.16
     3   6    -0.26  -0.20  -0.16    -0.01   0.06   0.00    -0.04  -0.06  -0.01
     4   1    -0.41  -0.37  -0.30     0.04   0.13   0.02    -0.10  -0.16  -0.01
     5   6    -0.08   0.01   0.03    -0.07  -0.03  -0.01     0.04   0.06  -0.00
     6   6    -0.00   0.09   0.10    -0.09  -0.07  -0.02     0.03   0.05  -0.00
     7   8     0.03   0.11   0.04    -0.11  -0.07  -0.01    -0.02   0.04   0.03
     8   8    -0.01   0.07   0.18    -0.08  -0.06  -0.04     0.06   0.02  -0.05
     9   6    -0.04   0.07   0.03    -0.05   0.03  -0.08     0.02  -0.06  -0.05
    10   6     0.04  -0.05  -0.10     0.20   0.23  -0.02     0.04   0.01   0.01
    11   1     0.06  -0.02  -0.03    -0.05  -0.01  -0.09     0.01  -0.06  -0.07
    12   1    -0.15   0.14   0.00    -0.10  -0.07  -0.03    -0.03  -0.13  -0.01
    13   1    -0.02  -0.08  -0.26     0.22   0.33  -0.11    -0.18  -0.37  -0.21
    14   1     0.19  -0.14  -0.06     0.28   0.38  -0.11     0.52   0.19  -0.12
    15   1     0.00  -0.02  -0.09     0.33   0.15   0.21    -0.22   0.28   0.41
                      7                      8                      9
                      A                      A                      A
 Frequencies --    209.1512               219.8543               272.3041
 Red. masses --      1.5893                 1.2324                 4.8489
 Frc consts  --      0.0410                 0.0351                 0.2118
 IR Inten    --     17.6526                82.9801                 2.1073
  Atom  AN      X      Y      Z        X      Y      Z        X      Y      Z
     1   8    -0.06  -0.03  -0.01     0.00   0.01  -0.07    -0.03  -0.03   0.02
     2   1    -0.02  -0.17   0.43     0.19  -0.15   0.93    -0.07  -0.07  -0.04
     3   6    -0.06  -0.06  -0.01     0.03   0.02  -0.00     0.00   0.05  -0.20
     4   1    -0.13  -0.18  -0.01     0.06   0.07  -0.00    -0.04   0.21  -0.68
     5   6     0.04   0.09  -0.00    -0.01  -0.04  -0.00     0.05  -0.16   0.45
     6   6     0.02   0.06  -0.00     0.00  -0.02   0.00     0.03  -0.04   0.13
     7   8    -0.06   0.05   0.03     0.05  -0.02  -0.01    -0.01   0.06  -0.12
     8   8     0.06  -0.01  -0.04    -0.02   0.01   0.02     0.04   0.01  -0.08
     9   6     0.04  -0.06  -0.02    -0.02   0.02   0.01     0.02  -0.02  -0.09
    10   6     0.06   0.00   0.02    -0.05  -0.00   0.00    -0.07   0.07   0.02
    11   1     0.01  -0.05  -0.07    -0.02   0.03  -0.08     0.03  -0.03  -0.06
    12   1     0.03  -0.11  -0.00    -0.02   0.03   0.01     0.02  -0.06  -0.07
    13   1     0.27   0.37   0.26    -0.10  -0.09  -0.02    -0.03   0.06   0.18
    14   1    -0.39  -0.05   0.08     0.02  -0.01   0.00    -0.20   0.17  -0.03
    15   1     0.32  -0.26  -0.24    -0.13   0.06   0.03    -0.07   0.07   0.02
                     10                     11                     12
                      A                      A                      A
 Frequencies --    286.6801               427.2450               530.9721
 Red. masses --      5.1516                 3.6030                 5.1316
 Frc consts  --      0.2495                 0.3875                 0.8524
 IR Inten    --      8.1860                 5.8227                 3.4158
  Atom  AN      X      Y      Z        X      Y      Z        X      Y      Z
     1   8    -0.16  -0.27   0.05     0.01   0.01   0.03    -0.09  -0.17  -0.03
     2   1    -0.24  -0.29  -0.21    -0.00   0.03  -0.06    -0.03  -0.11   0.01
     3   6     0.05   0.05   0.03     0.07  -0.08  -0.01     0.17  -0.13  -0.06
     4   1     0.12   0.14   0.09     0.00  -0.21   0.03     0.06  -0.29  -0.14
     5   6    -0.06  -0.07  -0.06     0.15   0.10  -0.08     0.29   0.06   0.04
     6   6     0.05   0.06   0.02     0.05  -0.04   0.05     0.03  -0.06  -0.05
     7   8     0.31   0.04   0.02    -0.04  -0.02   0.01    -0.16  -0.06  -0.02
     8   8    -0.04   0.15   0.07     0.04  -0.13   0.20    -0.09   0.11  -0.01
     9   6    -0.16  -0.02  -0.06    -0.02   0.02  -0.18    -0.07   0.25   0.20
    10   6     0.00   0.09  -0.06    -0.17   0.16  -0.07    -0.00   0.05  -0.03
    11   1    -0.06  -0.19  -0.15    -0.02   0.03  -0.15    -0.03  -0.02   0.16
    12   1    -0.37  -0.09  -0.02    -0.22   0.01  -0.17     0.15   0.41   0.12
    13   1     0.13   0.37  -0.03    -0.15   0.01   0.31    -0.05   0.12  -0.37
    14   1    -0.16   0.13  -0.08    -0.42   0.38  -0.18     0.20  -0.26   0.13
    15   1     0.24  -0.11  -0.07    -0.30   0.27  -0.05     0.04  -0.00  -0.17
                     13                     14                     15
                      A                      A                      A
 Frequencies --    592.0191               625.0971               745.2942
 Red. masses --      3.7557                 4.4692                 1.3137
 Frc consts  --      0.7756                 1.0289                 0.4299
 IR Inten    --     14.4651                 0.6458                39.4062
  Atom  AN      X      Y      Z        X      Y      Z        X      Y      Z
     1   8    -0.05  -0.11  -0.01    -0.05  -0.11  -0.02    -0.00  -0.00  -0.00
     2   1    -0.20  -0.34  -0.03    -0.05  -0.13  -0.00     0.01   0.01   0.00
     3   6    -0.00   0.02   0.01    -0.20   0.11   0.05    -0.08  -0.12  -0.03
     4   1     0.18   0.26   0.12    -0.33  -0.06  -0.00     0.55   0.79   0.21
     5   6    -0.18  -0.21  -0.11    -0.04   0.26   0.10     0.04   0.06   0.02
     6   6     0.04   0.03   0.04    -0.06  -0.09  -0.02    -0.00  -0.00  -0.00
     7   8    -0.15   0.06   0.02     0.19  -0.10  -0.05     0.01  -0.00  -0.00
     8   8     0.11   0.02   0.06    -0.03  -0.16  -0.03    -0.00  -0.00  -0.00
     9   6     0.23   0.14  -0.01     0.15   0.14   0.02    -0.01   0.00   0.00
    10   6     0.01   0.05  -0.03     0.01   0.05  -0.02    -0.00   0.00  -0.00
    11   1     0.25  -0.04   0.03     0.06  -0.01   0.18    -0.01  -0.00   0.01
    12   1     0.35   0.32  -0.09     0.52   0.41  -0.11     0.00   0.00   0.00
    13   1    -0.03  -0.16   0.18    -0.04  -0.11   0.08    -0.00   0.01  -0.01
    14   1    -0.11   0.01   0.01    -0.04  -0.01   0.02     0.00  -0.00   0.00
    15   1    -0.21   0.21  -0.20    -0.16   0.18  -0.14     0.00  -0.00   0.00
                     16                     17                     18
                      A                      A                      A
 Frequencies --    773.0291               779.9268               796.1769
 Red. masses --      3.1180                 1.6991                 1.2894
 Frc consts  --      1.0978                 0.6090                 0.4816
 IR Inten    --      1.8016                63.9308                95.6267
  Atom  AN      X      Y      Z        X      Y      Z        X      Y      Z
     1   8    -0.01  -0.01  -0.01    -0.01  -0.01  -0.00    -0.05  -0.05  -0.01
     2   1     0.07   0.10   0.02     0.06   0.09   0.02     0.35   0.57   0.06
     3   6     0.02  -0.05   0.15    -0.00   0.04  -0.12     0.02  -0.01  -0.00
     4   1    -0.06   0.25  -0.82     0.08  -0.30   0.89     0.03   0.01  -0.05
     5   6    -0.00   0.06  -0.18     0.00   0.01  -0.02    -0.00  -0.04   0.00
     6   6     0.01  -0.12   0.31     0.01  -0.07   0.18     0.01   0.07  -0.04
     7   8    -0.00   0.05  -0.09     0.00   0.03  -0.05     0.01   0.05   0.04
     8   8    -0.00   0.03  -0.08    -0.00   0.02  -0.04     0.00  -0.05  -0.01
     9   6    -0.01  -0.01  -0.00    -0.01  -0.01  -0.00    -0.02  -0.02  -0.01
    10   6    -0.00  -0.01   0.01    -0.00  -0.01   0.00    -0.01  -0.01  -0.01
    11   1    -0.06  -0.00   0.11    -0.06   0.00   0.08    -0.36   0.03   0.34
    12   1     0.12   0.10  -0.06     0.08   0.08  -0.04     0.27   0.32  -0.16
    13   1     0.01   0.04  -0.02     0.01   0.03  -0.01     0.03   0.05   0.05
    14   1     0.03   0.04  -0.03     0.02   0.03  -0.02    -0.01   0.16  -0.10
    15   1     0.07  -0.06   0.10     0.04  -0.04   0.07     0.05  -0.04   0.18
                     19                     20                     21
                      A                      A                      A
 Frequencies --    834.1248               897.9615               955.2162
 Red. masses --      1.1316                 2.7370                 3.9152
 Frc consts  --      0.4639                 1.3003                 2.1048
 IR Inten    --     29.5116                16.2339                 1.7596
  Atom  AN      X      Y      Z        X      Y      Z        X      Y      Z
     1   8    -0.03  -0.04   0.02    -0.03  -0.03   0.01    -0.02  -0.00  -0.00
     2   1     0.25   0.43   0.00     0.18   0.31   0.02     0.17   0.28   0.03
     3   6    -0.01   0.01   0.00    -0.03   0.01   0.01    -0.13   0.08   0.04
     4   1    -0.01   0.01   0.01    -0.04   0.00  -0.00    -0.14   0.09   0.04
     5   6    -0.01  -0.00  -0.01     0.01   0.05   0.02    -0.08   0.04   0.02
     6   6     0.02  -0.00   0.02    -0.01  -0.07  -0.04     0.16  -0.11  -0.06
     7   8     0.00   0.01  -0.00    -0.04  -0.11  -0.04    -0.07  -0.16  -0.06
     8   8     0.01  -0.02  -0.02    -0.05   0.21   0.07     0.25   0.11   0.06
     9   6     0.04   0.03   0.01     0.09   0.00  -0.11    -0.03  -0.05   0.08
    10   6     0.03   0.05   0.01     0.11  -0.13   0.04    -0.14   0.06  -0.06
    11   1    -0.26   0.18  -0.31    -0.12   0.11  -0.11    -0.08  -0.06   0.17
    12   1    -0.17  -0.40   0.20    -0.21   0.15  -0.16    -0.05  -0.11   0.11
    13   1    -0.07  -0.15  -0.05     0.16  -0.33   0.58    -0.08   0.43  -0.46
    14   1    -0.01  -0.27   0.18    -0.18   0.20  -0.11     0.15   0.10  -0.11
    15   1    -0.16   0.15  -0.38    -0.07   0.05   0.19     0.22  -0.22   0.17
                     22                     23                     24
                      A                      A                      A
 Frequencies --   1077.8450              1109.8395              1130.3862
 Red. masses --      1.4657                 2.6161                 2.1150
 Frc consts  --      1.0032                 1.8985                 1.5923
 IR Inten    --     53.1654                95.4172                32.9230
  Atom  AN      X      Y      Z        X      Y      Z        X      Y      Z
     1   8    -0.00   0.01  -0.02    -0.00  -0.01   0.01     0.01   0.01   0.01
     2   1     0.01  -0.00   0.05     0.03   0.07  -0.02    -0.03  -0.05  -0.02
     3   6     0.01  -0.01  -0.00     0.03  -0.02  -0.01    -0.00   0.00   0.00
     4   1     0.01  -0.01  -0.00     0.03  -0.03  -0.01    -0.00   0.00  -0.00
     5   6     0.01   0.01   0.00     0.03   0.01   0.00    -0.00  -0.00   0.00
     6   6    -0.03  -0.00   0.00    -0.06   0.02   0.00    -0.00  -0.01   0.01
     7   8    -0.00  -0.01  -0.01     0.01   0.01   0.01     0.00   0.01   0.00
     8   8    -0.04   0.06   0.02    -0.14   0.06   0.05     0.04  -0.01  -0.05
     9   6     0.02  -0.13   0.02     0.25  -0.14   0.05    -0.06  -0.04   0.24
    10   6     0.05   0.09  -0.06    -0.12   0.03  -0.08     0.06  -0.01  -0.17
    11   1     0.11  -0.17   0.79    -0.06   0.14  -0.47    -0.12  -0.00  -0.33
    12   1     0.06  -0.23   0.07     0.45  -0.23   0.08    -0.05   0.07   0.20
    13   1    -0.05  -0.15  -0.01    -0.03   0.33  -0.29     0.11  -0.14   0.35
    14   1    -0.12  -0.05   0.03     0.11   0.21  -0.20    -0.37   0.41  -0.37
    15   1    -0.17   0.23  -0.33     0.14  -0.16   0.12    -0.23   0.26   0.07
                     25                     26                     27
                      A                      A                      A
 Frequencies --   1197.4987              1265.3139              1367.5933
 Red. masses --      1.4327                 8.1407                 1.2353
 Frc consts  --      1.2104                 7.6791                 1.3612
 IR Inten    --     92.6429               755.7001                 6.0870
  Atom  AN      X      Y      Z        X      Y      Z        X      Y      Z
     1   8     0.02   0.02   0.01     0.02   0.01  -0.00     0.00   0.00  -0.00
     2   1    -0.07  -0.10  -0.03    -0.09  -0.16  -0.01    -0.02  -0.04  -0.00
     3   6    -0.00  -0.00  -0.00    -0.12   0.07   0.03    -0.01   0.01   0.00
     4   1    -0.00  -0.00  -0.00    -0.11   0.12   0.05    -0.01   0.01   0.01
     5   6     0.00   0.00   0.00    -0.04   0.00   0.00    -0.00   0.00  -0.00
     6   6    -0.01  -0.01  -0.01     0.67   0.03   0.00     0.06  -0.01  -0.01
     7   8    -0.00  -0.02  -0.01    -0.07   0.01   0.00    -0.01   0.00   0.00
     8   8     0.03   0.05   0.03    -0.33  -0.07  -0.04    -0.02   0.01   0.02
     9   6    -0.09  -0.12  -0.01     0.03  -0.11   0.03    -0.07   0.06  -0.04
    10   6     0.04   0.07   0.04     0.03   0.02   0.02     0.00   0.01  -0.07
    11   1    -0.26  -0.04  -0.41     0.02   0.05  -0.07    -0.01   0.02   0.01
    12   1     0.51   0.43  -0.27    -0.29   0.40  -0.16     0.61  -0.47   0.16
    13   1    -0.09  -0.15  -0.09    -0.02  -0.04  -0.05     0.02  -0.18   0.31
    14   1    -0.04  -0.21   0.19    -0.04   0.01   0.02    -0.04  -0.25   0.09
    15   1    -0.06   0.10  -0.25    -0.09   0.10  -0.18     0.14  -0.06   0.36
                     28                     29                     30
                      A                      A                      A
 Frequencies --   1409.0280              1479.7270              1481.2430
 Red. masses --      1.3292                 1.0424                 1.0484
 Frc consts  --      1.5548                 1.3447                 1.3553
 IR Inten    --     17.4837                10.6133                 2.3877
  Atom  AN      X      Y      Z        X      Y      Z        X      Y      Z
     1   8     0.00  -0.00  -0.00     0.00   0.00   0.00     0.00   0.00  -0.00
     2   1    -0.02  -0.04  -0.00    -0.00  -0.00  -0.00    -0.02  -0.03  -0.00
     3   6    -0.01   0.00   0.00     0.00  -0.00  -0.00    -0.00   0.00   0.00
     4   1    -0.01   0.01   0.00     0.00  -0.00  -0.00    -0.00   0.00   0.00
     5   6    -0.00   0.00  -0.00     0.00   0.00   0.00    -0.00  -0.00   0.00
     6   6     0.03  -0.00  -0.00    -0.01   0.00   0.00     0.01   0.00  -0.00
     7   8    -0.00  -0.00  -0.00     0.00  -0.00  -0.00    -0.00  -0.00  -0.00
     8   8    -0.00   0.01   0.02     0.00   0.00   0.00     0.00   0.00   0.00
     9   6    -0.06   0.05  -0.04     0.01  -0.03  -0.01    -0.03  -0.01   0.01
    10   6     0.05  -0.11   0.08    -0.00  -0.02  -0.04    -0.05  -0.00  -0.00
    11   1    -0.02   0.03   0.02    -0.03  -0.00   0.00    -0.05   0.01   0.02
    12   1     0.40  -0.29   0.08    -0.07   0.07  -0.05     0.07  -0.02   0.02
    13   1     0.11   0.31  -0.34     0.27   0.55   0.15     0.12   0.07   0.51
    14   1    -0.12   0.42  -0.21     0.14  -0.40   0.18     0.68   0.14  -0.14
    15   1    -0.36   0.21  -0.28    -0.41   0.37   0.27     0.01  -0.09  -0.45
                     31                     32                     33
                      A                      A                      A
 Frequencies --   1592.5874              1846.4297              2269.5868
 Red. masses --      1.0439                12.7649                 5.7424
 Frc consts  --      1.5600                25.6410                17.4275
 IR Inten    --     40.5719               338.2096                85.1370
  Atom  AN      X      Y      Z        X      Y      Z        X      Y      Z
     1   8    -0.04   0.01   0.01     0.00  -0.00   0.00    -0.00  -0.00   0.00
     2   1     0.21   0.37   0.03    -0.01  -0.01  -0.00     0.00   0.00  -0.00
     3   6     0.00   0.00  -0.00     0.07  -0.04  -0.02    -0.31   0.19   0.09
     4   1     0.00   0.00  -0.00     0.11  -0.04  -0.02    -0.62   0.39   0.18
     5   6    -0.00   0.00   0.00    -0.04   0.01   0.01     0.44  -0.27  -0.12
     6   6     0.00  -0.00  -0.00    -0.01   0.75   0.32    -0.07   0.06   0.03
     7   8     0.00   0.00   0.00    -0.01  -0.50  -0.21     0.00  -0.01  -0.00
     8   8    -0.01  -0.00   0.00    -0.01  -0.05  -0.02    -0.01  -0.00  -0.00
     9   6    -0.03  -0.01   0.01    -0.02   0.03   0.01     0.00  -0.00   0.00
    10   6     0.01   0.00   0.00     0.01  -0.00  -0.01    -0.00   0.00  -0.00
    11   1     0.71  -0.48  -0.24     0.04  -0.00  -0.02     0.00  -0.00  -0.00
    12   1     0.10   0.05  -0.03     0.10  -0.03   0.04    -0.00   0.00  -0.00
    13   1     0.01   0.01   0.02    -0.01  -0.06   0.03    -0.00  -0.00  -0.00
    14   1     0.02  -0.00   0.00    -0.03   0.01  -0.01    -0.00  -0.00   0.00
    15   1    -0.03   0.03  -0.05     0.04  -0.02   0.04     0.00  -0.00   0.00
                     34                     35                     36
                      A                      A                      A
 Frequencies --   3054.8942              3134.2176              3141.7452
 Red. masses --      1.0395                 1.0936                 1.0888
 Frc consts  --      5.7156                 6.3293                 6.3322
 IR Inten    --      0.6728                 3.4710                 6.7655
  Atom  AN      X      Y      Z        X      Y      Z        X      Y      Z
     1   8    -0.00  -0.00  -0.00    -0.00  -0.00  -0.00     0.00   0.00   0.00
     2   1     0.00   0.00   0.00    -0.00  -0.00  -0.00    -0.00   0.00   0.00
     3   6    -0.00   0.00  -0.00     0.00  -0.00  -0.00    -0.00  -0.00   0.00
     4   1     0.00  -0.00  -0.00    -0.00   0.00  -0.00    -0.00  -0.00   0.00
     5   6     0.00   0.00   0.00    -0.00   0.00   0.00     0.00   0.00  -0.00
     6   6    -0.00  -0.00  -0.00     0.00   0.00   0.00    -0.00  -0.00  -0.00
     7   8    -0.00   0.00  -0.00    -0.00  -0.00  -0.00    -0.00   0.00   0.00
     8   8     0.00   0.00   0.00    -0.00   0.00  -0.00     0.00  -0.00   0.00
     9   6    -0.00  -0.00   0.00     0.00   0.01   0.04    -0.00  -0.03  -0.07
    10   6    -0.01  -0.04   0.03    -0.06  -0.04  -0.03    -0.05  -0.01   0.00
    11   1     0.00   0.01   0.00     0.00   0.01   0.00    -0.00  -0.00  -0.01
    12   1     0.00  -0.00  -0.00    -0.02  -0.17  -0.41     0.03   0.33   0.78
    13   1    -0.37   0.14   0.09     0.34  -0.16  -0.09     0.38  -0.16  -0.10
    14   1    -0.03  -0.22  -0.38     0.03   0.30   0.54    -0.00   0.05   0.11
    15   1     0.52   0.60  -0.07     0.33   0.39  -0.05     0.17   0.21  -0.02
                     37                     38                     39
                      A                      A                      A
 Frequencies --   3166.8116              3488.4564              3837.7641
 Red. masses --      1.1022                 1.1715                 1.0663
 Frc consts  --      6.5127                 8.3993                 9.2527
 IR Inten    --      6.2417                63.2735                49.7967
  Atom  AN      X      Y      Z        X      Y      Z        X      Y      Z
     1   8    -0.00  -0.00  -0.00     0.00  -0.00  -0.00    -0.05   0.03   0.01
     2   1     0.00  -0.00   0.00    -0.00  -0.00   0.00     0.82  -0.51  -0.24
     3   6     0.00  -0.00  -0.00    -0.10   0.06   0.03    -0.00   0.00   0.00
     4   1     0.00   0.00   0.00     0.82  -0.51  -0.23     0.00  -0.00  -0.00
     5   6    -0.00   0.00   0.00     0.03  -0.02  -0.01    -0.00   0.00   0.00
     6   6     0.00   0.00   0.00    -0.00   0.00   0.00     0.00  -0.00   0.00
     7   8     0.00  -0.00  -0.00     0.00   0.00   0.00    -0.00   0.00  -0.00
     8   8     0.00  -0.00  -0.00     0.00  -0.00  -0.00    -0.00   0.00   0.00
     9   6     0.00   0.01   0.02    -0.00   0.00   0.00     0.00   0.00  -0.00
    10   6    -0.05   0.05   0.06     0.00  -0.00  -0.00    -0.00  -0.00  -0.00
    11   1     0.00   0.00   0.00     0.00   0.00   0.00    -0.02  -0.01   0.00
    12   1    -0.01  -0.10  -0.25     0.00  -0.00  -0.00    -0.00  -0.00   0.00
    13   1     0.64  -0.26  -0.15     0.00  -0.00   0.00     0.00   0.00  -0.00
    14   1    -0.05  -0.31  -0.56    -0.00   0.00   0.00     0.00   0.00   0.00
    15   1    -0.01   0.01   0.01    -0.00   0.00  -0.00     0.00  -0.00   0.00

 -------------------
 - Thermochemistry -
 -------------------
 Temperature   298.150 Kelvin.  Pressure   1.00000 Atm.
 Atom     1 has atomic number  8 and mass  15.99491
 Atom     2 has atomic number  1 and mass   1.00783
 Atom     3 has atomic number  6 and mass  12.00000
 Atom     4 has atomic number  1 and mass   1.00783
 Atom     5 has atomic number  6 and mass  12.00000
 Atom     6 has atomic number  6 and mass  12.00000
 Atom     7 has atomic number  8 and mass  15.99491
 Atom     8 has atomic number  8 and mass  15.99491
 Atom     9 has atomic number  6 and mass  12.00000
 Atom    10 has atomic number  6 and mass  12.00000
 Atom    11 has atomic number  1 and mass   1.00783
 Atom    12 has atomic number  1 and mass   1.00783
 Atom    13 has atomic number  1 and mass   1.00783
 Atom    14 has atomic number  1 and mass   1.00783
 Atom    15 has atomic number  1 and mass   1.00783
 Molecular mass:   115.03952 amu.
 Principal axes and moments of inertia in atomic units:
                           1         2         3
     Eigenvalues --   594.198911597.186302000.01279
           X            0.99934  -0.03626   0.00270
           Y            0.03631   0.99910  -0.02198
           Z           -0.00190   0.02207   0.99975
 This molecule is an asymmetric top.
 Rotational symmetry number  1.
 Warning -- assumption of classical behavior for rotation
           may cause significant error
 Rotational temperatures (Kelvin)      0.14577     0.05423     0.04331
 Rotational constants (GHZ):           3.03727     1.12995     0.90236
    1 imaginary frequencies ignored.
 Zero-point vibrational energy     278734.4 (Joules/Mol)
                                   66.61912 (Kcal/Mol)
 Warning -- explicit consideration of  12 degrees of freedom as
           vibrations may cause significant error
 Vibrational temperatures:     81.17   119.81   166.64   232.26   270.20
          (Kelvin)            300.92   316.32   391.78   412.47   614.71
                              763.95   851.78   899.38  1072.31  1112.22
                             1122.14  1145.52  1200.12  1291.97  1374.34
                             1550.78  1596.81  1626.37  1722.93  1820.50
                             1967.66  2027.28  2129.00  2131.18  2291.38
                             2656.60  3265.43  4395.31  4509.44  4520.27
                             4556.34  5019.11  5521.69
 
 Zero-point correction=                           0.106164 (Hartree/Particle)
 Thermal correction to Energy=                    0.115909
 Thermal correction to Enthalpy=                  0.116853
 Thermal correction to Gibbs Free Energy=         0.070297
 Sum of electronic and zero-point Energies=           -420.097665
 Sum of electronic and thermal Energies=              -420.087921
 Sum of electronic and thermal Enthalpies=            -420.086977
 Sum of electronic and thermal Free Energies=         -420.133532
 
                     E (Thermal)             CV                S
                      KCal/Mol        Cal/Mol-Kelvin    Cal/Mol-Kelvin
 Total                   72.734             33.231             97.984
 Electronic               0.000              0.000              1.377
 Translational            0.889              2.981             40.136
 Rotational               0.889              2.981             29.030
 Vibrational             70.956             27.269             27.441
 Vibration     1          0.596              1.975              4.579
 Vibration     2          0.600              1.961              3.812
 Vibration     3          0.608              1.936              3.169
 Vibration     4          0.622              1.890              2.533
 Vibration     5          0.632              1.857              2.249
 Vibration     6          0.642              1.827              2.051
 Vibration     7          0.647              1.811              1.960
 Vibration     8          0.675              1.724              1.582
 Vibration     9          0.684              1.698              1.493
 Vibration    10          0.789              1.411              0.868
 Vibration    11          0.886              1.181              0.585
 Vibration    12          0.949              1.049              0.464
                       Q            Log10(Q)             Ln(Q)
 Total Bot       0.462910D-32        -32.334503        -74.452945
 Total V=0       0.314522D+17         16.497651         37.987246
 Vib (Bot)       0.967691D-46        -46.014263       -105.951756
 Vib (Bot)    1  0.366201D+01          0.563720          1.298013
 Vib (Bot)    2  0.247196D+01          0.393041          0.905010
 Vib (Bot)    3  0.176611D+01          0.247018          0.568779
 Vib (Bot)    4  0.125182D+01          0.097542          0.224599
 Vib (Bot)    5  0.106655D+01          0.027980          0.064427
 Vib (Bot)    6  0.949951D+00         -0.022299         -0.051345
 Vib (Bot)    7  0.899757D+00         -0.045875         -0.105630
 Vib (Bot)    8  0.708890D+00         -0.149421         -0.344056
 Vib (Bot)    9  0.668263D+00         -0.175053         -0.403074
 Vib (Bot)   10  0.408694D+00         -0.388602         -0.894789
 Vib (Bot)   11  0.300927D+00         -0.521539         -1.200888
 Vib (Bot)   12  0.254289D+00         -0.594673         -1.369285
 Vib (V=0)       0.657493D+03          2.817891          6.488434
 Vib (V=0)    1  0.419599D+01          0.622835          1.434129
 Vib (V=0)    2  0.302202D+01          0.480297          1.105924
 Vib (V=0)    3  0.233552D+01          0.368384          0.848236
 Vib (V=0)    4  0.184798D+01          0.266698          0.614094
 Vib (V=0)    5  0.167793D+01          0.224774          0.517562
 Vib (V=0)    6  0.157350D+01          0.196867          0.453304
 Vib (V=0)    7  0.152935D+01          0.184507          0.424843
 Vib (V=0)    8  0.136748D+01          0.135922          0.312971
 Vib (V=0)    9  0.133461D+01          0.125355          0.288640
 Vib (V=0)   10  0.114578D+01          0.059101          0.136085
 Vib (V=0)   11  0.108357D+01          0.034858          0.080264
 Vib (V=0)   12  0.106095D+01          0.025694          0.059163
 Electronic      0.200000D+01          0.301030          0.693147
 Translational   0.484981D+08          7.685724         17.697035
 Rotational      0.493180D+06          5.693006         13.108630
 ***** Axes restored to original set *****
 -------------------------------------------------------------------
 Center     Atomic                   Forces (Hartrees/Bohr)
 Number     Number              X              Y              Z
 -------------------------------------------------------------------
      1        8          -0.011806492   -0.023975156   -0.002251257
      2        1           0.001458409    0.000831683   -0.000155248
      3        6           0.000170495   -0.000089787   -0.000020087
      4        1           0.000014627    0.000013180    0.000004585
      5        6           0.000236801    0.000029130   -0.000093709
      6        6          -0.002113620   -0.000089912   -0.001016094
      7        8           0.000390388    0.000212865    0.000195837
      8        8           0.005534795   -0.001022238   -0.000077504
      9        6          -0.013386056   -0.010860471    0.004116864
     10        6           0.003020877    0.004655862   -0.001116487
     11        1           0.014491489    0.026868262    0.002097987
     12        1           0.002413226    0.003166873   -0.001413537
     13        1           0.000044270   -0.000024421   -0.000030952
     14        1          -0.000127315   -0.000104024    0.000243279
     15        1          -0.000341894    0.000388155   -0.000483676
 -------------------------------------------------------------------
 Cartesian Forces:  Max     0.026868262 RMS     0.006766797

 GradGradGradGradGradGradGradGradGradGradGradGradGradGradGradGradGradGrad
 Berny optimization.
 Search for a local minimum.
 Step number   1 out of a maximum of    2
 All quantities printed in internal units (Hartrees-Bohrs-Radians)
 Second derivative matrix not updated -- analytic derivatives used.
 ITU=  0
     Eigenvalues ---   -0.15226   0.00086   0.00114   0.00164   0.00198
     Eigenvalues ---    0.00292   0.00643   0.00824   0.01521   0.02050
     Eigenvalues ---    0.02606   0.03204   0.04211   0.05329   0.05499
     Eigenvalues ---    0.06987   0.07507   0.08717   0.09081   0.10122
     Eigenvalues ---    0.10771   0.12585   0.14874   0.16648   0.18725
     Eigenvalues ---    0.25649   0.28738   0.34687   0.45510   0.49777
     Eigenvalues ---    0.65487   0.71199   0.76733   0.80196   0.84532
     Eigenvalues ---    0.89749   0.98863   1.74415   2.73805
 Eigenvalue     1 is  -1.52D-01 should be greater than     0.000000 Eigenvector:
                          Y11       X11       Y1        Y9        X9
   1                    0.79251   0.42667  -0.23926  -0.21726  -0.19021
                          X1        Z12       X15       X8        Y13
   1                   -0.15640  -0.05849   0.04201   0.04147   0.03947
 Quadratic step=4.069D-01 exceeds max=3.000D-01 adjusted using Lamda=-1.270D-02.
 Angle between NR and scaled steps=  27.27 degrees.
 Angle between quadratic step and forces=  24.24 degrees.
 Linear search not attempted -- first point.
 B after Tr=    -0.006217   -0.011334    0.000902
         Rot=    0.999999    0.000874   -0.000156    0.001064 Ang=   0.16 deg.
 Variable       Old X    -DE/DX   Delta X   Delta X   Delta X     New X
                                 (Linear)    (Quad)   (Total)
    X1        5.09331  -0.01181   0.00000  -0.08252  -0.08224   5.01107
    Y1        3.28639  -0.02398   0.00000  -0.16229  -0.18506   3.10132
    Z1       -0.43422  -0.00225   0.00000  -0.00411  -0.01021  -0.44443
    X2        3.57443   0.00146   0.00000   0.00683   0.00949   3.58392
    Y2        4.20696   0.00083   0.00000  -0.02572  -0.04470   4.16227
    Z2        0.00246  -0.00016   0.00000  -0.00729  -0.01481  -0.01235
    X3       -5.92283   0.00017   0.00000   0.00165  -0.00023  -5.92306
    Y3        1.92740  -0.00009   0.00000  -0.00867  -0.00602   1.92139
    Z3        0.79825  -0.00002   0.00000   0.00132   0.00070   0.79895
    X4       -7.58687   0.00001   0.00000  -0.00038   0.00009  -7.58677
    Y4        2.95939   0.00001   0.00000  -0.01170  -0.00469   2.95470
    Z4        1.26466   0.00000   0.00000   0.00132  -0.00059   1.26407
    X5       -4.05261   0.00024   0.00000   0.00551   0.00102  -4.05159
    Y5        0.76516   0.00003   0.00000   0.00145  -0.00081   0.76435
    Z5        0.27340  -0.00009   0.00000  -0.00337  -0.00255   0.27084
    X6       -1.84599  -0.00211   0.00000   0.00836   0.00053  -1.84546
    Y6       -0.72587  -0.00009   0.00000   0.02350   0.01537  -0.71049
    Z6       -0.39603  -0.00102   0.00000  -0.00513  -0.00243  -0.39846
    X7       -1.92712   0.00039   0.00000   0.04509   0.03256  -1.89456
    Y7       -2.80831   0.00021   0.00000   0.02687   0.01731  -2.79100
    Z7       -1.27475   0.00020   0.00000  -0.01235  -0.00600  -1.28075
    X8        0.29616   0.00553   0.00000   0.01459   0.00962   0.30578
    Y8        0.54418  -0.00102   0.00000   0.02392   0.01213   0.55632
    Z8        0.10628  -0.00008   0.00000   0.01362   0.01343   0.11972
    X9        2.59086  -0.01339   0.00000  -0.07538  -0.08338   2.50748
    Y9       -0.71972  -0.01086   0.00000  -0.04659  -0.06410  -0.78382
    Z9       -0.49280   0.00412   0.00000   0.02196   0.02342  -0.46938
   X10        3.46445   0.00302   0.00000   0.02263   0.01176   3.47621
   Y10       -2.45607   0.00466   0.00000   0.04239   0.02639  -2.42968
   Z10        1.57577  -0.00112   0.00000  -0.00212   0.00192   1.57769
   X11        4.18225   0.01449   0.00000   0.07286   0.06942   4.25167
   Y11        1.24351   0.02687   0.00000   0.15754   0.13607   1.37958
   Z11       -0.64135   0.00210   0.00000   0.02501   0.02215  -0.61920
   X12        2.50589   0.00241   0.00000   0.02587   0.01575   2.52164
   Y12       -1.54260   0.00317   0.00000   0.06654   0.04564  -1.49696
   Z12       -2.37893  -0.00141   0.00000  -0.01578  -0.01308  -2.39201
   X13        5.31756   0.00004   0.00000   0.01701   0.00434   5.32190
   Y13       -3.22957  -0.00002   0.00000   0.04398   0.02322  -3.20635
   Z13        1.11464  -0.00003   0.00000  -0.01687  -0.01205   1.10259
   X14        3.58855  -0.00013   0.00000   0.01066   0.00247   3.59102
   Y14       -1.44242  -0.00010   0.00000   0.02371   0.01062  -1.43180
   Z14        3.36589   0.00024   0.00000   0.00624   0.00851   3.37440
   X15        2.12496  -0.00034   0.00000   0.02294   0.00878   2.13374
   Y15       -4.02163   0.00039   0.00000   0.03143   0.01861  -4.00302
   Z15        1.76929  -0.00048   0.00000  -0.01561  -0.00840   1.76089
         Item               Value     Threshold  Converged?
 Maximum Force            0.026868     0.000450     NO 
 RMS     Force            0.006767     0.000300     NO 
 Maximum Displacement     0.185065     0.001800     NO 
 RMS     Displacement     0.043643     0.001200     NO 
 Predicted change in Energy=-1.619185D-02
 GradGradGradGradGradGradGradGradGradGradGradGradGradGradGradGradGradGrad


 ----------------------------------------------------------------------

 Electric dipole moment (input orientation):
 (Debye = 10**-18 statcoulomb cm , SI units = C m)
                  (au)            (Debye)         (10**-30 SI)
   Tot        0.947538D+00      0.240840D+01      0.803356D+01
   x         -0.796856D+00     -0.202541D+01     -0.675602D+01
   y          0.277458D-01      0.705227D-01      0.235238D+00
   z          0.511937D+00      0.130121D+01      0.434038D+01

 Dipole polarizability, Alpha (input orientation).
 (esu units = cm**3 , SI units = C**2 m**2 J**-1)
 Alpha(0;0):
               (au)            (10**-24 esu)      (10**-40 SI)
   iso        0.758353D+02      0.112376D+02      0.125036D+02
   aniso      0.393185D+02      0.582640D+01      0.648275D+01
   xx         0.941033D+02      0.139447D+02      0.155155D+02
   yx        -0.231855D+01     -0.343574D+00     -0.382278D+00
   yy         0.818265D+02      0.121254D+02      0.134914D+02
   zx        -0.438545D+01     -0.649857D+00     -0.723063D+00
   zy         0.341318D+01      0.505781D+00      0.562758D+00
   zz         0.515762D+02      0.764281D+01      0.850377D+01

 ----------------------------------------------------------------------

 Dipole orientation:
     8          2.44203023          3.37870180         -4.42171247
     1          2.00251271          4.26169577         -2.88149055
     6         -2.50117056          1.80826441          5.46867272
     1         -2.99240689          2.79941198          7.15029157
     6         -1.94965156          0.69193843          3.57826055
     6         -1.34303564         -0.74337875          1.31720590
     8         -2.15918943         -2.80023022          0.84970376
     8          0.25825307          0.54550418         -0.17570280
     6          0.97529296         -0.66347244         -2.46617346
     6          3.15962247         -2.44545939         -2.13407704
     1          1.74244305          1.32846528         -3.82726411
     1         -0.67000551         -1.43201884         -3.43785226
     1          3.76168717         -3.17539821         -3.96428341
     1          4.74839440         -1.48280311         -1.24159074
     1          2.57289620         -4.03722482         -0.94888514

 Electric dipole moment (dipole orientation):
 (Debye = 10**-18 statcoulomb cm , SI units = C m)
                  (au)            (Debye)         (10**-30 SI)
   Tot        0.947538D+00      0.240840D+01      0.803356D+01
   x          0.000000D+00      0.000000D+00      0.000000D+00
   y          0.000000D+00      0.000000D+00      0.000000D+00
   z          0.947538D+00      0.240840D+01      0.803356D+01

 Dipole polarizability, Alpha (dipole orientation).
 (esu units = cm**3 , SI units = C**2 m**2 J**-1)
 Alpha(0;0):
               (au)            (10**-24 esu)      (10**-40 SI)
   iso        0.758353D+02      0.112376D+02      0.125036D+02
   aniso      0.393185D+02      0.582640D+01      0.648275D+01
   xx         0.600858D+02      0.890380D+01      0.990681D+01
   yx         0.247491D+01      0.366744D+00      0.408058D+00
   yy         0.815339D+02      0.120821D+02      0.134431D+02
   zx        -0.174004D+02     -0.257847D+01     -0.286893D+01
   zy         0.395543D+01      0.586135D+00      0.652163D+00
   zz         0.858863D+02      0.127270D+02      0.141607D+02

 ----------------------------------------------------------------------
 1\1\GINC-AJ\Freq\UM062X\6-311++G(d,p)\C5H7O3(2)\AAYUSH\16-Aug-2025\0\\
 # freq 6-311++g(d,p) m062x\\Title Card Required\\0,2\O,2.695263,1.7390
 81,-0.229778\H,1.891507,2.226229,0.0013\C,-3.134229,1.019938,0.422416\
 H,-4.014797,1.56604,0.669228\C,-2.144549,0.404906,0.144676\C,-0.976854
 ,-0.384112,-0.20957\O,-1.019788,-1.486094,-0.674568\O,0.156719,0.28797
 ,0.056242\C,1.371023,-0.380862,-0.26078\C,1.833309,-1.299698,0.833861\
 H,2.213152,0.658039,-0.339387\H,1.326059,-0.816309,-1.258877\H,2.81393
 1,-1.709016,0.589841\H,1.89898,-0.763295,1.781153\H,1.124482,-2.128154
 ,0.93627\\Version=ES64L-G16RevA.03\State=2-A\HF=-420.2038294\S2=0.7599
 12\S2-1=0.\S2A=0.750043\RMSD=7.438e-09\RMSF=6.767e-03\ZeroPoint=0.1061
 643\Thermal=0.1159085\Dipole=-0.7968558,0.0277458,0.5119372\DipoleDeri
 v=-0.2812761,0.1388214,-0.0427873,0.0342833,-0.3147164,0.0377024,-0.03
 01973,0.0427546,-0.5445838,0.1106831,-0.0407591,0.0496654,0.1039219,0.
 3617094,-0.015135,0.0552699,0.0115822,0.3042419,-0.2123485,0.0185603,0
 .007736,0.0367508,-0.1515446,-0.0090373,0.0148826,-0.0098565,-0.135325
 4,0.2691379,-0.0191293,-0.0081598,-0.0275734,0.2347476,0.0121877,-0.01
 17917,0.012683,0.2122425,-0.5845104,0.2174968,0.0962628,0.2445336,-0.2
 613554,-0.0733311,0.110722,-0.0748635,-0.1286811,2.5646732,-0.0331538,
 -0.0093141,0.2631793,1.5091635,0.5236635,0.1749611,0.5240186,0.6122182
 ,-0.8171291,0.0806369,0.0288767,-0.1367499,-1.0592259,-0.3277736,-0.09
 05975,-0.323252,-0.4803887,-2.2196507,-0.2776773,-0.1253315,-0.1078725
 ,-0.5914136,-0.1084329,-0.0809547,-0.09571,-0.3649269,1.3420044,0.4175
 753,0.0103299,-0.0291016,0.8941317,-0.1081484,-0.1593236,-0.2160698,0.
 3422501,-0.1672397,-0.210647,0.0423193,-0.0106003,-0.2520305,0.1134221
 ,-0.0337388,0.0886894,-0.0720452,-0.092909,-0.3311733,0.0158792,-0.394
 5188,-0.4756965,0.0293709,-0.0278985,-0.0557508,0.1808199,-0.0299379,-
 0.0478114,-0.0747504,0.0296404,-0.0251929,-0.0250843,0.0543064,0.07275
 11,-0.0253119,-0.0428827,0.0699768,0.0220066,0.0610344,0.0832831,0.000
 6148,0.0231617,-0.0095573,0.06135,0.0966642,0.0295173,-0.0022054,0.005
 5967,0.0401195,-0.0757402,-0.0196027,-0.0355179,-0.0182261,0.0647212,-
 0.0122335,-0.0105274,-0.0725239,0.0080211,0.0257214,0.0208011,0.068098
 8,0.0563665\Polar=94.103291,-2.3185518,81.8264892,-4.3854512,3.4131814
 ,51.5762483\Quadrupole=0.5884732,-0.7783747,0.1899015,-10.5971258,-1.2
 091528,-0.1905721\PG=C01 [X(C5H7O3)]\NImag=1\\0.41812587,-0.19086479,0
 .20358601,-0.10599891,0.06666315,0.04946433,-0.37182004,0.22285828,0.1
 0580193,0.36751176,0.18617970,-0.15047316,-0.05989846,-0.20850924,0.16
 667995,0.09917944,-0.06646913,-0.03240728,-0.10257838,0.06683046,0.032
 13503,-0.00002471,-0.00013063,0.00000454,-0.00003863,0.00021688,0.0000
 2903,1.08949275,-0.00006545,0.00015236,-0.00000380,0.00013491,-0.00015
 451,-0.00001839,-0.64228634,0.45656593,0.00001143,0.00002159,0.0000709
 9,0.00001316,-0.00004900,-0.00007660,-0.29037786,0.17931479,0.14213262
 ,0.00004957,0.00001451,-0.00001112,-0.00004159,-0.00004511,0.00000166,
 -0.29800931,0.16808976,0.07588615,0.28822666,0.00000486,-0.00004157,0.
 00000496,-0.00001301,0.00007656,0.00000701,0.16791900,-0.13164338,-0.0
 4625153,-0.16840032,0.12124147,-0.00001585,0.00000797,-0.00004145,0.00
 001406,0.00001066,0.00003957,0.07581513,-0.04624511,-0.05105503,-0.076
 06796,0.04690317,0.03932146,-0.00003540,-0.00018459,0.00001626,-0.0001
 0233,0.00045649,0.00008607,-0.79219532,0.47089224,0.21305582,0.0082869
 3,-0.00233526,-0.00097702,1.05087820,0.00005174,-0.00003972,-0.0000318
 9,-0.00002947,-0.00025862,-0.00002883,0.47268427,-0.32776807,-0.132885
 71,-0.00216802,0.00662335,-0.00042765,-0.58796713,0.47133096,0.0000029
 3,0.00001406,-0.00001023,-0.00002072,-0.00004756,0.00000302,0.21382456
 ,-0.13289057,-0.09405804,-0.00089952,-0.00041597,0.00764185,-0.2667912
 8,0.18391454,0.14374761,0.00175557,-0.00050630,-0.00084023,-0.00076566
 ,-0.00429060,-0.00037676,0.00657842,-0.00068985,-0.00034452,0.00054861
 ,0.00356013,0.00157802,-0.20755074,0.09395797,0.04224338,0.59256457,0.
 00102756,-0.00026791,-0.00015934,-0.00101261,-0.00099067,-0.00013642,0
 .00012526,0.00211941,-0.00023238,0.00259170,0.00372011,-0.00098044,0.0
 8408758,-0.11505759,-0.01828962,-0.03304980,0.89913522,0.00013398,-0.0
 0083752,-0.00057739,-0.00003927,-0.00092453,-0.00004280,0.00003006,-0.
 00020655,0.00232731,0.00116997,-0.00094242,0.00545509,0.03819201,-0.01
 943503,-0.08195826,-0.02212641,0.29418937,0.33073798,-0.00051169,-0.00
 082698,0.00017658,-0.00003779,0.00102276,0.00003099,-0.00320491,0.0016
 9887,0.00077816,-0.00023694,-0.00126902,-0.00055943,0.00623004,0.03340
 900,0.01461559,-0.10871962,-0.00259267,0.00010770,0.10956637,-0.000970
 30,0.00026660,0.00037377,0.00074251,0.00130111,-0.00004047,-0.00000372
 ,0.00154563,0.00054771,0.00021695,0.00069636,0.00073036,0.02682530,-0.
 04828776,-0.03042420,-0.00619928,-0.66843969,-0.24785549,0.03532428,0.
 77633757,-0.00032104,0.00026129,0.00036939,0.00025554,0.00065964,-0.00
 000831,0.00001917,0.00056985,0.00050308,0.00008066,0.00072824,-0.00070
 578,0.01171023,-0.03029410,0.00893856,-0.00210638,-0.24981743,-0.18513
 596,0.01293568,0.31323092,0.16607694,0.00275318,0.00642294,0.00142660,
 -0.00195609,0.00421922,0.00076574,-0.00332232,0.00249752,0.00109168,0.
 00139510,0.00023140,0.00006131,-0.06514095,-0.00659937,-0.00143619,-0.
 21738071,-0.06201381,-0.02308809,-0.00766594,-0.06651448,-0.02610941,0
 .50229345,-0.00213877,0.00035105,-0.00011975,0.00141875,0.00118557,0.0
 0033279,0.00219332,-0.00151598,-0.00083819,-0.00046817,-0.00064914,-0.
 00008499,0.01161100,0.01300511,0.00017543,-0.05571053,-0.13670637,-0.0
 3372734,-0.06029211,-0.05549469,-0.03465742,0.02806586,0.29967272,-0.0
 0060126,-0.00065314,0.00095229,0.00014934,0.00025765,-0.00067702,0.001
 00008,-0.00087403,0.00004108,-0.00023611,-0.00013997,-0.00044046,0.006
 37921,0.00125784,0.01135333,-0.02011910,-0.03356287,-0.07675942,-0.024
 99232,-0.03475846,0.01553495,0.00605099,0.10132960,0.12825921,-0.03786
 670,-0.07148057,-0.00578157,0.00910251,-0.00086088,-0.00203027,0.00126
 667,-0.00068550,-0.00024252,-0.00036891,0.00036458,0.00018787,0.001857
 28,-0.00302883,-0.00196663,-0.07903472,-0.00445693,-0.00152222,0.00685
 260,0.01673104,0.00770622,-0.13834599,0.03670241,0.02237564,0.34216799
 ,-0.04721799,-0.08996711,-0.00700708,0.00367220,-0.00394311,-0.0015406
 7,-0.00052348,0.00063007,0.00033150,0.00013316,0.00010006,0.00011702,-
 0.00394869,-0.00039510,-0.00200148,-0.00147216,0.02248662,0.00899121,-
 0.00438672,-0.00994137,-0.00138407,0.08192726,-0.10622145,-0.02988579,
 -0.08911848,0.33804027,0.00426347,0.00726833,0.00207508,-0.00206451,0.
 00005640,0.00022668,-0.00043758,0.00043510,0.00006246,0.00008700,0.000
 10628,-0.00025845,-0.00167880,-0.00249566,0.00524575,0.00340868,0.0125
 1746,0.00474756,-0.00084436,-0.00287857,-0.00615413,0.03185377,-0.0283
 0189,-0.08751749,0.02701729,0.04993554,0.57393485,0.00240664,0.0027263
 9,0.00038396,-0.00174670,0.00013343,0.00083121,-0.00025653,0.00017078,
 0.00009766,0.00008672,-0.00001160,-0.00008933,-0.00105608,-0.00046804,
 0.00113285,0.00567864,0.00698460,0.00149116,-0.00010961,-0.00239187,-0
 .00179004,-0.03058199,0.03050503,-0.02454494,-0.07239949,0.02359024,-0
 .01838423,0.57098194,0.00359171,0.00608433,0.00004975,-0.00138881,0.00
 006950,0.00082542,0.00003863,-0.00000357,0.00001707,-0.00002872,-0.000
 02459,0.00001678,0.00042883,0.00016562,-0.00049816,-0.00167926,-0.0006
 0440,0.00014274,0.00102269,0.00016818,0.00126185,0.01433449,-0.0123147
 5,0.00904332,0.03678211,-0.11255875,0.06493206,-0.00265875,0.52224876,
 -0.00059892,-0.00211473,0.00036614,0.00002665,-0.00003628,0.00012103,0
 .00015857,-0.00017359,0.00004453,-0.00002154,-0.00000360,0.00002378,0.
 00015809,0.00065501,-0.00077829,-0.00074080,-0.00414589,-0.00013714,-0
 .00043454,0.00188975,0.00059003,0.00538017,-0.00293207,0.01236045,-0.0
 3449505,0.05850089,-0.16781314,-0.01996758,0.05215265,0.53301092,-0.01
 542646,0.03009097,0.00436569,0.00021479,0.02132216,0.00437055,-0.00021
 497,0.00021915,0.00004640,0.00003695,-0.00003988,0.00000841,-0.0008000
 9,0.00000261,-0.00011182,0.00161739,0.00162046,0.00294598,0.00026933,-
 0.00053305,-0.00064072,-0.03106274,-0.00792931,0.00237200,0.01569734,0
 .03729176,-0.00409787,-0.00146507,-0.00439803,0.00062189,0.03192730,0.
 04956680,0.02760880,-0.00015900,-0.01727137,-0.01410518,0.00019794,-0.
 00022685,0.00007312,0.00000489,0.00007235,-0.00008798,-0.00003436,-0.0
 0055803,0.00057306,0.00033071,0.00916472,0.00060729,0.00276187,-0.0010
 8378,-0.00114551,-0.00104526,-0.01487587,0.00385586,-0.00044267,0.0694
 4797,0.06245734,-0.01261136,-0.01418567,-0.02144954,0.00432538,-0.0752
 3175,-0.04834038,0.00496519,-0.00281531,-0.02209989,-0.00251868,-0.006
 94842,0.00137935,-0.00001074,0.00001837,-0.00005457,0.00000955,-0.0000
 1368,0.00000540,0.00001375,-0.00002098,0.00019249,0.00099275,-0.000867
 49,0.00003510,-0.00079471,0.00013730,0.00001356,0.00344714,0.00251982,
 -0.00065546,0.00750978,0.00636529,-0.01718195,0.00413676,0.00779001,-0
 .00283781,-0.01021209,0.00153501,0.04248842,0.00131292,0.00214524,0.00
 087556,-0.00085304,0.00021323,-0.00010744,-0.00008433,0.00003393,0.000
 01983,0.00004382,-0.00002899,0.00004094,-0.00035771,0.00022083,-0.0008
 0799,0.00466373,0.00614785,0.00301445,-0.00133509,-0.00329692,-0.00092
 715,-0.01324291,0.01751794,0.03286125,-0.04439621,-0.00259237,-0.03445
 564,0.00422005,-0.00456376,-0.00559219,-0.00238246,-0.00855442,-0.0076
 1975,0.05202491,0.00181380,0.00311717,0.00119841,-0.00069982,0.0003828
 1,-0.00015582,0.00003627,-0.00001783,0.00005018,-0.00001748,0.00000741
 ,0.00000088,0.00046220,-0.00012952,-0.00013888,-0.00270989,-0.00131449
 ,-0.00163980,-0.00098363,0.00055514,0.00105904,0.00891226,-0.00719160,
 -0.01350603,0.00398609,-0.08357768,-0.11029173,0.00233816,0.01163739,0
 .02153247,-0.00450251,-0.01115283,-0.00931148,-0.00923460,0.08933171,-
 0.00157279,-0.00211006,0.00066490,0.00071961,0.00004256,-0.00013761,-0
 .00002385,0.00001075,0.00007299,-0.00000898,-0.00000171,0.00000821,0.0
 0013913,0.00020524,-0.00040120,-0.00241588,-0.00216939,0.00047306,-0.0
 0117320,0.00103091,0.00060862,0.00528822,-0.00556080,-0.00232751,-0.01
 339274,-0.09864528,-0.28402258,-0.00312125,-0.01079742,-0.01569549,0.0
 0200872,0.00479543,-0.00016881,0.01480326,0.11001196,0.30154621,0.0001
 0805,0.00023497,-0.00006508,-0.00003726,-0.00003774,-0.00001231,-0.000
 04658,0.00003225,-0.00002915,0.00002039,-0.00001215,-0.00000443,-0.000
 12353,-0.00000141,0.00025530,0.00124538,0.00025432,0.00031458,-0.00020
 303,-0.00006281,-0.00045220,0.00002854,0.00071265,-0.00200540,-0.00839
 042,0.00158188,0.00365473,-0.27036612,0.09428063,0.05574985,-0.0000783
 9,0.00010423,-0.00002385,0.00016032,-0.00012364,-0.00039789,0.29100361
 ,-0.00072266,-0.00017962,-0.00002461,0.00012660,0.00018226,-0.00012426
 ,0.00005225,-0.00002895,-0.00003401,-0.00001850,-0.00000113,0.00001241
 ,0.00029472,0.00012880,-0.00008779,-0.00143050,-0.00276821,-0.00036823
 ,-0.00017900,0.00123994,0.00008826,0.00492631,-0.00133259,0.00427477,0
 .01635512,-0.00872856,-0.00783800,0.09234227,-0.08325806,-0.02278672,0
 .00075594,0.00041234,-0.00014860,-0.00047485,0.00047743,0.00037934,-0.
 10335416,0.08929084,0.00026976,0.00025846,-0.00000345,-0.00008371,-0.0
 0003286,-0.00004300,-0.00009380,0.00008940,0.00001010,0.00001865,0.000
 00428,-0.00001646,-0.00029279,-0.00025620,0.00032342,0.00139177,0.0019
 5281,0.00027400,-0.00013334,-0.00080744,-0.00046907,-0.00539346,0.0045
 4530,-0.00350457,-0.02061734,0.00653109,0.00880860,0.05776019,-0.02372
 121,-0.06328895,-0.00037154,-0.00044289,0.00031764,0.00051747,-0.00106
 078,0.00013642,-0.06079926,0.02319912,0.06350002,-0.00018532,0.0002533
 5,-0.00017872,0.00014111,0.00002115,-0.00006674,0.00000141,0.00000989,
 0.00002801,-0.00001853,0.00000655,-0.00000704,0.00003504,0.00001942,0.
 00000980,-0.00074383,-0.00110963,-0.00054629,-0.00023214,0.00075428,0.
 00008661,0.00123438,-0.00064965,0.00060079,-0.00164963,-0.00556359,-0.
 00790921,-0.04815201,-0.00703627,-0.01460592,0.00009041,0.00019122,0.0
 0035101,0.00036697,0.00138602,-0.00131665,0.00366715,0.01341332,0.0259
 5057,0.04651885,-0.00001517,0.00021461,-0.00079383,0.00014846,-0.00013
 980,0.00022519,-0.00003332,-0.00000733,-0.00000655,0.00000765,0.000007
 22,-0.00000648,-0.00004939,0.00002369,0.00013240,0.00023686,0.00014356
 ,-0.00029137,-0.00022203,0.00012825,-0.00018182,-0.00192767,0.00081506
 ,-0.00121961,0.00066809,0.01113207,0.02197915,-0.00685263,-0.11549015,
 -0.12106116,0.00029801,0.00106319,0.00056533,0.00169134,-0.00292560,0.
 00315738,-0.00210323,-0.00622022,-0.00887796,0.00772152,0.12217930,0.0
 0043152,0.00055710,0.00084298,-0.00008215,0.00016285,-0.00022425,-0.00
 001684,0.00002605,0.00000795,-0.00000434,-0.00000583,-0.00000048,-0.00
 000550,0.00002304,-0.00000837,-0.00034931,-0.00058031,-0.00022767,0.00
 006677,0.00034358,0.00020037,0.00110773,-0.00003702,0.00248094,-0.0001
 4438,-0.01077009,-0.02510003,-0.01450039,-0.11872321,-0.25072633,-0.00
 088635,-0.00162055,-0.00054313,-0.00179570,0.00347173,-0.00163309,-0.0
 0047309,-0.00189947,-0.00435927,0.01644675,0.12685615,0.27531370,-0.00
 064149,-0.00075279,-0.00017548,0.00042898,-0.00004146,-0.00012281,0.00
 005835,-0.00005215,-0.00003425,-0.00001948,0.00002372,0.00001534,0.000
 07466,-0.00008356,-0.00005025,-0.00045703,0.00139610,-0.00007761,-0.00
 066157,-0.00062194,-0.00044718,0.00099497,-0.00153842,0.00070984,0.005
 50767,0.00662697,-0.00041275,-0.15724039,-0.12872549,0.01436130,0.0015
 7667,0.00344045,-0.00024611,-0.00014097,-0.00066323,0.00046431,-0.0169
 8809,-0.02208687,0.00187681,-0.00107387,0.00043150,0.00020526,0.168581
 59,-0.00024106,-0.00041184,-0.00009229,-0.00017738,0.00018731,0.000095
 19,-0.00006155,0.00005311,0.00000965,0.00002024,-0.00002475,-0.0000202
 3,-0.00001528,0.00008578,0.00022709,0.00081849,-0.00206287,0.00014309,
 -0.00064166,0.00107024,-0.00047898,0.00039396,0.00254120,-0.00112061,-
 0.01140623,-0.01951329,0.00718688,-0.13222233,-0.19466997,0.01419789,0
 .00103347,-0.00036957,0.00119484,0.00077555,0.00080049,-0.00034891,0.0
 0849419,0.01078572,-0.00138112,-0.00941757,-0.01092386,0.00219598,0.14
 264716,0.21245229,-0.00014896,-0.00005205,0.00033358,0.00040713,-0.000
 08311,-0.00028781,0.00007952,-0.00005227,-0.00002887,-0.00000407,0.000
 02075,0.00002275,-0.00000518,-0.00017963,-0.00023163,-0.00019521,0.002
 28194,0.00078855,0.00022044,-0.00151968,-0.00036224,-0.00044619,-0.002
 64346,0.00089967,0.01539592,0.02046192,-0.00705321,0.01656397,0.017508
 32,-0.04523973,-0.00041924,0.00240487,-0.00089033,-0.00082692,-0.00122
 014,0.00087588,0.00428820,0.00535780,-0.00168543,-0.01884298,-0.020476
 82,0.00397669,-0.01606643,-0.02180846,0.04888213\\0.01180649,0.0239751
 6,0.00225126,-0.00145841,-0.00083168,0.00015525,-0.00017049,0.00008979
 ,0.00002009,-0.00001463,-0.00001318,-0.00000459,-0.00023680,-0.0000291
 3,0.00009371,0.00211362,0.00008991,0.00101609,-0.00039039,-0.00021287,
 -0.00019584,-0.00553480,0.00102224,0.00007750,0.01338606,0.01086047,-0
 .00411686,-0.00302088,-0.00465586,0.00111649,-0.01449149,-0.02686826,-
 0.00209799,-0.00241323,-0.00316687,0.00141354,-0.00004427,0.00002442,0
 .00003095,0.00012732,0.00010402,-0.00024328,0.00034189,-0.00038816,0.0
 0048368\\\@


 GROWING OLD ISN'T SO BAD -- WHEN YOU CONSIDER THE ALTERNATIVE.

                     -- MAURICE CHEVALIER
 Job cpu time:       0 days  0 hours 52 minutes 38.8 seconds.
 Elapsed time:       0 days  0 hours  2 minutes 11.7 seconds.
 File lengths (MBytes):  RWF=    153 Int=      0 D2E=      0 Chk=      5 Scr=      1
 Normal termination of Gaussian 16 at Sat Aug 16 14:50:32 2025.
