 Entering Gaussian System, Link 0=g16
 Initial command:
 /opt/g16/l1.exe "/home/aayush/scratches/g16/Gau-22959.inp" -scrdir="/home/aayush/scratches/g16/"
 Entering Link 1 = /opt/g16/l1.exe PID=     22962.
  
 Copyright (c) 1988,1990,1992,1993,1995,1998,2003,2009,2016,
            Gaussian, Inc.  All Rights Reserved.
  
 This is part of the Gaussian(R) 16 program.  It is based on
 the Gaussian(R) 09 system (copyright 2009, Gaussian, Inc.),
 the Gaussian(R) 03 system (copyright 2003, Gaussian, Inc.),
 the Gaussian(R) 98 system (copyright 1998, Gaussian, Inc.),
 the Gaussian(R) 94 system (copyright 1995, Gaussian, Inc.),
 the Gaussian 92(TM) system (copyright 1992, Gaussian, Inc.),
 the Gaussian 90(TM) system (copyright 1990, Gaussian, Inc.),
 the Gaussian 88(TM) system (copyright 1988, Gaussian, Inc.),
 the Gaussian 86(TM) system (copyright 1986, Carnegie Mellon
 University), and the Gaussian 82(TM) system (copyright 1983,
 Carnegie Mellon University). Gaussian is a federally registered
 trademark of Gaussian, Inc.
  
 This software contains proprietary and confidential information,
 including trade secrets, belonging to Gaussian, Inc.
  
 This software is provided under written license and may be
 used, copied, transmitted, or stored only in accord with that
 written license.
  
 The following legend is applicable only to US Government
 contracts under FAR:
  
                    RESTRICTED RIGHTS LEGEND
  
 Use, reproduction and disclosure by the US Government is
 subject to restrictions as set forth in subparagraphs (a)
 and (c) of the Commercial Computer Software - Restricted
 Rights clause in FAR 52.227-19.
  
 Gaussian, Inc.
 340 Quinnipiac St., Bldg. 40, Wallingford CT 06492
  
  
 ---------------------------------------------------------------
 Warning -- This program may not be used in any manner that
 competes with the business of Gaussian, Inc. or will provide
 assistance to any competitor of Gaussian, Inc.  The licensee
 of this program is prohibited from giving any competitor of
 Gaussian, Inc. access to this program.  By using this program,
 the user acknowledges that Gaussian, Inc. is engaged in the
 business of creating and licensing software in the field of
 computational chemistry and represents and warrants to the
 licensee that it is not a competitor of Gaussian, Inc. and that
 it will not use this program in any manner prohibited above.
 ---------------------------------------------------------------
  

 Cite this work as:
 Gaussian 16, Revision A.03,
 M. J. Frisch, G. W. Trucks, H. B. Schlegel, G. E. Scuseria, 
 M. A. Robb, J. R. Cheeseman, G. Scalmani, V. Barone, 
 G. A. Petersson, H. Nakatsuji, X. Li, M. Caricato, A. V. Marenich, 
 J. Bloino, B. G. Janesko, R. Gomperts, B. Mennucci, H. P. Hratchian, 
 J. V. Ortiz, A. F. Izmaylov, J. L. Sonnenberg, D. Williams-Young, 
 F. Ding, F. Lipparini, F. Egidi, J. Goings, B. Peng, A. Petrone, 
 T. Henderson, D. Ranasinghe, V. G. Zakrzewski, J. Gao, N. Rega, 
 G. Zheng, W. Liang, M. Hada, M. Ehara, K. Toyota, R. Fukuda, 
 J. Hasegawa, M. Ishida, T. Nakajima, Y. Honda, O. Kitao, H. Nakai, 
 T. Vreven, K. Throssell, J. A. Montgomery, Jr., J. E. Peralta, 
 F. Ogliaro, M. J. Bearpark, J. J. Heyd, E. N. Brothers, K. N. Kudin, 
 V. N. Staroverov, T. A. Keith, R. Kobayashi, J. Normand, 
 K. Raghavachari, A. P. Rendell, J. C. Burant, S. S. Iyengar, 
 J. Tomasi, M. Cossi, J. M. Millam, M. Klene, C. Adamo, R. Cammi, 
 J. W. Ochterski, R. L. Martin, K. Morokuma, O. Farkas, 
 J. B. Foresman, and D. J. Fox, Gaussian, Inc., Wallingford CT, 2016.
 
 ******************************************
 Gaussian 16:  ES64L-G16RevA.03 25-Dec-2016
                16-Aug-2025 
 ******************************************
 %nprocshared=24
 Will use up to   24 processors via shared memory.
 %mem=12GB
 %chk=ethyl_propiolate.chk
 --------------------------
 # freq 6-311++g(d,p) m062x
 --------------------------
 1/10=4,30=1,38=1/1,3;
 2/12=2,17=6,18=5,40=1/2;
 3/5=4,6=6,7=1111,11=2,25=1,30=1,71=2,74=-55,140=1/1,2,3;
 4//1;
 5/5=2,38=5,98=1/2;
 8/6=4,10=90,11=11/1;
 11/6=1,8=1,9=11,15=111,16=1/1,2,10;
 10/6=1/2;
 6/7=2,8=2,9=2,10=2,28=1/1;
 7/8=1,10=1,25=1/1,2,3,16;
 1/10=4,30=1/3;
 99//99;
 -------------------
 Title Card Required
 -------------------
 Symbolic Z-matrix:
 Charge =  0 Multiplicity = 2
 O                     2.70399   1.75849  -0.22779 
 H                     1.88151   2.22225   0.00327 
 C                    -3.13445   1.02006   0.42245 
 H                    -4.01504   1.56588   0.66916 
 C                    -2.14485   0.40485   0.14479 
 C                    -0.97515  -0.3839   -0.20857 
 O                    -1.02029  -1.48611  -0.67456 
 O                     0.15391   0.28882   0.05604 
 C                     1.37587  -0.38291  -0.26522 
 C                     1.83     -1.30478   0.83542 
 H                     2.13182   0.46881  -0.37299 
 H                     1.29388  -0.8577   -1.24345 
 H                     2.81292  -1.70984   0.59077 
 H                     1.90064  -0.76203   1.77893 
 H                     1.12849  -2.13473   0.94589 
 

 GradGradGradGradGradGradGradGradGradGradGradGradGradGradGradGradGradGrad
 Berny optimization.
 Initialization pass.
 Trust Radius=3.00D-01 FncErr=1.00D-07 GrdErr=1.00D-07 EigMax=2.50D+02 EigMin=1.00D-04
 Number of steps in this run=      2 maximum allowed number of steps=      2.
 GradGradGradGradGradGradGradGradGradGradGradGradGradGradGradGradGradGrad

                          Input orientation:                          
 ---------------------------------------------------------------------
 Center     Atomic      Atomic             Coordinates (Angstroms)
 Number     Number       Type             X           Y           Z
 ---------------------------------------------------------------------
      1          8           0        2.703992    1.758490   -0.227794
      2          1           0        1.881505    2.222245    0.003272
      3          6           0       -3.134448    1.020057    0.422448
      4          1           0       -4.015040    1.565884    0.669163
      5          6           0       -2.144851    0.404851    0.144787
      6          6           0       -0.975148   -0.383904   -0.208567
      7          8           0       -1.020287   -1.486108   -0.674559
      8          8           0        0.153910    0.288819    0.056042
      9          6           0        1.375874   -0.382913   -0.265217
     10          6           0        1.830003   -1.304778    0.835423
     11          1           0        2.131816    0.468807   -0.372991
     12          1           0        1.293882   -0.857702   -1.243452
     13          1           0        2.812922   -1.709839    0.590768
     14          1           0        1.900638   -0.762033    1.778926
     15          1           0        1.128494   -2.134731    0.945892
 ---------------------------------------------------------------------
                    Distance matrix (angstroms):
                    1          2          3          4          5
     1  O    0.000000
     2  H    0.972083   0.000000
     3  C    5.920767   5.175012   0.000000
     4  H    6.781373   5.970215   1.065006   0.000000
     5  C    5.048013   4.419784   1.197863   2.262869   0.000000
     6  C    4.257498   3.872642   2.651766   3.716588   1.454372
     7  O    4.959563   4.757282   3.457451   4.482052   2.347701
     8  O    2.956926   2.593358   3.388548   4.403062   2.303398
     9  C    2.520100   2.667320   4.773281   5.807997   3.631003
    10  C    3.358258   3.624227   5.497379   6.514052   4.381698
    11  H    1.418362   1.810739   5.354450   6.330363   4.308372
    12  H    3.140769   3.374270   5.090315   6.141378   3.917414
    13  H    3.565279   4.083378   6.546134   7.573478   5.408357
    14  H    3.320443   3.472640   5.510714   6.453373   4.516416
    15  H    4.360837   4.520929   5.329105   6.342482   4.219720
                    6          7          8          9         10
     6  C    0.000000
     7  O    1.197514   0.000000
     8  O    1.340651   2.250085   0.000000
     9  C    2.351705   2.669492   1.430953   0.000000
    10  C    3.131580   3.230647   2.440548   1.505814   0.000000
    11  H    3.226047   3.721342   2.031890   1.143893   2.167247
    12  H    2.538497   2.464531   2.074303   1.090454   2.192949
    13  H    4.092251   4.042845   3.369111   2.135076   1.090899
    14  H    3.516142   3.882741   2.669022   2.144208   1.090761
    15  H    2.970434   2.768363   2.759573   2.144026   1.092310
                   11         12         13         14         15
    11  H    0.000000
    12  H    1.794286   0.000000
    13  H    2.477748   2.529423   0.000000
    14  H    2.489811   3.084165   1.772658   0.000000
    15  H    3.086182   2.539957   1.773117   1.781699   0.000000
 Stoichiometry    C5H7O3(2)
 Framework group  C1[X(C5H7O3)]
 Deg. of freedom    39
 Full point group                 C1      NOp   1
 Largest Abelian subgroup         C1      NOp   1
 Largest concise Abelian subgroup C1      NOp   1
                         Standard orientation:                         
 ---------------------------------------------------------------------
 Center     Atomic      Atomic             Coordinates (Angstroms)
 Number     Number       Type             X           Y           Z
 ---------------------------------------------------------------------
      1          8           0        2.646384    1.767565   -0.247045
      2          1           0        1.824024    2.231546   -0.015979
      3          6           0       -3.192259    1.030735    0.403197
      4          1           0       -4.072701    1.576804    0.649912
      5          6           0       -2.202831    0.415257    0.125536
      6          6           0       -1.033344   -0.373819   -0.227818
      7          8           0       -1.078786   -1.476010   -0.693810
      8          8           0        0.095898    0.298594    0.036791
      9          6           0        1.317678   -0.373474   -0.284468
     10          6           0        1.771554   -1.295463    0.816172
     11          1           0        2.073854    0.478039   -0.392242
     12          1           0        1.235555   -0.848240   -1.262703
     13          1           0        2.754361   -1.700794    0.571517
     14          1           0        1.842338   -0.752738    1.759675
     15          1           0        1.069817   -2.125224    0.926641
 ---------------------------------------------------------------------
 Rotational constants (GHZ):           3.0165675           1.1290295           0.9000619
 Standard basis: 6-311++G(d,p) (5D, 7F)
 There are   233 symmetry adapted cartesian basis functions of A   symmetry.
 There are   225 symmetry adapted basis functions of A   symmetry.
   225 basis functions,   351 primitive gaussians,   233 cartesian basis functions
    31 alpha electrons       30 beta electrons
       nuclear repulsion energy       348.3477387700 Hartrees.
 NAtoms=   15 NActive=   15 NUniq=   15 SFac= 1.00D+00 NAtFMM=   60 NAOKFM=F Big=F
 Integral buffers will be    131072 words long.
 Raffenetti 2 integral format.
 Two-electron integral symmetry is turned on.
 One-electron integrals computed using PRISM.
 NBasis=   225 RedAO= T EigKep=  7.81D-06  NBF=   225
 NBsUse=   224 1.00D-06 EigRej=  8.18D-07 NBFU=   224
 ExpMin= 3.60D-02 ExpMax= 8.59D+03 ExpMxC= 1.30D+03 IAcc=3 IRadAn=         5 AccDes= 0.00D+00
 Harris functional with IExCor= 1009 and IRadAn=       5 diagonalized for initial guess.
 HarFok:  IExCor= 1009 AccDes= 0.00D+00 IRadAn=         5 IDoV= 1 UseB2=F ITyADJ=14
 ICtDFT=  3500011 ScaDFX=  1.000000  1.000000  1.000000  1.000000
 FoFCou: FMM=F IPFlag=           0 FMFlag=      100000 FMFlg1=           0
         NFxFlg=           0 DoJE=T BraDBF=F KetDBF=T FulRan=T
         wScrn=  0.000000 ICntrl=       500 IOpCl=  0 I1Cent=   200000004 NGrid=           0
         NMat0=    1 NMatS0=      1 NMatT0=    0 NMatD0=    1 NMtDS0=    0 NMtDT0=    0
 Petite list used in FoFCou.
 Initial guess <Sx>= 0.0000 <Sy>= 0.0000 <Sz>= 0.5000 <S**2>= 0.7500 S= 0.5000
 Requested convergence on RMS density matrix=1.00D-08 within 128 cycles.
 Requested convergence on MAX density matrix=1.00D-06.
 Requested convergence on             energy=1.00D-06.
 No special actions if energy rises.
 Restarting incremental Fock formation.
 SCF Done:  E(UM062X) =  -420.199249893     A.U. after   21 cycles
            NFock= 21  Conv=0.38D-08     -V/T= 2.0032
 <Sx>= 0.0000 <Sy>= 0.0000 <Sz>= 0.5000 <S**2>= 0.7574 S= 0.5037
 <L.S>=  0.00000000000    
 Annihilation of the first spin contaminant:
 S**2 before annihilation     0.7574,   after     0.7500
 DoSCS=F DFT=T ScalE2(SS,OS)=  1.000000  1.000000
 Range of M.O.s used for correlation:     1   224
 NBasis=   225 NAE=    31 NBE=    30 NFC=     0 NFV=     0
 NROrb=    224 NOA=    31 NOB=    30 NVA=   193 NVB=   194

 **** Warning!!: The largest alpha MO coefficient is  0.11388780D+03


 **** Warning!!: The largest beta MO coefficient is  0.10689867D+03

 Symmetrizing basis deriv contribution to polar:
 IMax=3 JMax=2 DiffMx= 0.00D+00
 G2DrvN: will do    16 centers at a time, making    1 passes.
 Calling FoFCou, ICntrl=  3107 FMM=F I1Cent=   0 AccDes= 0.00D+00.
 End of G2Drv F.D. properties file   721 does not exist.
 End of G2Drv F.D. properties file   722 does not exist.
 End of G2Drv F.D. properties file   788 does not exist.
          IDoAtm=111111111111111
          Differentiating once with respect to electric field.
                with respect to dipole field.
          Differentiating once with respect to nuclear coordinates.
 Keep R1 and R2 ints in memory in canonical form, NReq=671901989.
          There are    48 degrees of freedom in the 1st order CPHF.  IDoFFX=6 NUNeed=     3.
     45 vectors produced by pass  0 Test12= 2.46D-14 2.08D-09 XBig12= 9.06D+01 3.59D+00.
 AX will form    45 AO Fock derivatives at one time.
     45 vectors produced by pass  1 Test12= 2.46D-14 2.08D-09 XBig12= 1.90D+01 7.19D-01.
     45 vectors produced by pass  2 Test12= 2.46D-14 2.08D-09 XBig12= 6.31D-01 1.24D-01.
     45 vectors produced by pass  3 Test12= 2.46D-14 2.08D-09 XBig12= 9.31D-03 1.29D-02.
     45 vectors produced by pass  4 Test12= 2.46D-14 2.08D-09 XBig12= 8.46D-05 9.30D-04.
     45 vectors produced by pass  5 Test12= 2.46D-14 2.08D-09 XBig12= 6.37D-07 1.19D-04.
     41 vectors produced by pass  6 Test12= 2.46D-14 2.08D-09 XBig12= 4.43D-09 5.79D-06.
     18 vectors produced by pass  7 Test12= 2.46D-14 2.08D-09 XBig12= 2.63D-11 4.65D-07.
      3 vectors produced by pass  8 Test12= 2.46D-14 2.08D-09 XBig12= 1.79D-13 3.94D-08.
      2 vectors produced by pass  9 Test12= 2.46D-14 2.08D-09 XBig12= 1.66D-15 4.84D-09.
 InvSVY:  IOpt=1 It=  1 EMax= 6.22D-15
 Solved reduced A of dimension   334 with    48 vectors.
 Isotropic polarizability for W=    0.000000       76.23 Bohr**3.
 End of Minotr F.D. properties file   721 does not exist.
 End of Minotr F.D. properties file   722 does not exist.
 End of Minotr F.D. properties file   788 does not exist.

 **********************************************************************

            Population analysis using the SCF density.

 **********************************************************************

 Orbital symmetries:
 Alpha Orbitals:
       Occupied  (A) (A) (A) (A) (A) (A) (A) (A) (A) (A) (A) (A)
                 (A) (A) (A) (A) (A) (A) (A) (A) (A) (A) (A) (A)
                 (A) (A) (A) (A) (A) (A) (A)
       Virtual   (A) (A) (A) (A) (A) (A) (A) (A) (A) (A) (A) (A)
                 (A) (A) (A) (A) (A) (A) (A) (A) (A) (A) (A) (A)
                 (A) (A) (A) (A) (A) (A) (A) (A) (A) (A) (A) (A)
                 (A) (A) (A) (A) (A) (A) (A) (A) (A) (A) (A) (A)
                 (A) (A) (A) (A) (A) (A) (A) (A) (A) (A) (A) (A)
                 (A) (A) (A) (A) (A) (A) (A) (A) (A) (A) (A) (A)
                 (A) (A) (A) (A) (A) (A) (A) (A) (A) (A) (A) (A)
                 (A) (A) (A) (A) (A) (A) (A) (A) (A) (A) (A) (A)
                 (A) (A) (A) (A) (A) (A) (A) (A) (A) (A) (A) (A)
                 (A) (A) (A) (A) (A) (A) (A) (A) (A) (A) (A) (A)
                 (A) (A) (A) (A) (A) (A) (A) (A) (A) (A) (A) (A)
                 (A) (A) (A) (A) (A) (A) (A) (A) (A) (A) (A) (A)
                 (A) (A) (A) (A) (A) (A) (A) (A) (A) (A) (A) (A)
                 (A) (A) (A) (A) (A) (A) (A) (A) (A) (A) (A) (A)
                 (A) (A) (A) (A) (A) (A) (A) (A) (A) (A) (A) (A)
                 (A) (A) (A) (A) (A) (A) (A) (A) (A) (A) (A) (A)
                 (A)
 Beta  Orbitals:
       Occupied  (A) (A) (A) (A) (A) (A) (A) (A) (A) (A) (A) (A)
                 (A) (A) (A) (A) (A) (A) (A) (A) (A) (A) (A) (A)
                 (A) (A) (A) (A) (A) (A)
       Virtual   (A) (A) (A) (A) (A) (A) (A) (A) (A) (A) (A) (A)
                 (A) (A) (A) (A) (A) (A) (A) (A) (A) (A) (A) (A)
                 (A) (A) (A) (A) (A) (A) (A) (A) (A) (A) (A) (A)
                 (A) (A) (A) (A) (A) (A) (A) (A) (A) (A) (A) (A)
                 (A) (A) (A) (A) (A) (A) (A) (A) (A) (A) (A) (A)
                 (A) (A) (A) (A) (A) (A) (A) (A) (A) (A) (A) (A)
                 (A) (A) (A) (A) (A) (A) (A) (A) (A) (A) (A) (A)
                 (A) (A) (A) (A) (A) (A) (A) (A) (A) (A) (A) (A)
                 (A) (A) (A) (A) (A) (A) (A) (A) (A) (A) (A) (A)
                 (A) (A) (A) (A) (A) (A) (A) (A) (A) (A) (A) (A)
                 (A) (A) (A) (A) (A) (A) (A) (A) (A) (A) (A) (A)
                 (A) (A) (A) (A) (A) (A) (A) (A) (A) (A) (A) (A)
                 (A) (A) (A) (A) (A) (A) (A) (A) (A) (A) (A) (A)
                 (A) (A) (A) (A) (A) (A) (A) (A) (A) (A) (A) (A)
                 (A) (A) (A) (A) (A) (A) (A) (A) (A) (A) (A) (A)
                 (A) (A) (A) (A) (A) (A) (A) (A) (A) (A) (A) (A)
                 (A) (A)
 The electronic state is 2-A.
 Alpha  occ. eigenvalues --  -19.69710 -19.67185 -19.64335 -10.71777 -10.62209
 Alpha  occ. eigenvalues --  -10.57860 -10.57422 -10.54645  -1.26981  -1.17739
 Alpha  occ. eigenvalues --   -1.13710  -0.91539  -0.87956  -0.79167  -0.71791
 Alpha  occ. eigenvalues --   -0.65953  -0.62182  -0.60379  -0.58244  -0.57322
 Alpha  occ. eigenvalues --   -0.54432  -0.50515  -0.50040  -0.47508  -0.45559
 Alpha  occ. eigenvalues --   -0.42605  -0.40869  -0.40401  -0.38023  -0.37184
 Alpha  occ. eigenvalues --   -0.36896
 Alpha virt. eigenvalues --   -0.02472  -0.00544   0.00616   0.01390   0.01902
 Alpha virt. eigenvalues --    0.03280   0.03457   0.04665   0.06019   0.06051
 Alpha virt. eigenvalues --    0.06596   0.07405   0.08090   0.09478   0.10265
 Alpha virt. eigenvalues --    0.11365   0.11863   0.12455   0.12775   0.12921
 Alpha virt. eigenvalues --    0.13962   0.14331   0.14995   0.15904   0.16541
 Alpha virt. eigenvalues --    0.17662   0.18071   0.18486   0.19487   0.19944
 Alpha virt. eigenvalues --    0.21557   0.22219   0.23881   0.25020   0.25524
 Alpha virt. eigenvalues --    0.26597   0.27903   0.28206   0.28602   0.29883
 Alpha virt. eigenvalues --    0.30585   0.31160   0.32127   0.32693   0.33800
 Alpha virt. eigenvalues --    0.34484   0.35281   0.37073   0.37833   0.41024
 Alpha virt. eigenvalues --    0.42596   0.44457   0.46510   0.47884   0.50556
 Alpha virt. eigenvalues --    0.50881   0.53365   0.56159   0.57640   0.60094
 Alpha virt. eigenvalues --    0.60557   0.62996   0.64718   0.66824   0.67709
 Alpha virt. eigenvalues --    0.68070   0.69442   0.70896   0.72370   0.73894
 Alpha virt. eigenvalues --    0.74945   0.76372   0.79509   0.82167   0.84173
 Alpha virt. eigenvalues --    0.88966   0.92553   0.95762   1.00461   1.04113
 Alpha virt. eigenvalues --    1.07183   1.08539   1.10320   1.12133   1.13874
 Alpha virt. eigenvalues --    1.15476   1.16995   1.17541   1.18765   1.21289
 Alpha virt. eigenvalues --    1.22972   1.23691   1.29065   1.29698   1.34198
 Alpha virt. eigenvalues --    1.35752   1.36554   1.38068   1.41026   1.43074
 Alpha virt. eigenvalues --    1.47362   1.49257   1.50740   1.54735   1.58640
 Alpha virt. eigenvalues --    1.59723   1.60762   1.62101   1.63009   1.65190
 Alpha virt. eigenvalues --    1.66403   1.68102   1.70510   1.73961   1.75983
 Alpha virt. eigenvalues --    1.80229   1.83643   1.84438   1.87617   1.90124
 Alpha virt. eigenvalues --    1.95260   2.00135   2.01746   2.05257   2.08643
 Alpha virt. eigenvalues --    2.10161   2.13861   2.19130   2.27607   2.32471
 Alpha virt. eigenvalues --    2.41643   2.45112   2.50484   2.51068   2.53801
 Alpha virt. eigenvalues --    2.57583   2.59488   2.60550   2.62637   2.64499
 Alpha virt. eigenvalues --    2.66038   2.69334   2.71826   2.73513   2.78931
 Alpha virt. eigenvalues --    2.81946   2.82822   2.88479   2.92971   2.95858
 Alpha virt. eigenvalues --    2.97971   3.01377   3.03601   3.05715   3.09268
 Alpha virt. eigenvalues --    3.13282   3.16703   3.16990   3.20658   3.24025
 Alpha virt. eigenvalues --    3.30159   3.33013   3.37694   3.43150   3.44884
 Alpha virt. eigenvalues --    3.56272   3.65793   3.72678   3.81595   3.85349
 Alpha virt. eigenvalues --    3.86089   3.95790   4.06020   4.12471   4.17900
 Alpha virt. eigenvalues --    4.27335   5.06477   5.13025   5.16184   5.22336
 Alpha virt. eigenvalues --    5.30908   5.45522   5.57219   5.72412   5.93864
 Alpha virt. eigenvalues --   23.61952  23.91332  23.93698  24.04756  25.17108
 Alpha virt. eigenvalues --   49.95208  49.98506  50.10156
  Beta  occ. eigenvalues --  -19.69710 -19.65787 -19.64331 -10.71766 -10.61891
  Beta  occ. eigenvalues --  -10.57859 -10.57422 -10.54648  -1.26912  -1.17655
  Beta  occ. eigenvalues --   -1.07866  -0.91122  -0.87582  -0.78989  -0.70937
  Beta  occ. eigenvalues --   -0.65649  -0.61865  -0.59552  -0.57544  -0.55284
  Beta  occ. eigenvalues --   -0.51971  -0.50278  -0.47743  -0.46296  -0.42788
  Beta  occ. eigenvalues --   -0.40425  -0.39800  -0.39270  -0.38014  -0.37116
  Beta virt. eigenvalues --   -0.11175  -0.02443  -0.00401   0.00670   0.01636
  Beta virt. eigenvalues --    0.01997   0.03319   0.03489   0.04846   0.06097
  Beta virt. eigenvalues --    0.06114   0.06692   0.07526   0.08134   0.09652
  Beta virt. eigenvalues --    0.10381   0.11531   0.12097   0.12552   0.12996
  Beta virt. eigenvalues --    0.13053   0.14049   0.14455   0.15071   0.16144
  Beta virt. eigenvalues --    0.16645   0.17765   0.18125   0.18518   0.19784
  Beta virt. eigenvalues --    0.20023   0.21637   0.22404   0.23657   0.24568
  Beta virt. eigenvalues --    0.25608   0.26710   0.27982   0.28538   0.28751
  Beta virt. eigenvalues --    0.30075   0.30883   0.31387   0.32271   0.32812
  Beta virt. eigenvalues --    0.33951   0.34770   0.35392   0.37638   0.38237
  Beta virt. eigenvalues --    0.41841   0.42860   0.44579   0.46580   0.47993
  Beta virt. eigenvalues --    0.50606   0.50970   0.53581   0.56208   0.57875
  Beta virt. eigenvalues --    0.60477   0.60748   0.63109   0.64895   0.66966
  Beta virt. eigenvalues --    0.67783   0.68719   0.69910   0.71145   0.72482
  Beta virt. eigenvalues --    0.73946   0.75026   0.76534   0.79729   0.82386
  Beta virt. eigenvalues --    0.84210   0.89076   0.92707   0.95806   1.01038
  Beta virt. eigenvalues --    1.04718   1.07321   1.09419   1.10395   1.14039
  Beta virt. eigenvalues --    1.14153   1.15753   1.17070   1.18039   1.20096
  Beta virt. eigenvalues --    1.21732   1.23154   1.23911   1.29168   1.29841
  Beta virt. eigenvalues --    1.34338   1.35914   1.36628   1.38510   1.41318
  Beta virt. eigenvalues --    1.43163   1.47676   1.49753   1.51153   1.56495
  Beta virt. eigenvalues --    1.58796   1.59906   1.60841   1.62448   1.63037
  Beta virt. eigenvalues --    1.65372   1.66613   1.68629   1.70824   1.73880
  Beta virt. eigenvalues --    1.76371   1.80264   1.83649   1.84531   1.88384
  Beta virt. eigenvalues --    1.90215   1.95292   2.00163   2.01638   2.05352
  Beta virt. eigenvalues --    2.08977   2.10826   2.14228   2.19323   2.28135
  Beta virt. eigenvalues --    2.32647   2.41653   2.45441   2.50490   2.51178
  Beta virt. eigenvalues --    2.53851   2.57419   2.59841   2.60591   2.62930
  Beta virt. eigenvalues --    2.64588   2.66041   2.69389   2.71786   2.73188
  Beta virt. eigenvalues --    2.78603   2.82066   2.82492   2.89719   2.93309
  Beta virt. eigenvalues --    2.97900   2.99230   3.01570   3.03608   3.05744
  Beta virt. eigenvalues --    3.09375   3.13505   3.18460   3.20067   3.21968
  Beta virt. eigenvalues --    3.24299   3.30397   3.33047   3.37804   3.43255
  Beta virt. eigenvalues --    3.47258   3.56283   3.65866   3.72943   3.82917
  Beta virt. eigenvalues --    3.85883   3.86330   3.97527   4.06616   4.12754
  Beta virt. eigenvalues --    4.18022   4.27801   5.08369   5.13206   5.16261
  Beta virt. eigenvalues --    5.29105   5.31096   5.45853   5.59759   5.72506
  Beta virt. eigenvalues --    5.93894  23.61953  23.91515  23.93711  24.04763
  Beta virt. eigenvalues --   25.17109  49.94665  49.98517  50.10154
          Condensed to atoms (all electrons):
               1          2          3          4          5          6
     1  O    8.019365   0.275035  -0.001113  -0.000042   0.010569  -0.002001
     2  H    0.275035   0.480874  -0.000592  -0.000169  -0.000156  -0.001485
     3  C   -0.001113  -0.000592   5.787840   0.447464  -0.455029   0.937773
     4  H   -0.000042  -0.000169   0.447464   0.425908  -0.076199   0.024198
     5  C    0.010569  -0.000156  -0.455029  -0.076199   8.073129  -2.187889
     6  C   -0.002001  -0.001485   0.937773   0.024198  -2.187889   7.526343
     7  O   -0.000339  -0.000413  -0.095973  -0.003245   0.120870   0.358586
     8  O    0.019910   0.008452  -0.093848  -0.005133  -0.271866   0.049410
     9  C   -0.016985   0.008848   0.046071   0.000772  -0.228282   0.079728
    10  C   -0.011790   0.016037  -0.013955  -0.001312  -0.069377  -0.089773
    11  H    0.013166  -0.044675   0.005178   0.000464  -0.013766   0.014228
    12  H    0.001548  -0.000873  -0.001956  -0.000077   0.009725   0.000693
    13  H   -0.001790   0.001927  -0.000661  -0.000033  -0.000411  -0.003896
    14  H    0.006010  -0.001634   0.000396   0.000028   0.005914   0.005253
    15  H   -0.003942   0.000286   0.004161   0.000034  -0.029739   0.008914
               7          8          9         10         11         12
     1  O   -0.000339   0.019910  -0.016985  -0.011790   0.013166   0.001548
     2  H   -0.000413   0.008452   0.008848   0.016037  -0.044675  -0.000873
     3  C   -0.095973  -0.093848   0.046071  -0.013955   0.005178  -0.001956
     4  H   -0.003245  -0.005133   0.000772  -0.001312   0.000464  -0.000077
     5  C    0.120870  -0.271866  -0.228282  -0.069377  -0.013766   0.009725
     6  C    0.358586   0.049410   0.079728  -0.089773   0.014228   0.000693
     7  O    7.982157  -0.145138   0.074303  -0.086745   0.010211  -0.014028
     8  O   -0.145138   8.386749   0.157351   0.014442  -0.088516  -0.021153
     9  C    0.074303   0.157351   5.964086  -0.320484   0.378151   0.429463
    10  C   -0.086745   0.014442  -0.320484   5.896818  -0.120295  -0.071249
    11  H    0.010211  -0.088516   0.378151  -0.120295   0.619765  -0.049469
    12  H   -0.014028  -0.021153   0.429463  -0.071249  -0.049469   0.500174
    13  H   -0.002237   0.020405  -0.054630   0.421957  -0.016640  -0.005464
    14  H    0.000544  -0.007904  -0.030550   0.398366  -0.013195   0.003892
    15  H    0.003273  -0.019855  -0.008411   0.379695   0.017154  -0.005356
              13         14         15
     1  O   -0.001790   0.006010  -0.003942
     2  H    0.001927  -0.001634   0.000286
     3  C   -0.000661   0.000396   0.004161
     4  H   -0.000033   0.000028   0.000034
     5  C   -0.000411   0.005914  -0.029739
     6  C   -0.003896   0.005253   0.008914
     7  O   -0.002237   0.000544   0.003273
     8  O    0.020405  -0.007904  -0.019855
     9  C   -0.054630  -0.030550  -0.008411
    10  C    0.421957   0.398366   0.379695
    11  H   -0.016640  -0.013195   0.017154
    12  H   -0.005464   0.003892  -0.005356
    13  H    0.522800  -0.029796  -0.030648
    14  H   -0.029796   0.530096  -0.047863
    15  H   -0.030648  -0.047863   0.542273
          Atomic-Atomic Spin Densities.
               1          2          3          4          5          6
     1  O    0.879157   0.007538  -0.000369  -0.000010   0.004605   0.001425
     2  H    0.007538  -0.030139   0.000085  -0.000000  -0.000877  -0.000488
     3  C   -0.000369   0.000085   0.002266   0.000524  -0.008962   0.005638
     4  H   -0.000010  -0.000000   0.000524  -0.000003  -0.001644   0.001090
     5  C    0.004605  -0.000877  -0.008962  -0.001644   0.021976  -0.002632
     6  C    0.001425  -0.000488   0.005638   0.001090  -0.002632  -0.006714
     7  O    0.000126   0.000004  -0.000958  -0.000009   0.006189  -0.003748
     8  O    0.031822  -0.003193   0.001218  -0.000048  -0.007740   0.011053
     9  C   -0.111982   0.008823   0.000474  -0.000010  -0.012463  -0.004464
    10  C    0.026269  -0.002749  -0.001223  -0.000000   0.012835  -0.002214
    11  H   -0.069727   0.004487   0.001369   0.000093  -0.006789   0.005015
    12  H    0.004275  -0.000218   0.000214  -0.000008  -0.001083   0.000531
    13  H    0.000109   0.000048  -0.000001   0.000001   0.000015   0.000177
    14  H    0.003191  -0.000432  -0.000053  -0.000014   0.000249   0.000307
    15  H   -0.001689   0.000177  -0.000087   0.000012   0.000213  -0.001365
               7          8          9         10         11         12
     1  O    0.000126   0.031822  -0.111982   0.026269  -0.069727   0.004275
     2  H    0.000004  -0.003193   0.008823  -0.002749   0.004487  -0.000218
     3  C   -0.000958   0.001218   0.000474  -0.001223   0.001369   0.000214
     4  H   -0.000009  -0.000048  -0.000010  -0.000000   0.000093  -0.000008
     5  C    0.006189  -0.007740  -0.012463   0.012835  -0.006789  -0.001083
     6  C   -0.003748   0.011053  -0.004464  -0.002214   0.005015   0.000531
     7  O    0.000966   0.001256   0.000295  -0.001211  -0.001983   0.000488
     8  O    0.001256   0.020816  -0.056280   0.011054  -0.022073   0.003534
     9  C    0.000295  -0.056280   0.369086  -0.014432   0.110739  -0.018903
    10  C   -0.001211   0.011054  -0.014432  -0.019477  -0.029171   0.008758
    11  H   -0.001983  -0.022073   0.110739  -0.029171  -0.026955   0.002437
    12  H    0.000488   0.003534  -0.018903   0.008758   0.002437  -0.000034
    13  H   -0.000022   0.000075  -0.001514   0.002742  -0.001653  -0.000045
    14  H    0.000279   0.002159  -0.012267   0.008101  -0.001018   0.000277
    15  H   -0.000671  -0.000317   0.005355  -0.001683  -0.000060  -0.001309
              13         14         15
     1  O    0.000109   0.003191  -0.001689
     2  H    0.000048  -0.000432   0.000177
     3  C   -0.000001  -0.000053  -0.000087
     4  H    0.000001  -0.000014   0.000012
     5  C    0.000015   0.000249   0.000213
     6  C    0.000177   0.000307  -0.001365
     7  O   -0.000022   0.000279  -0.000671
     8  O    0.000075   0.002159  -0.000317
     9  C   -0.001514  -0.012267   0.005355
    10  C    0.002742   0.008101  -0.001683
    11  H   -0.001653  -0.001018  -0.000060
    12  H   -0.000045   0.000277  -0.001309
    13  H    0.000648  -0.000276  -0.000333
    14  H   -0.000276   0.004372  -0.002707
    15  H   -0.000333  -0.002707   0.018901
 Mulliken charges and spin densities:
               1          2
     1  O   -0.307604   0.774740
     2  H    0.258539  -0.016936
     3  C   -0.565756   0.000135
     4  H    0.187342  -0.000026
     5  C    1.112507   0.003892
     6  C   -0.720083   0.003611
     7  O   -0.201826   0.001001
     8  O   -0.003306  -0.006666
     9  C   -0.479431   0.262456
    10  C   -0.342333  -0.002403
    11  H    0.288238  -0.035291
    12  H    0.224130  -0.001086
    13  H    0.179119  -0.000031
    14  H    0.180442   0.002167
    15  H    0.190022   0.014436
 Sum of Mulliken charges =  -0.00000   1.00000
 Mulliken charges and spin densities with hydrogens summed into heavy atoms:
               1          2
     1  O   -0.049065   0.757804
     3  C   -0.378415   0.000109
     5  C    1.112507   0.003892
     6  C   -0.720083   0.003611
     7  O   -0.201826   0.001001
     8  O   -0.003306  -0.006666
     9  C    0.032937   0.226079
    10  C    0.207250   0.014169
 APT charges:
               1
     1  O   -0.118517
     2  H    0.305952
     3  C   -0.179506
     4  H    0.237102
     5  C   -0.312472
     6  C    1.548761
     7  O   -0.790390
     8  O   -1.040688
     9  C    0.900751
    10  C   -0.157616
    11  H   -0.425722
    12  H   -0.054249
    13  H    0.025386
    14  H    0.026625
    15  H    0.034582
 Sum of APT charges =  -0.00000
 APT charges with hydrogens summed into heavy atoms:
               1
     1  O    0.187435
     3  C    0.057596
     5  C   -0.312472
     6  C    1.548761
     7  O   -0.790390
     8  O   -1.040688
     9  C    0.420780
    10  C   -0.071022
 Electronic spatial extent (au):  <R**2>=           1264.1851
 Charge=              0.0000 electrons
 Dipole moment (field-independent basis, Debye):
    X=             -1.2370    Y=              1.1068    Z=              1.2029  Tot=              2.0498
 Quadrupole moment (field-independent basis, Debye-Ang):
   XX=            -45.5578   YY=            -47.7462   ZZ=            -48.2524
   XY=            -11.2870   XZ=             -1.9008   YZ=             -0.3403
 Traceless Quadrupole moment (field-independent basis, Debye-Ang):
   XX=              1.6276   YY=             -0.5607   ZZ=             -1.0669
   XY=            -11.2870   XZ=             -1.9008   YZ=             -0.3403
 Octapole moment (field-independent basis, Debye-Ang**2):
  XXX=            -51.2882  YYY=             16.9538  ZZZ=             -3.2378  XYY=              1.5113
  XXY=              7.8474  XXZ=             12.3494  XZZ=              4.6443  YZZ=             -0.3265
  YYZ=              6.2233  XYZ=              1.0407
 Hexadecapole moment (field-independent basis, Debye-Ang**3):
 XXXX=          -1021.4402 YYYY=           -371.6336 ZZZZ=           -123.9150 XXXY=           -141.1881
 XXXZ=            -37.0512 YYYX=              8.7210 YYYZ=              1.9373 ZZZX=              3.3406
 ZZZY=              3.7152 XXYY=           -239.9066 XXZZ=           -217.0771 YYZZ=            -91.9174
 XXYZ=             22.9505 YYXZ=             -5.0961 ZZXY=              0.2911
 N-N= 3.483477387700D+02 E-N=-1.680976449947D+03  KE= 4.188589663225D+02
  Exact polarizability:  94.182  -0.977  83.174  -4.471   3.569  51.336
 Approx polarizability:  95.482  -7.376  93.319  -6.759  10.193  60.600
                          Isotropic Fermi Contact Couplings
        Atom                 a.u.       MegaHertz       Gauss      10(-4) cm-1
     1  O(17)              0.12604     -76.40308     -27.26252     -25.48533
     2  H(1)              -0.01329     -59.41595     -21.20109     -19.81903
     3  C(13)              0.00014       0.15595       0.05565       0.05202
     4  H(1)              -0.00000      -0.01562      -0.00557      -0.00521
     5  C(13)             -0.00032      -0.36066      -0.12869      -0.12030
     6  C(13)              0.00828       9.31049       3.32221       3.10565
     7  O(17)              0.00140      -0.84791      -0.30256      -0.28283
     8  O(17)              0.00740      -4.48472      -1.60026      -1.49594
     9  C(13)              0.12775     143.61950      51.24701      47.90631
    10  C(13)             -0.00283      -3.18703      -1.13721      -1.06308
    11  H(1)              -0.00984     -43.97004     -15.68960     -14.66683
    12  H(1)               0.00099       4.42222       1.57796       1.47509
    13  H(1)               0.00046       2.04351       0.72918       0.68164
    14  H(1)               0.00130       5.83225       2.08109       1.94543
    15  H(1)               0.00763      34.12207      12.17560      11.38190
 --------------------------------------------------------
       Center         ----  Spin Dipole Couplings  ----
                      3XX-RR        3YY-RR        3ZZ-RR
 --------------------------------------------------------
     1   Atom       -0.422884      1.959706     -1.536822
     2   Atom        0.088819      0.006273     -0.095092
     3   Atom        0.001369     -0.000898     -0.000470
     4   Atom        0.000986     -0.000474     -0.000512
     5   Atom        0.002868     -0.001060     -0.001808
     6   Atom        0.011294     -0.004864     -0.006430
     7   Atom        0.001638     -0.004326      0.002688
     8   Atom       -0.001606      0.008703     -0.007097
     9   Atom        0.013886      0.173441     -0.187327
    10   Atom       -0.011587      0.013380     -0.001794
    11   Atom       -0.018117      0.118126     -0.100009
    12   Atom       -0.015917     -0.001617      0.017534
    13   Atom       -0.001284      0.005330     -0.004045
    14   Atom       -0.005319     -0.000656      0.005976
    15   Atom       -0.001950      0.003703     -0.001753
 --------------------------------------------------------
                        XY            XZ            YZ
 --------------------------------------------------------
     1   Atom        2.007687      0.145110      0.249047
     2   Atom       -0.073780     -0.049094      0.033648
     3   Atom       -0.000052     -0.000078      0.000576
     4   Atom       -0.000170     -0.000217      0.000050
     5   Atom       -0.000095     -0.000505     -0.000130
     6   Atom        0.005190      0.003250      0.001663
     7   Atom        0.004124     -0.005440     -0.000687
     8   Atom        0.033243     -0.002742     -0.016206
     9   Atom        0.273800     -0.014947     -0.020198
    10   Atom        0.004669     -0.001727     -0.016497
    11   Atom        0.128387     -0.000644      0.007859
    12   Atom        0.010694      0.001279      0.016613
    13   Atom       -0.004096      0.002360     -0.004129
    14   Atom        0.001554      0.000364     -0.005634
    15   Atom        0.003202     -0.000009     -0.003926
 --------------------------------------------------------


 ---------------------------------------------------------------------------------
              Anisotropic Spin Dipole Couplings in Principal Axis System
 ---------------------------------------------------------------------------------

       Atom             a.u.   MegaHertz   Gauss  10(-4) cm-1        Axes

              Baa    -1.5668   113.371    40.454    37.817  0.8528 -0.4693 -0.2291
     1 O(17)  Bbb    -1.5540   112.445    40.123    37.508  0.1697 -0.1658  0.9715
              Bcc     3.1208  -225.817   -80.577   -75.324  0.4939  0.8673  0.0618
 
              Baa    -0.1099   -58.637   -20.923   -19.559  0.1770 -0.1684  0.9697
     2 H(1)   Bbb    -0.0368   -19.620    -7.001    -6.544  0.5211  0.8519  0.0528
              Bcc     0.1467    78.257    27.924    26.104  0.8349 -0.4959 -0.2386
 
              Baa    -0.0013    -0.174    -0.062    -0.058 -0.0008  0.8210 -0.5709
     3 C(13)  Bbb    -0.0001    -0.010    -0.004    -0.003  0.0649  0.5697  0.8193
              Bcc     0.0014     0.184     0.066     0.062  0.9979 -0.0364 -0.0537
 
              Baa    -0.0006    -0.295    -0.105    -0.099  0.0864 -0.3890  0.9172
     4 H(1)   Bbb    -0.0005    -0.258    -0.092    -0.086  0.1607  0.9140  0.3725
              Bcc     0.0010     0.554     0.198     0.185  0.9832 -0.1152 -0.1415
 
              Baa    -0.0019    -0.253    -0.090    -0.084  0.1074  0.1671  0.9801
     5 C(13)  Bbb    -0.0010    -0.139    -0.050    -0.046  0.0023  0.9857 -0.1684
              Bcc     0.0029     0.392     0.140     0.131  0.9942 -0.0204 -0.1055
 
              Baa    -0.0075    -1.004    -0.358    -0.335  0.0042 -0.5416  0.8406
     6 C(13)  Bbb    -0.0060    -0.802    -0.286    -0.268 -0.3341  0.7915  0.5117
              Bcc     0.0135     1.807     0.645     0.603  0.9425  0.2830  0.1776
 
              Baa    -0.0069     0.501     0.179     0.167 -0.5451  0.7997 -0.2514
     7 O(17)  Bbb    -0.0016     0.115     0.041     0.038  0.4757  0.5420  0.6928
              Bcc     0.0085    -0.615    -0.220    -0.205  0.6903  0.2581 -0.6759
 
              Baa    -0.0332     2.400     0.856     0.801  0.6674 -0.6619 -0.3412
     8 O(17)  Bbb    -0.0082     0.593     0.212     0.198  0.4440 -0.0142  0.8959
              Bcc     0.0414    -2.994    -1.068    -0.999  0.5978  0.7495 -0.2844
 
              Baa    -0.1915   -25.702    -9.171    -8.573  0.7974 -0.6011 -0.0529
     9 C(13)  Bbb    -0.1884   -25.286    -9.023    -8.434  0.0689  0.0035  0.9976
              Bcc     0.3800    50.987    18.194    17.008  0.5995  0.7991 -0.0442
 
              Baa    -0.0134    -1.793    -0.640    -0.598  0.6801 -0.4672 -0.5649
    10 C(13)  Bbb    -0.0112    -1.509    -0.538    -0.503  0.7209  0.2862  0.6312
              Bcc     0.0246     3.302     1.178     1.101  0.1333  0.8365 -0.5315
 
              Baa    -0.1029   -54.921   -19.597   -18.320  0.4344 -0.2827  0.8552
    11 H(1)   Bbb    -0.0925   -49.380   -17.620   -16.471  0.7390 -0.4310 -0.5179
              Bcc     0.1955   104.300    37.217    34.791  0.5150  0.8569  0.0217
 
              Baa    -0.0230   -12.290    -4.385    -4.100  0.8036 -0.5592  0.2037
    12 H(1)   Bbb    -0.0051    -2.715    -0.969    -0.906  0.5756  0.6432 -0.5049
              Bcc     0.0281    15.005     5.354     5.005  0.1513  0.5230  0.8388
 
              Baa    -0.0058    -3.100    -1.106    -1.034 -0.2601  0.2501  0.9326
    13 H(1)   Bbb    -0.0032    -1.708    -0.609    -0.570  0.8723  0.4750  0.1159
              Bcc     0.0090     4.808     1.716     1.604 -0.4140  0.8437 -0.3417
 
              Baa    -0.0063    -3.361    -1.199    -1.121  0.8451 -0.4759 -0.2435
    14 H(1)   Bbb    -0.0029    -1.554    -0.555    -0.518  0.5336  0.7240  0.4371
              Bcc     0.0092     4.915     1.754     1.639 -0.0317 -0.4993  0.8658
 
              Baa    -0.0048    -2.579    -0.920    -0.860 -0.5646  0.5102  0.6487
    15 H(1)   Bbb    -0.0019    -1.002    -0.358    -0.334  0.7615  0.0189  0.6479
              Bcc     0.0067     3.581     1.278     1.194  0.3183  0.8598 -0.3992
 

 ---------------------------------------------------------------------------------

 Calling FoFJK, ICntrl=    100127 FMM=F ISym2X=0 I1Cent= 0 IOpClX= 1 NMat=1 NMatS=1 NMatT=0.
 Full mass-weighted force constant matrix:
 Low frequencies --- -613.3826  -47.3186  -30.3788   -9.3196   -0.0007   -0.0005
 Low frequencies ---    0.0005   19.5973   43.5858
 ******    2 imaginary frequencies (negative Signs) ****** 
 Diagonal vibrational polarizability:
       54.5592074     188.8091072     130.6403494
 Harmonic frequencies (cm**-1), IR intensities (KM/Mole), Raman scattering
 activities (A**4/AMU), depolarization ratios for plane and unpolarized
 incident light, reduced masses (AMU), force constants (mDyne/A),
 and normal coordinates:
                      1                      2                      3
                      A                      A                      A
 Frequencies --   -613.3824               -28.2437                38.7782
 Red. masses --      1.9067                 5.1251                 5.6609
 Frc consts  --      0.4227                 0.0024                 0.0050
 IR Inten    --    583.2936                 2.5932                 4.6603
  Atom  AN      X      Y      Z        X      Y      Z        X      Y      Z
     1   8     0.08   0.19   0.02     0.19  -0.13   0.24     0.38  -0.05  -0.15
     2   1    -0.05  -0.01   0.03     0.28  -0.04   0.36     0.54   0.25  -0.19
     3   6    -0.00   0.00   0.00    -0.06  -0.02  -0.02    -0.15  -0.20   0.09
     4   1    -0.00  -0.00  -0.00    -0.06  -0.02  -0.04    -0.20  -0.30   0.14
     5   6    -0.00   0.00   0.00    -0.05  -0.02  -0.00    -0.09  -0.08   0.03
     6   6     0.01   0.00   0.01    -0.05  -0.03   0.02    -0.04   0.03  -0.03
     7   8    -0.01   0.00   0.00    -0.05  -0.10   0.19     0.02   0.07  -0.15
     8   8    -0.00   0.00  -0.01    -0.05   0.05  -0.17    -0.08   0.04   0.07
     9   6    -0.02  -0.12  -0.05    -0.06   0.05  -0.19    -0.05   0.08   0.10
    10   6    -0.03  -0.05   0.02     0.07   0.21  -0.11    -0.09   0.06   0.10
    11   1    -0.15  -0.70  -0.36    -0.09   0.05  -0.35    -0.05   0.05   0.12
    12   1    -0.30  -0.40   0.11    -0.13  -0.08  -0.12    -0.02   0.08   0.10
    13   1    -0.02  -0.04   0.02     0.07   0.23  -0.14    -0.07   0.07   0.13
    14   1     0.02   0.02  -0.02     0.13   0.34  -0.19    -0.14   0.03   0.12
    15   1     0.01  -0.06   0.12     0.12   0.19   0.06    -0.08   0.05   0.05
                      4                      5                      6
                      A                      A                      A
 Frequencies --     74.5787                92.9604               155.0995
 Red. masses --      3.2972                 3.8643                 3.2729
 Frc consts  --      0.0108                 0.0197                 0.0464
 IR Inten    --      3.5012                 2.4387                10.8261
  Atom  AN      X      Y      Z        X      Y      Z        X      Y      Z
     1   8     0.09   0.09  -0.02     0.03  -0.00  -0.04     0.07   0.11   0.01
     2   1     0.11   0.17  -0.09     0.12   0.02   0.24     0.12   0.27  -0.14
     3   6    -0.07  -0.01  -0.15    -0.05   0.08  -0.16     0.18   0.20   0.07
     4   1    -0.10  -0.01  -0.27    -0.05   0.14  -0.29     0.35   0.43   0.15
     5   6    -0.02  -0.00  -0.01    -0.05   0.01  -0.00    -0.03  -0.10  -0.03
     6   6     0.01   0.00   0.10    -0.06  -0.03   0.06    -0.06  -0.14  -0.04
     7   8     0.05  -0.04   0.19    -0.08   0.03  -0.07    -0.01  -0.14  -0.05
     8   8    -0.01   0.05   0.06    -0.05  -0.12   0.25    -0.11  -0.08  -0.01
     9   6    -0.00   0.08   0.01    -0.05  -0.01   0.02    -0.03   0.07   0.04
    10   6    -0.08  -0.19  -0.18     0.27   0.04  -0.07    -0.02   0.03   0.00
    11   1     0.03   0.08   0.23    -0.14   0.03  -0.15    -0.09   0.15   0.17
    12   1     0.04   0.30  -0.10    -0.21  -0.04   0.05     0.11   0.14  -0.01
    13   1    -0.06  -0.12  -0.22     0.25   0.12  -0.29     0.11   0.27   0.13
    14   1    -0.15  -0.43  -0.04     0.43   0.05  -0.09    -0.31  -0.07   0.08
    15   1    -0.08  -0.22  -0.44     0.36  -0.02   0.09     0.13  -0.13  -0.22
                      7                      8                      9
                      A                      A                      A
 Frequencies --    208.3335               221.8374               269.4591
 Red. masses --      1.1064                 1.2578                 4.1167
 Frc consts  --      0.0283                 0.0365                 0.1761
 IR Inten    --    103.3911                 1.6770                 4.0140
  Atom  AN      X      Y      Z        X      Y      Z        X      Y      Z
     1   8    -0.01   0.01  -0.07     0.00   0.01  -0.01    -0.02  -0.05   0.00
     2   1     0.17  -0.17   0.94     0.03   0.01   0.10    -0.07  -0.08  -0.12
     3   6     0.01   0.00   0.00     0.04   0.04  -0.00     0.02   0.06  -0.17
     4   1     0.02   0.01   0.01     0.09   0.11  -0.01     0.02   0.24  -0.58
     5   6     0.00  -0.01  -0.01    -0.01  -0.06   0.00     0.03  -0.17   0.37
     6   6     0.01  -0.00  -0.00     0.00  -0.03   0.00     0.03  -0.04   0.12
     7   8     0.02  -0.01   0.00     0.07  -0.02  -0.02     0.07   0.06  -0.11
     8   8    -0.00   0.01  -0.00    -0.03   0.02   0.03     0.02   0.04  -0.02
     9   6    -0.00   0.01   0.00    -0.03   0.03   0.00    -0.03  -0.00  -0.09
    10   6    -0.03  -0.00   0.01    -0.05   0.01  -0.01    -0.10   0.07  -0.00
    11   1    -0.01   0.01  -0.03    -0.02   0.03  -0.00     0.00  -0.06  -0.16
    12   1     0.00   0.00   0.00    -0.05   0.04  -0.00    -0.10  -0.06  -0.05
    13   1     0.01   0.06   0.08    -0.31  -0.45  -0.27     0.00   0.19   0.23
    14   1    -0.15  -0.04   0.04     0.47   0.09  -0.10    -0.38   0.11  -0.01
    15   1     0.01  -0.05  -0.08    -0.37   0.31   0.31    -0.02  -0.02  -0.12
                     10                     11                     12
                      A                      A                      A
 Frequencies --    299.9176               418.9071               558.3430
 Red. masses --      3.6927                 3.6754                 4.2653
 Frc consts  --      0.1957                 0.3800                 0.7834
 IR Inten    --     10.1385                 3.4068                 2.3838
  Atom  AN      X      Y      Z        X      Y      Z        X      Y      Z
     1   8    -0.05  -0.13   0.00     0.00   0.02   0.01    -0.02  -0.03  -0.00
     2   1    -0.13  -0.15  -0.23     0.02   0.07  -0.07     0.07   0.13   0.01
     3   6     0.04   0.03   0.07     0.07  -0.09  -0.01     0.17  -0.13  -0.06
     4   1     0.12   0.08   0.24     0.00  -0.23   0.04     0.01  -0.34  -0.16
     5   6    -0.08  -0.04  -0.17     0.16   0.11  -0.08     0.32   0.11   0.07
     6   6     0.03   0.05  -0.00     0.05  -0.05   0.04     0.02  -0.04  -0.05
     7   8     0.27   0.02   0.02    -0.07  -0.03   0.01    -0.05  -0.05  -0.02
     8   8    -0.05   0.10   0.14     0.05  -0.14   0.21    -0.13   0.12  -0.04
     9   6    -0.15  -0.04  -0.04     0.00   0.05  -0.15    -0.23   0.05   0.14
    10   6    -0.02   0.02  -0.05    -0.18   0.14  -0.06    -0.01  -0.01   0.00
    11   1    -0.11  -0.20  -0.29    -0.03   0.10  -0.19    -0.20  -0.08  -0.01
    12   1    -0.43  -0.16   0.05    -0.13   0.07  -0.16    -0.29  -0.05   0.19
    13   1     0.12   0.33   0.03    -0.17  -0.03   0.31    -0.00   0.23  -0.39
    14   1    -0.25   0.01  -0.02    -0.42   0.31  -0.14     0.22  -0.19   0.09
    15   1     0.21  -0.18  -0.14    -0.35   0.27  -0.11     0.21  -0.19   0.03
                     13                     14                     15
                      A                      A                      A
 Frequencies --    603.6346               708.7489               742.9093
 Red. masses --      6.2027                 1.3879                 1.3172
 Frc consts  --      1.3316                 0.4108                 0.4283
 IR Inten    --      8.1611                84.1780                34.4362
  Atom  AN      X      Y      Z        X      Y      Z        X      Y      Z
     1   8    -0.01   0.03   0.00    -0.05  -0.00   0.01     0.00   0.00  -0.00
     2   1     0.21   0.38   0.05     0.43   0.80   0.08    -0.01  -0.02  -0.00
     3   6    -0.20   0.11   0.05     0.04  -0.02  -0.01    -0.09  -0.12  -0.03
     4   1    -0.43  -0.20  -0.07     0.09   0.04   0.01     0.55   0.79   0.21
     5   6     0.05   0.38   0.16    -0.00  -0.06  -0.03     0.04   0.06   0.02
     6   6    -0.08  -0.08  -0.03     0.03   0.05   0.02    -0.00  -0.00  -0.00
     7   8     0.32  -0.10  -0.05    -0.01   0.06   0.02     0.01  -0.00  -0.00
     8   8    -0.08  -0.19  -0.07     0.02  -0.02  -0.02    -0.00  -0.00  -0.00
     9   6    -0.05  -0.08  -0.04    -0.05  -0.09  -0.04    -0.01   0.00   0.00
    10   6    -0.00  -0.01   0.01    -0.00  -0.03   0.01    -0.00   0.00  -0.00
    11   1    -0.17   0.13   0.19    -0.16   0.11   0.15    -0.00  -0.00   0.00
    12   1     0.17   0.03  -0.11     0.02   0.02  -0.10    -0.00  -0.00   0.00
    13   1     0.01  -0.00   0.04     0.03   0.02   0.06    -0.00   0.01  -0.01
    14   1     0.00   0.12  -0.06    -0.01   0.13  -0.08     0.00  -0.00   0.00
    15   1     0.02  -0.01   0.14     0.06  -0.06   0.17     0.00  -0.00  -0.00
                     16                     17                     18
                      A                      A                      A
 Frequencies --    773.4267               781.7769               785.8068
 Red. masses --      1.5392                 1.7706                 2.0107
 Frc consts  --      0.5425                 0.6376                 0.7315
 IR Inten    --     13.1867                68.0133                33.0439
  Atom  AN      X      Y      Z        X      Y      Z        X      Y      Z
     1   8    -0.00  -0.00   0.00     0.03   0.03  -0.00    -0.03  -0.03   0.00
     2   1     0.03   0.05  -0.00    -0.16  -0.32   0.01     0.18   0.34   0.00
     3   6    -0.01   0.05  -0.15     0.02   0.00  -0.05    -0.03   0.02  -0.02
     4   1     0.07  -0.29   0.92     0.05  -0.16   0.42    -0.01  -0.08   0.28
     5   6     0.00  -0.03   0.10     0.01   0.01  -0.06    -0.01   0.05  -0.06
     6   6    -0.00   0.04  -0.10    -0.01  -0.07   0.20     0.01  -0.11   0.21
     7   8     0.00  -0.01   0.03    -0.00   0.04  -0.05    -0.00   0.00  -0.07
     8   8     0.00  -0.01   0.02    -0.01   0.02  -0.04     0.01   0.04  -0.06
     9   6     0.01   0.01   0.00    -0.06  -0.04  -0.02     0.06   0.06   0.03
    10   6     0.00   0.00  -0.00    -0.02  -0.02  -0.01     0.02   0.02   0.02
    11   1    -0.01   0.02  -0.07     0.08  -0.08   0.42    -0.07   0.06  -0.44
    12   1    -0.03  -0.04   0.03     0.15   0.29  -0.20    -0.11  -0.32   0.22
    13   1    -0.01  -0.03   0.01     0.05   0.16  -0.02    -0.06  -0.16  -0.04
    14   1    -0.02  -0.03   0.02     0.04   0.26  -0.16     0.00  -0.32   0.21
    15   1    -0.03   0.02  -0.05     0.16  -0.12   0.33    -0.14   0.09  -0.34
                     19                     20                     21
                      A                      A                      A
 Frequencies --    896.4415               942.3113              1087.4549
 Red. masses --      3.0030                 2.8430                 3.4841
 Frc consts  --      1.4218                 1.4874                 2.4275
 IR Inten    --     20.9529                28.8417               155.0725
  Atom  AN      X      Y      Z        X      Y      Z        X      Y      Z
     1   8    -0.02  -0.02  -0.00    -0.03  -0.02  -0.00    -0.03  -0.04  -0.00
     2   1     0.12   0.22   0.03     0.13   0.24   0.04     0.10   0.18   0.04
     3   6    -0.04   0.02   0.01    -0.10   0.06   0.03     0.05  -0.03  -0.02
     4   1    -0.05   0.01   0.00    -0.11   0.07   0.03     0.05  -0.05  -0.02
     5   6     0.01   0.06   0.02    -0.07   0.03   0.02     0.04   0.01   0.00
     6   6    -0.00  -0.10  -0.05     0.13  -0.08  -0.05    -0.11   0.02   0.01
     7   8    -0.05  -0.14  -0.06    -0.05  -0.12  -0.04     0.02   0.02   0.01
     8   8    -0.03   0.24   0.09     0.19   0.05   0.04    -0.19   0.07   0.05
     9   6     0.08   0.01  -0.10    -0.01  -0.02   0.09     0.28  -0.16   0.07
    10   6     0.09  -0.13   0.03    -0.14   0.08  -0.07    -0.06   0.11  -0.13
    11   1     0.13  -0.08  -0.02     0.17  -0.27   0.18     0.23  -0.37   0.29
    12   1    -0.19   0.26  -0.20    -0.01  -0.06   0.11     0.39  -0.32   0.15
    13   1     0.17  -0.25   0.55    -0.09   0.46  -0.50    -0.04   0.18  -0.21
    14   1    -0.16   0.27  -0.17     0.17   0.09  -0.09    -0.00   0.19  -0.19
    15   1    -0.01  -0.01   0.31     0.21  -0.18   0.11    -0.03   0.09  -0.17
                     22                     23                     24
                      A                      A                      A
 Frequencies --   1127.0769              1158.1509              1267.1603
 Red. masses --      2.1020                 2.0422                 1.5340
 Frc consts  --      1.5732                 1.6139                 1.4512
 IR Inten    --     94.8945               164.1467               580.9437
  Atom  AN      X      Y      Z        X      Y      Z        X      Y      Z
     1   8     0.01   0.02   0.00    -0.02  -0.03  -0.00     0.02   0.03   0.00
     2   1    -0.03  -0.06   0.01     0.04   0.09  -0.00    -0.06  -0.10  -0.03
     3   6    -0.01   0.01   0.00     0.00  -0.00  -0.00     0.02  -0.01  -0.01
     4   1    -0.01   0.01   0.00     0.01   0.00   0.00     0.02  -0.03  -0.01
     5   6    -0.01  -0.00   0.00    -0.00  -0.01  -0.00     0.01   0.00   0.00
     6   6     0.02  -0.01   0.00     0.01   0.01   0.01    -0.14  -0.01  -0.00
     7   8    -0.01  -0.01  -0.01     0.01   0.04   0.01     0.01  -0.02  -0.01
     8   8     0.06   0.02  -0.04    -0.02  -0.09  -0.06     0.08   0.06   0.02
     9   6    -0.12  -0.10   0.18     0.07   0.17   0.13     0.01  -0.07   0.05
    10   6     0.11   0.05  -0.15    -0.04  -0.10  -0.09    -0.05  -0.04  -0.02
    11   1    -0.12  -0.02   0.25     0.11  -0.16  -0.38    -0.36   0.59  -0.47
    12   1    -0.12  -0.05   0.17    -0.25   0.03   0.23     0.35  -0.14   0.04
    13   1     0.06  -0.30   0.34     0.15   0.17   0.22     0.01   0.12  -0.06
    14   1    -0.39   0.22  -0.21    -0.05   0.40  -0.37    -0.01   0.15  -0.14
    15   1    -0.33   0.40  -0.23     0.05  -0.09   0.44     0.04  -0.10   0.15
                     25                     26                     27
                      A                      A                      A
 Frequencies --   1279.5291              1371.7168              1387.3942
 Red. masses --      3.5017                 1.1933                 1.1270
 Frc consts  --      3.3778                 1.3229                 1.2782
 IR Inten    --    490.4086                 8.2167               112.2959
  Atom  AN      X      Y      Z        X      Y      Z        X      Y      Z
     1   8     0.02   0.01   0.00    -0.00  -0.00   0.00    -0.01  -0.02   0.00
     2   1    -0.12  -0.20  -0.03     0.02   0.05  -0.01     0.03   0.07  -0.01
     3   6    -0.07   0.04   0.02     0.01  -0.00  -0.00    -0.00   0.00   0.00
     4   1    -0.06   0.07   0.03     0.01  -0.01  -0.00    -0.00   0.00   0.00
     5   6    -0.02   0.00   0.00     0.00  -0.00   0.00    -0.00  -0.00  -0.00
     6   6     0.39   0.01  -0.00    -0.04   0.00   0.00     0.01  -0.01  -0.01
     7   8    -0.05  -0.00  -0.00     0.01   0.00  -0.00    -0.00   0.01   0.00
     8   8    -0.19   0.00  -0.00     0.01  -0.01  -0.02    -0.00   0.00   0.01
     9   6     0.05  -0.10   0.04     0.04  -0.07   0.07    -0.06   0.01   0.03
    10   6    -0.02  -0.02  -0.01     0.01   0.01   0.06     0.01   0.05  -0.05
    11   1    -0.55   0.50  -0.30    -0.00  -0.15  -0.35    -0.01  -0.40  -0.35
    12   1     0.18   0.09  -0.07    -0.27   0.71  -0.29     0.64   0.23  -0.14
    13   1     0.00   0.06  -0.05    -0.04   0.09  -0.25    -0.03  -0.19   0.22
    14   1    -0.01   0.12  -0.10    -0.02   0.12  -0.01    -0.02  -0.26   0.13
    15   1    -0.02  -0.02   0.00    -0.10   0.07  -0.27     0.13  -0.03   0.19
                     28                     29                     30
                      A                      A                      A
 Frequencies --   1421.1098              1485.9830              1495.5843
 Red. masses --      1.3223                 1.0400                 1.0462
 Frc consts  --      1.5733                 1.3531                 1.3788
 IR Inten    --     57.3300                13.0753                 7.5432
  Atom  AN      X      Y      Z        X      Y      Z        X      Y      Z
     1   8    -0.01  -0.01  -0.00    -0.00  -0.00  -0.00     0.00   0.00   0.00
     2   1     0.02   0.03   0.00     0.00   0.00  -0.00    -0.00  -0.00  -0.00
     3   6    -0.00   0.00   0.00     0.00  -0.00  -0.00     0.00  -0.00  -0.00
     4   1    -0.00   0.00   0.00     0.00  -0.00  -0.00     0.00  -0.00  -0.00
     5   6    -0.00   0.00  -0.00     0.00   0.00   0.00     0.00   0.00  -0.00
     6   6     0.02  -0.00  -0.00    -0.00   0.00   0.00    -0.00   0.00   0.00
     7   8    -0.00   0.00   0.00    -0.00  -0.00  -0.00     0.00  -0.00  -0.00
     8   8    -0.00   0.00   0.02     0.01   0.00   0.00    -0.00   0.00  -0.00
     9   6    -0.06   0.06  -0.03    -0.02  -0.02  -0.00     0.02  -0.02  -0.01
    10   6     0.06  -0.09   0.08    -0.03  -0.03  -0.02     0.03  -0.01  -0.04
    11   1     0.06  -0.23  -0.06    -0.04  -0.04   0.01     0.01   0.05   0.00
    12   1     0.49  -0.16   0.02     0.05   0.04  -0.04    -0.11   0.05  -0.04
    13   1     0.07   0.24  -0.39     0.28   0.44   0.43     0.12   0.34  -0.20
    14   1    -0.22   0.36  -0.16     0.59  -0.12   0.00    -0.33  -0.40   0.23
    15   1    -0.34   0.21  -0.23    -0.31   0.20  -0.19    -0.29   0.33   0.53
                     31                     32                     33
                      A                      A                      A
 Frequencies --   1777.9322              1848.7228              2269.6447
 Red. masses --      1.1833                 9.7860                 5.7450
 Frc consts  --      2.2038                19.7061                17.4363
 IR Inten    --   1107.8906               209.1240                77.5960
  Atom  AN      X      Y      Z        X      Y      Z        X      Y      Z
     1   8     0.01   0.03   0.01     0.00   0.01   0.00    -0.00  -0.00  -0.00
     2   1     0.04   0.05   0.00     0.01   0.01  -0.00     0.00   0.00   0.00
     3   6    -0.01   0.00   0.00     0.05  -0.03  -0.02    -0.31   0.19   0.09
     4   1    -0.01   0.01   0.00     0.09  -0.03  -0.02    -0.62   0.39   0.17
     5   6     0.00  -0.00  -0.00    -0.04   0.01   0.00     0.44  -0.27  -0.12
     6   6     0.02  -0.04  -0.01     0.01   0.65   0.27    -0.07   0.06   0.03
     7   8    -0.00   0.03   0.01    -0.01  -0.43  -0.18     0.00  -0.01  -0.00
     8   8    -0.03  -0.00   0.00    -0.03  -0.04  -0.02    -0.01  -0.00  -0.00
     9   6    -0.07  -0.07   0.01    -0.05  -0.00   0.01     0.00   0.00   0.00
    10   6    -0.00  -0.00  -0.00     0.01  -0.00  -0.01    -0.00   0.00  -0.00
    11   1     0.89   0.32  -0.27     0.46   0.10  -0.17    -0.01  -0.01   0.00
    12   1     0.01  -0.07  -0.00     0.11  -0.02   0.02    -0.00   0.00  -0.00
    13   1     0.01   0.00   0.03    -0.01  -0.05   0.04     0.00  -0.00  -0.00
    14   1     0.02   0.00  -0.01    -0.02   0.01  -0.01    -0.00  -0.00   0.00
    15   1    -0.01  -0.02  -0.01     0.03  -0.03   0.03     0.00  -0.00   0.00
                     34                     35                     36
                      A                      A                      A
 Frequencies --   3070.1093              3130.7398              3149.2308
 Red. masses --      1.0348                 1.0862                 1.1022
 Frc consts  --      5.7469                 6.2724                 6.4402
 IR Inten    --      4.3556                 5.0928                 3.4025
  Atom  AN      X      Y      Z        X      Y      Z        X      Y      Z
     1   8    -0.00  -0.00  -0.00     0.00   0.00   0.00     0.00   0.00   0.00
     2   1     0.00   0.00   0.00     0.00   0.00  -0.00     0.00   0.00  -0.00
     3   6    -0.00   0.00   0.00    -0.00   0.00   0.00     0.00  -0.00  -0.00
     4   1     0.00  -0.00  -0.00    -0.00  -0.00   0.00    -0.00   0.00   0.00
     5   6     0.00  -0.00  -0.00     0.00   0.00  -0.00    -0.00   0.00   0.00
     6   6    -0.00  -0.00  -0.00    -0.00  -0.00  -0.00     0.00  -0.00  -0.00
     7   8    -0.00   0.00  -0.00    -0.00   0.00   0.00    -0.00   0.00  -0.00
     8   8     0.00   0.00   0.00     0.00  -0.00   0.00     0.00  -0.00   0.00
     9   6    -0.00   0.00  -0.00    -0.01  -0.03  -0.07    -0.00  -0.01  -0.01
    10   6     0.01  -0.03   0.03     0.00   0.02   0.02    -0.08  -0.04  -0.01
    11   1     0.01   0.01  -0.00     0.00   0.00  -0.01     0.01   0.01  -0.00
    12   1     0.00  -0.00   0.00     0.08   0.42   0.85     0.01   0.07   0.14
    13   1    -0.47   0.19   0.12     0.08  -0.03  -0.02     0.50  -0.22  -0.13
    14   1    -0.03  -0.28  -0.47    -0.02  -0.13  -0.22     0.01   0.17   0.31
    15   1     0.42   0.49  -0.06    -0.10  -0.11   0.02     0.46   0.56  -0.07
                     37                     38                     39
                      A                      A                      A
 Frequencies --   3160.7750              3489.5256              3787.9450
 Red. masses --      1.1021                 1.1712                 1.0669
 Frc consts  --      6.4872                 8.4028                 9.0194
 IR Inten    --      9.7572                62.4082                38.5797
  Atom  AN      X      Y      Z        X      Y      Z        X      Y      Z
     1   8     0.00   0.00   0.00     0.00  -0.00  -0.00    -0.05   0.03   0.01
     2   1    -0.00   0.00  -0.00    -0.00  -0.00   0.00     0.84  -0.48  -0.24
     3   6    -0.00   0.00   0.00    -0.10   0.06   0.03    -0.00   0.00   0.00
     4   1    -0.00  -0.00  -0.00     0.82  -0.51  -0.23     0.00  -0.00  -0.00
     5   6     0.00  -0.00  -0.00     0.03  -0.02  -0.01    -0.00   0.00  -0.00
     6   6    -0.00  -0.00  -0.00    -0.00   0.00   0.00     0.00  -0.00   0.00
     7   8    -0.00   0.00   0.00     0.00   0.00   0.00    -0.00   0.00   0.00
     8   8    -0.00   0.00   0.00     0.00  -0.00  -0.00    -0.00   0.00   0.00
     9   6    -0.00  -0.01  -0.02    -0.00  -0.00   0.00     0.00   0.00  -0.00
    10   6     0.04  -0.05  -0.06     0.00   0.00  -0.00    -0.00  -0.00  -0.00
    11   1     0.00   0.00  -0.00     0.00   0.00  -0.00    -0.01  -0.01   0.00
    12   1     0.02   0.11   0.24     0.00  -0.00  -0.00    -0.00  -0.00   0.00
    13   1    -0.58   0.23   0.13     0.00  -0.00   0.00     0.00   0.00  -0.00
    14   1     0.05   0.35   0.62    -0.00   0.00   0.00     0.00   0.00   0.00
    15   1     0.06   0.06  -0.02    -0.00   0.00  -0.00     0.00  -0.00   0.00

 -------------------
 - Thermochemistry -
 -------------------
 Temperature   298.150 Kelvin.  Pressure   1.00000 Atm.
 Atom     1 has atomic number  8 and mass  15.99491
 Atom     2 has atomic number  1 and mass   1.00783
 Atom     3 has atomic number  6 and mass  12.00000
 Atom     4 has atomic number  1 and mass   1.00783
 Atom     5 has atomic number  6 and mass  12.00000
 Atom     6 has atomic number  6 and mass  12.00000
 Atom     7 has atomic number  8 and mass  15.99491
 Atom     8 has atomic number  8 and mass  15.99491
 Atom     9 has atomic number  6 and mass  12.00000
 Atom    10 has atomic number  6 and mass  12.00000
 Atom    11 has atomic number  1 and mass   1.00783
 Atom    12 has atomic number  1 and mass   1.00783
 Atom    13 has atomic number  1 and mass   1.00783
 Atom    14 has atomic number  1 and mass   1.00783
 Atom    15 has atomic number  1 and mass   1.00783
 Molecular mass:   115.03952 amu.
 Principal axes and moments of inertia in atomic units:
                           1         2         3
     Eigenvalues --   598.276421598.488992005.13015
           X            0.99927  -0.03816   0.00281
           Y            0.03821   0.99904  -0.02129
           Z           -0.00200   0.02138   0.99977
 This molecule is an asymmetric top.
 Rotational symmetry number  1.
 Warning -- assumption of classical behavior for rotation
           may cause significant error
 Rotational temperatures (Kelvin)      0.14477     0.05418     0.04320
 Rotational constants (GHZ):           3.01657     1.12903     0.90006
    2 imaginary frequencies ignored.
 Zero-point vibrational energy     283150.4 (Joules/Mol)
                                   67.67458 (Kcal/Mol)
 Warning -- explicit consideration of  11 degrees of freedom as
           vibrations may cause significant error
 Vibrational temperatures:     55.79   107.30   133.75   223.15   299.75
          (Kelvin)            319.17   387.69   431.51   602.71   803.33
                              868.50  1019.73  1068.88  1112.79  1124.80
                             1130.60  1289.78  1355.78  1564.60  1621.61
                             1666.32  1823.16  1840.96  1973.59  1996.15
                             2044.66  2138.00  2151.81  2558.05  2659.90
                             3265.51  4417.20  4504.44  4531.04  4547.65
                             5020.65  5450.01
 
 Zero-point correction=                           0.107846 (Hartree/Particle)
 Thermal correction to Energy=                    0.116982
 Thermal correction to Enthalpy=                  0.117926
 Thermal correction to Gibbs Free Energy=         0.071934
 Sum of electronic and zero-point Energies=           -420.091404
 Sum of electronic and thermal Energies=              -420.082268
 Sum of electronic and thermal Enthalpies=            -420.081324
 Sum of electronic and thermal Free Energies=         -420.127316
 
                     E (Thermal)             CV                S
                      KCal/Mol        Cal/Mol-Kelvin    Cal/Mol-Kelvin
 Total                   73.407             30.576             96.799
 Electronic               0.000              0.000              1.377
 Translational            0.889              2.981             40.136
 Rotational               0.889              2.981             29.040
 Vibrational             71.630             24.614             26.245
 Vibration     1          0.594              1.981              5.321
 Vibration     2          0.599              1.966              4.029
 Vibration     3          0.602              1.954              3.597
 Vibration     4          0.620              1.897              2.609
 Vibration     5          0.642              1.828              2.058
 Vibration     6          0.648              1.808              1.944
 Vibration     7          0.674              1.729              1.600
 Vibration     8          0.692              1.674              1.417
 Vibration     9          0.782              1.429              0.896
 Vibration    10          0.914              1.121              0.527
 Vibration    11          0.962              1.024              0.443
                       Q            Log10(Q)             Ln(Q)
 Total Bot       0.817708D-33        -33.087402        -76.186558
 Total V=0       0.329922D+17         16.518411         38.035046
 Vib (Bot)       0.170067D-46        -46.769379       -107.690474
 Vib (Bot)    1  0.533605D+01          0.727220          1.674486
 Vib (Bot)    2  0.276367D+01          0.441486          1.016558
 Vib (Bot)    3  0.221059D+01          0.344508          0.793259
 Vib (Bot)    4  0.130539D+01          0.115741          0.266503
 Vib (Bot)    5  0.953991D+00         -0.020456         -0.047101
 Vib (Bot)    6  0.890971D+00         -0.050137         -0.115444
 Vib (Bot)    7  0.717417D+00         -0.144228         -0.332098
 Vib (Bot)    8  0.634125D+00         -0.197825         -0.455509
 Vib (Bot)    9  0.419510D+00         -0.377258         -0.868668
 Vib (Bot)   10  0.278812D+00         -0.554688         -1.277217
 Vib (Bot)   11  0.246442D+00         -0.608285         -1.400628
 Vib (V=0)       0.686173D+03          2.836434          6.531130
 Vib (V=0)    1  0.585943D+01          0.767855          1.768052
 Vib (V=0)    2  0.330853D+01          0.519635          1.196504
 Vib (V=0)    3  0.276643D+01          0.441920          1.017557
 Vib (V=0)    4  0.189787D+01          0.278267          0.640733
 Vib (V=0)    5  0.157708D+01          0.197853          0.455574
 Vib (V=0)    6  0.152168D+01          0.182323          0.419815
 Vib (V=0)    7  0.137446D+01          0.138133          0.318064
 Vib (V=0)    8  0.130754D+01          0.116454          0.268145
 Vib (V=0)    9  0.115268D+01          0.061708          0.142088
 Vib (V=0)   10  0.107248D+01          0.030390          0.069976
 Vib (V=0)   11  0.105743D+01          0.024254          0.055846
 Electronic      0.200000D+01          0.301030          0.693147
 Translational   0.484981D+08          7.685724         17.697035
 Rotational      0.495704D+06          5.695223         13.113735
 ***** Axes restored to original set *****
 -------------------------------------------------------------------
 Center     Atomic                   Forces (Hartrees/Bohr)
 Number     Number              X              Y              Z
 -------------------------------------------------------------------
      1        8           0.002476442    0.006005337    0.000685320
      2        1          -0.000055329   -0.000055719    0.000023845
      3        6          -0.000054375    0.000030383    0.000007515
      4        1          -0.000005888   -0.000002088   -0.000001793
      5        6          -0.000066939   -0.000012565    0.000034631
      6        6           0.000260822    0.000050588    0.000200814
      7        8          -0.000203916    0.000045961    0.000059676
      8        8          -0.000387445    0.000254729   -0.000140222
      9        6          -0.000616322   -0.002875869   -0.001057853
     10        6          -0.000753199   -0.001187930    0.000454707
     11        1          -0.000031260   -0.001336514   -0.000802480
     12        1          -0.000621447   -0.000770764    0.000319121
     13        1          -0.000027774   -0.000037349    0.000027967
     14        1           0.000031119    0.000025776   -0.000030777
     15        1           0.000055512   -0.000133976    0.000219529
 -------------------------------------------------------------------
 Cartesian Forces:  Max     0.006005337 RMS     0.001141332

 GradGradGradGradGradGradGradGradGradGradGradGradGradGradGradGradGradGrad
 Berny optimization.
 Search for a local minimum.
 Step number   1 out of a maximum of    2
 All quantities printed in internal units (Hartrees-Bohrs-Radians)
 Second derivative matrix not updated -- analytic derivatives used.
 ITU=  0
     Eigenvalues ---   -0.05761  -0.00021   0.00030   0.00100   0.00158
     Eigenvalues ---    0.00197   0.00288   0.00486   0.01458   0.02046
     Eigenvalues ---    0.02790   0.03203   0.04209   0.05397   0.06254
     Eigenvalues ---    0.07632   0.07931   0.09034   0.09304   0.09657
     Eigenvalues ---    0.10651   0.12452   0.15319   0.17017   0.19208
     Eigenvalues ---    0.27981   0.29245   0.41211   0.48522   0.53554
     Eigenvalues ---    0.69155   0.72076   0.78062   0.81342   0.86538
     Eigenvalues ---    0.89711   0.95889   1.74302   2.73809
 Eigenvalue     1 is  -5.76D-02 should be greater than     0.000000 Eigenvector:
                          Y11       Y1        X1        Y12       X11
   1                    0.62088  -0.58770  -0.25817   0.22012   0.16736
                          Z11       X12       Y10       Y2        Y15
   1                    0.14887   0.12474   0.11428  -0.11296   0.09444
 Eigenvalue     2 is  -2.09D-04 should be greater than     0.000000 Eigenvector:
                          Z2        Z11       Y14       X2        Z1
   1                    0.34910  -0.32770   0.32556   0.31553   0.31328
                          X1        Z7        Y13       Y1        Y10
   1                    0.23333   0.19932   0.19526  -0.19003   0.18580
 Quadratic step=4.306D-01 exceeds max=3.000D-01 adjusted using Lamda=-1.453D-04.
 Angle between NR and scaled steps=   7.37 degrees.
 Angle between quadratic step and forces=  71.00 degrees.
 Linear search not attempted -- first point.
 B after Tr=     0.002008    0.003110   -0.002249
         Rot=    1.000000    0.000355   -0.000442   -0.000202 Ang=   0.07 deg.
 Variable       Old X    -DE/DX   Delta X   Delta X   Delta X     New X
                                 (Linear)    (Quad)   (Total)
    X1        5.10980   0.00248   0.00000   0.13468   0.13487   5.24467
    Y1        3.32306   0.00601   0.00000   0.08049   0.08536   3.40843
    Z1       -0.43047   0.00069   0.00000  -0.06907  -0.07837  -0.50884
    X2        3.55553  -0.00006   0.00000   0.13489   0.13511   3.69064
    Y2        4.19943  -0.00006   0.00000   0.08269   0.08725   4.28668
    Z2        0.00618   0.00002   0.00000  -0.07360  -0.08216  -0.07597
    X3       -5.92325  -0.00005   0.00000  -0.03515  -0.03319  -5.95644
    Y3        1.92763   0.00003   0.00000  -0.03652  -0.03524   1.89239
    Z3        0.79831   0.00001   0.00000   0.00995   0.01163   0.80994
    X4       -7.58733  -0.00001   0.00000  -0.04461  -0.04264  -7.62997
    Y4        2.95909  -0.00000   0.00000  -0.05395  -0.05302   2.90607
    Z4        1.26453  -0.00000   0.00000   0.01425   0.01669   1.28122
    X5       -4.05318  -0.00007   0.00000  -0.02462  -0.02267  -4.07585
    Y5        0.76506  -0.00001   0.00000  -0.01864  -0.01698   0.74808
    Z5        0.27361   0.00003   0.00000   0.00712   0.00795   0.28155
    X6       -1.84276   0.00026   0.00000  -0.01256  -0.01060  -1.85337
    Y6       -0.72547   0.00005   0.00000  -0.00120   0.00088  -0.72459
    Z6       -0.39413   0.00020   0.00000   0.00031   0.00022  -0.39392
    X7       -1.92806  -0.00020   0.00000  -0.00704  -0.00505  -1.93312
    Y7       -2.80834   0.00005   0.00000   0.01161   0.01301  -2.79533
    Z7       -1.27473   0.00006   0.00000  -0.03217  -0.03072  -1.30545
    X8        0.29085  -0.00039   0.00000  -0.02169  -0.01978   0.27106
    Y8        0.54579   0.00025   0.00000  -0.00209   0.00123   0.54702
    Z8        0.10590  -0.00014   0.00000   0.02985   0.02697   0.13288
    X9        2.60003  -0.00062   0.00000  -0.00404  -0.00216   2.59786
    Y9       -0.72360  -0.00288   0.00000   0.00956   0.01338  -0.71022
    Z9       -0.50119  -0.00106   0.00000   0.02871   0.02467  -0.47652
   X10        3.45820  -0.00075   0.00000  -0.03295  -0.02852   3.42968
   Y10       -2.46567  -0.00119   0.00000  -0.02914  -0.02352  -2.48919
   Z10        1.57872   0.00045   0.00000   0.01511   0.01160   1.59032
   X11        4.02855  -0.00003   0.00000  -0.02495  -0.02386   4.00469
   Y11        0.88592  -0.00134   0.00000  -0.03482  -0.03055   0.85536
   Z11       -0.70485  -0.00080   0.00000   0.06071   0.05432  -0.65053
   X12        2.44508  -0.00062   0.00000  -0.00055   0.00005   2.44513
   Y12       -1.62082  -0.00077   0.00000   0.03054   0.03298  -1.58784
   Z12       -2.34978   0.00032   0.00000   0.02037   0.01709  -2.33270
   X13        5.31565  -0.00003   0.00000  -0.02252  -0.01819   5.29746
   Y13       -3.23113  -0.00004   0.00000  -0.00867  -0.00261  -3.23374
   Z13        1.11639   0.00003   0.00000   0.01958   0.01495   1.13134
   X14        3.59169   0.00003   0.00000  -0.04635  -0.04074   3.55095
   Y14       -1.44003   0.00003   0.00000  -0.05129  -0.04434  -1.48437
   Z14        3.36168  -0.00003   0.00000   0.03039   0.02607   3.38775
   X15        2.13254   0.00006   0.00000  -0.02782  -0.02260   2.10994
   Y15       -4.03406  -0.00013   0.00000  -0.03305  -0.02783  -4.06189
   Z15        1.78748   0.00022   0.00000  -0.01967  -0.02089   1.76659
         Item               Value     Threshold  Converged?
 Maximum Force            0.006005     0.000450     NO 
 RMS     Force            0.001141     0.000300     NO 
 Maximum Displacement     0.135106     0.001800     NO 
 RMS     Displacement     0.044615     0.001200     NO 
 Predicted change in Energy=-9.861326D-04
 GradGradGradGradGradGradGradGradGradGradGradGradGradGradGradGradGradGrad


 ----------------------------------------------------------------------

 Electric dipole moment (input orientation):
 (Debye = 10**-18 statcoulomb cm , SI units = C m)
                  (au)            (Debye)         (10**-30 SI)
   Tot        0.806467D+00      0.204984D+01      0.683751D+01
   x         -0.486773D+00     -0.123725D+01     -0.412704D+01
   y          0.435299D+00      0.110642D+01      0.369062D+01
   z          0.473240D+00      0.120286D+01      0.401229D+01

 Dipole polarizability, Alpha (input orientation).
 (esu units = cm**3 , SI units = C**2 m**2 J**-1)
 Alpha(0;0):
               (au)            (10**-24 esu)      (10**-40 SI)
   iso        0.762308D+02      0.112962D+02      0.125688D+02
   aniso      0.398291D+02      0.590207D+01      0.656693D+01
   xx         0.941829D+02      0.139565D+02      0.155287D+02
   yx        -0.973836D+00     -0.144308D+00     -0.160564D+00
   yy         0.831734D+02      0.123250D+02      0.137134D+02
   zx        -0.447225D+01     -0.662720D+00     -0.737375D+00
   zy         0.356793D+01      0.528712D+00      0.588272D+00
   zz         0.513363D+02      0.760725D+01      0.846421D+01

 ----------------------------------------------------------------------

 Dipole orientation:
     8          4.35907907          3.99440331         -1.54315672
     1          3.60514071          4.15506911          0.12424351
     6         -3.68569999         -0.07330740          5.08410890
     1         -4.47453883          0.17547056          6.91885113
     6         -2.80038066         -0.35526377          3.01995132
     6         -1.80652331         -0.75788058          0.48940620
     8         -2.83139665         -2.00052768         -1.10009425
     8          0.40005156          0.44813290          0.18118817
     6          1.55200495          0.21359511         -2.25401305
     6          3.11088893         -2.15508487         -2.49179858
     1          2.86007779          1.93082595         -2.36700900
     1          0.13263509          0.44709282         -3.72954315
     1          4.10566650         -2.14909328         -4.29739099
     1          4.50047473         -2.25272197         -0.97251386
     1          1.89358218         -3.82036392         -2.41569891

 Electric dipole moment (dipole orientation):
 (Debye = 10**-18 statcoulomb cm , SI units = C m)
                  (au)            (Debye)         (10**-30 SI)
   Tot        0.806467D+00      0.204984D+01      0.683751D+01
   x          0.000000D+00      0.000000D+00      0.000000D+00
   y          0.000000D+00      0.000000D+00      0.000000D+00
   z          0.806467D+00      0.204984D+01      0.683751D+01

 Dipole polarizability, Alpha (dipole orientation).
 (esu units = cm**3 , SI units = C**2 m**2 J**-1)
 Alpha(0;0):
               (au)            (10**-24 esu)      (10**-40 SI)
   iso        0.762308D+02      0.112962D+02      0.125688D+02
   aniso      0.398291D+02      0.590207D+01      0.656693D+01
   xx         0.745260D+02      0.110436D+02      0.122877D+02
   yx         0.141284D+02      0.209362D+01      0.232946D+01
   yy         0.718823D+02      0.106519D+02      0.118518D+02
   zx        -0.154803D+02     -0.229395D+01     -0.255236D+01
   zy         0.776547D+01      0.115072D+01      0.128035D+01
   zz         0.822843D+02      0.121933D+02      0.135668D+02

 ----------------------------------------------------------------------
 1\1\GINC-AJ\Freq\UM062X\6-311++G(d,p)\C5H7O3(2)\AAYUSH\16-Aug-2025\0\\
 # freq 6-311++g(d,p) m062x\\Title Card Required\\0,2\O,2.703992,1.7584
 9,-0.227794\H,1.881505,2.222245,0.003272\C,-3.134448,1.020057,0.422448
 \H,-4.01504,1.565884,0.669163\C,-2.144851,0.404851,0.144787\C,-0.97514
 8,-0.383904,-0.208567\O,-1.020287,-1.486108,-0.674559\O,0.15391,0.2888
 19,0.056042\C,1.375874,-0.382913,-0.265217\C,1.830003,-1.304778,0.8354
 23\H,2.131816,0.468807,-0.372991\H,1.293882,-0.857702,-1.243452\H,2.81
 2922,-1.709839,0.590768\H,1.900638,-0.762033,1.778926\H,1.128494,-2.13
 4731,0.945892\\Version=ES64L-G16RevA.03\State=2-A\HF=-420.1992499\S2=0
 .757443\S2-1=0.\S2A=0.750031\RMSD=3.815e-09\RMSF=1.141e-03\ZeroPoint=0
 .1078463\Thermal=0.1169822\Dipole=-0.4867735,0.435299,0.4732397\Dipole
 Deriv=-0.122068,0.2622346,-0.0478609,0.2768076,0.1933841,-0.0011858,0.
 0041314,0.0849916,-0.4268668,0.1804777,0.0087966,0.0411021,0.1776468,0
 .4256361,-0.0268881,0.0569105,0.0123125,0.3117416,-0.2299253,0.022887,
 0.0105075,0.0446061,-0.1635877,-0.0107802,0.0166489,-0.0102904,-0.1450
 044,0.2649792,-0.0160036,-0.0071471,-0.0255182,0.2336389,0.0114442,-0.
 0110228,0.0118381,0.2126883,-0.560374,0.1989314,0.0918176,0.2324357,-0
 .2513522,-0.069386,0.1098726,-0.0733827,-0.1256903,2.5206641,-0.022316
 7,-0.0088883,0.2619875,1.5180082,0.520686,0.1524662,0.5275052,0.607610
 1,-0.8238237,0.0707417,0.0281356,-0.1298696,-1.06288,-0.3273481,-0.079
 3989,-0.3199202,-0.4844655,-2.141267,-0.3163659,-0.1150221,-0.1346323,
 -0.6134818,-0.1127833,-0.0773385,-0.0953587,-0.3673142,1.4465685,0.629
 6838,-0.0194124,0.0398484,0.9335216,-0.0997638,-0.234675,-0.2988531,0.
 3221642,-0.1955349,-0.198789,0.0173258,-0.0468582,-0.2329544,0.0871823
 ,-0.0177531,0.087858,-0.0443583,-0.3850761,-0.6289423,0.0452309,-0.695
 7059,-1.0108686,0.0955866,-0.0156387,-0.0285603,0.1187777,-0.0568325,-
 0.0797016,-0.0643831,0.0042503,-0.060351,-0.023267,0.0611407,0.0684648
 ,-0.0455642,-0.057931,0.0738797,0.0243632,0.0688124,0.0771066,0.003131
 7,0.0257311,-0.010982,0.0569836,0.0961209,0.024178,-0.0004235,0.003199
 8,0.0249656,-0.0789824,-0.0213833,-0.0277968,-0.0412109,0.0640223,-0.0
 292136,0.0046545,-0.0770104,-0.0107855,0.0323539,0.0303089,0.0721738,0
 .0505091\Polar=94.1828642,-0.9738361,83.1733913,-4.4722535,3.5679284,5
 1.3362849\Quadrupole=1.2147232,-0.4215008,-0.7932224,-8.3911941,-1.413
 1557,-0.2533608\PG=C01 [X(C5H7O3)]\NImag=2\\0.38784879,-0.19677546,0.1
 2387658,-0.10505524,0.05658443,0.03017619,-0.37484856,0.20694830,0.104
 03939,0.37174453,0.18846064,-0.12956493,-0.05681847,-0.20016021,0.1345
 9061,0.10054295,-0.06019217,-0.03075981,-0.10220220,0.05981709,0.03067
 623,0.00009378,0.00020978,0.00004042,0.00000895,0.00028837,0.00003144,
 1.08950194,-0.00013943,-0.00014752,-0.00003393,0.00010394,-0.00021477,
 -0.00002244,-0.64258144,0.45641935,-0.00002002,-0.00007584,0.00004807,
 -0.00000012,-0.00007230,-0.00008396,-0.29036252,0.17930657,0.14170341,
 0.00001640,-0.00004938,-0.00001520,-0.00005574,-0.00005578,0.00000241,
 -0.29816706,0.16825085,0.07595995,0.28847641,0.00003166,0.00004136,0.0
 0001215,-0.00000362,0.00008561,0.00000677,0.16803332,-0.13147673,-0.04
 626953,-0.16853749,0.12117943,-0.00000598,0.00001766,-0.00003199,0.000
 01509,0.00001146,0.00004090,0.07586154,-0.04626073,-0.05084952,-0.0761
 3390,0.04692648,0.03921894,0.00021908,0.00057933,0.00008949,0.00000528
 ,0.00057221,0.00009088,-0.79236430,0.47117462,0.21304456,0.00815042,-0
 .00228672,-0.00094724,1.05083297,-0.00003688,-0.00016240,-0.00004510,-
 0.00005514,-0.00026096,-0.00002288,0.47302957,-0.32805389,-0.13290330,
 -0.00216849,0.00649838,-0.00045393,-0.58741098,0.47081891,-0.00001969,
 0.00002224,-0.00000549,-0.00001094,-0.00002427,0.00000578,0.21381642,-
 0.13288583,-0.09399379,-0.00090752,-0.00043867,0.00753489,-0.26624959,
 0.18346374,0.14367282,0.00007645,-0.00307636,-0.00089697,-0.00144327,-
 0.00459386,-0.00032211,0.00721777,-0.00120546,-0.00055943,0.00064596,0
 .00352163,0.00155961,-0.20719234,0.09351264,0.04183926,0.60282863,0.00
 070451,-0.00046329,-0.00013766,-0.00116080,-0.00109887,-0.00015235,-0.
 00043108,0.00252742,-0.00014208,0.00257089,0.00375676,-0.00094055,0.08
 297597,-0.11427866,-0.01807478,-0.02530602,0.90203642,-0.00016771,-0.0
 0161064,-0.00055767,-0.00035103,-0.00109309,-0.00003357,-0.00018486,-0
 .00012481,0.00254638,0.00117102,-0.00092312,0.00546594,0.03741329,-0.0
 1889168,-0.08201635,-0.01903216,0.29459018,0.33434939,0.00013752,0.000
 47219,0.00021824,0.00009434,0.00116457,0.00002403,-0.00334118,0.001806
 43,0.00081294,-0.00025689,-0.00126848,-0.00055658,0.00627513,0.0331283
 3,0.01449184,-0.10863061,-0.00222778,0.00006062,0.11037990,-0.00075217
 ,0.00011523,0.00027305,0.00094801,0.00132615,-0.00007292,0.00040091,0.
 00135484,0.00047321,0.00023838,0.00068737,0.00071470,0.02668053,-0.048
 29065,-0.03023690,-0.00924687,-0.66605321,-0.24756816,0.03616088,0.773
 88129,-0.00023898,0.00029678,0.00029677,0.00041650,0.00068908,-0.00002
 707,0.00021965,0.00048378,0.00042143,0.00008920,0.00072742,-0.00070801
 ,0.01167077,-0.03031784,0.00895753,-0.00358870,-0.24939139,-0.18578209
 ,0.01294134,0.31278414,0.16631192,0.00251445,0.00948462,0.00191074,-0.
 00010688,0.00550550,0.00064550,-0.00347493,0.00273080,0.00120070,0.001
 33513,0.00026980,0.00007454,-0.06481423,-0.00693366,-0.00144566,-0.232
 23536,-0.07001039,-0.02822797,-0.00788344,-0.06355082,-0.02433996,0.53
 055802,-0.00280234,-0.00186289,-0.00026932,0.00158410,0.00104759,0.000
 30729,0.00217696,-0.00150472,-0.00083714,-0.00049370,-0.00068852,-0.00
 010939,0.01242225,0.01342796,0.00048895,-0.05342405,-0.14362897,-0.034
 43670,-0.06157098,-0.05673091,-0.03564453,0.03244482,0.31373389,-0.000
 29861,-0.00055104,0.00071831,0.00005589,0.00013130,-0.00078198,0.00095
 637,-0.00087510,0.00009257,-0.00024071,-0.00014051,-0.00044602,0.00655
 216,0.00128647,0.01138590,-0.01956966,-0.03332597,-0.07924269,-0.02467
 546,-0.03558805,0.01560528,0.00495521,0.10320371,0.12866299,-0.0327468
 1,-0.06510066,-0.00614309,0.00716444,-0.00234647,-0.00204656,0.0015591
 7,-0.00095627,-0.00036408,-0.00039596,0.00036537,0.00017428,0.00229901
 ,-0.00263838,-0.00171661,-0.07554588,-0.00521831,-0.00045932,0.0068650
 6,0.01594735,0.00733815,-0.14032775,0.03474627,0.02220128,0.42463851,-
 0.03195761,-0.06501840,-0.00611670,0.00111725,-0.00453795,-0.00112017,
 -0.00052360,0.00067835,0.00036290,0.00012985,0.00013642,0.00013963,-0.
 00444958,-0.00065584,-0.00224851,-0.00682378,0.02354641,0.00933689,-0.
 00342383,-0.00941757,-0.00123639,0.07039382,-0.11597416,-0.02945039,0.
 00860517,0.47535198,0.00650462,0.01266932,0.00228016,-0.00197675,0.000
 79875,0.00008283,-0.00053445,0.00053309,0.00006793,0.00010910,0.000085
 95,-0.00024672,-0.00199537,-0.00243629,0.00512638,0.00438539,0.0137478
 3,0.00639343,-0.00038492,-0.00332773,-0.00669845,0.02841504,-0.0289922
 0,-0.08400652,0.02856453,0.04520705,0.57529270,0.00365552,0.00653212,0
 .00075349,-0.00131155,0.00066079,0.00087645,-0.00034821,0.00024558,0.0
 0012570,0.00010161,-0.00001167,-0.00009125,-0.00115936,-0.00057060,0.0
 0114294,0.00578445,0.00750033,0.00119408,-0.00026540,-0.00260996,-0.00
 167200,-0.03132452,0.03015842,-0.02443392,-0.07226810,0.01968649,-0.02
 141104,0.57332558,0.00436816,0.00852945,0.00045212,-0.00097108,0.00038
 916,0.00084136,-0.00003432,0.00003368,0.00004713,-0.00000802,-0.000031
 06,0.00001659,0.00027533,0.00019356,-0.00058236,-0.00083144,0.00020682
 ,0.00015206,0.00083833,-0.00025729,0.00148611,0.01344375,-0.01236170,0
 .00898416,0.02911206,-0.12118989,0.06241862,0.01021647,0.54411343,-0.0
 0042327,-0.00140444,0.00013281,0.00010777,0.00005814,0.00017251,0.0001
 7224,-0.00017503,0.00004185,-0.00002579,0.00000497,0.00002794,0.000127
 12,0.00055826,-0.00078426,-0.00176682,-0.00400244,-0.00055126,-0.00025
 093,0.00203001,0.00067602,0.00558472,-0.00483129,0.01195060,-0.0318067
 9,0.06550355,-0.16905387,-0.02298668,0.04295065,0.53899849,0.01251409,
 0.03928985,0.00471231,-0.00088625,0.01022220,0.00267917,-0.00061551,0.
 00054414,0.00017192,0.00012399,-0.00009511,0.00000590,-0.00197788,-0.0
 0002891,-0.00033203,0.00400688,0.00444549,0.00526830,-0.00062788,-0.00
 123654,-0.00091938,-0.04426455,-0.01322213,0.00287834,-0.06652241,-0.0
 4563301,0.00083274,0.00001706,-0.00180601,-0.00048327,0.09863248,0.037
 36729,0.06033917,0.00560915,-0.00803270,-0.00283363,0.00057249,-0.0005
 4875,0.00035178,0.00008608,0.00012600,-0.00017261,-0.00005436,-0.00101
 755,0.00069719,0.00049523,0.01100966,-0.00096599,0.00183391,-0.0029099
 5,0.00035672,-0.00026133,-0.00461578,0.01277174,-0.00180520,-0.0141350
 5,-0.07204393,-0.00901120,-0.02218169,-0.02822644,0.00426297,0.0123854
 3,0.04476302,0.00165348,-0.00084814,-0.00322615,-0.00080190,-0.0032042
 9,0.00149902,0.00001862,-0.00000189,-0.00005551,-0.00000019,-0.0000104
 4,-0.00001004,0.00022641,-0.00003467,0.00032965,0.00009392,-0.00253743
 ,-0.00107176,-0.00138686,0.00089115,0.00063825,0.00821550,0.00472889,-
 0.00063292,0.01358728,0.01243504,-0.03945520,0.01066222,0.01684476,-0.
 00405879,-0.01672962,-0.01272892,0.04513464,0.00174285,0.00342478,0.00
 086148,-0.00072575,0.00053214,-0.00010575,-0.00009824,0.00004589,0.000
 02892,0.00004872,-0.00003353,0.00004234,-0.00035317,0.00022221,-0.0008
 5121,0.00481600,0.00619315,0.00374291,-0.00176793,-0.00339514,-0.00101
 676,-0.01351546,0.01950775,0.03235243,-0.04788443,-0.01151001,-0.03686
 789,0.00121237,-0.00569327,-0.00679367,-0.00333763,-0.01342550,-0.0149
 5562,0.05925505,0.00208522,0.00420901,0.00109788,-0.00047303,0.0007460
 7,-0.00015761,0.00002261,0.00000369,0.00005212,-0.00000718,0.00000221,
 0.00000561,0.00026411,-0.00013655,-0.00023706,-0.00272502,-0.00087406,
 -0.00069085,-0.00128987,0.00043180,0.00100970,0.00763495,-0.00947545,-
 0.01384883,-0.00352182,-0.09649736,-0.11041303,0.00142136,0.01157173,0
 .02096973,-0.00635588,-0.01548654,-0.01741648,0.00206249,0.10699055,-0
 .00199814,-0.00348144,0.00019714,0.00056187,-0.00011667,-0.00013527,-0
 .00000017,-0.00000450,0.00006673,-0.00001714,-0.00000079,0.00000141,0.
 00026328,0.00019182,-0.00030153,-0.00299482,-0.00323925,-0.00029695,-0
 .00145910,0.00158184,0.00097881,0.00738727,-0.00529777,-0.00337284,-0.
 02375478,-0.10624310,-0.26854352,-0.00323090,-0.01035499,-0.01731501,0
 .00225457,0.00640920,0.00212269,0.02444628,0.11751985,0.28740339,0.000
 01523,0.00002005,-0.00008253,-0.00005295,-0.00007565,-0.00001479,-0.00
 005481,0.00003633,-0.00002647,0.00002169,-0.00001342,-0.00000546,-0.00
 011612,0.00000430,0.00026065,0.00132154,0.00024870,0.00033432,-0.00021
 740,-0.00005896,-0.00047764,0.00005460,0.00085588,-0.00210400,-0.00911
 578,0.00144437,0.00386953,-0.26975745,0.09266122,0.05583566,0.00033451
 ,0.00038810,-0.00004268,0.00015216,-0.00011551,-0.00042610,0.29067827,
 -0.00052027,-0.00017578,-0.00003765,0.00012950,0.00014895,-0.00011338,
 0.00006168,-0.00003191,-0.00003418,-0.00002040,0.00000011,0.00001305,0
 .00027725,0.00011348,-0.00010047,-0.00166129,-0.00275120,-0.00042258,-
 0.00013385,0.00128695,0.00010018,0.00490658,-0.00196925,0.00428545,0.0
 1639678,-0.00765253,-0.00805657,0.09085151,-0.08292685,-0.02185659,0.0
 0023849,0.00054985,-0.00040645,-0.00023048,0.00059674,0.00022611,-0.10
 182344,0.08810485,0.00016277,0.00015276,0.00000283,-0.00007603,-0.0000
 1655,-0.00003679,-0.00010143,0.00009330,0.00001174,0.00001825,0.000004
 95,-0.00001747,-0.00027952,-0.00026206,0.00033242,0.00135066,0.0019583
 0,0.00025693,-0.00012637,-0.00080044,-0.00046982,-0.00520370,0.0045988
 0,-0.00355648,-0.02108782,0.00629179,0.00819177,0.05764572,-0.02307395
 ,-0.06227877,0.00003350,-0.00039654,0.00069943,0.00035883,-0.00112587,
 0.00019462,-0.06075165,0.02292875,0.06325079,-0.00027311,-0.00013173,-
 0.00017944,0.00013212,-0.00001549,-0.00006737,0.00000706,0.00000704,0.
 00002842,-0.00002005,0.00000674,-0.00000779,0.00004996,0.00001303,0.00
 001186,-0.00093310,-0.00121184,-0.00062178,-0.00019407,0.00084501,0.00
 010464,0.00165829,-0.00092528,0.00051790,-0.00257562,-0.00495110,-0.00
 893818,-0.04819708,-0.00922926,-0.01450771,0.00034305,0.00069960,0.000
 63745,0.00031265,0.00143011,-0.00147621,0.00356973,0.01394358,0.025950
 26,0.04710246,-0.00002734,0.00018651,-0.00058787,0.00014363,-0.0001201
 7,0.00020932,-0.00003324,-0.00000555,-0.00000664,0.00000622,0.00000535
 ,-0.00000775,-0.00003520,0.00003355,0.00014575,0.00032848,0.00006690,-
 0.00025027,-0.00020811,0.00017008,-0.00022898,-0.00200249,0.00114332,-
 0.00114797,0.00142839,0.01109568,0.02222107,-0.00893017,-0.11835084,-0
 .12158998,0.00002312,0.00138463,-0.00015549,0.00180362,-0.00280603,0.0
 0318857,-0.00201158,-0.00638214,-0.00891240,0.00877822,0.12469805,0.00
 014198,0.00001814,0.00061375,-0.00006514,0.00010469,-0.00028812,-0.000
 02957,0.00003323,0.00001678,-0.00000213,-0.00000596,-0.00000238,-0.000
 02634,0.00002085,-0.00002057,-0.00032806,-0.00052440,-0.00029779,0.000
 03737,0.00032940,0.00022729,0.00103442,-0.00032810,0.00262315,-0.00096
 787,-0.01252865,-0.02477807,-0.01508045,-0.11844517,-0.24890633,-0.000
 09385,-0.00055301,0.00028127,-0.00142226,0.00385504,-0.00177207,-0.000
 53770,-0.00209058,-0.00468544,0.01742440,0.12757320,0.27257965,-0.0009
 6567,-0.00182741,-0.00025307,0.00028129,-0.00015897,-0.00013405,0.0000
 7558,-0.00006302,-0.00004047,-0.00002462,0.00002152,0.00001489,0.00014
 555,-0.00006704,-0.00002971,-0.00071712,0.00092718,-0.00013970,-0.0005
 6713,-0.00037060,-0.00052683,0.00182663,-0.00145797,0.00085279,0.00485
 655,0.00789557,-0.00057234,-0.15946491,-0.13234193,0.01721741,0.002260
 05,0.00489090,-0.00117801,0.00014282,-0.00043252,0.00044409,-0.0168332
 2,-0.02241563,0.00210653,-0.00098228,0.00073646,-0.00008480,0.16996648
 ,-0.00000599,0.00009791,0.00001791,-0.00011816,0.00029713,0.00009959,-
 0.00007074,0.00006599,0.00001301,0.00001826,-0.00002409,-0.00001847,-0
 .00002156,0.00005591,0.00021295,0.00052173,-0.00202648,0.00009888,-0.0
 0053788,0.00113918,-0.00049673,0.00029849,0.00207207,-0.00115803,-0.01
 268443,-0.01782121,0.00455534,-0.13296898,-0.20169376,0.01752148,0.001
 22887,-0.00148495,0.00244436,0.00049592,0.00072417,-0.00037887,0.00843
 961,0.01108875,-0.00144086,-0.00925861,-0.01111935,0.00254131,0.144663
 47,0.21862872,-0.00077817,-0.00159762,0.00011508,0.00028761,-0.0002648
 7,-0.00033070,0.00009630,-0.00006572,-0.00003411,-0.00000735,0.0000203
 2,0.00002214,0.00002011,-0.00015340,-0.00022341,-0.00017009,0.00217198
 ,0.00083805,0.00025385,-0.00148331,-0.00042785,-0.00020635,-0.00258119
 ,0.00100064,0.01648140,0.01966706,-0.00465288,0.01650564,0.01826292,-0
 .04905194,-0.00027860,0.00554153,-0.00219459,0.00017998,-0.00062019,0.
 00077241,0.00416886,0.00556488,-0.00189577,-0.01887647,-0.02045054,0.0
 0440889,-0.01767674,-0.02401186,0.05165404\\-0.00247644,-0.00600534,-0
 .00068532,0.00005533,0.00005572,-0.00002385,0.00005437,-0.00003038,-0.
 00000752,0.00000589,0.00000209,0.00000179,0.00006694,0.00001257,-0.000
 03463,-0.00026082,-0.00005059,-0.00020081,0.00020392,-0.00004596,-0.00
 005968,0.00038745,-0.00025473,0.00014022,0.00061632,0.00287587,0.00105
 785,0.00075320,0.00118793,-0.00045471,0.00003126,0.00133651,0.00080248
 ,0.00062145,0.00077076,-0.00031912,0.00002777,0.00003735,-0.00002797,-
 0.00003112,-0.00002578,0.00003078,-0.00005551,0.00013398,-0.00021953\\
 \@


 IF THERE IS ONE WAY BETTER THAN ANOTHER IT IS THE WAY OF NATURE.

                          -- ARISTOTLE
 Job cpu time:       0 days  0 hours 53 minutes  6.0 seconds.
 Elapsed time:       0 days  0 hours  2 minutes 12.8 seconds.
 File lengths (MBytes):  RWF=    153 Int=      0 D2E=      0 Chk=      5 Scr=      1
 Normal termination of Gaussian 16 at Sat Aug 16 15:08:21 2025.
