 Entering Gaussian System, Link 0=g16
 Initial command:
 /opt/g16/l1.exe "/home/aayush/scratches/g16/Gau-16875.inp" -scrdir="/home/aayush/scratches/g16/"
 Entering Link 1 = /opt/g16/l1.exe PID=     16878.
  
 Copyright (c) 1988,1990,1992,1993,1995,1998,2003,2009,2016,
            Gaussian, Inc.  All Rights Reserved.
  
 This is part of the Gaussian(R) 16 program.  It is based on
 the Gaussian(R) 09 system (copyright 2009, Gaussian, Inc.),
 the Gaussian(R) 03 system (copyright 2003, Gaussian, Inc.),
 the Gaussian(R) 98 system (copyright 1998, Gaussian, Inc.),
 the Gaussian(R) 94 system (copyright 1995, Gaussian, Inc.),
 the Gaussian 92(TM) system (copyright 1992, Gaussian, Inc.),
 the Gaussian 90(TM) system (copyright 1990, Gaussian, Inc.),
 the Gaussian 88(TM) system (copyright 1988, Gaussian, Inc.),
 the Gaussian 86(TM) system (copyright 1986, Carnegie Mellon
 University), and the Gaussian 82(TM) system (copyright 1983,
 Carnegie Mellon University). Gaussian is a federally registered
 trademark of Gaussian, Inc.
  
 This software contains proprietary and confidential information,
 including trade secrets, belonging to Gaussian, Inc.
  
 This software is provided under written license and may be
 used, copied, transmitted, or stored only in accord with that
 written license.
  
 The following legend is applicable only to US Government
 contracts under FAR:
  
                    RESTRICTED RIGHTS LEGEND
  
 Use, reproduction and disclosure by the US Government is
 subject to restrictions as set forth in subparagraphs (a)
 and (c) of the Commercial Computer Software - Restricted
 Rights clause in FAR 52.227-19.
  
 Gaussian, Inc.
 340 Quinnipiac St., Bldg. 40, Wallingford CT 06492
  
  
 ---------------------------------------------------------------
 Warning -- This program may not be used in any manner that
 competes with the business of Gaussian, Inc. or will provide
 assistance to any competitor of Gaussian, Inc.  The licensee
 of this program is prohibited from giving any competitor of
 Gaussian, Inc. access to this program.  By using this program,
 the user acknowledges that Gaussian, Inc. is engaged in the
 business of creating and licensing software in the field of
 computational chemistry and represents and warrants to the
 licensee that it is not a competitor of Gaussian, Inc. and that
 it will not use this program in any manner prohibited above.
 ---------------------------------------------------------------
  

 Cite this work as:
 Gaussian 16, Revision A.03,
 M. J. Frisch, G. W. Trucks, H. B. Schlegel, G. E. Scuseria, 
 M. A. Robb, J. R. Cheeseman, G. Scalmani, V. Barone, 
 G. A. Petersson, H. Nakatsuji, X. Li, M. Caricato, A. V. Marenich, 
 J. Bloino, B. G. Janesko, R. Gomperts, B. Mennucci, H. P. Hratchian, 
 J. V. Ortiz, A. F. Izmaylov, J. L. Sonnenberg, D. Williams-Young, 
 F. Ding, F. Lipparini, F. Egidi, J. Goings, B. Peng, A. Petrone, 
 T. Henderson, D. Ranasinghe, V. G. Zakrzewski, J. Gao, N. Rega, 
 G. Zheng, W. Liang, M. Hada, M. Ehara, K. Toyota, R. Fukuda, 
 J. Hasegawa, M. Ishida, T. Nakajima, Y. Honda, O. Kitao, H. Nakai, 
 T. Vreven, K. Throssell, J. A. Montgomery, Jr., J. E. Peralta, 
 F. Ogliaro, M. J. Bearpark, J. J. Heyd, E. N. Brothers, K. N. Kudin, 
 V. N. Staroverov, T. A. Keith, R. Kobayashi, J. Normand, 
 K. Raghavachari, A. P. Rendell, J. C. Burant, S. S. Iyengar, 
 J. Tomasi, M. Cossi, J. M. Millam, M. Klene, C. Adamo, R. Cammi, 
 J. W. Ochterski, R. L. Martin, K. Morokuma, O. Farkas, 
 J. B. Foresman, and D. J. Fox, Gaussian, Inc., Wallingford CT, 2016.
 
 ******************************************
 Gaussian 16:  ES64L-G16RevA.03 25-Dec-2016
                20-Jun-2025 
 ******************************************
 %nprocshared=24
 Will use up to   24 processors via shared memory.
 %mem=12GB
 %chk=ethyl_propiolate_ts1.chk
 -------------------
 # freq 6-31+g m062x
 -------------------
 1/10=4,30=1,38=1/1,3;
 2/12=2,17=6,18=5,40=1/2;
 3/5=1,6=6,7=10,11=2,25=1,30=1,71=2,74=-55,140=1/1,2,3;
 4//1;
 5/5=2,38=5,98=1/2;
 8/6=4,10=90,11=11/1;
 11/6=1,8=1,9=11,15=111,16=1/1,2,10;
 10/6=1/2;
 6/7=2,8=2,9=2,10=2,28=1/1;
 7/8=1,10=1,25=1/1,2,3,16;
 1/10=4,30=1/3;
 99//99;
 -------------------
 Title Card Required
 -------------------
 Symbolic Z-matrix:
 Charge =  0 Multiplicity = 2
 O                     2.69526   1.73908  -0.22978 
 H                     1.89151   2.22623   0.0013 
 C                    -3.13423   1.01994   0.42242 
 H                    -4.0148    1.56604   0.66923 
 C                    -2.14455   0.40491   0.14468 
 C                    -0.97685  -0.38411  -0.20957 
 O                    -1.01979  -1.48609  -0.67457 
 O                     0.15672   0.28797   0.05624 
 C                     1.37102  -0.38086  -0.26078 
 C                     1.83331  -1.2997    0.83386 
 H                     2.21315   0.65804  -0.33939 
 H                     1.32606  -0.81631  -1.25888 
 H                     2.81393  -1.70902   0.58984 
 H                     1.89898  -0.7633    1.78115 
 H                     1.12448  -2.12815   0.93627 
 

 GradGradGradGradGradGradGradGradGradGradGradGradGradGradGradGradGradGrad
 Berny optimization.
 Initialization pass.
 Trust Radius=3.00D-01 FncErr=1.00D-07 GrdErr=1.00D-07 EigMax=2.50D+02 EigMin=1.00D-04
 Number of steps in this run=      2 maximum allowed number of steps=      2.
 GradGradGradGradGradGradGradGradGradGradGradGradGradGradGradGradGradGrad

                          Input orientation:                          
 ---------------------------------------------------------------------
 Center     Atomic      Atomic             Coordinates (Angstroms)
 Number     Number       Type             X           Y           Z
 ---------------------------------------------------------------------
      1          8           0        2.695263    1.739081   -0.229778
      2          1           0        1.891507    2.226229    0.001300
      3          6           0       -3.134229    1.019938    0.422416
      4          1           0       -4.014797    1.566040    0.669228
      5          6           0       -2.144549    0.404906    0.144676
      6          6           0       -0.976854   -0.384112   -0.209570
      7          8           0       -1.019788   -1.486094   -0.674568
      8          8           0        0.156719    0.287970    0.056242
      9          6           0        1.371023   -0.380862   -0.260780
     10          6           0        1.833309   -1.299698    0.833861
     11          1           0        2.213152    0.658039   -0.339387
     12          1           0        1.326059   -0.816309   -1.258877
     13          1           0        2.813931   -1.709016    0.589841
     14          1           0        1.898980   -0.763295    1.781153
     15          1           0        1.124482   -2.128154    0.936270
 ---------------------------------------------------------------------
                    Distance matrix (angstroms):
                    1          2          3          4          5
     1  O    0.000000
     2  H    0.967850   0.000000
     3  C    5.909780   5.185605   0.000000
     4  H    6.772227   5.980502   1.065150   0.000000
     5  C    5.034284   4.430296   1.197861   2.263010   0.000000
     6  C    4.241792   3.884050   2.650477   3.715438   1.453118
     7  O    4.939757   4.765897   3.457518   4.482342   2.347792
     8  O    2.937982   2.601799   3.391194   4.405764   2.305933
     9  C    2.499746   2.671425   4.767210   5.801931   3.625062
    10  C    3.332937   3.623356   5.497857   6.514591   4.382237
    11  H    1.188738   1.636687   5.413483   6.374097   4.391805
    12  H    3.076326   3.341379   5.108103   6.157753   3.937823
    13  H    3.546157   4.084532   6.546436   7.573891   5.408638
    14  H    3.307536   3.479251   5.509925   6.452514   4.515847
    15  H    4.333881   4.519198   5.320822   6.334869   4.210651
                    6          7          8          9         10
     6  C    0.000000
     7  O    1.196842   0.000000
     8  O    1.344373   2.250679   0.000000
     9  C    2.348438   2.666221   1.422102   0.000000
    10  C    3.134336   3.232687   2.436460   1.502068   0.000000
    11  H    3.358433   3.893784   2.126591   1.339655   2.313769
    12  H    2.567343   2.508591   2.077577   1.089878   2.206925
    13  H    4.094445   4.042997   3.366520   2.137647   1.090278
    14  H    3.518122   3.882295   2.667574   2.143475   1.090598
    15  H    2.961460   2.757704   2.747484   2.132309   1.095109
                   11         12         13         14         15
    11  H    0.000000
    12  H    1.950922   0.000000
    13  H    2.612920   2.535438   0.000000
    14  H    2.572078   3.093999   1.775035   0.000000
    15  H    3.251980   2.565198   1.774804   1.782278   0.000000
 Stoichiometry    C5H7O3(2)
 Framework group  C1[X(C5H7O3)]
 Deg. of freedom    39
 Full point group                 C1      NOp   1
 Largest Abelian subgroup         C1      NOp   1
 Largest concise Abelian subgroup C1      NOp   1
                         Standard orientation:                         
 ---------------------------------------------------------------------
 Center     Atomic      Atomic             Coordinates (Angstroms)
 Number     Number       Type             X           Y           Z
 ---------------------------------------------------------------------
      1          8           0        2.637235    1.745486   -0.248111
      2          1           0        1.833754    2.232992   -0.016831
      3          6           0       -3.192710    1.029449    0.403457
      4          1           0       -4.072968    1.575947    0.650497
      5          6           0       -2.203378    0.413972    0.125460
      6          6           0       -1.036131   -0.375558   -0.229120
      7          8           0       -1.079691   -1.477285   -0.694663
      8          8           0        0.097825    0.295727    0.037076
      9          6           0        1.311750   -0.373663   -0.280219
     10          6           0        1.773444   -1.293310    0.813990
     11          1           0        2.154493    0.664781   -0.358275
     12          1           0        1.266577   -0.808592   -1.278533
     13          1           0        2.753837   -1.703084    0.569814
     14          1           0        1.839386   -0.757412    1.761550
     15          1           0        1.064126   -2.121399    0.915958
 ---------------------------------------------------------------------
 Rotational constants (GHZ):           3.0372678           1.1299503           0.9023648
 Standard basis: 6-31+G (6D, 7F)
 There are   118 symmetry adapted cartesian basis functions of A   symmetry.
 There are   118 symmetry adapted basis functions of A   symmetry.
   118 basis functions,   236 primitive gaussians,   118 cartesian basis functions
    31 alpha electrons       30 beta electrons
       nuclear repulsion energy       348.6331027440 Hartrees.
 NAtoms=   15 NActive=   15 NUniq=   15 SFac= 1.00D+00 NAtFMM=   60 NAOKFM=F Big=F
 Integral buffers will be    131072 words long.
 Raffenetti 2 integral format.
 Two-electron integral symmetry is turned on.
 One-electron integrals computed using PRISM.
 NBasis=   118 RedAO= T EigKep=  1.62D-06  NBF=   118
 NBsUse=   118 1.00D-06 EigRej= -1.00D+00 NBFU=   118
 ExpMin= 4.38D-02 ExpMax= 5.48D+03 ExpMxC= 8.25D+02 IAcc=3 IRadAn=         5 AccDes= 0.00D+00
 Harris functional with IExCor= 1009 and IRadAn=       5 diagonalized for initial guess.
 HarFok:  IExCor= 1009 AccDes= 0.00D+00 IRadAn=         5 IDoV= 1 UseB2=F ITyADJ=14
 ICtDFT=  3500011 ScaDFX=  1.000000  1.000000  1.000000  1.000000
 FoFCou: FMM=F IPFlag=           0 FMFlag=      100000 FMFlg1=           0
         NFxFlg=           0 DoJE=T BraDBF=F KetDBF=T FulRan=T
         wScrn=  0.000000 ICntrl=       500 IOpCl=  0 I1Cent=   200000004 NGrid=           0
         NMat0=    1 NMatS0=      1 NMatT0=    0 NMatD0=    1 NMtDS0=    0 NMtDT0=    0
 Petite list used in FoFCou.
 Initial guess <Sx>= 0.0000 <Sy>= 0.0000 <Sz>= 0.5000 <S**2>= 0.7500 S= 0.5000
 Requested convergence on RMS density matrix=1.00D-08 within 128 cycles.
 Requested convergence on MAX density matrix=1.00D-06.
 Requested convergence on             energy=1.00D-06.
 No special actions if energy rises.
 SCF Done:  E(UM062X) =  -419.951520956     A.U. after   19 cycles
            NFock= 19  Conv=0.56D-08     -V/T= 2.0051
 <Sx>= 0.0000 <Sy>= 0.0000 <Sz>= 0.5000 <S**2>= 0.7605 S= 0.5052
 <L.S>=  0.00000000000    
 Annihilation of the first spin contaminant:
 S**2 before annihilation     0.7605,   after     0.7500
 DoSCS=F DFT=T ScalE2(SS,OS)=  1.000000  1.000000
 Range of M.O.s used for correlation:     1   118
 NBasis=   118 NAE=    31 NBE=    30 NFC=     0 NFV=     0
 NROrb=    118 NOA=    31 NOB=    30 NVA=    87 NVB=    88

 **** Warning!!: The largest alpha MO coefficient is  0.22400833D+03


 **** Warning!!: The largest beta MO coefficient is  0.23326706D+03

 Symmetrizing basis deriv contribution to polar:
 IMax=3 JMax=2 DiffMx= 0.00D+00
 G2DrvN: will do    16 centers at a time, making    1 passes.
 Calling FoFCou, ICntrl=  3107 FMM=F I1Cent=   0 AccDes= 0.00D+00.
 End of G2Drv F.D. properties file   721 does not exist.
 End of G2Drv F.D. properties file   722 does not exist.
 End of G2Drv F.D. properties file   788 does not exist.
          IDoAtm=111111111111111
          Differentiating once with respect to electric field.
                with respect to dipole field.
          Differentiating once with respect to nuclear coordinates.
 Keep R1 and R2 ints in memory in canonical form, NReq=71861349.
          There are    48 degrees of freedom in the 1st order CPHF.  IDoFFX=6 NUNeed=     3.
     45 vectors produced by pass  0 Test12= 1.11D-14 2.08D-09 XBig12= 9.27D+01 3.56D+00.
 AX will form    45 AO Fock derivatives at one time.
     45 vectors produced by pass  1 Test12= 1.11D-14 2.08D-09 XBig12= 1.86D+01 7.29D-01.
     45 vectors produced by pass  2 Test12= 1.11D-14 2.08D-09 XBig12= 5.51D-01 1.09D-01.
     45 vectors produced by pass  3 Test12= 1.11D-14 2.08D-09 XBig12= 3.61D-03 6.37D-03.
     45 vectors produced by pass  4 Test12= 1.11D-14 2.08D-09 XBig12= 2.63D-05 5.73D-04.
     45 vectors produced by pass  5 Test12= 1.11D-14 2.08D-09 XBig12= 1.95D-07 4.64D-05.
     39 vectors produced by pass  6 Test12= 1.11D-14 2.08D-09 XBig12= 1.06D-09 3.38D-06.
     10 vectors produced by pass  7 Test12= 1.11D-14 2.08D-09 XBig12= 5.08D-12 2.97D-07.
      3 vectors produced by pass  8 Test12= 1.11D-14 2.08D-09 XBig12= 2.93D-14 1.90D-08.
      2 vectors produced by pass  9 Test12= 1.11D-14 2.08D-09 XBig12= 1.49D-15 6.24D-09.
      1 vectors produced by pass 10 Test12= 1.11D-14 2.08D-09 XBig12= 3.48D-16 2.71D-09.
 InvSVY:  IOpt=1 It=  1 EMax= 5.33D-15
 Solved reduced A of dimension   325 with    48 vectors.
 Isotropic polarizability for W=    0.000000       72.52 Bohr**3.
 End of Minotr F.D. properties file   721 does not exist.
 End of Minotr F.D. properties file   722 does not exist.
 End of Minotr F.D. properties file   788 does not exist.

 **********************************************************************

            Population analysis using the SCF density.

 **********************************************************************

 Orbital symmetries:
 Alpha Orbitals:
       Occupied  (A) (A) (A) (A) (A) (A) (A) (A) (A) (A) (A) (A)
                 (A) (A) (A) (A) (A) (A) (A) (A) (A) (A) (A) (A)
                 (A) (A) (A) (A) (A) (A) (A)
       Virtual   (A) (A) (A) (A) (A) (A) (A) (A) (A) (A) (A) (A)
                 (A) (A) (A) (A) (A) (A) (A) (A) (A) (A) (A) (A)
                 (A) (A) (A) (A) (A) (A) (A) (A) (A) (A) (A) (A)
                 (A) (A) (A) (A) (A) (A) (A) (A) (A) (A) (A) (A)
                 (A) (A) (A) (A) (A) (A) (A) (A) (A) (A) (A) (A)
                 (A) (A) (A) (A) (A) (A) (A) (A) (A) (A) (A) (A)
                 (A) (A) (A) (A) (A) (A) (A) (A) (A) (A) (A) (A)
                 (A) (A) (A)
 Beta  Orbitals:
       Occupied  (A) (A) (A) (A) (A) (A) (A) (A) (A) (A) (A) (A)
                 (A) (A) (A) (A) (A) (A) (A) (A) (A) (A) (A) (A)
                 (A) (A) (A) (A) (A) (A)
       Virtual   (A) (A) (A) (A) (A) (A) (A) (A) (A) (A) (A) (A)
                 (A) (A) (A) (A) (A) (A) (A) (A) (A) (A) (A) (A)
                 (A) (A) (A) (A) (A) (A) (A) (A) (A) (A) (A) (A)
                 (A) (A) (A) (A) (A) (A) (A) (A) (A) (A) (A) (A)
                 (A) (A) (A) (A) (A) (A) (A) (A) (A) (A) (A) (A)
                 (A) (A) (A) (A) (A) (A) (A) (A) (A) (A) (A) (A)
                 (A) (A) (A) (A) (A) (A) (A) (A) (A) (A) (A) (A)
                 (A) (A) (A) (A)
 The electronic state is 2-A.
 Alpha  occ. eigenvalues --  -19.73197 -19.68380 -19.66149 -10.75007 -10.65289
 Alpha  occ. eigenvalues --  -10.59983 -10.59633 -10.56547  -1.30374  -1.21093
 Alpha  occ. eigenvalues --   -1.13148  -0.92951  -0.89304  -0.80723  -0.72647
 Alpha  occ. eigenvalues --   -0.67356  -0.62854  -0.61174  -0.59625  -0.58367
 Alpha  occ. eigenvalues --   -0.52738  -0.51978  -0.49476  -0.48503  -0.46250
 Alpha  occ. eigenvalues --   -0.41544  -0.41186  -0.39690  -0.38827  -0.38116
 Alpha  occ. eigenvalues --   -0.32977
 Alpha virt. eigenvalues --   -0.03332   0.01615   0.02133   0.03053   0.03202
 Alpha virt. eigenvalues --    0.04081   0.04760   0.06042   0.07503   0.07806
 Alpha virt. eigenvalues --    0.08034   0.08524   0.09721   0.10714   0.12100
 Alpha virt. eigenvalues --    0.12398   0.14143   0.15351   0.16124   0.16608
 Alpha virt. eigenvalues --    0.17650   0.18703   0.19307   0.19707   0.21347
 Alpha virt. eigenvalues --    0.21874   0.22381   0.24395   0.25361   0.26727
 Alpha virt. eigenvalues --    0.27169   0.27414   0.29210   0.30164   0.30851
 Alpha virt. eigenvalues --    0.31827   0.32791   0.33231   0.34730   0.36314
 Alpha virt. eigenvalues --    0.37336   0.37968   0.39224   0.40967   0.42313
 Alpha virt. eigenvalues --    0.45576   0.56954   0.60087   0.67659   0.68951
 Alpha virt. eigenvalues --    0.71383   0.72639   0.73912   0.74825   0.75704
 Alpha virt. eigenvalues --    0.76758   0.79058   0.83947   0.86005   0.90340
 Alpha virt. eigenvalues --    0.94223   0.95896   1.01854   1.07192   1.09389
 Alpha virt. eigenvalues --    1.11829   1.13190   1.15421   1.18998   1.20284
 Alpha virt. eigenvalues --    1.21310   1.24443   1.28518   1.29053   1.30908
 Alpha virt. eigenvalues --    1.33486   1.36434   1.37802   1.42522   1.45696
 Alpha virt. eigenvalues --    1.49032   1.60668   1.68908   1.77021   1.88729
 Alpha virt. eigenvalues --    1.98212   2.02627
  Beta  occ. eigenvalues --  -19.73173 -19.68373 -19.65212 -10.74972 -10.64627
  Beta  occ. eigenvalues --  -10.59983 -10.59633 -10.56562  -1.30214  -1.20911
  Beta  occ. eigenvalues --   -1.09945  -0.92270  -0.88632  -0.80344  -0.71596
  Beta  occ. eigenvalues --   -0.66522  -0.62605  -0.60265  -0.58644  -0.56307
  Beta  occ. eigenvalues --   -0.51626  -0.51119  -0.48481  -0.47050  -0.43484
  Beta  occ. eigenvalues --   -0.41138  -0.40494  -0.38810  -0.38096  -0.37750
  Beta virt. eigenvalues --   -0.10716  -0.03241   0.01635   0.02178   0.03149
  Beta virt. eigenvalues --    0.03281   0.04134   0.04831   0.06071   0.07532
  Beta virt. eigenvalues --    0.07838   0.08112   0.08571   0.09923   0.10750
  Beta virt. eigenvalues --    0.12171   0.12510   0.14186   0.15405   0.16147
  Beta virt. eigenvalues --    0.16784   0.17684   0.18703   0.19428   0.19570
  Beta virt. eigenvalues --    0.21919   0.22061   0.22724   0.24538   0.25646
  Beta virt. eigenvalues --    0.27137   0.27407   0.27519   0.29520   0.30456
  Beta virt. eigenvalues --    0.31629   0.32169   0.32950   0.33566   0.34803
  Beta virt. eigenvalues --    0.36579   0.37439   0.38294   0.40166   0.41568
  Beta virt. eigenvalues --    0.43370   0.45845   0.57016   0.60347   0.68122
  Beta virt. eigenvalues --    0.69245   0.71525   0.72760   0.74498   0.75509
  Beta virt. eigenvalues --    0.75942   0.77716   0.80077   0.84099   0.86233
  Beta virt. eigenvalues --    0.90814   0.94560   0.96659   1.02072   1.07342
  Beta virt. eigenvalues --    1.09609   1.12156   1.13328   1.15979   1.19229
  Beta virt. eigenvalues --    1.19962   1.21701   1.25124   1.29225   1.30239
  Beta virt. eigenvalues --    1.31039   1.35056   1.37218   1.37982   1.42620
  Beta virt. eigenvalues --    1.45725   1.49115   1.60724   1.70241   1.77662
  Beta virt. eigenvalues --    1.89743   1.98331   2.02703
          Condensed to atoms (all electrons):
               1          2          3          4          5          6
     1  O    8.369307   0.190843   0.008399   0.000001   0.023181  -0.029646
     2  H    0.190843   0.408300   0.005359  -0.000000   0.004589  -0.010681
     3  C    0.008399   0.005359  24.108728   0.746766  -4.826921 -12.973947
     4  H    0.000001  -0.000000   0.746766   0.331204  -0.319468  -0.108318
     5  C    0.023181   0.004589  -4.826921  -0.319468  17.012399  -4.114001
     6  C   -0.029646  -0.010681 -12.973947  -0.108318  -4.114001  21.546239
     7  O    0.000037   0.000286  -0.037882  -0.000342   0.208249  -0.032726
     8  O    0.043519   0.011326  -0.908319  -0.000885  -1.399035   1.534482
     9  C   -0.075183   0.010325  -0.284142  -0.000362  -0.414843   0.539468
    10  C   -0.020014  -0.000781  -0.088836  -0.000200  -0.347868   0.141016
    11  H    0.070387  -0.031018   0.011166   0.000000   0.027206  -0.023238
    12  H    0.003282  -0.000060  -0.002711  -0.000000  -0.006061   0.008455
    13  H    0.000896  -0.000007   0.000081   0.000000   0.000699   0.003643
    14  H    0.002468  -0.000021   0.001760   0.000000   0.004137  -0.001026
    15  H   -0.000963   0.000009   0.004799   0.000000   0.011201  -0.014339
               7          8          9         10         11         12
     1  O    0.000037   0.043519  -0.075183  -0.020014   0.070387   0.003282
     2  H    0.000286   0.011326   0.010325  -0.000781  -0.031018  -0.000060
     3  C   -0.037882  -0.908319  -0.284142  -0.088836   0.011166  -0.002711
     4  H   -0.000342  -0.000885  -0.000362  -0.000200   0.000000  -0.000000
     5  C    0.208249  -1.399035  -0.414843  -0.347868   0.027206  -0.006061
     6  C   -0.032726   1.534482   0.539468   0.141016  -0.023238   0.008455
     7  O    8.470823  -0.243301   0.011406  -0.053355   0.000392  -0.000045
     8  O   -0.243301   9.279435  -0.116907   0.130771  -0.024648  -0.043112
     9  C    0.011406  -0.116907   6.769519  -0.551156   0.141145   0.426100
    10  C   -0.053355   0.130771  -0.551156   6.182918   0.010678  -0.085197
    11  H    0.000392  -0.024648   0.141145   0.010678   0.521349  -0.019158
    12  H   -0.000045  -0.043112   0.426100  -0.085197  -0.019158   0.467041
    13  H   -0.000138   0.007344  -0.081405   0.411696  -0.001555  -0.000817
    14  H   -0.000374   0.000320  -0.057776   0.394753  -0.004816   0.003149
    15  H    0.002245  -0.008193  -0.051582   0.391439   0.002655  -0.002914
              13         14         15
     1  O    0.000896   0.002468  -0.000963
     2  H   -0.000007  -0.000021   0.000009
     3  C    0.000081   0.001760   0.004799
     4  H    0.000000   0.000000   0.000000
     5  C    0.000699   0.004137   0.011201
     6  C    0.003643  -0.001026  -0.014339
     7  O   -0.000138  -0.000374   0.002245
     8  O    0.007344   0.000320  -0.008193
     9  C   -0.081405  -0.057776  -0.051582
    10  C    0.411696   0.394753   0.391439
    11  H   -0.001555  -0.004816   0.002655
    12  H   -0.000817   0.003149  -0.002914
    13  H    0.472880  -0.021487  -0.022865
    14  H   -0.021487   0.466255  -0.026413
    15  H   -0.022865  -0.026413   0.471464
          Atomic-Atomic Spin Densities.
               1          2          3          4          5          6
     1  O    0.593241  -0.002819   0.003907   0.000000   0.009871  -0.016331
     2  H   -0.002819  -0.015181  -0.001618   0.000000  -0.002877   0.004366
     3  C    0.003907  -0.001618  -0.429019  -0.002382   0.156331   0.236448
     4  H    0.000000   0.000000  -0.002382  -0.000349   0.001928   0.000807
     5  C    0.009871  -0.002877   0.156331   0.001928  -0.159603  -0.038469
     6  C   -0.016331   0.004366   0.236448   0.000807  -0.038469  -0.101996
     7  O    0.000757  -0.000064   0.011837   0.000020   0.004574  -0.017138
     8  O    0.046843  -0.005694   0.026195  -0.000039   0.030147  -0.066410
     9  C   -0.196989   0.012299   0.017503  -0.000016   0.011723  -0.003892
    10  C    0.046449  -0.003466  -0.005185   0.000008  -0.001857  -0.008983
    11  H   -0.028679   0.002871  -0.005604   0.000000  -0.015147   0.019407
    12  H    0.003224  -0.000108   0.003135   0.000000   0.011960  -0.018956
    13  H    0.000440  -0.000004  -0.000041  -0.000000  -0.000119   0.000311
    14  H    0.001404  -0.000052   0.000920   0.000000   0.002652  -0.005028
    15  H   -0.000626   0.000010  -0.002207  -0.000000  -0.007959   0.014144
               7          8          9         10         11         12
     1  O    0.000757   0.046843  -0.196989   0.046449  -0.028679   0.003224
     2  H   -0.000064  -0.005694   0.012299  -0.003466   0.002871  -0.000108
     3  C    0.011837   0.026195   0.017503  -0.005185  -0.005604   0.003135
     4  H    0.000020  -0.000039  -0.000016   0.000008   0.000000   0.000000
     5  C    0.004574   0.030147   0.011723  -0.001857  -0.015147   0.011960
     6  C   -0.017138  -0.066410  -0.003892  -0.008983   0.019407  -0.018956
     7  O   -0.000830   0.004389  -0.000107   0.001957  -0.000950   0.002533
     8  O    0.004389   0.092355  -0.188187   0.048880  -0.024975   0.011049
     9  C   -0.000107  -0.188187   1.053564  -0.140257   0.135698  -0.036395
    10  C    0.001957   0.048880  -0.140257   0.023864  -0.036500   0.018259
    11  H   -0.000950  -0.024975   0.135698  -0.036500  -0.125158   0.001290
    12  H    0.002533   0.011049  -0.036395   0.018259   0.001290  -0.011345
    13  H    0.000067   0.000552  -0.007213   0.007240  -0.000223   0.000200
    14  H    0.000334   0.002914  -0.014707   0.013534  -0.000401   0.000136
    15  H   -0.002680  -0.003058   0.007454  -0.006483   0.000114  -0.001311
              13         14         15
     1  O    0.000440   0.001404  -0.000626
     2  H   -0.000004  -0.000052   0.000010
     3  C   -0.000041   0.000920  -0.002207
     4  H   -0.000000   0.000000  -0.000000
     5  C   -0.000119   0.002652  -0.007959
     6  C    0.000311  -0.005028   0.014144
     7  O    0.000067   0.000334  -0.002680
     8  O    0.000552   0.002914  -0.003058
     9  C   -0.007213  -0.014707   0.007454
    10  C    0.007240   0.013534  -0.006483
    11  H   -0.000223  -0.000401   0.000114
    12  H    0.000200   0.000136  -0.001311
    13  H    0.001413   0.000503  -0.001462
    14  H    0.000503   0.009887  -0.004228
    15  H   -0.001462  -0.004228   0.045761
 Mulliken charges and spin densities:
               1          2
     1  O   -0.586515   0.460692
     2  H    0.411532  -0.012337
     3  C    0.235699   0.010219
     4  H    0.351604  -0.000023
     5  C    0.136537   0.003154
     6  C   -0.465381  -0.001719
     7  O   -0.325274   0.004696
     8  O   -0.262796  -0.025037
     9  C   -0.264607   0.650479
    10  C   -0.515862  -0.042539
    11  H    0.319454  -0.078257
    12  H    0.252049  -0.016329
    13  H    0.231033   0.001664
    14  H    0.239071   0.007869
    15  H    0.243455   0.037468
 Sum of Mulliken charges =  -0.00000   1.00000
 Mulliken charges and spin densities with hydrogens summed into heavy atoms:
               1          2
     1  O    0.144471   0.370098
     3  C    0.587303   0.010196
     5  C    0.136537   0.003154
     6  C   -0.465381  -0.001719
     7  O   -0.325274   0.004696
     8  O   -0.262796  -0.025037
     9  C   -0.012559   0.634150
    10  C    0.197697   0.004463
 APT charges:
               1
     1  O   -0.353408
     2  H    0.271519
     3  C   -0.204575
     4  H    0.263834
     5  C   -0.312397
     6  C    1.527204
     7  O   -0.753570
     8  O   -1.052827
     9  C    0.859136
    10  C   -0.192553
    11  H   -0.175967
    12  H   -0.023490
    13  H    0.043832
    14  H    0.050773
    15  H    0.052489
 Sum of APT charges =   0.00000
 APT charges with hydrogens summed into heavy atoms:
               1
     1  O   -0.257856
     3  C    0.059259
     5  C   -0.312397
     6  C    1.527204
     7  O   -0.753570
     8  O   -1.052827
     9  C    0.835646
    10  C   -0.045459
 Electronic spatial extent (au):  <R**2>=           1266.8933
 Charge=             -0.0000 electrons
 Dipole moment (field-independent basis, Debye):
    X=             -2.3746    Y=              0.0755    Z=              1.3215  Tot=              2.7185
 Quadrupole moment (field-independent basis, Debye-Ang):
   XX=            -49.0117   YY=            -49.9139   ZZ=            -48.3978
   XY=            -14.8554   XZ=             -1.4974   YZ=             -0.4688
 Traceless Quadrupole moment (field-independent basis, Debye-Ang):
   XX=              0.0961   YY=             -0.8061   ZZ=              0.7100
   XY=            -14.8554   XZ=             -1.4974   YZ=             -0.4688
 Octapole moment (field-independent basis, Debye-Ang**2):
  XXX=            -68.4418  YYY=             13.1179  ZZZ=             -2.5691  XYY=             -4.0093
  XXY=             -2.5982  XXZ=             14.2234  XZZ=              4.2614  YZZ=             -0.9417
  YYZ=              7.8059  XYZ=              1.8786
 Hexadecapole moment (field-independent basis, Debye-Ang**3):
 XXXX=          -1074.4038 YYYY=           -380.8024 ZZZZ=           -123.6038 XXXY=           -179.3213
 XXXZ=            -31.7814 YYYX=             -9.5407 YYYZ=              1.8226 ZZZX=              4.1123
 ZZZY=              3.4989 XXYY=           -260.5881 XXZZ=           -218.1794 YYZZ=            -92.5788
 XXYZ=             25.0890 YYXZ=             -2.8363 ZZXY=             -2.5875
 N-N= 3.486331027440D+02 E-N=-1.679236916998D+03  KE= 4.178206434424D+02
  Exact polarizability:  90.639  -1.097  79.323  -4.619   4.346  47.583
 Approx polarizability:  91.029  -6.009  91.045  -7.203  11.651  51.882
                          Isotropic Fermi Contact Couplings
        Atom                 a.u.       MegaHertz       Gauss      10(-4) cm-1
     1  O(17)              0.05806     -35.19721     -12.55924     -11.74053
     2  H(1)              -0.00718     -32.10727     -11.45667     -10.70983
     3  C(13)              0.00034       0.37748       0.13469       0.12591
     4  H(1)              -0.00001      -0.02295      -0.00819      -0.00765
     5  C(13)             -0.00018      -0.20307      -0.07246      -0.06774
     6  C(13)              0.02111      23.72940       8.46724       7.91527
     7  O(17)              0.00171      -1.03751      -0.37021      -0.34608
     8  O(17)              0.04522     -27.41157      -9.78113      -9.14352
     9  C(13)              0.21764     244.66923      87.30407      81.61287
    10  C(13)             -0.00863      -9.70329      -3.46237      -3.23667
    11  H(1)              -0.03423    -153.01544     -54.59972     -51.04046
    12  H(1)              -0.00246     -10.97780      -3.91715      -3.66180
    13  H(1)               0.00126       5.65317       2.01719       1.88569
    14  H(1)               0.00444      19.82772       7.07502       6.61382
    15  H(1)               0.01867      83.45527      29.77891      27.83768
 --------------------------------------------------------
       Center         ----  Spin Dipole Couplings  ----
                      3XX-RR        3YY-RR        3ZZ-RR
 --------------------------------------------------------
     1   Atom       -0.209289      1.088097     -0.878808
     2   Atom        0.049451      0.008249     -0.057699
     3   Atom        0.001477     -0.001264     -0.000213
     4   Atom        0.001100     -0.000494     -0.000605
     5   Atom        0.003951     -0.001190     -0.002761
     6   Atom        0.026764     -0.012143     -0.014621
     7   Atom       -0.001474     -0.010219      0.011693
     8   Atom       -0.027053      0.044296     -0.017244
     9   Atom        0.007644      0.334592     -0.342236
    10   Atom       -0.016982      0.022248     -0.005266
    11   Atom       -0.022176      0.139993     -0.117817
    12   Atom       -0.032364     -0.011317      0.043681
    13   Atom        0.000500      0.005165     -0.005665
    14   Atom       -0.007258     -0.005350      0.012608
    15   Atom       -0.004386      0.005567     -0.001181
 --------------------------------------------------------
                        XY            XZ            YZ
 --------------------------------------------------------
     1   Atom        1.179016      0.077070      0.120317
     2   Atom       -0.046434     -0.029281      0.020937
     3   Atom       -0.000566     -0.000094      0.001344
     4   Atom       -0.000441     -0.000261      0.000114
     5   Atom       -0.001466     -0.000903     -0.000065
     6   Atom        0.012617      0.010282      0.005075
     7   Atom        0.005612      0.001115      0.000414
     8   Atom        0.081287     -0.001476     -0.040335
     9   Atom        0.497781     -0.011328     -0.016101
    10   Atom        0.007564     -0.001984     -0.023092
    11   Atom        0.153526      0.000668      0.008017
    12   Atom        0.015773     -0.001839      0.029639
    13   Atom       -0.008266      0.005008     -0.006038
    14   Atom        0.000773      0.002806     -0.006418
    15   Atom        0.003019     -0.000230     -0.007881
 --------------------------------------------------------


 ---------------------------------------------------------------------------------
              Anisotropic Spin Dipole Couplings in Principal Axis System
 ---------------------------------------------------------------------------------

       Atom             a.u.   MegaHertz   Gauss  10(-4) cm-1        Axes

              Baa    -0.9075    65.668    23.432    21.904  0.8430 -0.4838 -0.2351
     1 O(17)  Bbb    -0.8852    64.053    22.856    21.366  0.1763 -0.1645  0.9705
              Bcc     1.7927  -129.720   -46.287   -43.270  0.5083  0.8596  0.0534
 
              Baa    -0.0666   -35.534   -12.679   -11.853  0.1812 -0.1590  0.9705
     2 H(1)   Bbb    -0.0219   -11.683    -4.169    -3.897  0.5546  0.8315  0.0327
              Bcc     0.0885    47.217    16.848    15.750  0.8122 -0.5323 -0.2389
 
              Baa    -0.0022    -0.299    -0.107    -0.100  0.1128  0.8292 -0.5475
     3 C(13)  Bbb     0.0005     0.073     0.026     0.024  0.3701  0.4763  0.7976
              Bcc     0.0017     0.226     0.081     0.075  0.9221 -0.2926 -0.2532
 
              Baa    -0.0007    -0.361    -0.129    -0.121 -0.0165 -0.5579  0.8297
     4 H(1)   Bbb    -0.0006    -0.309    -0.110    -0.103  0.2913  0.7911  0.5378
              Bcc     0.0013     0.670     0.239     0.223  0.9565 -0.2506 -0.1494
 
              Baa    -0.0029    -0.393    -0.140    -0.131  0.1650  0.1759  0.9705
     5 C(13)  Bbb    -0.0015    -0.203    -0.073    -0.068  0.2207  0.9524 -0.2102
              Bcc     0.0044     0.596     0.213     0.199  0.9613 -0.2488 -0.1183
 
              Baa    -0.0186    -2.497    -0.891    -0.833 -0.0147 -0.5994  0.8003
     6 C(13)  Bbb    -0.0146    -1.954    -0.697    -0.652 -0.3661  0.7480  0.5535
              Bcc     0.0332     4.451     1.588     1.485  0.9305  0.2849  0.2304
 
              Baa    -0.0130     0.938     0.335     0.313 -0.4393  0.8983  0.0048
     7 O(17)  Bbb     0.0011    -0.082    -0.029    -0.027  0.8925  0.4371 -0.1113
              Bcc     0.0118    -0.856    -0.305    -0.285  0.1021  0.0446  0.9938
 
              Baa    -0.0870     6.295     2.246     2.100  0.7619 -0.5676 -0.3120
     8 O(17)  Bbb    -0.0202     1.460     0.521     0.487  0.4110  0.0513  0.9102
              Bcc     0.1072    -7.756    -2.767    -2.587  0.5006  0.8217 -0.2723
 
              Baa    -0.3528   -47.346   -16.894   -15.793  0.8094 -0.5867 -0.0263
     9 C(13)  Bbb    -0.3426   -45.974   -16.405   -15.335  0.0324 -0.0001  0.9995
              Bcc     0.6954    93.320    33.299    31.128  0.5864  0.8098 -0.0190
 
              Baa    -0.0202    -2.713    -0.968    -0.905  0.6704 -0.4430 -0.5952
    10 C(13)  Bbb    -0.0162    -2.177    -0.777    -0.726  0.7286  0.2415  0.6409
              Bcc     0.0364     4.890     1.745     1.631  0.1402  0.8634 -0.4847
 
              Baa    -0.1203   -64.164   -22.895   -21.403  0.4544 -0.2940  0.8409
    11 H(1)   Bbb    -0.1124   -59.982   -21.403   -20.008  0.7262 -0.4245 -0.5408
              Bcc     0.2327   124.147    44.299    41.411  0.5159  0.8564  0.0206
 
              Baa    -0.0442   -23.564    -8.408    -7.860  0.7946 -0.5701  0.2090
    12 H(1)   Bbb    -0.0127    -6.774    -2.417    -2.259  0.6048  0.7128 -0.3550
              Bcc     0.0569    30.338    10.825    10.120  0.0534  0.4085  0.9112
 
              Baa    -0.0088    -4.669    -1.666    -1.557 -0.3034  0.2219  0.9267
    13 H(1)   Bbb    -0.0057    -3.053    -1.089    -1.018  0.7655  0.6358  0.0984
              Bcc     0.0145     7.722     2.755     2.576 -0.5674  0.7393 -0.3628
 
              Baa    -0.0091    -4.830    -1.723    -1.611  0.7163 -0.6383 -0.2819
    14 H(1)   Bbb    -0.0059    -3.139    -1.120    -1.047  0.6891  0.7106  0.1420
              Bcc     0.0149     7.968     2.843     2.658  0.1097 -0.2960  0.9489
 
              Baa    -0.0073    -3.870    -1.381    -1.291 -0.5089  0.5346  0.6747
    15 H(1)   Bbb    -0.0040    -2.116    -0.755    -0.706  0.8442  0.1565  0.5127
              Bcc     0.0112     5.986     2.136     1.997  0.1685  0.8305 -0.5310
 

 ---------------------------------------------------------------------------------

 Calling FoFJK, ICntrl=    100127 FMM=F ISym2X=0 I1Cent= 0 IOpClX= 1 NMat=1 NMatS=1 NMatT=0.
 Full mass-weighted force constant matrix:
 Low frequencies ----1450.3593 -464.0009 -141.0913  -71.0058  -55.6714    0.0009
 Low frequencies ---    0.0010    0.0010   23.9730
 ******    3 imaginary frequencies (negative Signs) ****** 
 Diagonal vibrational polarizability:
      242.1222945    1373.5626252     881.7004514
 Harmonic frequencies (cm**-1), IR intensities (KM/Mole), Raman scattering
 activities (A**4/AMU), depolarization ratios for plane and unpolarized
 incident light, reduced masses (AMU), force constants (mDyne/A),
 and normal coordinates:
                      1                      2                      3
                      A                      A                      A
 Frequencies --  -1450.3592              -462.3756              -112.1162
 Red. masses --      1.0984                 1.0496                 7.9784
 Frc consts  --      1.3613                 0.1322                 0.0591
 IR Inten    --    893.0864               127.4403                 2.7246
  Atom  AN      X      Y      Z        X      Y      Z        X      Y      Z
     1   8    -0.02  -0.03  -0.00    -0.01   0.00  -0.05     0.01   0.04   0.25
     2   1     0.10   0.11   0.00     0.16  -0.19   0.95    -0.06  -0.06   0.21
     3   6     0.00  -0.00   0.00    -0.00   0.00  -0.01     0.03  -0.00   0.01
     4   1     0.00   0.00   0.00    -0.00   0.00  -0.02     0.03  -0.03   0.07
     5   6     0.00   0.00  -0.00    -0.00   0.00  -0.01     0.03   0.03  -0.05
     6   6    -0.01   0.00  -0.00     0.00   0.00   0.00     0.03  -0.00  -0.00
     7   8     0.00   0.00   0.00     0.00  -0.00   0.01     0.02  -0.17   0.41
     8   8     0.01  -0.00  -0.00     0.00  -0.00   0.00     0.03   0.13  -0.34
     9   6    -0.05  -0.06   0.01    -0.00  -0.00  -0.01     0.03   0.05  -0.17
    10   6     0.01   0.01  -0.00     0.00   0.01   0.01    -0.17  -0.06  -0.17
    11   1     0.53   0.82   0.03    -0.02   0.02  -0.15     0.10   0.03   0.08
    12   1     0.07   0.09  -0.05    -0.02  -0.03   0.01     0.18   0.13  -0.21
    13   1     0.00  -0.00   0.00     0.00   0.01   0.01    -0.12  -0.02  -0.03
    14   1    -0.00  -0.00   0.01     0.00   0.02   0.00    -0.34  -0.15  -0.10
    15   1    -0.00   0.00   0.00     0.00   0.01   0.01    -0.17  -0.08  -0.38
                      4                      5                      6
                      A                      A                      A
 Frequencies --      7.7639                43.7560               107.4877
 Red. masses --      4.8919                 3.8381                 3.0868
 Frc consts  --      0.0002                 0.0043                 0.0210
 IR Inten    --      5.0677                 7.7546                16.3158
  Atom  AN      X      Y      Z        X      Y      Z        X      Y      Z
     1   8     0.34  -0.13  -0.05    -0.13   0.01   0.00     0.11   0.02   0.04
     2   1     0.55   0.19  -0.00    -0.23  -0.17   0.02     0.24   0.23   0.04
     3   6    -0.15  -0.23   0.11     0.14   0.01   0.24     0.14   0.18   0.05
     4   1    -0.22  -0.38   0.20     0.20   0.01   0.46     0.31   0.43   0.11
     5   6    -0.07  -0.05   0.02     0.06  -0.00  -0.02    -0.06  -0.11  -0.03
     6   6    -0.02   0.05  -0.04     0.02  -0.00  -0.14    -0.08  -0.13  -0.03
     7   8     0.04   0.04  -0.04    -0.00  -0.00  -0.13    -0.01  -0.13  -0.04
     8   8    -0.05   0.11  -0.07     0.03   0.00  -0.19    -0.12  -0.06   0.01
     9   6    -0.04   0.09   0.02     0.04  -0.08   0.02    -0.06   0.08   0.00
    10   6    -0.13   0.10   0.07    -0.10   0.07   0.20     0.04   0.11  -0.02
    11   1     0.02   0.00   0.01     0.05  -0.06  -0.03    -0.12   0.09   0.04
    12   1     0.01   0.05   0.03     0.14  -0.21   0.07    -0.00   0.10  -0.01
    13   1    -0.10   0.11   0.16    -0.10  -0.02   0.37     0.20   0.41   0.09
    14   1    -0.21   0.11   0.07    -0.17   0.22   0.13    -0.24   0.05   0.04
    15   1    -0.13   0.10   0.02    -0.16   0.13   0.27     0.26  -0.10  -0.20
                      7                      8                      9
                      A                      A                      A
 Frequencies --    143.4901               167.6938               257.4030
 Red. masses --      1.6067                 1.9413                 4.3829
 Frc consts  --      0.0195                 0.0322                 0.1711
 IR Inten    --      4.2465                 3.3315                 1.1362
  Atom  AN      X      Y      Z        X      Y      Z        X      Y      Z
     1   8     0.03  -0.05   0.10     0.01   0.05  -0.05    -0.00  -0.02   0.03
     2   1     0.02  -0.03   0.03     0.04   0.09   0.00    -0.04  -0.07   0.00
     3   6    -0.01   0.01  -0.00     0.07   0.05   0.01     0.01   0.04  -0.15
     4   1    -0.01   0.01   0.01     0.14   0.16   0.02    -0.02   0.22  -0.67
     5   6    -0.02   0.00  -0.01    -0.02  -0.08  -0.01     0.05  -0.14   0.38
     6   6    -0.03  -0.01  -0.01     0.01  -0.04   0.01     0.03  -0.08   0.18
     7   8    -0.05  -0.02   0.01     0.13  -0.03  -0.01    -0.01   0.05  -0.12
     8   8    -0.02  -0.02  -0.04    -0.04   0.04   0.04     0.04   0.02  -0.11
     9   6    -0.02  -0.01  -0.06    -0.03   0.05   0.04     0.02  -0.00  -0.11
    10   6     0.10   0.11  -0.01    -0.14  -0.07  -0.02    -0.11   0.09   0.01
    11   1    -0.03  -0.02  -0.08    -0.00   0.06   0.06     0.05  -0.01  -0.08
    12   1    -0.07  -0.09  -0.02    -0.00   0.13   0.01     0.04  -0.04  -0.10
    13   1    -0.10  -0.21  -0.27    -0.37  -0.50  -0.24    -0.08   0.05   0.21
    14   1     0.60   0.31  -0.16     0.31  -0.07  -0.05    -0.25   0.20  -0.04
    15   1    -0.09   0.33   0.45    -0.46   0.23   0.18    -0.13   0.11   0.01
                     10                     11                     12
                      A                      A                      A
 Frequencies --    266.1170               426.2603               528.9425
 Red. masses --      4.9706                 3.5284                 5.2882
 Frc consts  --      0.2074                 0.3777                 0.8717
 IR Inten    --     10.7418                 9.5009                 7.5103
  Atom  AN      X      Y      Z        X      Y      Z        X      Y      Z
     1   8    -0.14  -0.27   0.04     0.01   0.01   0.02    -0.12  -0.21  -0.03
     2   1    -0.22  -0.34  -0.08    -0.01   0.03  -0.06     0.03  -0.01   0.04
     3   6     0.02   0.04   0.02     0.08  -0.07  -0.00     0.18  -0.12  -0.06
     4   1     0.08   0.12   0.08     0.01  -0.22   0.11     0.05  -0.29  -0.15
     5   6    -0.06  -0.06  -0.04     0.14   0.08  -0.09     0.27   0.04   0.03
     6   6     0.03   0.07   0.02     0.05  -0.02   0.01     0.05  -0.06  -0.04
     7   8     0.31   0.05   0.02    -0.04  -0.03   0.03    -0.16  -0.05  -0.02
     8   8    -0.03   0.16   0.07     0.04  -0.13   0.21    -0.08   0.12  -0.01
     9   6    -0.15  -0.04  -0.07    -0.02   0.02  -0.18    -0.06   0.25   0.19
    10   6     0.01   0.09  -0.06    -0.18   0.15  -0.07    -0.01   0.06  -0.04
    11   1    -0.04  -0.19  -0.20    -0.01   0.04  -0.17    -0.07  -0.01   0.20
    12   1    -0.39  -0.14  -0.01    -0.22   0.01  -0.17     0.16   0.43   0.11
    13   1     0.14   0.36  -0.01    -0.16   0.00   0.31    -0.05   0.12  -0.35
    14   1    -0.15   0.15  -0.08    -0.41   0.36  -0.17     0.18  -0.23   0.11
    15   1     0.24  -0.10  -0.05    -0.31   0.26  -0.06     0.02   0.02  -0.17
                     13                     14                     15
                      A                      A                      A
 Frequencies --    599.0692               633.2924               707.0008
 Red. masses --      2.6436                 4.2539                 1.3683
 Frc consts  --      0.5590                 1.0052                 0.4030
 IR Inten    --      9.3355                 3.0658               208.9580
  Atom  AN      X      Y      Z        X      Y      Z        X      Y      Z
     1   8    -0.02  -0.09  -0.02    -0.07  -0.11  -0.02    -0.08  -0.06   0.00
     2   1    -0.25  -0.46  -0.03     0.09   0.11   0.04     0.42   0.70   0.06
     3   6    -0.05   0.02   0.01    -0.17   0.11   0.05     0.01  -0.01  -0.01
     4   1     0.14   0.27   0.15    -0.41  -0.22  -0.06     0.11   0.12   0.07
     5   6    -0.16  -0.14  -0.07    -0.01   0.27   0.10    -0.03  -0.06  -0.03
     6   6     0.02   0.01   0.02    -0.06  -0.08  -0.02     0.04   0.04   0.03
     7   8    -0.09   0.03   0.01     0.19  -0.09  -0.04    -0.01   0.05   0.02
     8   8     0.08  -0.00   0.05    -0.03  -0.18  -0.05     0.04  -0.02  -0.01
     9   6     0.19   0.13   0.00     0.11   0.11   0.02     0.04  -0.02  -0.02
    10   6     0.01   0.05  -0.03     0.01   0.05  -0.02     0.01  -0.01   0.00
    11   1     0.36  -0.05   0.04    -0.10   0.01   0.23    -0.46   0.08   0.13
    12   1     0.33   0.32  -0.08     0.48   0.36  -0.11     0.12   0.04  -0.05
    13   1    -0.02  -0.12   0.13    -0.03  -0.07   0.06     0.00  -0.05   0.08
    14   1    -0.08  -0.00   0.01    -0.03   0.02   0.00    -0.03   0.04  -0.02
    15   1    -0.16   0.18  -0.17    -0.12   0.15  -0.09    -0.04   0.03   0.01
                     16                     17                     18
                      A                      A                      A
 Frequencies --    777.3455               817.8168               835.6186
 Red. masses --      3.2356                 1.4332                 1.1702
 Frc consts  --      1.1519                 0.5648                 0.4814
 IR Inten    --     70.7559                46.4471                 4.6111
  Atom  AN      X      Y      Z        X      Y      Z        X      Y      Z
     1   8     0.01   0.01  -0.00     0.01   0.01  -0.00     0.01   0.02  -0.02
     2   1    -0.02  -0.05   0.02    -0.03  -0.06   0.01    -0.06  -0.13   0.06
     3   6     0.01   0.03  -0.07    -0.09  -0.12  -0.05     0.04  -0.01   0.01
     4   1    -0.02  -0.39   0.78     0.54   0.74   0.30    -0.02  -0.04  -0.13
     5   6    -0.00   0.06  -0.15     0.06   0.08   0.03     0.01  -0.03  -0.01
     6   6     0.00  -0.15   0.36    -0.00  -0.01   0.01    -0.01   0.03  -0.00
     7   8    -0.00   0.04  -0.09     0.02  -0.00  -0.00     0.01   0.04   0.02
     8   8    -0.01   0.04  -0.07    -0.01  -0.02  -0.01    -0.02  -0.02   0.00
     9   6    -0.01  -0.01  -0.00    -0.03   0.00   0.01    -0.05  -0.04  -0.01
    10   6    -0.00  -0.01   0.00    -0.01   0.01  -0.00    -0.03  -0.03  -0.01
    11   1     0.03  -0.02   0.06     0.02  -0.03   0.06     0.04  -0.16   0.47
    12   1     0.07   0.06  -0.04     0.04   0.05  -0.01     0.28   0.46  -0.23
    13   1     0.01   0.04  -0.04    -0.00   0.05  -0.05     0.07   0.17   0.02
    14   1     0.04   0.02  -0.02     0.02   0.02  -0.01     0.01   0.29  -0.19
    15   1     0.06  -0.06   0.07     0.03  -0.02   0.04     0.17  -0.14   0.38
                     19                     20                     21
                      A                      A                      A
 Frequencies --    875.6411               898.0216               968.9553
 Red. masses --      1.8661                 3.4901                 3.1865
 Frc consts  --      0.8430                 1.6583                 1.7627
 IR Inten    --     22.3131                18.3691                 6.7509
  Atom  AN      X      Y      Z        X      Y      Z        X      Y      Z
     1   8     0.00   0.00  -0.00    -0.02  -0.01  -0.00    -0.01   0.01  -0.00
     2   1    -0.01  -0.02   0.00     0.11   0.18   0.02     0.08   0.13   0.04
     3   6     0.00   0.06  -0.17    -0.07   0.02   0.00    -0.10   0.07   0.03
     4   1     0.03  -0.36   0.89    -0.02   0.09   0.07    -0.13   0.06   0.04
     5   6     0.00  -0.07   0.14     0.01   0.08   0.04    -0.08   0.02   0.02
     6   6    -0.01   0.06  -0.12     0.02  -0.11  -0.07     0.16  -0.07  -0.04
     7   8     0.00  -0.00   0.03    -0.05  -0.16  -0.06    -0.05  -0.11  -0.04
     8   8    -0.00  -0.02   0.02    -0.02   0.26   0.10     0.21   0.05   0.04
     9   6    -0.01  -0.00   0.00     0.08  -0.02  -0.11    -0.04  -0.06   0.10
    10   6    -0.00  -0.00  -0.00     0.09  -0.14   0.04    -0.16   0.09  -0.07
    11   1     0.00  -0.02   0.05    -0.00   0.02   0.05    -0.04  -0.10   0.21
    12   1     0.02   0.04  -0.02    -0.16   0.26  -0.22     0.01  -0.15   0.14
    13   1     0.00   0.01   0.01     0.17  -0.23   0.53    -0.11   0.47  -0.55
    14   1    -0.00   0.03  -0.02    -0.16   0.30  -0.18     0.17   0.05  -0.08
    15   1     0.01  -0.00   0.03     0.01  -0.03   0.32     0.22  -0.20   0.12
                     22                     23                     24
                      A                      A                      A
 Frequencies --   1104.9326              1150.8918              1160.9864
 Red. masses --      1.4449                 2.4682                 2.1821
 Frc consts  --      1.0393                 1.9262                 1.7329
 IR Inten    --     70.8468                10.8355                48.0267
  Atom  AN      X      Y      Z        X      Y      Z        X      Y      Z
     1   8     0.00   0.01  -0.02     0.01   0.00   0.01     0.01   0.01   0.00
     2   1     0.02  -0.01   0.09    -0.01   0.01  -0.06    -0.03  -0.05  -0.00
     3   6     0.01  -0.01  -0.00     0.03  -0.02  -0.01    -0.02   0.02   0.01
     4   1     0.01  -0.01  -0.00     0.03  -0.02  -0.01    -0.03   0.02   0.01
     5   6     0.01   0.00   0.00     0.02   0.00   0.00    -0.02  -0.01  -0.00
     6   6    -0.04  -0.00   0.00    -0.08   0.01   0.00     0.06  -0.01   0.00
     7   8     0.00  -0.01  -0.01     0.01   0.01   0.01    -0.00  -0.00  -0.00
     8   8    -0.03   0.05   0.02    -0.09   0.05   0.02     0.09  -0.04  -0.07
     9   6     0.02  -0.13   0.01     0.17  -0.14   0.18    -0.15   0.05   0.18
    10   6     0.05   0.10  -0.06    -0.06   0.03  -0.17     0.09  -0.03  -0.12
    11   1     0.09  -0.16   0.75    -0.14   0.10  -0.57    -0.08  -0.04  -0.04
    12   1     0.03  -0.25   0.08     0.43  -0.10   0.15    -0.36   0.16   0.15
    13   1    -0.05  -0.18   0.03     0.02   0.13   0.00     0.11  -0.27   0.47
    14   1    -0.12  -0.08   0.04    -0.12   0.35  -0.34    -0.35   0.30  -0.26
    15   1    -0.19   0.25  -0.35    -0.00   0.02   0.13    -0.23   0.26   0.04
                     25                     26                     27
                      A                      A                      A
 Frequencies --   1225.0843              1315.5855              1396.1512
 Red. masses --      1.4210                 9.4607                 1.2956
 Frc consts  --      1.2566                 9.6474                 1.4879
 IR Inten    --     70.6973               756.1588                 4.5885
  Atom  AN      X      Y      Z        X      Y      Z        X      Y      Z
     1   8     0.02   0.02   0.01     0.01   0.00  -0.00     0.00  -0.00  -0.00
     2   1    -0.08  -0.10  -0.05    -0.07  -0.11  -0.00    -0.03  -0.05  -0.00
     3   6    -0.01   0.00   0.00    -0.10   0.08   0.03    -0.01   0.01   0.00
     4   1    -0.01   0.00   0.00    -0.11   0.10   0.04    -0.01   0.01   0.01
     5   6    -0.00   0.00   0.00    -0.04   0.00   0.00    -0.00  -0.00  -0.00
     6   6     0.01  -0.01  -0.01     0.68   0.03   0.00     0.07  -0.01  -0.01
     7   8    -0.01  -0.02  -0.01    -0.05   0.04   0.02    -0.01   0.00   0.00
     8   8     0.04   0.03   0.02    -0.41  -0.08  -0.04    -0.02   0.01   0.03
     9   6    -0.11  -0.11  -0.00     0.09  -0.13   0.02    -0.09   0.07  -0.05
    10   6     0.05   0.06   0.04     0.01   0.04  -0.00     0.02  -0.03  -0.04
    11   1    -0.34  -0.02  -0.36     0.09   0.08  -0.03    -0.01   0.04   0.03
    12   1     0.47   0.44  -0.26    -0.31   0.31  -0.14     0.71  -0.56   0.19
    13   1    -0.08  -0.17  -0.04    -0.03  -0.04  -0.03     0.05  -0.09   0.19
    14   1    -0.04  -0.22   0.20     0.01  -0.02   0.02    -0.07  -0.08  -0.00
    15   1    -0.08   0.12  -0.25    -0.02   0.04  -0.14     0.02  -0.01   0.23
                     28                     29                     30
                      A                      A                      A
 Frequencies --   1446.3269              1513.3548              1515.8509
 Red. masses --      1.2389                 1.0420                 1.0504
 Frc consts  --      1.5270                 1.4060                 1.4221
 IR Inten    --     21.9633                14.4971                 6.1959
  Atom  AN      X      Y      Z        X      Y      Z        X      Y      Z
     1   8     0.00  -0.00  -0.00     0.00   0.00   0.00     0.00   0.00  -0.00
     2   1    -0.01  -0.02   0.00    -0.00  -0.00  -0.00    -0.01  -0.02  -0.00
     3   6    -0.00   0.00   0.00     0.00  -0.00  -0.00    -0.00   0.00   0.00
     4   1    -0.00   0.00   0.00     0.00  -0.00  -0.00    -0.00   0.00   0.00
     5   6    -0.00   0.00  -0.00     0.00   0.00   0.00    -0.00  -0.00   0.00
     6   6     0.01   0.00   0.00    -0.00   0.00   0.00     0.00   0.00   0.00
     7   8    -0.00  -0.00  -0.00     0.00  -0.00  -0.00    -0.00  -0.00  -0.00
     8   8    -0.00   0.00   0.01    -0.00   0.00   0.00     0.00   0.00   0.00
     9   6    -0.02   0.02  -0.01     0.01  -0.02  -0.01    -0.02  -0.01   0.01
    10   6     0.04  -0.10   0.09     0.01  -0.03  -0.04    -0.06  -0.01  -0.01
    11   1    -0.01   0.03   0.01    -0.02   0.00  -0.00    -0.04   0.02   0.02
    12   1     0.16  -0.10   0.03    -0.06   0.05  -0.04     0.04  -0.01   0.00
    13   1     0.08   0.33  -0.42     0.24   0.52   0.03     0.18   0.21   0.52
    14   1    -0.11   0.49  -0.24    -0.04  -0.40   0.20     0.70   0.05  -0.09
    15   1    -0.37   0.21  -0.40    -0.41   0.39   0.37    -0.09  -0.00  -0.37
                     31                     32                     33
                      A                      A                      A
 Frequencies --   1645.2653              1912.1744              2333.0541
 Red. masses --      1.0480                12.8308                 5.5473
 Frc consts  --      1.6714                27.6413                17.7904
 IR Inten    --     99.0645               309.3753                85.6773
  Atom  AN      X      Y      Z        X      Y      Z        X      Y      Z
     1   8    -0.03   0.01   0.01     0.00  -0.00  -0.00    -0.00  -0.00   0.00
     2   1     0.22   0.36   0.02    -0.01  -0.01  -0.00     0.00   0.00  -0.00
     3   6     0.00   0.00  -0.00     0.07  -0.04  -0.02    -0.30   0.19   0.09
     4   1     0.00   0.00  -0.00     0.11  -0.05  -0.02    -0.63   0.39   0.18
     5   6    -0.00   0.00   0.00    -0.05   0.01   0.01     0.43  -0.27  -0.12
     6   6    -0.00  -0.00  -0.00     0.01   0.75   0.32    -0.07   0.06   0.03
     7   8     0.00   0.00   0.00    -0.01  -0.50  -0.21    -0.00  -0.01  -0.00
     8   8    -0.01  -0.00   0.00    -0.02  -0.04  -0.02    -0.01  -0.00  -0.00
     9   6    -0.04  -0.01   0.01    -0.01   0.02   0.00     0.00  -0.00   0.00
    10   6     0.01   0.01  -0.00     0.01  -0.00  -0.01    -0.00   0.00  -0.00
    11   1     0.65  -0.55  -0.25     0.04   0.00  -0.02     0.00  -0.01  -0.00
    12   1     0.12   0.07  -0.04     0.09  -0.02   0.03     0.00   0.00  -0.00
    13   1     0.01   0.01   0.02    -0.01  -0.05   0.02    -0.00  -0.00  -0.00
    14   1     0.01  -0.01   0.01    -0.03   0.01  -0.01    -0.00  -0.00   0.00
    15   1    -0.03   0.04  -0.05     0.04  -0.02   0.04     0.00  -0.00   0.00
                     34                     35                     36
                      A                      A                      A
 Frequencies --   3086.3871              3170.7164              3178.3456
 Red. masses --      1.0388                 1.0920                 1.0880
 Frc consts  --      5.8301                 6.4683                 6.4757
 IR Inten    --      1.2427                 4.5876                 7.3699
  Atom  AN      X      Y      Z        X      Y      Z        X      Y      Z
     1   8    -0.00  -0.00  -0.00    -0.00  -0.00  -0.00     0.00   0.00   0.00
     2   1     0.00   0.00  -0.00    -0.00  -0.00  -0.00    -0.00   0.00  -0.00
     3   6    -0.00   0.00  -0.00     0.00   0.00  -0.00    -0.00  -0.00   0.00
     4   1     0.00  -0.00  -0.00     0.00   0.00  -0.00    -0.00   0.00   0.00
     5   6     0.00   0.00   0.00    -0.00  -0.00   0.00     0.00   0.00  -0.00
     6   6    -0.00  -0.00  -0.00     0.00   0.00   0.00    -0.00  -0.00  -0.00
     7   8    -0.00   0.00  -0.00    -0.00  -0.00  -0.00    -0.00   0.00   0.00
     8   8     0.00   0.00   0.00     0.00   0.00   0.00     0.00  -0.00   0.00
     9   6    -0.00  -0.00   0.00     0.00   0.01   0.04    -0.00  -0.03  -0.07
    10   6    -0.01  -0.04   0.03    -0.06  -0.04  -0.03    -0.05  -0.01   0.00
    11   1     0.00   0.01   0.00     0.00   0.01   0.00    -0.00   0.00  -0.01
    12   1     0.00  -0.00  -0.01    -0.02  -0.18  -0.42     0.03   0.33   0.77
    13   1    -0.37   0.14   0.10     0.33  -0.16  -0.09     0.39  -0.17  -0.10
    14   1    -0.03  -0.23  -0.38     0.02   0.30   0.54    -0.00   0.06   0.11
    15   1     0.52   0.60  -0.07     0.33   0.39  -0.06     0.18   0.22  -0.03
                     37                     38                     39
                      A                      A                      A
 Frequencies --   3205.2871              3531.3772              3855.6343
 Red. masses --      1.1004                 1.1796                 1.0650
 Frc consts  --      6.6610                 8.6673                 9.3277
 IR Inten    --      7.7160                55.8704                32.8226
  Atom  AN      X      Y      Z        X      Y      Z        X      Y      Z
     1   8    -0.00  -0.00  -0.00     0.00  -0.00  -0.00    -0.05   0.03   0.01
     2   1    -0.00  -0.00   0.00    -0.00  -0.00   0.00     0.81  -0.53  -0.24
     3   6     0.00  -0.00  -0.00    -0.10   0.06   0.03    -0.00   0.00   0.00
     4   1     0.00  -0.00   0.00     0.82  -0.51  -0.23     0.00  -0.00  -0.00
     5   6    -0.00  -0.00   0.00     0.03  -0.02  -0.01    -0.00   0.00  -0.00
     6   6     0.00   0.00   0.00    -0.00   0.00   0.00     0.00  -0.00   0.00
     7   8     0.00  -0.00  -0.00     0.00   0.00   0.00    -0.00  -0.00  -0.00
     8   8     0.00  -0.00  -0.00    -0.00  -0.00  -0.00    -0.00   0.00   0.00
     9   6    -0.00   0.01   0.02    -0.00   0.00   0.00     0.00   0.00  -0.00
    10   6    -0.05   0.05   0.06     0.00  -0.00  -0.00    -0.00  -0.00   0.00
    11   1     0.00   0.00   0.00     0.00   0.00   0.00    -0.03  -0.01   0.00
    12   1    -0.01  -0.11  -0.26     0.00  -0.00   0.00    -0.00  -0.00   0.00
    13   1     0.64  -0.26  -0.15     0.00  -0.00   0.00     0.00  -0.00  -0.00
    14   1    -0.05  -0.31  -0.56    -0.00   0.00   0.00     0.00   0.00   0.00
    15   1    -0.01   0.02   0.01    -0.00   0.00  -0.00     0.00  -0.00   0.00

 -------------------
 - Thermochemistry -
 -------------------
 Temperature   298.150 Kelvin.  Pressure   1.00000 Atm.
 Atom     1 has atomic number  8 and mass  15.99491
 Atom     2 has atomic number  1 and mass   1.00783
 Atom     3 has atomic number  6 and mass  12.00000
 Atom     4 has atomic number  1 and mass   1.00783
 Atom     5 has atomic number  6 and mass  12.00000
 Atom     6 has atomic number  6 and mass  12.00000
 Atom     7 has atomic number  8 and mass  15.99491
 Atom     8 has atomic number  8 and mass  15.99491
 Atom     9 has atomic number  6 and mass  12.00000
 Atom    10 has atomic number  6 and mass  12.00000
 Atom    11 has atomic number  1 and mass   1.00783
 Atom    12 has atomic number  1 and mass   1.00783
 Atom    13 has atomic number  1 and mass   1.00783
 Atom    14 has atomic number  1 and mass   1.00783
 Atom    15 has atomic number  1 and mass   1.00783
 Molecular mass:   115.03952 amu.
 Principal axes and moments of inertia in atomic units:
                           1         2         3
     Eigenvalues --   594.198911597.186302000.01279
           X            0.99934  -0.03626   0.00270
           Y            0.03631   0.99910  -0.02198
           Z           -0.00190   0.02207   0.99975
 This molecule is an asymmetric top.
 Rotational symmetry number  1.
 Warning -- assumption of classical behavior for rotation
           may cause significant error
 Rotational temperatures (Kelvin)      0.14577     0.05423     0.04331
 Rotational constants (GHZ):           3.03727     1.12995     0.90236
    3 imaginary frequencies ignored.
 Zero-point vibrational energy     279980.5 (Joules/Mol)
                                   66.91694 (Kcal/Mol)
 Warning -- explicit consideration of  10 degrees of freedom as
           vibrations may cause significant error
 Vibrational temperatures:     11.17    62.96   154.65   206.45   241.27
          (Kelvin)            370.35   382.88   613.29   761.03   861.93
                              911.17  1017.22  1118.43  1176.66  1202.27
                             1259.85  1292.05  1394.11  1589.75  1655.88
                             1670.40  1762.62  1892.83  2008.75  2080.94
                             2177.38  2180.97  2367.17  2751.19  3356.74
                             4440.62  4561.95  4572.93  4611.69  5080.86
                             5547.40
 
 Zero-point correction=                           0.106639 (Hartree/Particle)
 Thermal correction to Energy=                    0.115575
 Thermal correction to Enthalpy=                  0.116519
 Thermal correction to Gibbs Free Energy=         0.069071
 Sum of electronic and zero-point Energies=           -419.844882
 Sum of electronic and thermal Energies=              -419.835946
 Sum of electronic and thermal Enthalpies=            -419.835002
 Sum of electronic and thermal Free Energies=         -419.882450
 
                     E (Thermal)             CV                S
                      KCal/Mol        Cal/Mol-Kelvin    Cal/Mol-Kelvin
 Total                   72.524             29.395             99.864
 Electronic               0.000              0.000              1.377
 Translational            0.889              2.981             40.136
 Rotational               0.889              2.981             29.030
 Vibrational             70.747             23.433             29.321
 Vibration     1          0.593              1.987              8.514
 Vibration     2          0.595              1.980              5.081
 Vibration     3          0.606              1.943              3.314
 Vibration     4          0.616              1.910              2.757
 Vibration     5          0.624              1.882              2.461
 Vibration     6          0.667              1.750              1.679
 Vibration     7          0.672              1.735              1.621
 Vibration     8          0.788              1.413              0.871
 Vibration     9          0.884              1.186              0.590
 Vibration    10          0.957              1.034              0.451
                       Q            Log10(Q)             Ln(Q)
 Total Bot       0.169739D-31        -31.770219        -73.153633
 Total V=0       0.190652D+18         17.280242         39.789229
 Vib (Bot)       0.354830D-45        -45.449979       -104.652444
 Vib (Bot)    1  0.266891D+02          1.426334          3.284255
 Vib (Bot)    2  0.472712D+01          0.674597          1.553317
 Vib (Bot)    3  0.190645D+01          0.280225          0.645242
 Vib (Bot)    4  0.141572D+01          0.150978          0.347639
 Vib (Bot)    5  0.120265D+01          0.080138          0.184525
 Vib (Bot)    6  0.755541D+00         -0.121742         -0.280321
 Vib (Bot)    7  0.727656D+00         -0.138074         -0.317927
 Vib (Bot)    8  0.409951D+00         -0.387269         -0.891719
 Vib (Bot)    9  0.302653D+00         -0.519055         -1.195168
 Vib (Bot)   10  0.249491D+00         -0.602945         -1.388332
 Vib (V=0)       0.398549D+04          3.600482          8.290417
 Vib (V=0)    1  0.271938D+02          1.434469          3.302988
 Vib (V=0)    2  0.525349D+01          0.720448          1.658893
 Vib (V=0)    3  0.247092D+01          0.392860          0.904592
 Vib (V=0)    4  0.200142D+01          0.301339          0.693858
 Vib (V=0)    5  0.180244D+01          0.255862          0.589143
 Vib (V=0)    6  0.140600D+01          0.147986          0.340751
 Vib (V=0)    7  0.138288D+01          0.140786          0.324171
 Vib (V=0)    8  0.114658D+01          0.059403          0.136779
 Vib (V=0)    9  0.108446D+01          0.035215          0.081086
 Vib (V=0)   10  0.105879D+01          0.024810          0.057126
 Electronic      0.200000D+01          0.301030          0.693147
 Translational   0.484981D+08          7.685724         17.697035
 Rotational      0.493180D+06          5.693006         13.108630
 ***** Axes restored to original set *****
 -------------------------------------------------------------------
 Center     Atomic                   Forces (Hartrees/Bohr)
 Number     Number              X              Y              Z
 -------------------------------------------------------------------
      1        8           0.000751724   -0.024336075   -0.004639109
      2        1          -0.010798861    0.015144983    0.004790029
      3        6          -0.017284201    0.011203113    0.005079823
      4        1          -0.000789801    0.000288002    0.000138103
      5        6           0.021321225   -0.013334038   -0.006188518
      6        6          -0.033100624    0.042395625    0.017597865
      7        8           0.002191957   -0.046365540   -0.019557124
      8        8           0.011113364    0.011404060    0.004887711
      9        6           0.008557023   -0.011303993    0.000070185
     10        6           0.003061222    0.004638064   -0.001470388
     11        1           0.011838605    0.009810330   -0.000086731
     12        1           0.002621092    0.002302049   -0.002698901
     13        1           0.001165275   -0.000754089    0.000209204
     14        1           0.000088075    0.000186436    0.001475387
     15        1          -0.000736074   -0.001278926    0.000392464
 -------------------------------------------------------------------
 Cartesian Forces:  Max     0.046365540 RMS     0.013839065

 GradGradGradGradGradGradGradGradGradGradGradGradGradGradGradGradGradGrad
 Berny optimization.
 Search for a local minimum.
 Step number   1 out of a maximum of    2
 All quantities printed in internal units (Hartrees-Bohrs-Radians)
 Second derivative matrix not updated -- analytic derivatives used.
 ITU=  0
     Eigenvalues ---   -0.12227  -0.01023  -0.00677   0.00005   0.00030
     Eigenvalues ---    0.00085   0.00250   0.00469   0.01220   0.01770
     Eigenvalues ---    0.02539   0.03253   0.04172   0.05506   0.05786
     Eigenvalues ---    0.07039   0.07651   0.09096   0.10442   0.10932
     Eigenvalues ---    0.11524   0.12719   0.15651   0.17705   0.20952
     Eigenvalues ---    0.26237   0.30860   0.35008   0.44679   0.52173
     Eigenvalues ---    0.66654   0.75150   0.78194   0.83038   0.89925
     Eigenvalues ---    0.91551   0.98908   1.87142   2.89321
 Eigenvalue     1 is  -1.22D-01 should be greater than     0.000000 Eigenvector:
                          Y11       X11       Y9        Y1        X9
   1                    0.76206   0.45189  -0.23620  -0.23407  -0.18741
                          X1        Y2        Z12       X2        X15
   1                   -0.18310   0.07209  -0.07068   0.05175   0.04990
 Eigenvalue     2 is  -1.02D-02 should be greater than     0.000000 Eigenvector:
                          Z2        Z1        Z11       Y2        X2
   1                    0.86744  -0.30847  -0.22228  -0.17730   0.14293
                          Z8        Z7        X1        Z4        X12
   1                    0.08987  -0.07939  -0.06568  -0.05811  -0.05558
 Eigenvalue     3 is  -6.77D-03 should be greater than     0.000000 Eigenvector:
                          Z7        Z8        Z2        Y7        Z1
   1                    0.60254  -0.37381   0.27257  -0.24799   0.23363
                          Z15       Z12       Z9        X14       Y8
   1                   -0.23152  -0.18185  -0.16272  -0.15483   0.15391
 Quadratic step=8.686D+00 exceeds max=3.000D-01 adjusted using Lamda=-4.801D-03.
 Angle between NR and scaled steps=  66.99 degrees.
 Angle between quadratic step and forces=  65.24 degrees.
 Linear search not attempted -- first point.
 B after Tr=    -0.012342   -0.014409   -0.001386
         Rot=    0.999999    0.000946   -0.000176    0.000907 Ang=   0.15 deg.
 Variable       Old X    -DE/DX   Delta X   Delta X   Delta X     New X
                                 (Linear)    (Quad)   (Total)
    X1        5.09331   0.00075   0.00000  -0.02289  -0.02968   5.06363
    Y1        3.28639  -0.02434   0.00000  -0.13834  -0.16277   3.12361
    Z1       -0.43422  -0.00464   0.00000   0.00438  -0.00474  -0.43896
    X2        3.57443  -0.01080   0.00000   0.10816   0.10365   3.67808
    Y2        4.20696   0.01514   0.00000   0.11404   0.09298   4.29994
    Z2        0.00246   0.00479   0.00000   0.01945   0.00860   0.01105
    X3       -5.92283  -0.01728   0.00000  -0.04256  -0.05109  -5.97393
    Y3        1.92740   0.01120   0.00000   0.01171   0.00964   1.93704
    Z3        0.79825   0.00508   0.00000   0.01162   0.00865   0.80690
    X4       -7.58687  -0.00079   0.00000  -0.03881  -0.04529  -7.63215
    Y4        2.95939   0.00029   0.00000   0.01753   0.01937   2.97876
    Z4        1.26466   0.00014   0.00000   0.02035   0.01600   1.28065
    X5       -4.05261   0.02132   0.00000  -0.04131  -0.05218  -4.10479
    Y5        0.76516  -0.01333   0.00000  -0.00942  -0.01591   0.74925
    Z5        0.27340  -0.00619   0.00000  -0.01072  -0.01211   0.26129
    X6       -1.84599  -0.03310   0.00000  -0.06183  -0.07559  -1.92157
    Y6       -0.72587   0.04240   0.00000   0.02374   0.01204  -0.71382
    Z6       -0.39603   0.01760   0.00000  -0.00251  -0.00190  -0.39793
    X7       -1.92712   0.00219   0.00000   0.02153   0.00359  -1.92353
    Y7       -2.80831  -0.04637   0.00000  -0.02800  -0.04139  -2.84970
    Z7       -1.27475  -0.01956   0.00000  -0.01808  -0.01343  -1.28818
    X8        0.29616   0.01111   0.00000  -0.00443  -0.01570   0.28046
    Y8        0.54418   0.01140   0.00000   0.02722   0.01248   0.55667
    Z8        0.10628   0.00489   0.00000   0.00210  -0.00047   0.10581
    X9        2.59086   0.00856   0.00000  -0.01855  -0.03244   2.55841
    Y9       -0.71972  -0.01130   0.00000  -0.04089  -0.06089  -0.78062
    Z9       -0.49280   0.00007   0.00000   0.00252   0.00167  -0.49113
   X10        3.46445   0.00306   0.00000   0.04273   0.02655   3.49100
   Y10       -2.45607   0.00464   0.00000   0.03285   0.01507  -2.44100
   Z10        1.57577  -0.00147   0.00000  -0.00107   0.00090   1.57667
   X11        4.18225   0.01184   0.00000   0.06313   0.05295   4.23520
   Y11        1.24351   0.00981   0.00000   0.07540   0.05212   1.29563
   Z11       -0.64135  -0.00009   0.00000   0.02311   0.01774  -0.62361
   X12        2.50589   0.00262   0.00000   0.05503   0.03914   2.54503
   Y12       -1.54260   0.00230   0.00000   0.05813   0.03452  -1.50809
   Z12       -2.37893  -0.00270   0.00000  -0.03637  -0.03584  -2.41477
   X13        5.31756   0.00117   0.00000   0.05260   0.03488   5.35244
   Y13       -3.22957  -0.00075   0.00000   0.04749   0.02547  -3.20410
   Z13        1.11464   0.00021   0.00000   0.00581   0.00857   1.12321
   X14        3.58855   0.00009   0.00000   0.01650   0.00278   3.59133
   Y14       -1.44242   0.00019   0.00000   0.02825   0.01368  -1.42874
   Z14        3.36589   0.00148   0.00000   0.00562   0.00564   3.37154
   X15        2.12496  -0.00074   0.00000   0.05743   0.03843   2.16340
   Y15       -4.02163  -0.00128   0.00000   0.00860  -0.00641  -4.02804
   Z15        1.76929   0.00039   0.00000  -0.00472   0.00073   1.77002
         Item               Value     Threshold  Converged?
 Maximum Force            0.046366     0.000450     NO 
 RMS     Force            0.013839     0.000300     NO 
 Maximum Displacement     0.162773     0.001800     NO 
 RMS     Displacement     0.042905     0.001200     NO 
 Predicted change in Energy=-9.467393D-03
 GradGradGradGradGradGradGradGradGradGradGradGradGradGradGradGradGradGrad


 ----------------------------------------------------------------------

 Electric dipole moment (input orientation):
 (Debye = 10**-18 statcoulomb cm , SI units = C m)
                  (au)            (Debye)         (10**-30 SI)
   Tot        0.106956D+01      0.271855D+01      0.906810D+01
   x         -0.934216D+00     -0.237454D+01     -0.792062D+01
   y          0.293920D-01      0.747070D-01      0.249196D+00
   z          0.519934D+00      0.132154D+01      0.440818D+01

 Dipole polarizability, Alpha (input orientation).
 (esu units = cm**3 , SI units = C**2 m**2 J**-1)
 Alpha(0;0):
               (au)            (10**-24 esu)      (10**-40 SI)
   iso        0.725151D+02      0.107456D+02      0.119561D+02
   aniso      0.402363D+02      0.596241D+01      0.663408D+01
   xx         0.906400D+02      0.134315D+02      0.149445D+02
   yx        -0.109276D+01     -0.161930D+00     -0.180172D+00
   yy         0.793262D+02      0.117549D+02      0.130791D+02
   zx        -0.462336D+01     -0.685112D+00     -0.762290D+00
   zy         0.432811D+01      0.641359D+00      0.713608D+00
   zz         0.475792D+02      0.705051D+01      0.784475D+01

 ----------------------------------------------------------------------

 Dipole orientation:
     8          2.15235638          3.37891405         -4.56957115
     1          1.80951320          4.26249032         -3.00531762
     6         -2.15384794          1.80882491          5.61436971
     1         -2.53955704          2.80058995          7.32292442
     6         -1.72095373          0.69180366          3.69372366
     6         -1.25594918         -0.74443004          1.39992988
     8         -2.09659134         -2.80297881          0.98640727
     8          0.24574031          0.54577059         -0.19206011
     6          0.81871646         -0.66397036         -2.52235015
     6          3.02260156         -2.44217192         -2.32754092
     1          1.49509385          1.32805592         -3.93062848
     1         -0.88338168         -1.43596838         -3.38763120
     1          3.50910311         -3.17267516         -4.19157665
     1          4.66296438         -1.47622130         -1.53786733
     1          2.51451866         -4.03388428         -1.10649701

 Electric dipole moment (dipole orientation):
 (Debye = 10**-18 statcoulomb cm , SI units = C m)
                  (au)            (Debye)         (10**-30 SI)
   Tot        0.106956D+01      0.271855D+01      0.906810D+01
   x          0.000000D+00      0.000000D+00      0.000000D+00
   y          0.000000D+00      0.000000D+00      0.000000D+00
   z          0.106956D+01      0.271855D+01      0.906810D+01

 Dipole polarizability, Alpha (dipole orientation).
 (esu units = cm**3 , SI units = C**2 m**2 J**-1)
 Alpha(0;0):
               (au)            (10**-24 esu)      (10**-40 SI)
   iso        0.725151D+02      0.107456D+02      0.119561D+02
   aniso      0.402363D+02      0.596241D+01      0.663408D+01
   xx         0.539592D+02      0.799593D+01      0.889667D+01
   yx         0.409236D+01      0.606425D+00      0.674738D+00
   yy         0.790362D+02      0.117120D+02      0.130313D+02
   zx        -0.157166D+02     -0.232897D+01     -0.259133D+01
   zy         0.317037D+01      0.469800D+00      0.522723D+00
   zz         0.845500D+02      0.125290D+02      0.139404D+02

 ----------------------------------------------------------------------
 1\1\GINC-AJ\Freq\UM062X\6-31+G\C5H7O3(2)\AAYUSH\20-Jun-2025\0\\# freq 
 6-31+g m062x\\Title Card Required\\0,2\O,2.695263,1.739081,-0.229778\H
 ,1.891507,2.226229,0.0013\C,-3.134229,1.019938,0.422416\H,-4.014797,1.
 56604,0.669228\C,-2.144549,0.404906,0.144676\C,-0.976854,-0.384112,-0.
 20957\O,-1.019788,-1.486094,-0.674568\O,0.156719,0.28797,0.056242\C,1.
 371023,-0.380862,-0.26078\C,1.833309,-1.299698,0.833861\H,2.213152,0.6
 58039,-0.339387\H,1.326059,-0.816309,-1.258877\H,2.813931,-1.709016,0.
 589841\H,1.89898,-0.763295,1.781153\H,1.124482,-2.128154,0.93627\\Vers
 ion=ES64L-G16RevA.03\State=2-A\HF=-419.951521\S2=0.760451\S2-1=0.\S2A=
 0.750046\RMSD=5.634e-09\RMSF=1.384e-02\ZeroPoint=0.1066389\Thermal=0.1
 15575\Dipole=-0.9342165,0.029392,0.5199338\DipoleDeriv=-0.2143143,0.14
 60821,-0.0670401,0.0753965,-0.216328,0.0520169,-0.0483161,0.0770404,-0
 .6295821,0.0672917,0.0125561,0.0761776,0.1609196,0.3838881,-0.0319822,
 0.0841879,-0.0074732,0.3633781,-0.2208129,-0.0181703,-0.0074606,0.0077
 967,-0.1919426,0.0037363,-0.0001539,0.0030379,-0.2009703,0.2743558,0.0
 025562,0.0012071,-0.0042135,0.2634584,0.0057979,-0.0011092,0.0064651,0
 .2536874,-0.5892735,0.2201144,0.1008894,0.266662,-0.2558077,-0.0909609
 ,0.1242085,-0.090941,-0.0921096,2.5159518,-0.0165868,-0.0072953,0.2418
 041,1.4477714,0.4894037,0.1731355,0.4936533,0.6178878,-0.7875117,0.061
 9437,0.0231437,-0.1570244,-0.9972606,-0.2973903,-0.1014348,-0.2965307,
 -0.4759369,-2.1586645,-0.2998217,-0.1254818,-0.1135657,-0.5788751,-0.0
 785922,-0.088886,-0.0620676,-0.4209422,1.3095131,0.4953642,0.0124453,0
 .069587,0.909228,-0.1164431,-0.1589717,-0.2265889,0.3586661,-0.1992091
 ,-0.2075051,0.0421592,-0.0141842,-0.2814454,0.1246896,-0.031278,0.1050
 129,-0.097003,-0.1229353,-0.418183,0.017009,-0.5380225,-0.6318553,0.03
 81397,-0.0402787,-0.0723485,0.2268903,-0.0224742,-0.0532897,-0.080605,
 0.0239366,-0.0173405,-0.0328623,0.0540318,0.0694904,-0.0306554,-0.0448
 182,0.0797925,0.0233698,0.0684552,0.0988118,-0.0001602,0.0376672,-0.01
 98158,0.0775038,0.12088,0.0291493,0.0002196,0.000024,0.0546886,-0.0925
 439,-0.0224285,-0.0433958,-0.0232502,0.0720212,-0.0340019,-0.0087378,-
 0.0875715,0.0130089,0.0271509,0.019626,0.0644614,0.0724362\Polar=90.64
 00253,-1.0927595,79.3262057,-4.6233647,4.3281053,47.5791718\Quadrupole
 =0.0842966,-0.6126195,0.5283229,-11.044805,-1.1075837,-0.3481215\PG=C0
 1 [X(C5H7O3)]\NImag=3\\0.40055993,-0.19692674,0.21155083,-0.10568643,0
 .07058191,0.04177105,-0.36252163,0.23345783,0.10715040,0.36126531,0.19
 180637,-0.14727985,-0.06140246,-0.21672857,0.17111065,0.09969953,-0.06
 888997,-0.02683309,-0.10445752,0.07084201,0.02416098,-0.00002490,-0.00
 006372,0.00003740,-0.00002358,0.00023399,0.00002190,1.14615672,-0.0000
 3238,0.00010872,-0.00000744,0.00010408,-0.00017445,-0.00001463,-0.6721
 8370,0.48602149,0.00000289,-0.00001425,0.00007965,0.00002936,-0.000061
 28,-0.00010868,-0.30393736,0.18498537,0.16187919,0.00003161,-0.0000011
 8,-0.00001713,-0.00003906,-0.00004778,0.00000380,-0.30692755,0.1696174
 2,0.07665129,0.29529102,0.00001003,-0.00002801,0.00000824,-0.00001461,
 0.00008471,0.00000495,0.16960281,-0.13908144,-0.04629727,-0.17129404,0
 .12533529,-0.00001607,0.00001658,-0.00005914,0.00001462,0.00001167,0.0
 0005946,0.07662668,-0.04628486,-0.05831269,-0.07743730,0.04756416,0.04
 214062,-0.00003318,-0.00009789,0.00002458,-0.00008119,0.00050774,0.000
 09197,-0.84434824,0.49791622,0.22517068,0.01115464,-0.00078570,-0.0002
 8421,1.11199822,0.00000401,-0.00010493,-0.00005400,-0.00001069,-0.0002
 5882,-0.00004435,0.49935945,-0.35737516,-0.13628940,-0.00048920,0.0114
 2576,-0.00124852,-0.61628581,0.51484442,0.00002580,0.00006557,-0.00000
 397,-0.00006452,-0.00004210,0.00002655,0.22579479,-0.13623690,-0.11836
 507,-0.00017490,-0.00125609,0.01393993,-0.27926808,0.18622953,0.184243
 62,0.00096386,-0.00139200,-0.00085002,-0.00041650,-0.00436671,-0.00045
 773,0.01106073,0.00239091,0.00112795,-0.00039615,0.00291464,0.00129689
 ,-0.21737846,0.09056293,0.04058251,0.61882394,0.00061319,-0.00014741,0
 .00005429,-0.00088519,-0.00098634,-0.00022979,0.00173335,0.01024458,-0
 .00376891,0.00215649,0.00235632,-0.00062341,0.08535793,-0.13250868,-0.
 01184530,-0.01488003,0.95767988,-0.00018297,-0.00109280,-0.00073558,0.
 00011258,-0.00080579,0.00013363,0.00084439,-0.00386428,0.01732355,0.00
 099430,-0.00052438,0.00332127,0.03837715,-0.01291441,-0.11198433,-0.01
 518884,0.32095262,0.33674240,-0.00033593,-0.00052687,0.00020245,-0.000
 07959,0.00104782,0.00002634,-0.00468183,0.00034031,0.00016454,-0.00022
 457,-0.00087506,-0.00038789,0.00603904,0.04055264,0.01781467,-0.088776
 33,-0.00603481,-0.00132028,0.09281080,-0.00063995,0.00027662,0.0002975
 6,0.00058452,0.00147669,0.00000692,-0.00077851,0.00112027,0.00130507,0
 .00029506,0.00072183,0.00067880,0.02384545,-0.04769178,-0.03247271,-0.
 00846239,-0.71916277,-0.27670316,0.03514393,0.82608568,-0.00012311,0.0
 0032960,0.00037429,0.00017921,0.00075009,-0.00002046,-0.00022546,0.001
 47291,-0.00149958,0.00010287,0.00062729,-0.00053098,0.01047004,-0.0327
 9719,0.01386425,-0.00290761,-0.27838697,-0.17998289,0.01276712,0.34307
 163,0.15766137,0.00266211,0.00785631,0.00170322,-0.00139129,0.00437259
 ,0.00050368,-0.00218367,0.00266683,0.00117600,0.00123968,0.00017715,0.
 00003766,-0.06793176,-0.01015127,-0.00307927,-0.24963753,-0.08594588,-
 0.03280245,-0.00915405,-0.05959940,-0.02322871,0.56349010,-0.00202463,
 -0.00008113,-0.00037849,0.00142346,0.00136547,0.00050059,0.00274839,-0
 .00142484,-0.00046936,-0.00038395,-0.00075905,-0.00014681,0.01289565,0
 .01068431,-0.00177986,-0.06483074,-0.12877377,-0.03268965,-0.06298164,
 -0.05640622,-0.03479434,0.03234478,0.28949825,-0.00039136,-0.00077076,
 0.00134170,-0.00014575,-0.00002813,-0.00131375,0.00110271,-0.00062163,
 -0.00063400,-0.00016971,-0.00018434,-0.00039221,0.00712288,-0.00031133
 ,0.01256094,-0.02365219,-0.03233847,-0.07062861,-0.02608825,-0.0349368
 0,0.01513305,0.00711084,0.10125734,0.11915855,-0.03702767,-0.07045598,
 -0.00545587,0.00881701,-0.00000907,-0.00177122,0.00139381,-0.00136992,
 -0.00048338,-0.00028325,0.00037809,0.00018181,0.00286240,-0.00281588,-
 0.00212774,-0.08618552,0.00295494,0.00178723,0.00643932,0.01532346,0.0
 0710511,-0.16044765,0.03911661,0.02453274,0.37560591,-0.04784474,-0.08
 768587,-0.00618067,0.00414136,-0.00333062,-0.00167333,-0.00027001,0.00
 048954,0.00053732,0.00008028,0.00008827,0.00006221,-0.00364075,-0.0002
 9563,-0.00275460,-0.00913012,0.01716352,0.00652147,-0.00422060,-0.0080
 0915,-0.00071442,0.09877555,-0.09928754,-0.02926848,-0.09919398,0.3436
 4760,0.00419764,0.00744921,0.00277233,-0.00198412,0.00004749,0.0002979
 3,-0.00030886,0.00078122,-0.00051670,0.00005000,0.00004872,-0.00021590
 ,-0.00176786,-0.00330210,0.00689997,0.00148863,0.01026255,0.00489655,-
 0.00085712,-0.00248499,-0.00561080,0.03767708,-0.02701121,-0.08355200,
 0.02503645,0.04985473,0.58230240,0.00231965,0.00369777,0.00041926,-0.0
 0154700,0.00002010,0.00089756,-0.00024954,0.00016484,0.00010649,0.0000
 9595,-0.00001241,-0.00010597,-0.00110459,-0.00050885,0.00119454,0.0059
 4589,0.00670666,0.00186328,-0.00020563,-0.00239551,-0.00175902,-0.0308
 6800,0.03214046,-0.02582293,-0.07580081,0.02332522,-0.01831127,0.58407
 365,0.00398785,0.00712896,-0.00012412,-0.00133182,0.00005942,0.0009256
 1,-0.00000813,-0.00011502,-0.00000106,-0.00001746,-0.00002280,0.000025
 91,0.00055832,0.00036504,-0.00052336,-0.00185229,-0.00049334,0.0003581
 8,0.00111607,0.00027473,0.00115199,0.01393440,-0.01250911,0.01016164,0
 .03718992,-0.11558216,0.06400512,-0.00279767,0.53565241,-0.00069512,-0
 .00213021,0.00056129,0.00012005,-0.00017202,-0.00001073,0.00017725,-0.
 00021401,0.00012950,-0.00003267,0.00000104,0.00001010,0.00008363,0.000
 74582,-0.00098610,-0.00073830,-0.00444057,-0.00023656,-0.00054493,0.00
 173834,0.00054539,0.00726785,-0.00295345,0.01202435,-0.03549512,0.0582
 1911,-0.17064890,-0.02029475,0.05270450,0.54596776,-0.00697166,0.02287
 980,0.00190302,-0.00361546,0.02290077,0.00587499,-0.00023355,0.0003043
 4,0.00003832,0.00003571,-0.00006647,0.00001635,-0.00085720,-0.00003586
 ,-0.00004333,0.00205815,0.00150312,0.00329277,0.00022730,-0.00035791,-
 0.00069747,-0.03389593,-0.00792925,0.00235965,0.01385553,0.03670268,-0
 .00413759,-0.00164450,-0.00454850,-0.00005964,0.03173241,0.05008366,0.
 01326751,-0.00319671,-0.02016861,-0.02261948,-0.00143224,-0.00033728,0
 .00019385,0.00008938,0.00007905,-0.00011180,-0.00004471,-0.00086604,0.
 00075359,0.00029476,0.01105590,0.00010392,0.00287505,-0.00157356,-0.00
 129307,-0.00124694,-0.01550981,0.00325211,-0.00031659,0.06724490,0.058
 11980,-0.01301640,-0.01585941,-0.02348794,0.00472919,-0.06860653,-0.01
 743016,0.00412934,-0.00355142,-0.02097531,-0.00172265,-0.00938919,0.00
 440553,-0.00005309,0.00001168,-0.00008227,0.00002030,-0.00002020,0.000
 02273,0.00003911,0.00001782,0.00028733,0.00121283,-0.00094410,-0.00004
 371,-0.00080459,0.00007533,-0.00003294,0.00390990,0.00261441,-0.000769
 08,0.00666848,0.00552921,-0.02028950,0.00437619,0.00957992,-0.00354956
 ,-0.00922461,0.00533805,0.04288502,0.00115904,0.00225097,0.00110269,-0
 .00083307,0.00028105,-0.00024458,0.00001273,0.00009754,-0.00002466,0.0
 0005210,-0.00005114,0.00004959,-0.00033512,-0.00009565,-0.00076885,0.0
 0441402,0.00649096,0.00266542,-0.00105993,-0.00321596,-0.00081633,-0.0
 1461146,0.01907973,0.03432988,-0.04481040,-0.00334019,-0.03390450,0.00
 449017,-0.00446690,-0.00643050,-0.00233344,-0.00960489,-0.00876622,0.0
 5344422,0.00203892,0.00335877,0.00142714,-0.00073146,0.00033374,-0.000
 28091,0.00005906,-0.00005817,0.00007085,-0.00001501,0.00000463,-0.0000
 0286,0.00043072,-0.00005015,-0.00022531,-0.00249875,-0.00107881,-0.001
 66351,-0.00084179,0.00043145,0.00108558,0.00873357,-0.00743202,-0.0141
 7388,0.00383589,-0.08509353,-0.11266983,0.00270729,0.01062404,0.023340
 43,-0.00509051,-0.01210080,-0.01092925,-0.00929478,0.09264170,-0.00159
 228,-0.00251965,0.00054687,0.00063459,0.00015480,-0.00014881,-0.000060
 12,-0.00004413,0.00011926,0.00000035,0.00000588,0.00000823,0.00015893,
 0.00037558,-0.00050131,-0.00227231,-0.00213220,0.00052183,-0.00135465,
 0.00111505,0.00064966,0.00342195,-0.00568911,-0.00294290,-0.01205632,-
 0.10127914,-0.28914860,-0.00313206,-0.01128951,-0.01648298,0.00252061,
 0.00555522,-0.00065037,0.01481741,0.11292785,0.30847753,0.00006440,0.0
 0021611,-0.00011754,-0.00002043,-0.00007976,-0.00000278,-0.00004845,0.
 00004583,-0.00002762,0.00001874,-0.00001224,0.00000127,-0.00017427,-0.
 00002596,0.00026514,0.00136076,0.00021548,0.00034002,-0.00022907,-0.00
 008045,-0.00047431,0.00014661,0.00054964,-0.00214549,-0.00891349,0.001
 87601,0.00492832,-0.27490162,0.09549246,0.05608834,-0.00000965,0.00018
 483,0.00005281,0.00014998,-0.00013528,-0.00049208,0.29822885,-0.000728
 40,-0.00022729,-0.00008877,0.00008278,0.00018318,-0.00009849,0.0000603
 2,-0.00001123,-0.00005039,-0.00001736,0.00000011,0.00001363,0.00027440
 ,0.00007363,-0.00002557,-0.00122546,-0.00244970,-0.00039653,-0.0001906
 6,0.00108457,0.00006585,0.00432303,-0.00146093,0.00431559,0.01854995,-
 0.00922261,-0.00696605,0.09324233,-0.08564231,-0.02315608,0.00085220,0
 .00043086,-0.00021928,-0.00053341,0.00053761,0.00025519,-0.10551985,0.
 09259269,0.00026392,0.00020112,-0.00006597,-0.00009500,-0.00001990,-0.
 00002448,-0.00008379,0.00007355,-0.00002509,0.00001423,0.00000751,-0.0
 0001515,-0.00025340,-0.00027261,0.00040648,0.00115820,0.00188046,0.000
 11645,-0.00004581,-0.00075593,-0.00045701,-0.00489490,0.00443619,-0.00
 356912,-0.02248415,0.00899826,0.00768107,0.05868974,-0.02430647,-0.065
 12008,-0.00043839,-0.00049103,0.00035157,0.00051951,-0.00109971,0.0001
 7616,-0.06195894,0.02347569,0.06637005,-0.00016963,0.00011551,-0.00031
 892,0.00009686,0.00004383,-0.00002822,0.00000653,0.00000479,0.00000669
 ,-0.00002175,0.00001122,-0.00000662,0.00006591,0.00000624,0.00004444,-
 0.00091368,-0.00103248,-0.00076973,-0.00018376,0.00072798,0.00010034,0
 .00114464,-0.00073814,0.00097604,-0.00076845,-0.00519732,-0.00956236,-
 0.05044501,-0.00720093,-0.01438794,0.00007086,0.00029032,0.00052196,0.
 00030053,0.00138826,-0.00117309,0.00290794,0.01474287,0.02742770,0.049
 04334,-0.00006581,0.00018529,-0.00084690,0.00019604,-0.00018159,0.0002
 8291,-0.00006114,-0.00000794,-0.00002373,0.00001361,0.00000910,-0.0000
 0631,-0.00004879,0.00003868,0.00022516,0.00040840,0.00029006,-0.000246
 06,-0.00028563,-0.00000938,-0.00023366,-0.00247935,0.00089644,-0.00141
 090,0.00215738,0.00977004,0.02472192,-0.00727048,-0.11819971,-0.122815
 64,0.00043418,0.00127308,0.00065767,0.00158579,-0.00288583,0.00302908,
 -0.00239002,-0.00606741,-0.01022033,0.00788912,0.12647241,0.00049607,0
 .00059399,0.00088314,-0.00010557,0.00019611,-0.00032103,-0.00001551,0.
 00003327,0.00004300,-0.00000759,-0.00000707,-0.00000720,-0.00003285,0.
 00004052,-0.00008880,-0.00023544,-0.00064183,-0.00018059,0.00003038,0.
 00043811,0.00018761,0.00125609,-0.00023335,0.00270754,-0.00063372,-0.0
 1124159,-0.02711258,-0.01464790,-0.11991520,-0.25487829,-0.00097949,-0
 .00162358,-0.00049607,-0.00173574,0.00337501,-0.00147358,-0.00150701,-
 0.00270294,-0.00496213,0.01684593,0.12915606,0.28235176,-0.00067600,-0
 .00100992,-0.00009711,0.00038962,0.00001761,-0.00015772,0.00009078,-0.
 00006712,-0.00000118,-0.00002712,0.00001774,0.00001321,0.00012381,-0.0
 0006611,-0.00019520,-0.00092321,0.00104626,-0.00001287,-0.00058576,-0.
 00039033,-0.00049265,0.00143819,-0.00141036,0.00088095,0.00526326,0.00
 793660,-0.00254444,-0.16015861,-0.13005534,0.01494183,0.00158144,0.003
 58748,-0.00035976,-0.00003938,-0.00058613,0.00057908,-0.01858029,-0.02
 391275,0.00218108,-0.00113432,-0.00008330,0.00127235,0.17323759,-0.000
 28139,-0.00032222,-0.00008958,-0.00011913,0.00021729,0.00010073,-0.000
 09489,0.00006979,-0.00001235,0.00002408,-0.00002292,-0.00001550,-0.000
 06148,0.00009972,0.00034680,0.00130570,-0.00223747,0.00019326,-0.00067
 016,0.00110054,-0.00038141,0.00050150,0.00243802,-0.00137325,-0.012906
 30,-0.02077167,0.00827963,-0.13316036,-0.19805222,0.01440355,0.0010579
 3,-0.00035148,0.00122933,0.00081689,0.00076737,-0.00046491,0.00966319,
 0.01017881,-0.00190681,-0.01105124,-0.01158325,0.00253249,0.14497567,0
 .21846969,-0.00012785,-0.00026892,0.00034273,0.00033432,-0.00008131,-0
 .00030307,0.00007908,-0.00007011,-0.00003007,0.00000215,0.00002155,0.0
 0003092,0.00006742,-0.00017533,-0.00029949,-0.00056457,0.00220164,0.00
 073659,0.00039802,-0.00137321,-0.00028097,-0.00005894,-0.00266292,0.00
 087554,0.01519570,0.02338993,-0.00775529,0.01652684,0.01724685,-0.0473
 2518,-0.00042517,0.00248655,-0.00106337,-0.00079309,-0.00118162,0.0008
 4900,0.00504987,0.00557816,-0.00086276,-0.01967622,-0.02226927,0.00334
 721,-0.01600756,-0.02284198,0.05173822\\-0.00075172,0.02433608,0.00463
 911,0.01079886,-0.01514498,-0.00479003,0.01728420,-0.01120311,-0.00507
 982,0.00078980,-0.00028800,-0.00013810,-0.02132123,0.01333404,0.006188
 52,0.03310062,-0.04239562,-0.01759786,-0.00219196,0.04636554,0.0195571
 2,-0.01111336,-0.01140406,-0.00488771,-0.00855702,0.01130399,-0.000070
 19,-0.00306122,-0.00463806,0.00147039,-0.01183860,-0.00981033,0.000086
 73,-0.00262109,-0.00230205,0.00269890,-0.00116528,0.00075409,-0.000209
 20,-0.00008807,-0.00018644,-0.00147539,0.00073607,0.00127893,-0.000392
 46\\\@


 Everywhere is walking distance if you have the time.
                                    -- Steven Wright
 Job cpu time:       0 days  0 hours 18 minutes 42.4 seconds.
 Elapsed time:       0 days  0 hours  0 minutes 46.8 seconds.
 File lengths (MBytes):  RWF=     59 Int=      0 D2E=      0 Chk=      8 Scr=      1
 Normal termination of Gaussian 16 at Fri Jun 20 12:33:57 2025.
