 Entering Gaussian System, Link 0=g16
 Initial command:
 /opt/g16/l1.exe "/home/aayush/scratches/g16/Gau-26405.inp" -scrdir="/home/aayush/scratches/g16/"
 Entering Link 1 = /opt/g16/l1.exe PID=     26408.
  
 Copyright (c) 1988,1990,1992,1993,1995,1998,2003,2009,2016,
            Gaussian, Inc.  All Rights Reserved.
  
 This is part of the Gaussian(R) 16 program.  It is based on
 the Gaussian(R) 09 system (copyright 2009, Gaussian, Inc.),
 the Gaussian(R) 03 system (copyright 2003, Gaussian, Inc.),
 the Gaussian(R) 98 system (copyright 1998, Gaussian, Inc.),
 the Gaussian(R) 94 system (copyright 1995, Gaussian, Inc.),
 the Gaussian 92(TM) system (copyright 1992, Gaussian, Inc.),
 the Gaussian 90(TM) system (copyright 1990, Gaussian, Inc.),
 the Gaussian 88(TM) system (copyright 1988, Gaussian, Inc.),
 the Gaussian 86(TM) system (copyright 1986, Carnegie Mellon
 University), and the Gaussian 82(TM) system (copyright 1983,
 Carnegie Mellon University). Gaussian is a federally registered
 trademark of Gaussian, Inc.
  
 This software contains proprietary and confidential information,
 including trade secrets, belonging to Gaussian, Inc.
  
 This software is provided under written license and may be
 used, copied, transmitted, or stored only in accord with that
 written license.
  
 The following legend is applicable only to US Government
 contracts under FAR:
  
                    RESTRICTED RIGHTS LEGEND
  
 Use, reproduction and disclosure by the US Government is
 subject to restrictions as set forth in subparagraphs (a)
 and (c) of the Commercial Computer Software - Restricted
 Rights clause in FAR 52.227-19.
  
 Gaussian, Inc.
 340 Quinnipiac St., Bldg. 40, Wallingford CT 06492
  
  
 ---------------------------------------------------------------
 Warning -- This program may not be used in any manner that
 competes with the business of Gaussian, Inc. or will provide
 assistance to any competitor of Gaussian, Inc.  The licensee
 of this program is prohibited from giving any competitor of
 Gaussian, Inc. access to this program.  By using this program,
 the user acknowledges that Gaussian, Inc. is engaged in the
 business of creating and licensing software in the field of
 computational chemistry and represents and warrants to the
 licensee that it is not a competitor of Gaussian, Inc. and that
 it will not use this program in any manner prohibited above.
 ---------------------------------------------------------------
  

 Cite this work as:
 Gaussian 16, Revision A.03,
 M. J. Frisch, G. W. Trucks, H. B. Schlegel, G. E. Scuseria, 
 M. A. Robb, J. R. Cheeseman, G. Scalmani, V. Barone, 
 G. A. Petersson, H. Nakatsuji, X. Li, M. Caricato, A. V. Marenich, 
 J. Bloino, B. G. Janesko, R. Gomperts, B. Mennucci, H. P. Hratchian, 
 J. V. Ortiz, A. F. Izmaylov, J. L. Sonnenberg, D. Williams-Young, 
 F. Ding, F. Lipparini, F. Egidi, J. Goings, B. Peng, A. Petrone, 
 T. Henderson, D. Ranasinghe, V. G. Zakrzewski, J. Gao, N. Rega, 
 G. Zheng, W. Liang, M. Hada, M. Ehara, K. Toyota, R. Fukuda, 
 J. Hasegawa, M. Ishida, T. Nakajima, Y. Honda, O. Kitao, H. Nakai, 
 T. Vreven, K. Throssell, J. A. Montgomery, Jr., J. E. Peralta, 
 F. Ogliaro, M. J. Bearpark, J. J. Heyd, E. N. Brothers, K. N. Kudin, 
 V. N. Staroverov, T. A. Keith, R. Kobayashi, J. Normand, 
 K. Raghavachari, A. P. Rendell, J. C. Burant, S. S. Iyengar, 
 J. Tomasi, M. Cossi, J. M. Millam, M. Klene, C. Adamo, R. Cammi, 
 J. W. Ochterski, R. L. Martin, K. Morokuma, O. Farkas, 
 J. B. Foresman, and D. J. Fox, Gaussian, Inc., Wallingford CT, 2016.
 
 ******************************************
 Gaussian 16:  ES64L-G16RevA.03 25-Dec-2016
                16-Aug-2025 
 ******************************************
 %nprocshared=24
 Will use up to   24 processors via shared memory.
 %mem=12GB
 %chk=ethyl_propiolate.chk
 --------------------------
 # freq 6-311++g(d,p) m062x
 --------------------------
 1/10=4,30=1,38=1/1,3;
 2/12=2,17=6,18=5,40=1/2;
 3/5=4,6=6,7=1111,11=2,25=1,30=1,71=2,74=-55,140=1/1,2,3;
 4//1;
 5/5=2,38=5,98=1/2;
 8/6=4,10=90,11=11/1;
 11/6=1,8=1,9=11,15=111,16=1/1,2,10;
 10/6=1/2;
 6/7=2,8=2,9=2,10=2,28=1/1;
 7/8=1,10=1,25=1/1,2,3,16;
 1/10=4,30=1/3;
 99//99;
 -------------------
 Title Card Required
 -------------------
 Symbolic Z-matrix:
 Charge =  0 Multiplicity = 2
 O                     2.71644   1.78955  -0.22383 
 H                     1.87383   2.21823   0.00722 
 C                    -3.13484   1.02026   0.42251 
 H                    -4.01567   1.56573   0.66894 
 C                    -2.14516   0.405     0.14523 
 C                    -0.97444  -0.38314  -0.20736 
 O                    -1.0219   -1.48561  -0.67377 
 O                     0.15466   0.2888    0.05438 
 C                     1.37046  -0.40484  -0.27356 
 C                     1.82547  -1.31267   0.83954 
 H                     2.12232   0.38666  -0.43498 
 H                     1.24486  -0.92144  -1.22518 
 H                     2.80924  -1.71653   0.59457 
 H                     1.90295  -0.75814   1.77581 
 H                     1.12976  -2.14398   0.96583 
 

 GradGradGradGradGradGradGradGradGradGradGradGradGradGradGradGradGradGrad
 Berny optimization.
 Initialization pass.
 Trust Radius=3.00D-01 FncErr=1.00D-07 GrdErr=1.00D-07 EigMax=2.50D+02 EigMin=1.00D-04
 Number of steps in this run=      2 maximum allowed number of steps=      2.
 GradGradGradGradGradGradGradGradGradGradGradGradGradGradGradGradGradGrad

                          Input orientation:                          
 ---------------------------------------------------------------------
 Center     Atomic      Atomic             Coordinates (Angstroms)
 Number     Number       Type             X           Y           Z
 ---------------------------------------------------------------------
      1          8           0        2.716442    1.789547   -0.223830
      2          1           0        1.873832    2.218231    0.007216
      3          6           0       -3.134843    1.020259    0.422509
      4          1           0       -4.015669    1.565731    0.668935
      5          6           0       -2.145157    0.405001    0.145225
      6          6           0       -0.974435   -0.383141   -0.207360
      7          8           0       -1.021903   -1.485608   -0.673765
      8          8           0        0.154655    0.288795    0.054381
      9          6           0        1.370456   -0.404838   -0.273560
     10          6           0        1.825474   -1.312672    0.839540
     11          1           0        2.122324    0.386659   -0.434982
     12          1           0        1.244857   -0.921436   -1.225184
     13          1           0        2.809244   -1.716532    0.594568
     14          1           0        1.902949   -0.758141    1.775806
     15          1           0        1.129759   -2.143980    0.965833
 ---------------------------------------------------------------------
                    Distance matrix (angstroms):
                    1          2          3          4          5
     1  O    0.000000
     2  H    0.973213   0.000000
     3  C    5.936926   5.166665   0.000000
     4  H    6.794736   5.962370   1.064951   0.000000
     5  C    5.068364   4.411249   1.197876   2.262826   0.000000
     6  C    4.282922   3.863393   2.652099   3.716867   1.454673
     7  O    4.990421   4.750520   3.456255   4.480641   2.346667
     8  O    2.982015   2.584670   3.389890   4.404525   2.304537
     9  C    2.574777   2.685650   4.776310   5.812210   3.631908
    10  C    3.398285   3.627999   5.497384   6.514082   4.381596
    11  H    1.538069   1.900511   5.364191   6.346952   4.306782
    12  H    3.243101   3.431024   5.066246   6.119381   3.889685
    13  H    3.601524   4.086849   6.546129   7.573521   5.408225
    14  H    3.339316   3.462304   5.511213   6.454114   4.516509
    15  H    4.405167   4.527856   5.338018   6.350239   4.230340
                    6          7          8          9         10
     6  C    0.000000
     7  O    1.198007   0.000000
     8  O    1.339720   2.250109   0.000000
     9  C    2.345926   2.655487   1.437652   0.000000
    10  C    3.130418   3.229172   2.443933   1.506717   0.000000
    11  H    3.199112   3.667228   2.029969   1.103553   2.144820
    12  H    2.500197   2.400115   2.071349   1.090063   2.180199
    13  H    4.091118   4.042237   3.370457   2.131736   1.091292
    14  H    3.514671   3.883860   2.667566   2.146689   1.090918
    15  H    2.984052   2.784131   2.774881   2.149103   1.091349
                   11         12         13         14         15
    11  H    0.000000
    12  H    1.762237   0.000000
    13  H    2.440337   2.528039   0.000000
    14  H    2.499255   3.076636   1.770652   0.000000
    15  H    3.058039   2.511656   1.772349   1.781693   0.000000
 Stoichiometry    C5H7O3(2)
 Framework group  C1[X(C5H7O3)]
 Deg. of freedom    39
 Full point group                 C1      NOp   1
 Largest Abelian subgroup         C1      NOp   1
 Largest concise Abelian subgroup C1      NOp   1
                         Standard orientation:                         
 ---------------------------------------------------------------------
 Center     Atomic      Atomic             Coordinates (Angstroms)
 Number     Number       Type             X           Y           Z
 ---------------------------------------------------------------------
      1          8           0        2.663924    1.793259   -0.242922
      2          1           0        1.822515    2.224295   -0.011876
      3          6           0       -3.189487    1.040319    0.403417
      4          1           0       -4.068786    1.588250    0.649843
      5          6           0       -2.201524    0.422299    0.126133
      6          6           0       -1.033008   -0.369110   -0.226452
      7          8           0       -1.083556   -1.471440   -0.692857
      8          8           0        0.097954    0.299669    0.035289
      9          6           0        1.311813   -0.397357   -0.292652
     10          6           0        1.764293   -1.306459    0.820448
     11          1           0        2.065889    0.392036   -0.454074
     12          1           0        1.184772   -0.913603   -1.244276
     13          1           0        2.746931   -1.713066    0.575476
     14          1           0        1.843317   -0.752147    1.756714
     15          1           0        1.066259   -2.135820    0.946741
 ---------------------------------------------------------------------
 Rotational constants (GHZ):           2.9755020           1.1270271           0.8954996
 Standard basis: 6-311++G(d,p) (5D, 7F)
 There are   233 symmetry adapted cartesian basis functions of A   symmetry.
 There are   225 symmetry adapted basis functions of A   symmetry.
   225 basis functions,   351 primitive gaussians,   233 cartesian basis functions
    31 alpha electrons       30 beta electrons
       nuclear repulsion energy       347.6975235121 Hartrees.
 NAtoms=   15 NActive=   15 NUniq=   15 SFac= 1.00D+00 NAtFMM=   60 NAOKFM=F Big=F
 Integral buffers will be    131072 words long.
 Raffenetti 2 integral format.
 Two-electron integral symmetry is turned on.
 One-electron integrals computed using PRISM.
 NBasis=   225 RedAO= T EigKep=  7.69D-06  NBF=   225
 NBsUse=   224 1.00D-06 EigRej=  7.97D-07 NBFU=   224
 ExpMin= 3.60D-02 ExpMax= 8.59D+03 ExpMxC= 1.30D+03 IAcc=3 IRadAn=         5 AccDes= 0.00D+00
 Harris functional with IExCor= 1009 and IRadAn=       5 diagonalized for initial guess.
 HarFok:  IExCor= 1009 AccDes= 0.00D+00 IRadAn=         5 IDoV= 1 UseB2=F ITyADJ=14
 ICtDFT=  3500011 ScaDFX=  1.000000  1.000000  1.000000  1.000000
 FoFCou: FMM=F IPFlag=           0 FMFlag=      100000 FMFlg1=           0
         NFxFlg=           0 DoJE=T BraDBF=F KetDBF=T FulRan=T
         wScrn=  0.000000 ICntrl=       500 IOpCl=  0 I1Cent=   200000004 NGrid=           0
         NMat0=    1 NMatS0=      1 NMatT0=    0 NMatD0=    1 NMtDS0=    0 NMtDT0=    0
 Petite list used in FoFCou.
 Initial guess <Sx>= 0.0000 <Sy>= 0.0000 <Sz>= 0.5000 <S**2>= 0.7500 S= 0.5000
 Requested convergence on RMS density matrix=1.00D-08 within 128 cycles.
 Requested convergence on MAX density matrix=1.00D-06.
 Requested convergence on             energy=1.00D-06.
 No special actions if energy rises.
 Restarting incremental Fock formation.
 SCF Done:  E(UM062X) =  -420.200963879     A.U. after   21 cycles
            NFock= 21  Conv=0.38D-08     -V/T= 2.0031
 <Sx>= 0.0000 <Sy>= 0.0000 <Sz>= 0.5000 <S**2>= 0.7557 S= 0.5028
 <L.S>=  0.00000000000    
 Annihilation of the first spin contaminant:
 S**2 before annihilation     0.7557,   after     0.7500
 DoSCS=F DFT=T ScalE2(SS,OS)=  1.000000  1.000000
 Range of M.O.s used for correlation:     1   224
 NBasis=   225 NAE=    31 NBE=    30 NFC=     0 NFV=     0
 NROrb=    224 NOA=    31 NOB=    30 NVA=   193 NVB=   194

 **** Warning!!: The largest alpha MO coefficient is  0.11055783D+03


 **** Warning!!: The largest beta MO coefficient is  0.10186826D+03

 Symmetrizing basis deriv contribution to polar:
 IMax=3 JMax=2 DiffMx= 0.00D+00
 G2DrvN: will do    16 centers at a time, making    1 passes.
 Calling FoFCou, ICntrl=  3107 FMM=F I1Cent=   0 AccDes= 0.00D+00.
 End of G2Drv F.D. properties file   721 does not exist.
 End of G2Drv F.D. properties file   722 does not exist.
 End of G2Drv F.D. properties file   788 does not exist.
          IDoAtm=111111111111111
          Differentiating once with respect to electric field.
                with respect to dipole field.
          Differentiating once with respect to nuclear coordinates.
 Keep R1 and R2 ints in memory in canonical form, NReq=671901989.
          There are    48 degrees of freedom in the 1st order CPHF.  IDoFFX=6 NUNeed=     3.
     45 vectors produced by pass  0 Test12= 2.46D-14 2.08D-09 XBig12= 8.76D+01 3.23D+00.
 AX will form    45 AO Fock derivatives at one time.
     45 vectors produced by pass  1 Test12= 2.46D-14 2.08D-09 XBig12= 1.78D+01 7.00D-01.
     45 vectors produced by pass  2 Test12= 2.46D-14 2.08D-09 XBig12= 5.97D-01 1.24D-01.
     45 vectors produced by pass  3 Test12= 2.46D-14 2.08D-09 XBig12= 8.69D-03 1.34D-02.
     45 vectors produced by pass  4 Test12= 2.46D-14 2.08D-09 XBig12= 7.14D-05 9.32D-04.
     45 vectors produced by pass  5 Test12= 2.46D-14 2.08D-09 XBig12= 4.93D-07 1.09D-04.
     42 vectors produced by pass  6 Test12= 2.46D-14 2.08D-09 XBig12= 3.41D-09 6.53D-06.
     18 vectors produced by pass  7 Test12= 2.46D-14 2.08D-09 XBig12= 2.11D-11 5.53D-07.
      3 vectors produced by pass  8 Test12= 2.46D-14 2.08D-09 XBig12= 1.90D-13 3.65D-08.
      2 vectors produced by pass  9 Test12= 2.46D-14 2.08D-09 XBig12= 1.97D-15 4.13D-09.
 InvSVY:  IOpt=1 It=  1 EMax= 3.55D-15
 Solved reduced A of dimension   335 with    48 vectors.
 Isotropic polarizability for W=    0.000000       73.18 Bohr**3.
 End of Minotr F.D. properties file   721 does not exist.
 End of Minotr F.D. properties file   722 does not exist.
 End of Minotr F.D. properties file   788 does not exist.

 **********************************************************************

            Population analysis using the SCF density.

 **********************************************************************

 Orbital symmetries:
 Alpha Orbitals:
       Occupied  (A) (A) (A) (A) (A) (A) (A) (A) (A) (A) (A) (A)
                 (A) (A) (A) (A) (A) (A) (A) (A) (A) (A) (A) (A)
                 (A) (A) (A) (A) (A) (A) (A)
       Virtual   (A) (A) (A) (A) (A) (A) (A) (A) (A) (A) (A) (A)
                 (A) (A) (A) (A) (A) (A) (A) (A) (A) (A) (A) (A)
                 (A) (A) (A) (A) (A) (A) (A) (A) (A) (A) (A) (A)
                 (A) (A) (A) (A) (A) (A) (A) (A) (A) (A) (A) (A)
                 (A) (A) (A) (A) (A) (A) (A) (A) (A) (A) (A) (A)
                 (A) (A) (A) (A) (A) (A) (A) (A) (A) (A) (A) (A)
                 (A) (A) (A) (A) (A) (A) (A) (A) (A) (A) (A) (A)
                 (A) (A) (A) (A) (A) (A) (A) (A) (A) (A) (A) (A)
                 (A) (A) (A) (A) (A) (A) (A) (A) (A) (A) (A) (A)
                 (A) (A) (A) (A) (A) (A) (A) (A) (A) (A) (A) (A)
                 (A) (A) (A) (A) (A) (A) (A) (A) (A) (A) (A) (A)
                 (A) (A) (A) (A) (A) (A) (A) (A) (A) (A) (A) (A)
                 (A) (A) (A) (A) (A) (A) (A) (A) (A) (A) (A) (A)
                 (A) (A) (A) (A) (A) (A) (A) (A) (A) (A) (A) (A)
                 (A) (A) (A) (A) (A) (A) (A) (A) (A) (A) (A) (A)
                 (A) (A) (A) (A) (A) (A) (A) (A) (A) (A) (A) (A)
                 (A)
 Beta  Orbitals:
       Occupied  (A) (A) (A) (A) (A) (A) (A) (A) (A) (A) (A) (A)
                 (A) (A) (A) (A) (A) (A) (A) (A) (A) (A) (A) (A)
                 (A) (A) (A) (A) (A) (A)
       Virtual   (A) (A) (A) (A) (A) (A) (A) (A) (A) (A) (A) (A)
                 (A) (A) (A) (A) (A) (A) (A) (A) (A) (A) (A) (A)
                 (A) (A) (A) (A) (A) (A) (A) (A) (A) (A) (A) (A)
                 (A) (A) (A) (A) (A) (A) (A) (A) (A) (A) (A) (A)
                 (A) (A) (A) (A) (A) (A) (A) (A) (A) (A) (A) (A)
                 (A) (A) (A) (A) (A) (A) (A) (A) (A) (A) (A) (A)
                 (A) (A) (A) (A) (A) (A) (A) (A) (A) (A) (A) (A)
                 (A) (A) (A) (A) (A) (A) (A) (A) (A) (A) (A) (A)
                 (A) (A) (A) (A) (A) (A) (A) (A) (A) (A) (A) (A)
                 (A) (A) (A) (A) (A) (A) (A) (A) (A) (A) (A) (A)
                 (A) (A) (A) (A) (A) (A) (A) (A) (A) (A) (A) (A)
                 (A) (A) (A) (A) (A) (A) (A) (A) (A) (A) (A) (A)
                 (A) (A) (A) (A) (A) (A) (A) (A) (A) (A) (A) (A)
                 (A) (A) (A) (A) (A) (A) (A) (A) (A) (A) (A) (A)
                 (A) (A) (A) (A) (A) (A) (A) (A) (A) (A) (A) (A)
                 (A) (A) (A) (A) (A) (A) (A) (A) (A) (A) (A) (A)
                 (A) (A)
 The electronic state is 2-A.
 Alpha  occ. eigenvalues --  -19.69410 -19.68480 -19.64065 -10.71502 -10.61240
 Alpha  occ. eigenvalues --  -10.57694 -10.57268 -10.54210  -1.26625  -1.17378
 Alpha  occ. eigenvalues --   -1.14596  -0.91198  -0.87683  -0.78739  -0.71482
 Alpha  occ. eigenvalues --   -0.65633  -0.61960  -0.59965  -0.57879  -0.57053
 Alpha  occ. eigenvalues --   -0.55286  -0.50150  -0.49995  -0.47211  -0.45326
 Alpha  occ. eigenvalues --   -0.43678  -0.40823  -0.40215  -0.38274  -0.37857
 Alpha  occ. eigenvalues --   -0.36954
 Alpha virt. eigenvalues --   -0.02267  -0.00591   0.00653   0.01347   0.01963
 Alpha virt. eigenvalues --    0.03360   0.03555   0.04709   0.06012   0.06119
 Alpha virt. eigenvalues --    0.06640   0.07417   0.08181   0.09561   0.10357
 Alpha virt. eigenvalues --    0.11401   0.11861   0.12526   0.12822   0.13018
 Alpha virt. eigenvalues --    0.14104   0.14386   0.15213   0.15874   0.16634
 Alpha virt. eigenvalues --    0.17727   0.18186   0.18590   0.19471   0.20157
 Alpha virt. eigenvalues --    0.21467   0.22300   0.23836   0.24669   0.25616
 Alpha virt. eigenvalues --    0.26456   0.27560   0.27877   0.28744   0.29918
 Alpha virt. eigenvalues --    0.30758   0.31176   0.32175   0.32776   0.33908
 Alpha virt. eigenvalues --    0.34470   0.35451   0.37015   0.37923   0.40807
 Alpha virt. eigenvalues --    0.42871   0.44503   0.46847   0.47976   0.50828
 Alpha virt. eigenvalues --    0.51053   0.53510   0.56313   0.57764   0.59982
 Alpha virt. eigenvalues --    0.60833   0.63172   0.64738   0.67098   0.67796
 Alpha virt. eigenvalues --    0.68341   0.69892   0.71050   0.72649   0.74072
 Alpha virt. eigenvalues --    0.75230   0.76948   0.79922   0.82142   0.84274
 Alpha virt. eigenvalues --    0.88964   0.93118   0.95963   1.00294   1.03611
 Alpha virt. eigenvalues --    1.07055   1.08148   1.10643   1.11602   1.14165
 Alpha virt. eigenvalues --    1.15508   1.17144   1.17790   1.18626   1.21360
 Alpha virt. eigenvalues --    1.23201   1.24008   1.28797   1.30000   1.34429
 Alpha virt. eigenvalues --    1.35787   1.36649   1.38049   1.40708   1.43332
 Alpha virt. eigenvalues --    1.47874   1.49227   1.49986   1.53590   1.59108
 Alpha virt. eigenvalues --    1.60201   1.60981   1.62355   1.63565   1.65638
 Alpha virt. eigenvalues --    1.66985   1.67893   1.69924   1.74389   1.76762
 Alpha virt. eigenvalues --    1.80740   1.83885   1.85136   1.89149   1.90594
 Alpha virt. eigenvalues --    1.96275   2.00652   2.02488   2.05666   2.08035
 Alpha virt. eigenvalues --    2.10158   2.14211   2.20973   2.29812   2.34166
 Alpha virt. eigenvalues --    2.41868   2.47722   2.50672   2.51226   2.53841
 Alpha virt. eigenvalues --    2.57364   2.60190   2.60998   2.63238   2.64659
 Alpha virt. eigenvalues --    2.66178   2.69528   2.71979   2.73168   2.79080
 Alpha virt. eigenvalues --    2.82098   2.82427   2.86362   2.92118   2.94114
 Alpha virt. eigenvalues --    2.98204   3.01444   3.03735   3.05851   3.09424
 Alpha virt. eigenvalues --    3.12599   3.14159   3.15770   3.20789   3.23991
 Alpha virt. eigenvalues --    3.29517   3.33257   3.36008   3.37713   3.43316
 Alpha virt. eigenvalues --    3.56563   3.65954   3.73167   3.81840   3.85708
 Alpha virt. eigenvalues --    3.86327   3.93309   4.05603   4.12654   4.18358
 Alpha virt. eigenvalues --    4.27851   5.05298   5.12074   5.13296   5.16779
 Alpha virt. eigenvalues --    5.31053   5.45877   5.54611   5.72090   5.93954
 Alpha virt. eigenvalues --   23.62135  23.93666  23.94244  24.05447  25.17250
 Alpha virt. eigenvalues --   49.93597  49.98798  50.10388
  Beta  occ. eigenvalues --  -19.69417 -19.66976 -19.64062 -10.71496 -10.61030
  Beta  occ. eigenvalues --  -10.57694 -10.57269 -10.54213  -1.26590  -1.17313
  Beta  occ. eigenvalues --   -1.07609  -0.90933  -0.87425  -0.78636  -0.70862
  Beta  occ. eigenvalues --   -0.65454  -0.61735  -0.59318  -0.57269  -0.55087
  Beta  occ. eigenvalues --   -0.52591  -0.49927  -0.47508  -0.45982  -0.42437
  Beta  occ. eigenvalues --   -0.40361  -0.40189  -0.39375  -0.37852  -0.36942
  Beta virt. eigenvalues --   -0.10751  -0.02251  -0.00411   0.00709   0.01600
  Beta virt. eigenvalues --    0.02046   0.03387   0.03578   0.04882   0.06088
  Beta virt. eigenvalues --    0.06175   0.06701   0.07539   0.08220   0.09744
  Beta virt. eigenvalues --    0.10479   0.11630   0.12101   0.12613   0.13039
  Beta virt. eigenvalues --    0.13149   0.14195   0.14489   0.15266   0.16061
  Beta virt. eigenvalues --    0.16719   0.17826   0.18231   0.18619   0.19777
  Beta virt. eigenvalues --    0.20187   0.21474   0.22410   0.23336   0.24405
  Beta virt. eigenvalues --    0.25611   0.26587   0.27690   0.28088   0.28863
  Beta virt. eigenvalues --    0.30109   0.30936   0.31458   0.32324   0.32829
  Beta virt. eigenvalues --    0.34016   0.34796   0.35557   0.37709   0.38141
  Beta virt. eigenvalues --    0.41370   0.43027   0.44601   0.46889   0.48062
  Beta virt. eigenvalues --    0.50860   0.51129   0.53706   0.56361   0.58004
  Beta virt. eigenvalues --    0.60267   0.61014   0.63226   0.64853   0.67183
  Beta virt. eigenvalues --    0.67869   0.68803   0.70182   0.71247   0.72708
  Beta virt. eigenvalues --    0.74104   0.75277   0.77045   0.80103   0.82303
  Beta virt. eigenvalues --    0.84294   0.89048   0.93240   0.96025   1.00887
  Beta virt. eigenvalues --    1.04065   1.07372   1.08897   1.10689   1.13326
  Beta virt. eigenvalues --    1.14511   1.15825   1.17183   1.18136   1.20283
  Beta virt. eigenvalues --    1.21860   1.23384   1.24221   1.28932   1.30116
  Beta virt. eigenvalues --    1.34687   1.35942   1.36825   1.38533   1.41010
  Beta virt. eigenvalues --    1.43381   1.48272   1.49850   1.50493   1.54917
  Beta virt. eigenvalues --    1.59217   1.60304   1.61022   1.62611   1.63572
  Beta virt. eigenvalues --    1.65773   1.67287   1.68157   1.70099   1.74322
  Beta virt. eigenvalues --    1.77139   1.80821   1.83889   1.85189   1.89795
  Beta virt. eigenvalues --    1.90734   1.96369   2.00772   2.02367   2.05729
  Beta virt. eigenvalues --    2.09026   2.10411   2.14440   2.21131   2.30144
  Beta virt. eigenvalues --    2.34177   2.41873   2.47957   2.50718   2.51300
  Beta virt. eigenvalues --    2.53959   2.57350   2.60434   2.61188   2.63415
  Beta virt. eigenvalues --    2.64808   2.66249   2.69544   2.71979   2.73244
  Beta virt. eigenvalues --    2.79206   2.82166   2.82574   2.89433   2.92997
  Beta virt. eigenvalues --    2.95620   2.98239   3.01576   3.03743   3.05863
  Beta virt. eigenvalues --    3.09540   3.13130   3.17429   3.18277   3.21023
  Beta virt. eigenvalues --    3.24192   3.30205   3.33316   3.37485   3.38299
  Beta virt. eigenvalues --    3.43352   3.56569   3.65973   3.73276   3.83059
  Beta virt. eigenvalues --    3.86204   3.86988   3.94528   4.05855   4.12762
  Beta virt. eigenvalues --    4.18404   4.28141   5.06997   5.13042   5.16446
  Beta virt. eigenvalues --    5.20943   5.31082   5.46115   5.56818   5.72127
  Beta virt. eigenvalues --    5.93962  23.62136  23.93701  23.94291  24.05451
  Beta virt. eigenvalues --   25.17250  49.93122  49.98805  50.10387
          Condensed to atoms (all electrons):
               1          2          3          4          5          6
     1  O    7.991158   0.271176  -0.000968  -0.000034   0.009386  -0.002175
     2  H    0.271176   0.476534  -0.000393  -0.000139  -0.000621  -0.001336
     3  C   -0.000968  -0.000393   5.813668   0.448136  -0.490912   0.959863
     4  H   -0.000034  -0.000139   0.448136   0.426351  -0.076355   0.024658
     5  C    0.009386  -0.000621  -0.490912  -0.076355   8.130273  -2.206576
     6  C   -0.002175  -0.001336   0.959863   0.024658  -2.206576   7.527545
     7  O   -0.000381  -0.000527  -0.095966  -0.003169   0.116581   0.361846
     8  O    0.013108   0.007188  -0.094741  -0.005291  -0.269557   0.049996
     9  C   -0.000570   0.008010   0.048373   0.000732  -0.246160   0.070177
    10  C   -0.015263   0.014301  -0.013065  -0.001244  -0.068092  -0.083296
    11  H   -0.004511  -0.036764   0.005213   0.000425  -0.015256   0.011771
    12  H    0.002312  -0.000727  -0.002807  -0.000092   0.015019   0.001757
    13  H   -0.002255   0.001973  -0.000677  -0.000032  -0.000394  -0.004214
    14  H    0.005245  -0.001517   0.000088   0.000011   0.007373   0.005507
    15  H   -0.003197   0.000141   0.004476   0.000050  -0.031147   0.006971
               7          8          9         10         11         12
     1  O   -0.000381   0.013108  -0.000570  -0.015263  -0.004511   0.002312
     2  H   -0.000527   0.007188   0.008010   0.014301  -0.036764  -0.000727
     3  C   -0.095966  -0.094741   0.048373  -0.013065   0.005213  -0.002807
     4  H   -0.003169  -0.005291   0.000732  -0.001244   0.000425  -0.000092
     5  C    0.116581  -0.269557  -0.246160  -0.068092  -0.015256   0.015019
     6  C    0.361846   0.049996   0.070177  -0.083296   0.011771   0.001757
     7  O    7.985978  -0.145372   0.073289  -0.089895   0.012671  -0.014316
     8  O   -0.145372   8.385474   0.176408   0.009099  -0.091781  -0.022028
     9  C    0.073289   0.176408   5.907525  -0.308187   0.406896   0.427913
    10  C   -0.089895   0.009099  -0.308187   5.877061  -0.119377  -0.062149
    11  H    0.012671  -0.091781   0.406896  -0.119377   0.638605  -0.053221
    12  H   -0.014316  -0.022028   0.427913  -0.062149  -0.053221   0.497785
    13  H   -0.002458   0.020465  -0.052421   0.421052  -0.017010  -0.005849
    14  H    0.000311  -0.008743  -0.028722   0.396760  -0.013738   0.004711
    15  H    0.003540  -0.018509  -0.006877   0.381205   0.018957  -0.007314
              13         14         15
     1  O   -0.002255   0.005245  -0.003197
     2  H    0.001973  -0.001517   0.000141
     3  C   -0.000677   0.000088   0.004476
     4  H   -0.000032   0.000011   0.000050
     5  C   -0.000394   0.007373  -0.031147
     6  C   -0.004214   0.005507   0.006971
     7  O   -0.002458   0.000311   0.003540
     8  O    0.020465  -0.008743  -0.018509
     9  C   -0.052421  -0.028722  -0.006877
    10  C    0.421052   0.396760   0.381205
    11  H   -0.017010  -0.013738   0.018957
    12  H   -0.005849   0.004711  -0.007314
    13  H    0.528240  -0.031289  -0.030637
    14  H   -0.031289   0.537075  -0.048883
    15  H   -0.030637  -0.048883   0.544824
          Atomic-Atomic Spin Densities.
               1          2          3          4          5          6
     1  O    0.945402   0.009683  -0.000329  -0.000006   0.003980  -0.000362
     2  H    0.009683  -0.031757   0.000191   0.000003  -0.001160  -0.000061
     3  C   -0.000329   0.000191   0.005274   0.000722  -0.014651   0.007822
     4  H   -0.000006   0.000003   0.000722   0.000102  -0.001975   0.001081
     5  C    0.003980  -0.001160  -0.014651  -0.001975   0.035799  -0.012329
     6  C   -0.000362  -0.000061   0.007822   0.001081  -0.012329  -0.000363
     7  O    0.000092  -0.000020  -0.001237  -0.000025   0.006457  -0.003954
     8  O    0.024318  -0.002192   0.002263   0.000030  -0.010567   0.010413
     9  C   -0.073771   0.006878  -0.000020  -0.000014  -0.007604  -0.003576
    10  C    0.023364  -0.002792  -0.001630  -0.000028   0.013068  -0.003930
    11  H   -0.061445   0.003182   0.001353   0.000083  -0.006358   0.005847
    12  H    0.002880  -0.000119   0.000154  -0.000009  -0.001014   0.000127
    13  H   -0.000088   0.000061   0.000028   0.000002  -0.000147   0.000191
    14  H    0.001969  -0.000332  -0.000036  -0.000012  -0.000164  -0.000111
    15  H   -0.001259   0.000152  -0.000002   0.000014   0.000241  -0.000285
               7          8          9         10         11         12
     1  O    0.000092   0.024318  -0.073771   0.023364  -0.061445   0.002880
     2  H   -0.000020  -0.002192   0.006878  -0.002792   0.003182  -0.000119
     3  C   -0.001237   0.002263  -0.000020  -0.001630   0.001353   0.000154
     4  H   -0.000025   0.000030  -0.000014  -0.000028   0.000083  -0.000009
     5  C    0.006457  -0.010567  -0.007604   0.013068  -0.006358  -0.001014
     6  C   -0.003954   0.010413  -0.003576  -0.003930   0.005847   0.000127
     7  O    0.001197   0.000602   0.000642  -0.000813  -0.001904   0.000369
     8  O    0.000602   0.010513  -0.033320   0.006934  -0.015778   0.001893
     9  C    0.000642  -0.033320   0.223694  -0.002420   0.071138  -0.012044
    10  C   -0.000813   0.006934  -0.002420  -0.017622  -0.022918   0.005868
    11  H   -0.001904  -0.015778   0.071138  -0.022918  -0.006951   0.002097
    12  H    0.000369   0.001893  -0.012044   0.005868   0.002097   0.001710
    13  H   -0.000037   0.000103  -0.001625   0.002299  -0.001402  -0.000091
    14  H    0.000254   0.001074  -0.007577   0.005969  -0.000181  -0.000115
    15  H   -0.000608   0.000057   0.004395  -0.003070  -0.000316  -0.000645
              13         14         15
     1  O   -0.000088   0.001969  -0.001259
     2  H    0.000061  -0.000332   0.000152
     3  C    0.000028  -0.000036  -0.000002
     4  H    0.000002  -0.000012   0.000014
     5  C   -0.000147  -0.000164   0.000241
     6  C    0.000191  -0.000111  -0.000285
     7  O   -0.000037   0.000254  -0.000608
     8  O    0.000103   0.001074   0.000057
     9  C   -0.001625  -0.007577   0.004395
    10  C    0.002299   0.005969  -0.003070
    11  H   -0.001402  -0.000181  -0.000316
    12  H   -0.000091  -0.000115  -0.000645
    13  H    0.000570  -0.000272  -0.000099
    14  H   -0.000272   0.001115  -0.000843
    15  H   -0.000099  -0.000843   0.010012
 Mulliken charges and spin densities:
               1          2
     1  O   -0.263030   0.874429
     2  H    0.262700  -0.018282
     3  C   -0.580289  -0.000098
     4  H    0.185991  -0.000032
     5  C    1.126435   0.003576
     6  C   -0.722496   0.000509
     7  O   -0.202134   0.001015
     8  O   -0.005717  -0.003658
     9  C   -0.476387   0.164776
    10  C   -0.338911   0.002280
    11  H    0.257120  -0.033553
    12  H    0.219004   0.001062
    13  H    0.175506  -0.000508
    14  H    0.175810   0.000739
    15  H    0.186398   0.007744
 Sum of Mulliken charges =  -0.00000   1.00000
 Mulliken charges and spin densities with hydrogens summed into heavy atoms:
               1          2
     1  O   -0.000330   0.856147
     3  C   -0.394297  -0.000130
     5  C    1.126435   0.003576
     6  C   -0.722496   0.000509
     7  O   -0.202134   0.001015
     8  O   -0.005717  -0.003658
     9  C   -0.000264   0.132286
    10  C    0.198802   0.010255
 APT charges:
               1
     1  O   -0.177697
     2  H    0.314821
     3  C   -0.184535
     4  H    0.236719
     5  C   -0.305689
     6  C    1.525322
     7  O   -0.785648
     8  O   -1.007226
     9  C    0.724376
    10  C   -0.110778
    11  H   -0.261757
    12  H   -0.036915
    13  H    0.020653
    14  H    0.020097
    15  H    0.028258
 Sum of APT charges =  -0.00000
 APT charges with hydrogens summed into heavy atoms:
               1
     1  O    0.137125
     3  C    0.052184
     5  C   -0.305689
     6  C    1.525322
     7  O   -0.785648
     8  O   -1.007226
     9  C    0.425703
    10  C   -0.041770
 Electronic spatial extent (au):  <R**2>=           1268.6931
 Charge=             -0.0000 electrons
 Dipole moment (field-independent basis, Debye):
    X=             -0.9674    Y=              1.4641    Z=              1.1512  Tot=              2.0988
 Quadrupole moment (field-independent basis, Debye-Ang):
   XX=            -45.0273   YY=            -47.2216   ZZ=            -48.3804
   XY=            -10.3097   XZ=             -2.0375   YZ=             -0.3291
 Traceless Quadrupole moment (field-independent basis, Debye-Ang):
   XX=              1.8492   YY=             -0.3452   ZZ=             -1.5040
   XY=            -10.3097   XZ=             -2.0375   YZ=             -0.3291
 Octapole moment (field-independent basis, Debye-Ang**2):
  XXX=            -47.8278  YYY=             18.7833  ZZZ=             -3.3478  XYY=              3.1705
  XXY=             10.5473  XXZ=             11.8639  XZZ=              4.6141  YZZ=             -0.0503
  YYZ=              5.9695  XYZ=              1.0003
 Hexadecapole moment (field-independent basis, Debye-Ang**3):
 XXXX=          -1016.6713 YYYY=           -373.8224 ZZZZ=           -125.1466 XXXY=           -132.2305
 XXXZ=            -37.9986 YYYX=             13.8596 YYYZ=              2.2319 ZZZX=              3.1196
 ZZZY=              3.7709 XXYY=           -235.9908 XXZZ=           -217.4476 YYZZ=            -92.7428
 XXYZ=             22.6457 YYXZ=             -5.6522 ZZXY=              1.1240
 N-N= 3.476975235121D+02 E-N=-1.679781568259D+03  KE= 4.188962553026D+02
  Exact polarizability:  91.207  -5.158  77.111  -4.044   4.204  51.232
 Approx polarizability:  93.779  -9.930  88.650  -6.542  10.574  60.432
                          Isotropic Fermi Contact Couplings
        Atom                 a.u.       MegaHertz       Gauss      10(-4) cm-1
     1  O(17)              0.12507     -75.81621     -27.05311     -25.28956
     2  H(1)              -0.01455     -65.03655     -23.20666     -21.69386
     3  C(13)              0.00006       0.06828       0.02436       0.02277
     4  H(1)              -0.00000      -0.01636      -0.00584      -0.00546
     5  C(13)             -0.00033      -0.36543      -0.13040      -0.12189
     6  C(13)              0.00408       4.58596       1.63638       1.52971
     7  O(17)              0.00123      -0.74368      -0.26536      -0.24807
     8  O(17)             -0.00040       0.24340       0.08685       0.08119
     9  C(13)              0.08703      97.84364      34.91304      32.63713
    10  C(13)             -0.00238      -2.68009      -0.95632      -0.89398
    11  H(1)              -0.00405     -18.11313      -6.46322      -6.04189
    12  H(1)               0.00125       5.59968       1.99811       1.86785
    13  H(1)               0.00036       1.58836       0.56677       0.52982
    14  H(1)               0.00057       2.57002       0.91705       0.85727
    15  H(1)               0.00431      19.27066       6.87625       6.42800
 --------------------------------------------------------
       Center         ----  Spin Dipole Couplings  ----
                      3XX-RR        3YY-RR        3ZZ-RR
 --------------------------------------------------------
     1   Atom       -0.579295      2.270405     -1.691110
     2   Atom        0.104841     -0.000888     -0.103953
     3   Atom        0.001339     -0.000805     -0.000534
     4   Atom        0.000947     -0.000465     -0.000482
     5   Atom        0.002435     -0.000961     -0.001474
     6   Atom        0.007101     -0.002843     -0.004259
     7   Atom        0.003211     -0.003307      0.000096
     8   Atom        0.002701      0.000517     -0.003217
     9   Atom        0.017647      0.103871     -0.121518
    10   Atom       -0.007856      0.008817     -0.000961
    11   Atom       -0.015908      0.090840     -0.074932
    12   Atom       -0.010366      0.000955      0.009411
    13   Atom       -0.002048      0.005437     -0.003389
    14   Atom       -0.004461      0.000739      0.003722
    15   Atom       -0.001751      0.003147     -0.001396
 --------------------------------------------------------
                        XY            XZ            YZ
 --------------------------------------------------------
     1   Atom        2.145267      0.195003      0.360683
     2   Atom       -0.076211     -0.054489      0.035811
     3   Atom        0.000103     -0.000081      0.000328
     4   Atom       -0.000088     -0.000203      0.000030
     5   Atom        0.000318     -0.000390     -0.000121
     6   Atom        0.003305      0.001527      0.000860
     7   Atom        0.003720     -0.005313     -0.000741
     8   Atom        0.019466     -0.001717     -0.009135
     9   Atom        0.181035     -0.017336     -0.021960
    10   Atom        0.003635     -0.001548     -0.011388
    11   Atom        0.095723     -0.000805      0.009514
    12   Atom        0.008779      0.002067      0.012099
    13   Atom       -0.002629      0.001621     -0.003439
    14   Atom        0.001828     -0.000433     -0.005562
    15   Atom        0.002539     -0.000218     -0.002945
 --------------------------------------------------------


 ---------------------------------------------------------------------------------
              Anisotropic Spin Dipole Couplings in Principal Axis System
 ---------------------------------------------------------------------------------

       Atom             a.u.   MegaHertz   Gauss  10(-4) cm-1        Axes

              Baa    -1.7301   125.188    44.670    41.758  0.8688 -0.4467 -0.2135
     1 O(17)  Bbb    -1.7235   124.710    44.500    41.599  0.1521 -0.1696  0.9737
              Bcc     3.4536  -249.898   -89.170   -83.357  0.4711  0.8785  0.0794
 
              Baa    -0.1204   -64.217   -22.914   -21.421  0.1735 -0.1796  0.9683
     2 H(1)   Bbb    -0.0403   -21.498    -7.671    -7.171  0.4854  0.8711  0.0745
              Bcc     0.1606    85.715    30.585    28.591  0.8569 -0.4571 -0.2383
 
              Baa    -0.0010    -0.138    -0.049    -0.046 -0.0552  0.8295 -0.5557
     3 C(13)  Bbb    -0.0003    -0.042    -0.015    -0.014  0.0058  0.5569  0.8306
              Bcc     0.0013     0.181     0.064     0.060  0.9985  0.0426 -0.0355
 
              Baa    -0.0005    -0.276    -0.098    -0.092  0.1071 -0.3557  0.9284
     4 H(1)   Bbb    -0.0005    -0.248    -0.088    -0.083  0.1075  0.9325  0.3449
              Bcc     0.0010     0.524     0.187     0.175  0.9884 -0.0629 -0.1381
 
              Baa    -0.0015    -0.205    -0.073    -0.068  0.0837  0.1632  0.9830
     5 C(13)  Bbb    -0.0010    -0.131    -0.047    -0.044 -0.1091  0.9821 -0.1537
              Bcc     0.0025     0.336     0.120     0.112  0.9905  0.0944 -0.1000
 
              Baa    -0.0047    -0.626    -0.223    -0.209  0.0051 -0.4344  0.9007
     6 C(13)  Bbb    -0.0037    -0.492    -0.176    -0.164 -0.3202  0.8526  0.4130
              Bcc     0.0083     1.118     0.399     0.373  0.9473  0.2906  0.1347
 
              Baa    -0.0057     0.412     0.147     0.137 -0.5490  0.7280 -0.4106
     7 O(17)  Bbb    -0.0025     0.183     0.065     0.061  0.2758  0.6216  0.7332
              Bcc     0.0082    -0.595    -0.212    -0.199  0.7890  0.2893 -0.5420
 
              Baa    -0.0198     1.436     0.512     0.479 -0.6006  0.7253  0.3365
     8 O(17)  Bbb    -0.0035     0.250     0.089     0.083  0.4338 -0.0579  0.8992
              Bcc     0.0233    -1.686    -0.602    -0.562  0.6716  0.6860 -0.2798
 
              Baa    -0.1253   -16.819    -6.002    -5.610  0.7846 -0.6200 -0.0040
     9 C(13)  Bbb    -0.1236   -16.590    -5.920    -5.534  0.0498  0.0566  0.9972
              Bcc     0.2490    33.409    11.921    11.144  0.6181  0.7825 -0.0753
 
              Baa    -0.0092    -1.230    -0.439    -0.410  0.6990 -0.4781 -0.5318
    10 C(13)  Bbb    -0.0078    -1.042    -0.372    -0.348  0.6981  0.2950  0.6524
              Bcc     0.0169     2.272     0.811     0.758  0.1550  0.8273 -0.5400
 
              Baa    -0.0794   -42.358   -15.114   -14.129  0.5075 -0.3299  0.7960
    11 H(1)   Bbb    -0.0679   -36.254   -12.937   -12.093  0.6978 -0.3845 -0.6043
              Bcc     0.1473    78.612    28.051    26.222  0.5054  0.8622  0.0351
 
              Baa    -0.0160    -8.524    -3.042    -2.843  0.8031 -0.5606  0.2018
    12 H(1)   Bbb    -0.0036    -1.932    -0.690    -0.645 -0.5499 -0.5668  0.6135
              Bcc     0.0196    10.456     3.731     3.488  0.2295  0.6036  0.7635
 
              Baa    -0.0048    -2.564    -0.915    -0.855 -0.3256  0.2248  0.9184
    13 H(1)   Bbb    -0.0028    -1.473    -0.526    -0.491  0.8966  0.3817  0.2245
              Bcc     0.0076     4.037     1.441     1.347 -0.3000  0.8965 -0.3258
 
              Baa    -0.0054    -2.871    -1.024    -0.958  0.8384 -0.4819 -0.2546
    14 H(1)   Bbb    -0.0028    -1.482    -0.529    -0.494  0.5326  0.6252  0.5704
              Bcc     0.0082     4.353     1.553     1.452 -0.1157 -0.6139  0.7809
 
              Baa    -0.0036    -1.915    -0.683    -0.639  0.6173 -0.4987 -0.6085
    15 H(1)   Bbb    -0.0018    -0.964    -0.344    -0.322  0.7190  0.0437  0.6936
              Bcc     0.0054     2.879     1.027     0.960  0.3193  0.8656 -0.3856
 

 ---------------------------------------------------------------------------------

 Calling FoFJK, ICntrl=    100127 FMM=F ISym2X=0 I1Cent= 0 IOpClX= 1 NMat=1 NMatS=1 NMatT=0.
 Full mass-weighted force constant matrix:
 Low frequencies --- -216.0630 -107.5435  -54.2333  -34.1706   -8.7432   -0.0010
 Low frequencies ---   -0.0009   -0.0004   47.1168
 ******    2 imaginary frequencies (negative Signs) ****** 
 Diagonal vibrational polarizability:
       95.5340623     229.2457989     104.5269375
 Harmonic frequencies (cm**-1), IR intensities (KM/Mole), Raman scattering
 activities (A**4/AMU), depolarization ratios for plane and unpolarized
 incident light, reduced masses (AMU), force constants (mDyne/A),
 and normal coordinates:
                      1                      2                      3
                      A                      A                      A
 Frequencies --   -215.9901              -104.7973                37.0964
 Red. masses --      2.4932                 4.0323                 5.7248
 Frc consts  --      0.0685                 0.0261                 0.0046
 IR Inten    --     23.5638                 0.7409                12.0992
  Atom  AN      X      Y      Z        X      Y      Z        X      Y      Z
     1   8     0.01   0.19   0.10     0.16  -0.21   0.16     0.43   0.14  -0.12
     2   1    -0.14  -0.12   0.13     0.27  -0.04   0.25     0.50   0.30  -0.14
     3   6     0.02   0.02   0.01    -0.06  -0.02  -0.01    -0.12  -0.18   0.09
     4   1     0.01   0.01   0.00    -0.06  -0.01  -0.02    -0.16  -0.27   0.15
     5   6     0.03   0.03   0.01    -0.06  -0.03   0.00    -0.08  -0.07   0.03
     6   6     0.00   0.00  -0.00    -0.06  -0.03   0.01    -0.04   0.01  -0.03
     7   8    -0.06  -0.01   0.03    -0.04  -0.05   0.06    -0.01   0.03  -0.10
     8   8     0.04  -0.03  -0.08    -0.07   0.02  -0.06    -0.06   0.02   0.00
     9   6    -0.02  -0.18  -0.11    -0.07   0.07  -0.12    -0.05   0.00   0.06
    10   6     0.01  -0.00   0.04     0.14   0.25  -0.06    -0.16  -0.02   0.10
    11   1    -0.03  -0.40  -0.49    -0.15   0.13  -0.35    -0.05  -0.08   0.07
    12   1    -0.27  -0.47   0.08    -0.14  -0.07  -0.04    -0.04  -0.04   0.09
    13   1    -0.04  -0.10   0.04     0.15   0.30  -0.11    -0.16  -0.07   0.16
    14   1     0.12   0.17  -0.07     0.20   0.38  -0.14    -0.18  -0.02   0.10
    15   1    -0.03   0.06   0.25     0.22   0.21   0.12    -0.20   0.02   0.07
                      4                      5                      6
                      A                      A                      A
 Frequencies --     56.4327                95.3128               148.9646
 Red. masses --      4.6590                 4.6925                 3.6504
 Frc consts  --      0.0087                 0.0251                 0.0477
 IR Inten    --      4.8926                 5.3058                 9.7905
  Atom  AN      X      Y      Z        X      Y      Z        X      Y      Z
     1   8     0.10   0.11   0.09     0.07   0.11  -0.08     0.04   0.11   0.04
     2   1     0.11   0.15   0.04     0.13   0.11   0.17     0.07   0.23  -0.06
     3   6    -0.05   0.02  -0.16    -0.05   0.10  -0.19     0.22   0.22   0.10
     4   1    -0.07   0.03  -0.28    -0.05   0.17  -0.35     0.40   0.47   0.20
     5   6    -0.02  -0.00  -0.02    -0.05   0.01  -0.00    -0.02  -0.10  -0.04
     6   6     0.01  -0.02   0.11    -0.06  -0.04   0.08    -0.06  -0.15  -0.06
     7   8     0.04  -0.10   0.30    -0.09   0.03  -0.07    -0.02  -0.16  -0.04
     8   8    -0.01   0.07  -0.04    -0.05  -0.14   0.29    -0.11  -0.08  -0.05
     9   6    -0.01   0.08  -0.08    -0.04  -0.03   0.05    -0.02   0.06   0.02
    10   6    -0.10  -0.16  -0.23     0.24  -0.05  -0.08    -0.02   0.05   0.02
    11   1     0.02   0.07   0.12    -0.15   0.01  -0.08    -0.09   0.15   0.14
    12   1     0.03   0.25  -0.18    -0.19  -0.03   0.07     0.12   0.10  -0.02
    13   1    -0.08  -0.11  -0.25     0.22   0.04  -0.30     0.09   0.26   0.14
    14   1    -0.15  -0.35  -0.11     0.39  -0.10  -0.06    -0.28  -0.01   0.07
    15   1    -0.11  -0.18  -0.44     0.33  -0.11   0.02     0.11  -0.10  -0.16
                      7                      8                      9
                      A                      A                      A
 Frequencies --    218.1876               225.5480               269.9953
 Red. masses --      1.0854                 1.2315                 4.1300
 Frc consts  --      0.0304                 0.0369                 0.1774
 IR Inten    --    107.7942                 1.6267                 2.8869
  Atom  AN      X      Y      Z        X      Y      Z        X      Y      Z
     1   8    -0.01   0.01  -0.06    -0.01  -0.00  -0.01    -0.00  -0.03  -0.01
     2   1     0.16  -0.20   0.94     0.03  -0.01   0.12    -0.04  -0.05  -0.09
     3   6     0.01   0.00   0.00     0.04   0.03  -0.01     0.02   0.06  -0.18
     4   1     0.01   0.00   0.01     0.08   0.10  -0.01     0.01   0.24  -0.60
     5   6     0.00  -0.00  -0.01    -0.01  -0.06   0.00     0.03  -0.17   0.39
     6   6     0.00   0.00  -0.00     0.01  -0.03   0.00     0.03  -0.04   0.12
     7   8     0.02  -0.00   0.01     0.07  -0.02  -0.02     0.05   0.06  -0.12
     8   8     0.00   0.01  -0.01    -0.02   0.02   0.03     0.02   0.03  -0.02
     9   6    -0.00   0.00  -0.00    -0.03   0.03   0.00    -0.01  -0.00  -0.08
    10   6    -0.03   0.00   0.01    -0.05   0.01  -0.01    -0.11   0.06   0.00
    11   1    -0.01   0.00  -0.03    -0.01   0.03  -0.00     0.01  -0.05  -0.14
    12   1     0.00  -0.00   0.00    -0.04   0.04  -0.00    -0.07  -0.05  -0.05
    13   1     0.02   0.07   0.08    -0.30  -0.45  -0.27    -0.01   0.16   0.24
    14   1    -0.13  -0.02   0.03     0.48   0.10  -0.11    -0.39   0.10   0.00
    15   1     0.01  -0.04  -0.06    -0.36   0.32   0.31    -0.05  -0.02  -0.12
                     10                     11                     12
                      A                      A                      A
 Frequencies --    323.6026               420.0023               560.2405
 Red. masses --      3.1155                 3.7842                 3.8265
 Frc consts  --      0.1922                 0.3933                 0.7076
 IR Inten    --     11.4524                 2.5679                 3.4590
  Atom  AN      X      Y      Z        X      Y      Z        X      Y      Z
     1   8    -0.00  -0.04  -0.01    -0.01   0.00   0.00    -0.02  -0.01   0.00
     2   1    -0.11  -0.14  -0.21     0.03   0.11  -0.05     0.13   0.27   0.04
     3   6     0.03   0.03   0.05     0.08  -0.09  -0.01     0.15  -0.11  -0.06
     4   1     0.10   0.08   0.18    -0.00  -0.25   0.04     0.00  -0.32  -0.15
     5   6    -0.07  -0.05  -0.13     0.18   0.11  -0.08     0.29   0.11   0.07
     6   6     0.02   0.04   0.01     0.05  -0.05   0.04     0.02  -0.03  -0.05
     7   8     0.24   0.03   0.01    -0.09  -0.03   0.00    -0.02  -0.04  -0.02
     8   8    -0.03   0.08   0.15     0.05  -0.15   0.20    -0.12   0.10  -0.04
     9   6    -0.15  -0.07  -0.05     0.02   0.06  -0.14    -0.24   0.02   0.12
    10   6    -0.06  -0.00  -0.04    -0.18   0.14  -0.06    -0.01  -0.02   0.01
    11   1    -0.12  -0.24  -0.38    -0.03   0.13  -0.15    -0.22  -0.07  -0.05
    12   1    -0.47  -0.22   0.08    -0.07   0.11  -0.16    -0.31  -0.10   0.19
    13   1     0.08   0.26   0.08    -0.17  -0.04   0.30     0.00   0.21  -0.36
    14   1    -0.30   0.01  -0.02    -0.41   0.29  -0.13     0.19  -0.18   0.08
    15   1     0.14  -0.18  -0.12    -0.36   0.28  -0.12     0.21  -0.20   0.05
                     13                     14                     15
                      A                      A                      A
 Frequencies --    597.7878               633.6923               742.1208
 Red. masses --      3.0562                 1.5397                 1.3124
 Frc consts  --      0.6435                 0.3643                 0.4258
 IR Inten    --     24.2093               169.5164                37.1117
  Atom  AN      X      Y      Z        X      Y      Z        X      Y      Z
     1   8    -0.04  -0.01   0.01    -0.06  -0.03   0.00     0.00   0.00   0.00
     2   1     0.36   0.71   0.09     0.42   0.85   0.10    -0.00  -0.01   0.00
     3   6    -0.13   0.08   0.03     0.05  -0.02  -0.01    -0.08  -0.12  -0.03
     4   1    -0.26  -0.09  -0.03     0.13   0.08   0.03     0.55   0.79   0.21
     5   6     0.00   0.22   0.09    -0.03  -0.12  -0.05     0.04   0.06   0.02
     6   6    -0.04  -0.03  -0.01     0.04   0.05   0.02    -0.00  -0.00  -0.00
     7   8     0.21  -0.04  -0.02    -0.06   0.06   0.02     0.01   0.00  -0.00
     8   8    -0.03  -0.13  -0.05     0.04   0.03   0.00    -0.00  -0.00  -0.00
     9   6    -0.02  -0.08  -0.05     0.00  -0.05  -0.03    -0.01  -0.00   0.00
    10   6     0.00  -0.01   0.01     0.00  -0.02   0.01    -0.00   0.00  -0.00
    11   1    -0.13   0.10   0.14    -0.06   0.02  -0.03    -0.00  -0.00   0.02
    12   1     0.13  -0.00  -0.11    -0.05  -0.07  -0.01     0.00   0.01  -0.01
    13   1     0.01  -0.02   0.07     0.01  -0.02   0.05     0.00   0.01  -0.01
    14   1    -0.02   0.12  -0.07    -0.02   0.03  -0.02     0.00   0.01  -0.01
    15   1     0.01   0.00   0.12     0.01  -0.02   0.04     0.01  -0.01   0.02
                     16                     17                     18
                      A                      A                      A
 Frequencies --    756.2593               772.9491               786.1331
 Red. masses --      1.2743                 1.4102                 6.1454
 Frc consts  --      0.4294                 0.4964                 2.2377
 IR Inten    --     13.1093                23.6371                38.2705
  Atom  AN      X      Y      Z        X      Y      Z        X      Y      Z
     1   8     0.02   0.02   0.00     0.00   0.00   0.00    -0.00  -0.01  -0.00
     2   1    -0.07  -0.15   0.02    -0.00  -0.01   0.00     0.01   0.01   0.01
     3   6     0.04  -0.02  -0.00    -0.01   0.05  -0.15    -0.02   0.02  -0.05
     4   1     0.02  -0.03  -0.04     0.08  -0.30   0.93     0.03  -0.22   0.66
     5   6     0.01  -0.03  -0.03     0.01  -0.03   0.08    -0.00   0.09  -0.17
     6   6    -0.00   0.02   0.04    -0.00   0.03  -0.06     0.01  -0.24   0.54
     7   8     0.00   0.05   0.01     0.00  -0.00   0.02    -0.00   0.05  -0.16
     8   8    -0.00  -0.01  -0.01     0.00  -0.01   0.02    -0.00   0.07  -0.14
     9   6    -0.08  -0.08  -0.04    -0.00  -0.01  -0.00     0.01   0.02   0.01
    10   6    -0.02  -0.01  -0.02    -0.00  -0.00  -0.00     0.00  -0.00   0.02
    11   1     0.03  -0.03   0.55    -0.00   0.00   0.03     0.01  -0.01  -0.09
    12   1     0.16   0.32  -0.28     0.00   0.02  -0.02     0.02  -0.09   0.06
    13   1     0.07   0.19   0.00     0.01   0.01   0.01    -0.02  -0.01  -0.08
    14   1     0.03   0.36  -0.23    -0.01   0.03  -0.02     0.06  -0.13   0.09
    15   1     0.19  -0.12   0.41     0.01  -0.00   0.02     0.02  -0.03  -0.07
                     19                     20                     21
                      A                      A                      A
 Frequencies --    894.2204               936.5219              1088.8500
 Red. masses --      3.2073                 2.7944                 3.6637
 Frc consts  --      1.5111                 1.4440                 2.5592
 IR Inten    --     11.9490                 4.5674                51.5117
  Atom  AN      X      Y      Z        X      Y      Z        X      Y      Z
     1   8    -0.01  -0.01  -0.00    -0.01  -0.00   0.00    -0.01  -0.01  -0.00
     2   1     0.06   0.12   0.02     0.06   0.12   0.03     0.05   0.09   0.03
     3   6    -0.05   0.02   0.01    -0.10   0.06   0.03     0.05  -0.04  -0.02
     4   1    -0.06   0.01   0.00    -0.11   0.07   0.03     0.05  -0.05  -0.02
     5   6     0.01   0.07   0.03    -0.07   0.03   0.01     0.04   0.01   0.00
     6   6    -0.00  -0.11  -0.05     0.12  -0.08  -0.04    -0.12   0.02   0.01
     7   8    -0.05  -0.15  -0.06    -0.05  -0.11  -0.04     0.02   0.01   0.00
     8   8    -0.03   0.25   0.09     0.19   0.04   0.04    -0.19   0.09   0.06
     9   6     0.08   0.00  -0.10    -0.02  -0.02   0.09     0.28  -0.21   0.05
    10   6     0.08  -0.13   0.03    -0.14   0.09  -0.07    -0.08   0.11  -0.11
    11   1     0.22  -0.13  -0.02     0.23  -0.27   0.14     0.30  -0.25   0.22
    12   1    -0.22   0.26  -0.19    -0.05  -0.08   0.13     0.36  -0.39   0.15
    13   1     0.17  -0.20   0.51    -0.10   0.47  -0.55    -0.07   0.23  -0.33
    14   1    -0.15   0.30  -0.20     0.18   0.05  -0.07     0.05   0.12  -0.14
    15   1     0.02  -0.03   0.34     0.21  -0.18   0.08     0.00   0.04  -0.21
                     22                     23                     24
                      A                      A                      A
 Frequencies --   1129.2526              1173.1706              1274.1546
 Red. masses --      2.0858                 1.8595                 3.7799
 Frc consts  --      1.5671                 1.5079                 3.6156
 IR Inten    --     34.0890                38.0827               579.0656
  Atom  AN      X      Y      Z        X      Y      Z        X      Y      Z
     1   8     0.00   0.01   0.00    -0.01  -0.01  -0.00     0.01   0.00  -0.00
     2   1    -0.00  -0.01   0.01     0.02   0.05  -0.00    -0.08  -0.14  -0.03
     3   6    -0.01   0.01   0.00     0.01  -0.01  -0.00    -0.07   0.05   0.02
     4   1    -0.01   0.01   0.00     0.02  -0.01  -0.00    -0.07   0.08   0.03
     5   6    -0.01  -0.00   0.00     0.00  -0.01  -0.00    -0.02   0.00   0.00
     6   6     0.01  -0.01   0.00    -0.03   0.01   0.01     0.42   0.01  -0.00
     7   8    -0.00  -0.01  -0.01     0.02   0.04   0.01    -0.05  -0.00  -0.00
     8   8     0.04   0.01  -0.04    -0.03  -0.07  -0.04    -0.19  -0.00  -0.01
     9   6    -0.08  -0.08   0.20     0.10   0.14   0.10     0.07  -0.08   0.03
    10   6     0.10   0.04  -0.17    -0.07  -0.11  -0.07    -0.03  -0.03  -0.01
    11   1    -0.11  -0.06   0.19     0.17  -0.08  -0.42    -0.60   0.50  -0.21
    12   1    -0.11  -0.05   0.20    -0.23  -0.04   0.24     0.13   0.01  -0.02
    13   1     0.08  -0.25   0.35     0.13   0.24   0.13     0.01   0.08  -0.03
    14   1    -0.39   0.29  -0.27     0.01   0.37  -0.35     0.02   0.15  -0.13
    15   1    -0.33   0.39  -0.19     0.11  -0.16   0.46    -0.00  -0.04   0.05
                     25                     26                     27
                      A                      A                      A
 Frequencies --   1315.3283              1383.4973              1418.8751
 Red. masses --      1.3592                 1.2310                 1.3509
 Frc consts  --      1.3855                 1.3882                 1.6024
 IR Inten    --    218.6867                 4.0171                13.2575
  Atom  AN      X      Y      Z        X      Y      Z        X      Y      Z
     1   8    -0.01  -0.01  -0.00     0.00   0.00   0.00    -0.00  -0.00  -0.00
     2   1     0.03   0.05   0.03     0.00   0.01  -0.00    -0.00  -0.01   0.01
     3   6    -0.01   0.01   0.00     0.01  -0.01  -0.00    -0.00   0.00   0.00
     4   1    -0.01   0.02   0.01     0.01  -0.01  -0.00    -0.00   0.00   0.00
     5   6    -0.01  -0.00  -0.00     0.00   0.00   0.00    -0.00   0.00  -0.00
     6   6     0.11   0.01   0.00    -0.04   0.01   0.00     0.01   0.00   0.00
     7   8    -0.00   0.02   0.01     0.01  -0.00  -0.00    -0.00  -0.00  -0.00
     8   8    -0.08  -0.06  -0.03     0.02  -0.00  -0.02    -0.00   0.00   0.01
     9   6     0.01   0.03  -0.03     0.05  -0.07   0.06    -0.03   0.07  -0.06
    10   6     0.03   0.04   0.01     0.00  -0.01   0.08     0.05  -0.10   0.09
    11   1     0.54  -0.46   0.34    -0.12   0.05  -0.26     0.08   0.02   0.22
    12   1    -0.54   0.13   0.01    -0.38   0.60  -0.26     0.13  -0.41   0.17
    13   1    -0.00  -0.07   0.03    -0.03   0.16  -0.34     0.07   0.26  -0.41
    14   1     0.00  -0.10   0.10    -0.03   0.23  -0.07    -0.20   0.41  -0.20
    15   1    -0.03   0.07  -0.13    -0.15   0.07  -0.31    -0.34   0.18  -0.25
                     28                     29                     30
                      A                      A                      A
 Frequencies --   1464.5759              1488.9309              1503.5376
 Red. masses --      1.1047                 1.0402                 1.0591
 Frc consts  --      1.3961                 1.3587                 1.4106
 IR Inten    --     25.6864                12.1638                11.2612
  Atom  AN      X      Y      Z        X      Y      Z        X      Y      Z
     1   8    -0.00  -0.00   0.00    -0.00   0.00   0.00     0.00   0.00   0.00
     2   1     0.03   0.06   0.00     0.01   0.01  -0.00    -0.01  -0.02  -0.00
     3   6    -0.01   0.00   0.00    -0.00   0.00   0.00     0.00  -0.00  -0.00
     4   1    -0.01   0.01   0.00    -0.00   0.00   0.00     0.00  -0.00  -0.00
     5   6    -0.00  -0.00  -0.00    -0.00  -0.00   0.00     0.00   0.00   0.00
     6   6     0.03  -0.01  -0.00     0.00   0.00   0.00    -0.01   0.00   0.00
     7   8    -0.00   0.01   0.01    -0.00  -0.00  -0.00     0.00  -0.00  -0.00
     8   8    -0.03  -0.01   0.01    -0.00   0.00   0.00     0.01   0.00  -0.00
     9   6    -0.06   0.01   0.03    -0.03  -0.02  -0.00     0.04  -0.02  -0.02
    10   6     0.04   0.00   0.00    -0.02  -0.03  -0.02     0.03  -0.01  -0.03
    11   1     0.25  -0.42  -0.43     0.04  -0.10  -0.06    -0.09   0.15   0.10
    12   1     0.57   0.22  -0.19     0.13   0.07  -0.07    -0.22  -0.00   0.01
    13   1    -0.03  -0.03  -0.19     0.29   0.50   0.36     0.08   0.27  -0.24
    14   1    -0.29  -0.05   0.06     0.49  -0.17   0.04    -0.38  -0.37   0.23
    15   1    -0.06   0.10   0.14    -0.37   0.26  -0.11    -0.23   0.29   0.55
                     31                     32                     33
                      A                      A                      A
 Frequencies --   1845.5509              2269.4923              2572.7615
 Red. masses --     12.3002                 5.7450                 1.0967
 Frc consts  --     24.6840                17.4339                 4.2771
 IR Inten    --    346.2865                74.8790               762.0512
  Atom  AN      X      Y      Z        X      Y      Z        X      Y      Z
     1   8    -0.00  -0.00  -0.00     0.00   0.00   0.00     0.00   0.01   0.00
     2   1    -0.00  -0.01  -0.00     0.00   0.00  -0.00     0.01  -0.01  -0.00
     3   6     0.06  -0.04  -0.02    -0.31   0.19   0.09     0.00  -0.00  -0.00
     4   1     0.11  -0.04  -0.02    -0.62   0.39   0.17     0.00  -0.00  -0.00
     5   6    -0.04   0.01   0.00     0.44  -0.27  -0.12    -0.00   0.00   0.00
     6   6     0.01   0.73   0.31    -0.07   0.06   0.03     0.01   0.00   0.00
     7   8    -0.01  -0.49  -0.21     0.00  -0.01  -0.00    -0.00  -0.00  -0.00
     8   8    -0.02  -0.05  -0.02    -0.01  -0.00  -0.00    -0.01   0.00   0.00
     9   6    -0.02   0.03   0.01     0.00  -0.00   0.00    -0.06  -0.06   0.02
    10   6     0.01  -0.00  -0.01    -0.00   0.00  -0.00     0.00  -0.00  -0.00
    11   1     0.09  -0.12  -0.08     0.02   0.01  -0.01     0.72   0.66  -0.18
    12   1     0.15   0.03   0.01    -0.00   0.00  -0.00    -0.03  -0.06  -0.03
    13   1    -0.01  -0.06   0.03     0.00  -0.00  -0.00    -0.00   0.00   0.01
    14   1    -0.03   0.01  -0.01    -0.00  -0.00   0.00     0.00  -0.00  -0.01
    15   1     0.04  -0.02   0.03     0.00  -0.00   0.00    -0.02  -0.03   0.01
                     34                     35                     36
                      A                      A                      A
 Frequencies --   3072.3580              3131.2616              3152.9495
 Red. masses --      1.0346                 1.0867                 1.1026
 Frc consts  --      5.7540                 6.2777                 6.4579
 IR Inten    --      6.5827                 3.9435                 8.2601
  Atom  AN      X      Y      Z        X      Y      Z        X      Y      Z
     1   8     0.00   0.00   0.00     0.00   0.00   0.00    -0.00   0.00   0.00
     2   1    -0.00  -0.00  -0.00     0.00   0.00  -0.00     0.00  -0.00  -0.00
     3   6     0.00  -0.00  -0.00    -0.00   0.00   0.00     0.00  -0.00  -0.00
     4   1    -0.00   0.00   0.00    -0.00  -0.00   0.00    -0.00   0.00   0.00
     5   6    -0.00   0.00   0.00     0.00   0.00  -0.00    -0.00   0.00   0.00
     6   6     0.00   0.00   0.00    -0.00  -0.00  -0.00     0.00  -0.00   0.00
     7   8     0.00  -0.00   0.00    -0.00   0.00   0.00    -0.00   0.00  -0.00
     8   8    -0.00  -0.00  -0.00     0.00  -0.00   0.00     0.00  -0.00  -0.00
     9   6     0.00   0.00   0.00    -0.01  -0.04  -0.07    -0.00  -0.00   0.00
    10   6    -0.01   0.03  -0.04    -0.00   0.02   0.02    -0.09  -0.02   0.02
    11   1    -0.01  -0.01   0.00     0.02   0.02  -0.02     0.01   0.02  -0.01
    12   1    -0.00  -0.00  -0.01     0.12   0.45   0.82    -0.00  -0.01  -0.02
    13   1     0.50  -0.21  -0.13     0.13  -0.05  -0.03     0.66  -0.28  -0.17
    14   1     0.04   0.30   0.49    -0.02  -0.14  -0.22    -0.02  -0.02  -0.02
    15   1    -0.39  -0.45   0.06    -0.09  -0.10   0.02     0.42   0.51  -0.07
                     37                     38                     39
                      A                      A                      A
 Frequencies --   3158.3443              3489.9151              3774.2269
 Red. masses --      1.1024                 1.1711                 1.0670
 Frc consts  --      6.4788                 8.4039                 8.9550
 IR Inten    --     10.2856                62.1932                34.3855
  Atom  AN      X      Y      Z        X      Y      Z        X      Y      Z
     1   8     0.00   0.00   0.00     0.00   0.00  -0.00    -0.05   0.03   0.01
     2   1     0.00   0.00  -0.00    -0.00  -0.00  -0.00     0.86  -0.44  -0.24
     3   6    -0.00   0.00   0.00    -0.10   0.06   0.03    -0.00   0.00   0.00
     4   1    -0.00   0.00   0.00     0.82  -0.51  -0.23    -0.00  -0.00  -0.00
     5   6     0.00   0.00  -0.00     0.03  -0.02  -0.01    -0.00   0.00  -0.00
     6   6    -0.00  -0.00  -0.00    -0.00   0.00   0.00     0.00  -0.00  -0.00
     7   8    -0.00   0.00   0.00     0.00   0.00   0.00    -0.00   0.00   0.00
     8   8     0.00   0.00   0.00     0.00  -0.00  -0.00    -0.00   0.00   0.00
     9   6    -0.00  -0.02  -0.02    -0.00  -0.00   0.00     0.00   0.00  -0.00
    10   6    -0.00  -0.07  -0.06     0.00  -0.00  -0.00    -0.00  -0.00  -0.00
    11   1     0.02   0.02  -0.01     0.00   0.00  -0.00    -0.01  -0.01   0.00
    12   1     0.04   0.16   0.29     0.00  -0.00   0.00    -0.00  -0.00   0.00
    13   1    -0.31   0.12   0.07     0.00  -0.00   0.00    -0.00   0.00  -0.00
    14   1     0.06   0.39   0.66    -0.00   0.00   0.00     0.00   0.00   0.00
    15   1     0.27   0.31  -0.06    -0.00   0.00  -0.00     0.00  -0.00   0.00

 -------------------
 - Thermochemistry -
 -------------------
 Temperature   298.150 Kelvin.  Pressure   1.00000 Atm.
 Atom     1 has atomic number  8 and mass  15.99491
 Atom     2 has atomic number  1 and mass   1.00783
 Atom     3 has atomic number  6 and mass  12.00000
 Atom     4 has atomic number  1 and mass   1.00783
 Atom     5 has atomic number  6 and mass  12.00000
 Atom     6 has atomic number  6 and mass  12.00000
 Atom     7 has atomic number  8 and mass  15.99491
 Atom     8 has atomic number  8 and mass  15.99491
 Atom     9 has atomic number  6 and mass  12.00000
 Atom    10 has atomic number  6 and mass  12.00000
 Atom    11 has atomic number  1 and mass   1.00783
 Atom    12 has atomic number  1 and mass   1.00783
 Atom    13 has atomic number  1 and mass   1.00783
 Atom    14 has atomic number  1 and mass   1.00783
 Atom    15 has atomic number  1 and mass   1.00783
 Molecular mass:   115.03952 amu.
 Principal axes and moments of inertia in atomic units:
                           1         2         3
     Eigenvalues --   606.533351601.328982015.34571
           X            0.99922  -0.03947   0.00275
           Y            0.03952   0.99901  -0.02055
           Z           -0.00194   0.02065   0.99978
 This molecule is an asymmetric top.
 Rotational symmetry number  1.
 Warning -- assumption of classical behavior for rotation
           may cause significant error
 Rotational temperatures (Kelvin)      0.14280     0.05409     0.04298
 Rotational constants (GHZ):           2.97550     1.12703     0.89550
    2 imaginary frequencies ignored.
 Zero-point vibrational energy     288193.0 (Joules/Mol)
                                   68.87977 (Kcal/Mol)
 Warning -- explicit consideration of  11 degrees of freedom as
           vibrations may cause significant error
 Vibrational temperatures:     53.37    81.19   137.13   214.33   313.92
          (Kelvin)            324.51   388.46   465.59   604.29   806.06
                              860.08   911.74  1067.75  1088.09  1112.10
                             1131.07  1286.58  1347.45  1566.61  1624.74
                             1687.93  1833.22  1892.46  1990.54  2041.44
                             2107.20  2142.24  2163.26  2655.34  3265.29
                             3701.63  4420.44  4505.19  4536.39  4544.15
                             5021.21  5430.27
 
 Zero-point correction=                           0.109767 (Hartree/Particle)
 Thermal correction to Energy=                    0.118936
 Thermal correction to Enthalpy=                  0.119880
 Thermal correction to Gibbs Free Energy=         0.073625
 Sum of electronic and zero-point Energies=           -420.091197
 Sum of electronic and thermal Energies=              -420.082028
 Sum of electronic and thermal Enthalpies=            -420.081084
 Sum of electronic and thermal Free Energies=         -420.127339
 
                     E (Thermal)             CV                S
                      KCal/Mol        Cal/Mol-Kelvin    Cal/Mol-Kelvin
 Total                   74.633             30.641             97.352
 Electronic               0.000              0.000              1.377
 Translational            0.889              2.981             40.136
 Rotational               0.889              2.981             29.061
 Vibrational             72.856             24.679             26.779
 Vibration     1          0.594              1.982              5.408
 Vibration     2          0.596              1.975              4.578
 Vibration     3          0.603              1.953              3.548
 Vibration     4          0.618              1.904              2.685
 Vibration     5          0.646              1.813              1.974
 Vibration     6          0.650              1.802              1.914
 Vibration     7          0.674              1.728              1.596
 Vibration     8          0.708              1.628              1.292
 Vibration     9          0.783              1.427              0.892
 Vibration    10          0.916              1.117              0.523
 Vibration    11          0.956              1.036              0.453
                       Q            Log10(Q)             Ln(Q)
 Total Bot       0.136453D-33        -33.865016        -77.977081
 Total V=0       0.420929D+17         16.624209         38.278657
 Vib (Bot)       0.280893D-47        -47.551458       -109.491279
 Vib (Bot)    1  0.557865D+01          0.746529          1.718947
 Vib (Bot)    2  0.366075D+01          0.563570          1.297667
 Vib (Bot)    3  0.215511D+01          0.333469          0.767840
 Vib (Bot)    4  0.136159D+01          0.134047          0.308655
 Vib (Bot)    5  0.907262D+00         -0.042267         -0.097324
 Vib (Bot)    6  0.874929D+00         -0.058027         -0.133613
 Vib (Bot)    7  0.715797D+00         -0.145210         -0.334359
 Vib (Bot)    8  0.579649D+00         -0.236835         -0.545333
 Vib (Bot)    9  0.418066D+00         -0.378755         -0.872115
 Vib (Bot)   10  0.277355D+00         -0.556963         -1.282455
 Vib (Bot)   11  0.250355D+00         -0.601444         -1.384876
 Vib (V=0)       0.866497D+03          2.937767          6.764458
 Vib (V=0)    1  0.610102D+01          0.785402          1.808455
 Vib (V=0)    2  0.419474D+01          0.622705          1.433830
 Vib (V=0)    3  0.271235D+01          0.433345          0.997815
 Vib (V=0)    4  0.195049D+01          0.290145          0.668083
 Vib (V=0)    5  0.153592D+01          0.186368          0.429127
 Vib (V=0)    6  0.150772D+01          0.178321          0.410599
 Vib (V=0)    7  0.137313D+01          0.137713          0.317096
 Vib (V=0)    8  0.126550D+01          0.102263          0.235468
 Vib (V=0)    9  0.115175D+01          0.061359          0.141283
 Vib (V=0)   10  0.107177D+01          0.030103          0.069316
 Vib (V=0)   11  0.105918D+01          0.024968          0.057491
 Electronic      0.200000D+01          0.301030          0.693147
 Translational   0.484981D+08          7.685724         17.697035
 Rotational      0.500827D+06          5.699688         13.124017
 ***** Axes restored to original set *****
 -------------------------------------------------------------------
 Center     Atomic                   Forces (Hartrees/Bohr)
 Number     Number              X              Y              Z
 -------------------------------------------------------------------
      1        8           0.004635670    0.012297722    0.001796416
      2        1          -0.000145678   -0.000163637    0.000104122
      3        6          -0.000128293    0.000066465    0.000026110
      4        1          -0.000019115   -0.000004131   -0.000008275
      5        6          -0.000031597    0.000141450    0.000190676
      6        6           0.000060043    0.000295509    0.000315608
      7        8          -0.000905456    0.000259324    0.000472608
      8        8           0.000923926   -0.000494933   -0.000998905
      9        6          -0.001761319   -0.006903580   -0.002819039
     10        6          -0.001187691   -0.002183699    0.001370126
     11        1          -0.000262146   -0.001601141   -0.001461808
     12        1          -0.001109169   -0.001456996    0.000461043
     13        1          -0.000109577   -0.000231043    0.000125218
     14        1           0.000065368    0.000135551   -0.000089880
     15        1          -0.000024964   -0.000156864    0.000515978
 -------------------------------------------------------------------
 Cartesian Forces:  Max     0.012297722 RMS     0.002380426

 GradGradGradGradGradGradGradGradGradGradGradGradGradGradGradGradGradGrad
 Berny optimization.
 Search for a local minimum.
 Step number   1 out of a maximum of    2
 All quantities printed in internal units (Hartrees-Bohrs-Radians)
 Second derivative matrix not updated -- analytic derivatives used.
 ITU=  0
     Eigenvalues ---   -0.00830  -0.00253   0.00031   0.00088   0.00173
     Eigenvalues ---    0.00211   0.00265   0.00454   0.01474   0.02073
     Eigenvalues ---    0.02719   0.03201   0.03671   0.05338   0.06273
     Eigenvalues ---    0.07522   0.08065   0.09048   0.09394   0.10100
     Eigenvalues ---    0.11062   0.13798   0.16184   0.17165   0.19534
     Eigenvalues ---    0.28886   0.29615   0.43379   0.49311   0.60192
     Eigenvalues ---    0.71094   0.74595   0.78278   0.82925   0.87130
     Eigenvalues ---    0.90015   0.95173   1.73875   2.73781
 Eigenvalue     1 is  -8.30D-03 should be greater than     0.000000 Eigenvector:
                          Y1        Y11       Y12       Z11       X2
   1                    0.52334  -0.41807  -0.37445  -0.34248  -0.21389
                          Z1        Y9        X12       Z8        Y13
   1                    0.20746  -0.17301  -0.15665  -0.15497  -0.13633
 Eigenvalue     2 is  -2.53D-03 should be greater than     0.000000 Eigenvector:
                          Z1        Z11       Y14       Y1        X2
   1                    0.37652  -0.35269   0.33235  -0.28881   0.28188
                          Y13       X1        Y10       Y15       Z9
   1                    0.24482   0.23648   0.21543   0.18503  -0.15679
 Quadratic step=1.301D+01 exceeds max=3.000D-01 adjusted using Lamda=-3.614D-02.
 Angle between NR and scaled steps=  60.89 degrees.
 Angle between quadratic step and forces=  29.71 degrees.
 Linear search not attempted -- first point.
 B after Tr=     0.004498    0.010444    0.000510
         Rot=    0.999999   -0.001008    0.000263   -0.000885 Ang=  -0.16 deg.
 Variable       Old X    -DE/DX   Delta X   Delta X   Delta X     New X
                                 (Linear)    (Quad)   (Total)
    X1        5.13333   0.00464   0.00000   0.10081   0.09915   5.23248
    Y1        3.38175   0.01230   0.00000   0.21278   0.23329   3.61505
    Z1       -0.42298   0.00180   0.00000   0.01440   0.02492  -0.39805
    X2        3.54103  -0.00015   0.00000   0.00462   0.00163   3.54266
    Y2        4.19185  -0.00016   0.00000   0.02906   0.04573   4.23758
    Z2        0.01364   0.00010   0.00000   0.00247   0.01336   0.02699
    X3       -5.92399  -0.00013   0.00000  -0.00411  -0.00344  -5.92744
    Y3        1.92801   0.00007   0.00000   0.00339   0.00173   1.92974
    Z3        0.79843   0.00003   0.00000  -0.00100   0.00027   0.79870
    X4       -7.58851  -0.00002   0.00000  -0.00445  -0.00585  -7.59437
    Y4        2.95880  -0.00000   0.00000   0.00348  -0.00207   2.95674
    Z4        1.26410  -0.00001   0.00000  -0.00310  -0.00064   1.26347
    X5       -4.05376  -0.00003   0.00000  -0.00242   0.00058  -4.05318
    Y5        0.76534   0.00014   0.00000   0.00286   0.00556   0.77090
    Z5        0.27444   0.00019   0.00000   0.00525   0.00516   0.27960
    X6       -1.84142   0.00006   0.00000  -0.00920  -0.00320  -1.84461
    Y6       -0.72403   0.00030   0.00000  -0.01017  -0.00222  -0.72625
    Z6       -0.39185   0.00032   0.00000   0.00437   0.00243  -0.38943
    X7       -1.93112  -0.00091   0.00000  -0.03569  -0.02553  -1.95664
    Y7       -2.80739   0.00026   0.00000  -0.01434  -0.00483  -2.81222
    Z7       -1.27323   0.00047   0.00000   0.01550   0.00928  -1.26395
    X8        0.29226   0.00092   0.00000   0.00258   0.00612   0.29837
    Y8        0.54574  -0.00049   0.00000  -0.02480  -0.01400   0.53174
    Z8        0.10277  -0.00100   0.00000  -0.02111  -0.01939   0.08337
    X9        2.58979  -0.00176   0.00000  -0.00046   0.00577   2.59556
    Y9       -0.76503  -0.00690   0.00000  -0.05704  -0.04093  -0.80596
    Z9       -0.51695  -0.00282   0.00000  -0.02129  -0.02106  -0.53802
   X10        3.44965  -0.00119   0.00000  -0.02079  -0.01267   3.43698
   Y10       -2.48059  -0.00218   0.00000  -0.04294  -0.02964  -2.51023
   Z10        1.58650   0.00137   0.00000   0.00681   0.00404   1.59054
   X11        4.01061  -0.00026   0.00000  -0.02231  -0.01847   3.99214
   Y11        0.73068  -0.00160   0.00000  -0.10850  -0.08927   0.64141
   Z11       -0.82200  -0.00146   0.00000  -0.03812  -0.03425  -0.85624
   X12        2.35244  -0.00111   0.00000  -0.03680  -0.02787   2.32457
   Y12       -1.74126  -0.00146   0.00000  -0.07651  -0.05729  -1.79855
   Z12       -2.31526   0.00046   0.00000   0.00048  -0.00144  -2.31671
   X13        5.30870  -0.00011   0.00000  -0.01366  -0.00397   5.30473
   Y13       -3.24378  -0.00023   0.00000  -0.03079  -0.01325  -3.25703
   Z13        1.12357   0.00013   0.00000   0.01205   0.00875   1.13232
   X14        3.59605   0.00007   0.00000  -0.01262  -0.00731   3.58874
   Y14       -1.43268   0.00014   0.00000  -0.01614  -0.00610  -1.43878
   Z14        3.35579  -0.00009   0.00000  -0.00754  -0.00806   3.34772
   X15        2.13494  -0.00002   0.00000  -0.01571  -0.00494   2.12999
   Y15       -4.05154  -0.00016   0.00000  -0.03721  -0.02673  -4.07826
   Z15        1.82516   0.00052   0.00000   0.02324   0.01662   1.84178
         Item               Value     Threshold  Converged?
 Maximum Force            0.012298     0.000450     NO 
 RMS     Force            0.002380     0.000300     NO 
 Maximum Displacement     0.233294     0.001800     NO 
 RMS     Displacement     0.043930     0.001200     NO 
 Predicted change in Energy=-4.249728D-03
 GradGradGradGradGradGradGradGradGradGradGradGradGradGradGradGradGradGrad


 ----------------------------------------------------------------------

 Electric dipole moment (input orientation):
 (Debye = 10**-18 statcoulomb cm , SI units = C m)
                  (au)            (Debye)         (10**-30 SI)
   Tot        0.825720D+00      0.209877D+01      0.700075D+01
   x         -0.382202D+00     -0.971461D+00     -0.324045D+01
   y          0.574974D+00      0.146144D+01      0.487483D+01
   z          0.452924D+00      0.115122D+01      0.384005D+01

 Dipole polarizability, Alpha (input orientation).
 (esu units = cm**3 , SI units = C**2 m**2 J**-1)
 Alpha(0;0):
               (au)            (10**-24 esu)      (10**-40 SI)
   iso        0.731833D+02      0.108446D+02      0.120663D+02
   aniso      0.376176D+02      0.557435D+01      0.620231D+01
   xx         0.912357D+02      0.135197D+02      0.150427D+02
   yx        -0.511896D+01     -0.758552D+00     -0.844003D+00
   yy         0.770820D+02      0.114224D+02      0.127091D+02
   zx        -0.405536D+01     -0.600943D+00     -0.668639D+00
   zy         0.419224D+01      0.621226D+00      0.691207D+00
   zz         0.512322D+02      0.759182D+01      0.844704D+01

 ----------------------------------------------------------------------

 Dipole orientation:
     8          4.93119357          3.68584388         -0.25326748
     1          3.92990967          3.60682899          1.28734904
     6         -4.33349504         -0.46469027          4.52253297
     1         -5.33761562         -0.42738266          6.26619744
     6         -3.20656174         -0.50915771          2.55983315
     6         -1.91871979         -0.60773695          0.13323416
     8         -2.83760905         -1.44369229         -1.75940580
     8          0.41297870          0.36413121          0.30110960
     6          1.83295072          0.37352828         -2.01501333
     6          3.19039191         -2.09057658         -2.45382555
     1          3.22731703          1.90904391         -1.79848523
     1          0.59286222          0.90579293         -3.57133773
     1          4.41910501         -1.90549247         -4.09968458
     1          4.35360823         -2.57232323         -0.82141142
     1          1.84107148         -3.60945533         -2.80827000

 Electric dipole moment (dipole orientation):
 (Debye = 10**-18 statcoulomb cm , SI units = C m)
                  (au)            (Debye)         (10**-30 SI)
   Tot        0.825720D+00      0.209877D+01      0.700075D+01
   x          0.000000D+00      0.000000D+00      0.000000D+00
   y          0.000000D+00      0.000000D+00      0.000000D+00
   z          0.825720D+00      0.209877D+01      0.700075D+01

 Dipole polarizability, Alpha (dipole orientation).
 (esu units = cm**3 , SI units = C**2 m**2 J**-1)
 Alpha(0;0):
               (au)            (10**-24 esu)      (10**-40 SI)
   iso        0.731833D+02      0.108446D+02      0.120663D+02
   aniso      0.376176D+02      0.557435D+01      0.620231D+01
   xx         0.777886D+02      0.115271D+02      0.128256D+02
   yx         0.103864D+02      0.153911D+01      0.171249D+01
   yy         0.608628D+02      0.901894D+01      0.100349D+02
   zx        -0.140042D+02     -0.207520D+01     -0.230897D+01
   zy         0.717204D+01      0.106279D+01      0.118251D+01
   zz         0.808984D+02      0.119879D+02      0.133383D+02

 ----------------------------------------------------------------------
 1\1\GINC-AJ\Freq\UM062X\6-311++G(d,p)\C5H7O3(2)\AAYUSH\16-Aug-2025\0\\
 # freq 6-311++g(d,p) m062x\\Title Card Required\\0,2\O,2.716442,1.7895
 47,-0.22383\H,1.873832,2.218231,0.007216\C,-3.134843,1.020259,0.422509
 \H,-4.015669,1.565731,0.668935\C,-2.145157,0.405001,0.145225\C,-0.9744
 35,-0.383141,-0.20736\O,-1.021903,-1.485608,-0.673765\O,0.154655,0.288
 795,0.054381\C,1.370456,-0.404838,-0.27356\C,1.825474,-1.312672,0.8395
 4\H,2.122324,0.386659,-0.434982\H,1.244857,-0.921436,-1.225184\H,2.809
 244,-1.716532,0.594568\H,1.902949,-0.758141,1.775806\H,1.129759,-2.143
 98,0.965833\\Version=ES64L-G16RevA.03\State=2-A\HF=-420.2009639\S2=0.7
 55679\S2-1=0.\S2A=0.750022\RMSD=3.839e-09\RMSF=2.380e-03\ZeroPoint=0.1
 097669\Thermal=0.1189359\Dipole=-0.3822023,0.5749737,0.452924\DipoleDe
 riv=-0.1640823,0.1536097,-0.0358488,0.1237004,0.015274,0.0167572,-0.00
 28803,0.0742593,-0.3842825,0.2080586,0.0312194,0.0377759,0.1692429,0.4
 174979,-0.0263156,0.0515638,0.0040735,0.3189078,-0.232898,0.0298368,0.
 0110555,0.0449941,-0.172349,-0.0110562,0.016404,-0.011922,-0.1483574,0
 .2629308,-0.016002,-0.0067201,-0.0241256,0.2344196,0.0110651,-0.010552
 8,0.011685,0.2128066,-0.54458,0.2047235,0.0892104,0.2247186,-0.2486271
 ,-0.0671078,0.1079192,-0.0718762,-0.1238607,2.4694952,-0.0737408,-0.00
 53416,0.2552727,1.502456,0.5170962,0.128124,0.5028594,0.6040135,-0.817
 4348,0.0790649,0.0250202,-0.1252035,-1.0556049,-0.3264982,-0.0704056,-
 0.3116842,-0.4839052,-2.0215905,-0.1910148,-0.1224184,-0.1447656,-0.63
 25509,-0.1121947,-0.0716984,-0.0975473,-0.3675364,1.2117439,0.3428628,
 0.0068695,-0.1427192,0.6633561,-0.0706784,-0.2137465,-0.2629936,0.2980
 28,-0.1494516,-0.1159018,0.0027608,-0.005989,-0.1469656,0.0710887,-0.0
 105164,0.0898867,-0.0359161,-0.2624602,-0.4201041,0.0271479,-0.4035881
 ,-0.6240172,0.0680784,0.0071727,0.0120051,0.101205,-0.03498,-0.057678,
 -0.0680745,0.0289888,-0.03011,-0.0300463,0.046557,0.0464892,-0.0456554
 ,-0.0662906,0.0732939,0.0256348,0.0717441,0.0733188,0.0040245,0.027835
 7,-0.0111099,0.0549295,0.0935732,0.0177622,-0.0003717,0.0002558,0.0157
 138,-0.0810026,-0.0244908,-0.0274127,-0.0489955,0.0479662,-0.0579315,0
 .0133,-0.0725264,-0.0118114,0.0367897,0.0187144,0.0532876,0.0486187\Po
 lar=91.2356651,-5.1189627,77.0819735,-4.0553621,4.1922385,51.2321501\Q
 uadrupole=1.4176348,-0.2994498,-1.1181849,-7.6603369,-1.5141169,-0.248
 8968\PG=C01 [X(C5H7O3)]\NImag=2\\0.39332610,-0.18477717,0.10843384,-0.
 10543132,0.05299802,0.02691014,-0.38682642,0.19492667,0.10526915,0.384
 93839,0.18292792,-0.10676595,-0.05243941,-0.19004187,0.11185170,0.1026
 5669,-0.05459305,-0.03046948,-0.10381604,0.05473939,0.03055814,0.00003
 845,0.00007630,0.00003313,0.00002633,0.00028094,0.00002527,1.08978636,
 -0.00008591,-0.00005343,-0.00002671,0.00009253,-0.00021401,-0.00002094
 ,-0.64262806,0.45617225,-0.00000650,-0.00003944,0.00004549,-0.00000365
 ,-0.00006968,-0.00008600,-0.28999623,0.17900924,0.14134186,0.00002500,
 -0.00001863,-0.00001241,-0.00006099,-0.00005122,0.00000427,-0.29837764
 ,0.16828922,0.07591859,0.28871092,0.00001626,0.00001136,0.00001019,0.0
 0000038,0.00008302,0.00000557,0.16802525,-0.13132184,-0.04620651,-0.16
 855534,0.12106746,-0.00000706,0.00001153,-0.00002892,0.00001564,0.0000
 1057,0.00004142,0.07580842,-0.04620317,-0.05072713,-0.07608793,0.04687
 110,0.03913001,0.00007683,0.00024092,0.00005974,0.00004456,0.00053189,
 0.00008057,-0.79254499,0.47120987,0.21273437,0.00811007,-0.00225188,-0
 .00093453,1.05092307,-0.00001182,-0.00006232,-0.00004429,-0.00006453,-
 0.00024419,-0.00001415,0.47308028,-0.32801582,-0.13266160,-0.00217785,
 0.00644295,-0.00046613,-0.58722353,0.47057680,-0.00001272,0.00001509,-
 0.00001064,-0.00001264,-0.00002650,0.00001011,0.21349114,-0.13263285,-
 0.09380910,-0.00090858,-0.00045443,0.00750080,-0.26580438,0.18306247,0
 .14348506,0.00062267,-0.00102415,-0.00066598,-0.00172649,-0.00434032,-
 0.00023086,0.00738274,-0.00131915,-0.00059718,0.00069249,0.00350828,0.
 00155424,-0.20746395,0.09333371,0.04162862,0.60688726,0.00076155,0.000
 05566,-0.00005341,-0.00121262,-0.00103850,-0.00013522,-0.00055624,0.00
 264326,-0.00013757,0.00256481,0.00377512,-0.00092724,0.08255318,-0.114
 01598,-0.01788648,-0.02316077,0.90120344,0.00008132,-0.00072019,-0.000
 41913,-0.00044271,-0.00094588,-0.00001432,-0.00024365,-0.00010344,0.00
 263027,0.00117194,-0.00091765,0.00546651,0.03711128,-0.01867780,-0.082
 00115,-0.01838017,0.29378766,0.33516376,0.00004144,0.00015655,0.000181
 01,0.00015200,0.00113560,0.00001193,-0.00337731,0.00183895,0.00081623,
 -0.00026544,-0.00126598,-0.00055736,0.00630814,0.03302825,0.01450318,-
 0.10845068,-0.00243437,-0.00011497,0.11256773,-0.00072912,-0.00025737,
 0.00019083,0.00101061,0.00124959,-0.00010248,0.00053265,0.00129983,0.0
 0045427,0.00024769,0.00068843,0.00071197,0.02663456,-0.04844183,-0.030
 25630,-0.01059532,-0.66366594,-0.24664085,0.03736544,0.77145467,-0.000
 28831,-0.00001057,0.00022706,0.00046405,0.00062482,-0.00004748,0.00029
 043,0.00045610,0.00039603,0.00009237,0.00073043,-0.00070785,0.01166386
 ,-0.03040642,0.00895132,-0.00424403,-0.24852773,-0.18588087,0.01279707
 ,0.31168503,0.16603766,0.00044485,0.00398732,0.00141838,0.00033342,0.0
 0476561,0.00041436,-0.00339472,0.00269282,0.00119098,0.00128616,0.0002
 9774,0.00008063,-0.06419431,-0.00690890,-0.00134995,-0.23669026,-0.072
 51409,-0.02977119,-0.00837046,-0.06314397,-0.02388089,0.52921389,-0.00
 225453,-0.00177929,-0.00032214,0.00156708,0.00090340,0.00030816,0.0021
 6237,-0.00150933,-0.00083062,-0.00050645,-0.00070606,-0.00011184,0.012
 69591,0.01366897,0.00050036,-0.05290293,-0.14546020,-0.03407242,-0.061
 45794,-0.05687936,-0.03574130,0.03413893,0.31959027,-0.00017306,-0.000
 42428,0.00061211,0.00003501,0.00012185,-0.00086127,0.00094737,-0.00087
 465,0.00010820,-0.00024590,-0.00014013,-0.00044685,0.00663706,0.001310
 91,0.01136293,-0.01935119,-0.03293062,-0.07988326,-0.02425985,-0.03548
 461,0.01571465,0.00612883,0.10343768,0.12931527,-0.02046140,-0.0404292
 2,-0.00495380,0.00579732,-0.00120454,-0.00153595,0.00132528,-0.0007794
 7,-0.00031087,-0.00033841,0.00030136,0.00016202,0.00173871,-0.00239662
 ,-0.00167390,-0.07252950,-0.00415908,0.00144611,0.00521739,0.01527871,
 0.00700728,-0.14083101,0.03226312,0.02051994,0.47766379,-0.01881664,-0
 .03841548,-0.00469352,0.00021291,-0.00301720,-0.00062335,-0.00076439,0
 .00086915,0.00042647,0.00017830,0.00009891,0.00013526,-0.00517978,-0.0
 0063218,-0.00225950,-0.00456188,0.02513345,0.01034474,-0.00440347,-0.0
 0980140,-0.00160329,0.06032155,-0.11945795,-0.02906221,0.06848635,0.53
 212098,0.00533006,0.01051946,0.00219077,-0.00177784,0.00068287,0.00036
 287,-0.00051134,0.00051572,0.00003785,0.00010570,0.00008720,-0.0002426
 7,-0.00194017,-0.00240577,0.00513707,0.00497069,0.01410847,0.00681028,
 0.00001463,-0.00358710,-0.00677436,0.02764984,-0.02876317,-0.08297805,
 0.02354315,0.03403548,0.56975776,0.00226064,0.00400950,0.00054740,-0.0
 0100444,0.00048433,0.00071221,-0.00031635,0.00022529,0.00011613,0.0000
 9458,0.00000223,-0.00008867,-0.00107950,-0.00064778,0.00114631,0.00503
 332,0.00759716,0.00082560,-0.00008950,-0.00259764,-0.00154395,-0.02996
 606,0.02908640,-0.02429994,-0.07604524,0.01552060,-0.02232589,0.573486
 10,0.00280705,0.00542373,0.00038096,-0.00067396,0.00013373,0.00065508,
 -0.00000387,0.00000090,0.00004269,-0.00001312,-0.00002175,0.00001989,0
 .00037043,0.00020257,-0.00063298,-0.00118827,0.00011033,-0.00008075,0.
 00086928,-0.00026418,0.00168320,0.01486178,-0.01262946,0.00949944,0.02
 258726,-0.12511910,0.06264810,0.01562205,0.55124169,-0.00039877,-0.001
 09287,-0.00010018,0.00015498,0.00007955,0.00019239,0.00018617,-0.00018
 731,0.00004067,-0.00002765,0.00000821,0.00003198,0.00012459,0.00054681
 ,-0.00082764,-0.00207400,-0.00399978,-0.00070147,-0.00011335,0.0020479
 7,0.00078012,0.00588127,-0.00548984,0.01210642,-0.03198892,0.06731344,
 -0.17141659,-0.02384505,0.03916262,0.54109115,0.01016706,0.02198928,0.
 00324102,-0.00132459,0.00521332,0.00193699,-0.00050518,0.00045536,0.00
 014314,0.00010232,-0.00006149,0.00001232,-0.00174764,-0.00015040,-0.00
 038141,0.00228397,0.00453372,0.00477564,-0.00035865,-0.00104129,-0.000
 62764,-0.03919767,-0.01407967,0.00343362,-0.12273956,-0.09652402,0.015
 15612,0.00403452,0.00263370,-0.00121065,0.14988777,0.01944617,0.031036
 53,0.00364185,-0.00566676,-0.00384234,-0.00025431,-0.00023317,0.000117
 33,-0.00000413,0.00005405,-0.00010737,-0.00004800,-0.00011640,0.000516
 26,0.00061728,0.00661781,-0.00305542,-0.00064399,-0.00242171,0.0014763
 3,0.00051774,0.00996355,0.01463622,-0.00302173,-0.08252027,-0.14013322
 ,0.00873292,-0.01818452,-0.02261706,0.00417931,0.08136678,0.13489188,0
 .00018020,-0.00274007,0.00039353,-0.00043969,-0.00258284,0.00112621,0.
 00003776,-0.00001794,-0.00005104,-0.00000611,-0.00000422,-0.00001576,0
 .00033453,-0.00005508,0.00037281,-0.00059501,-0.00320802,-0.00155454,-
 0.00163072,0.00115323,0.00082183,0.00955949,0.00499476,-0.00103924,0.0
 2427665,0.02410596,-0.04650901,0.01343505,0.01931624,-0.00470446,-0.02
 718884,-0.02388246,0.04831251,0.00104813,0.00202057,0.00072661,-0.0005
 9814,0.00046850,-0.00008774,-0.00005651,0.00001597,0.00002745,0.000041
 43,-0.00002552,0.00004188,-0.00023779,0.00017224,-0.00086194,0.0041633
 0,0.00623013,0.00391394,-0.00249871,-0.00344858,-0.00084601,-0.0120047
 3,0.02080146,0.03138172,-0.05264421,-0.02069358,-0.04379917,0.00042330
 ,-0.00579990,-0.00717689,-0.00273140,-0.01265433,-0.01697729,0.0646085
 9,0.00115832,0.00235911,0.00084908,-0.00029490,0.00062421,-0.00012887,
 0.00005664,-0.00001245,0.00004683,-0.00001167,0.00000745,0.00000802,0.
 00029694,-0.00017937,-0.00028713,-0.00331161,-0.00097709,-0.00074633,-
 0.00169031,0.00047941,0.00125692,0.00813875,-0.01134375,-0.01450571,-0
 .01236536,-0.10876053,-0.11440347,0.00209700,0.01218466,0.02050389,-0.
 00573032,-0.01350675,-0.01878714,0.01084039,0.12046282,-0.00155850,-0.
 00276267,-0.00003648,0.00047968,-0.00008236,-0.00013554,-0.00001351,0.
 00000697,0.00007125,-0.00001597,-0.00000444,-0.00000225,0.00025708,0.0
 0019659,-0.00025669,-0.00305772,-0.00372386,-0.00046687,-0.00180166,0.
 00180581,0.00111808,0.00746451,-0.00555476,-0.00410289,-0.03180105,-0.
 11154226,-0.25512312,-0.00422433,-0.01102418,-0.01851297,0.00157431,0.
 00587108,0.00423105,0.03417672,0.12389799,0.27410501,0.00002952,0.0000
 5734,-0.00007251,-0.00006302,-0.00007117,-0.00001022,-0.00005953,0.000
 03947,-0.00002504,0.00002256,-0.00001445,-0.00000606,-0.00011673,0.000
 00657,0.00026361,0.00136431,0.00025994,0.00034271,-0.00021779,-0.00005
 895,-0.00048955,-0.00000644,0.00086204,-0.00217699,-0.00931481,0.00169
 154,0.00397852,-0.26912903,0.09191152,0.05575841,0.00041470,0.00027070
 ,-0.00004718,0.00009221,-0.00015272,-0.00042325,0.29012415,-0.00038282
 ,-0.00008919,-0.00004742,0.00012026,0.00011315,-0.00010776,0.00006619,
 -0.00003471,-0.00003462,-0.00002121,0.00000026,0.00001337,0.00027725,0
 .00011170,-0.00010781,-0.00171996,-0.00275344,-0.00042827,-0.00011906,
 0.00130645,0.00010462,0.00495046,-0.00210795,0.00429410,0.01616828,-0.
 00733229,-0.00799071,0.09013231,-0.08272394,-0.02150026,0.00002302,0.0
 0046066,-0.00045954,-0.00014740,0.00058330,0.00016785,-0.10119292,0.08
 785432,0.00009441,0.00007336,0.00000031,-0.00006795,-0.00000734,-0.000
 03699,-0.00010307,0.00009723,0.00001055,0.00001774,0.00000522,-0.00001
 764,-0.00027817,-0.00027375,0.00034230,0.00130430,0.00198862,0.0002404
 5,-0.00010809,-0.00079892,-0.00047124,-0.00520104,0.00450506,-0.003639
 12,-0.02126133,0.00650014,0.00802132,0.05744864,-0.02286733,-0.0618579
 1,0.00019327,-0.00027423,0.00088629,0.00030849,-0.00115928,0.00020114,
 -0.06064191,0.02271287,0.06318994,-0.00021532,-0.00007546,-0.00015811,
 0.00012335,-0.00001125,-0.00006860,0.00000758,0.00000809,0.00002937,-0
 .00002030,0.00000593,-0.00000796,0.00005334,0.00001150,0.00000742,-0.0
 0097209,-0.00124948,-0.00063465,-0.00016223,0.00087266,0.00012160,0.00
 174919,-0.00103018,0.00052661,-0.00280208,-0.00464072,-0.00946003,-0.0
 4824255,-0.01088715,-0.01533049,0.00025217,0.00056831,0.00070379,0.000
 22600,0.00142288,-0.00161351,0.00361536,0.01439075,0.02582473,0.047433
 66,0.00000796,0.00020590,-0.00046280,0.00012837,-0.00011166,0.00020089
 ,-0.00003470,-0.00000341,-0.00000606,0.00000610,0.00000465,-0.00000865
 ,-0.00003585,0.00003166,0.00015253,0.00038478,0.00007361,-0.00022441,-
 0.00017186,0.00017417,-0.00026359,-0.00207787,0.00129839,-0.00111497,0
 .00188400,0.01140842,0.02160377,-0.01048673,-0.12162272,-0.12254313,-0
 .00016237,0.00126072,-0.00052194,0.00177416,-0.00269591,0.00323659,-0.
 00197836,-0.00654443,-0.00888647,0.01002684,0.12792332,0.00003032,-0.0
 0018099,0.00054113,-0.00006538,0.00010975,-0.00032972,-0.00003593,0.00
 003723,0.00002088,-0.00000112,-0.00000687,-0.00000275,-0.00003375,0.00
 002613,-0.00003343,-0.00031480,-0.00054293,-0.00031250,0.00001607,0.00
 033809,0.00025859,0.00104373,-0.00041127,0.00273214,-0.00138091,-0.013
 49195,-0.02451590,-0.01621295,-0.11947635,-0.24544485,0.00016648,-0.00
 018870,0.00049913,-0.00126621,0.00399294,-0.00196630,-0.00056877,-0.00
 222871,-0.00483823,0.01876992,0.12917178,0.26857874,-0.00057754,-0.001
 13980,-0.00018231,0.00018872,-0.00008772,-0.00009288,0.00006551,-0.000
 05497,-0.00003679,-0.00002273,0.00001723,0.00001441,0.00013018,-0.0000
 5112,-0.00003475,-0.00059706,0.00078616,-0.00008118,-0.00049593,-0.000
 32744,-0.00051629,0.00162816,-0.00134560,0.00089675,0.00596373,0.00917
 323,-0.00093426,-0.15945978,-0.13309680,0.02006033,0.00146218,0.003509
 79,-0.00164263,0.00016853,-0.00045404,0.00055722,-0.01675545,-0.022545
 16,0.00246997,-0.00104608,0.00073553,-0.00014672,0.16934756,-0.0000672
 0,-0.00010310,0.00001878,-0.00010416,0.00027504,0.00007104,-0.00006019
 ,0.00006228,0.00001074,0.00001533,-0.00002259,-0.00001668,-0.00000351,
 0.00004077,0.00019624,0.00027978,-0.00202830,0.00006958,-0.00042938,0.
 00118120,-0.00050597,0.00052632,0.00177610,-0.00110508,-0.01311451,-0.
 01696158,0.00421622,-0.13286022,-0.20429941,0.02097138,0.00153437,-0.0
 0113378,0.00268906,0.00044590,0.00077488,-0.00048835,0.00836944,0.0111
 5611,-0.00161517,-0.00941270,-0.01140270,0.00285186,0.14488072,0.22068
 509,-0.00049674,-0.00105336,0.00014429,0.00020740,-0.00021478,-0.00031
 036,0.00008405,-0.00005548,-0.00002978,-0.00000494,0.00001632,0.000021
 09,-0.00001207,-0.00013792,-0.00022377,0.00005309,0.00218812,0.0009228
 5,0.00024588,-0.00151694,-0.00042353,-0.00062896,-0.00244865,0.0009989
 3,0.01795157,0.02041460,-0.00475823,0.01830942,0.02067337,-0.05067667,
 -0.00122439,0.00475737,-0.00276932,0.00043843,-0.00053774,0.00087658,0
 .00411824,0.00561228,-0.00203117,-0.01871010,-0.02033355,0.00481308,-0
 .02033088,-0.02736365,0.05344602\\-0.00463567,-0.01229772,-0.00179642,
 0.00014568,0.00016364,-0.00010412,0.00012829,-0.00006646,-0.00002611,0
 .00001911,0.00000413,0.00000828,0.00003160,-0.00014145,-0.00019068,-0.
 00006004,-0.00029551,-0.00031561,0.00090546,-0.00025932,-0.00047261,-0
 .00092393,0.00049493,0.00099890,0.00176132,0.00690358,0.00281904,0.001
 18769,0.00218370,-0.00137013,0.00026215,0.00160114,0.00146181,0.001109
 17,0.00145700,-0.00046104,0.00010958,0.00023104,-0.00012522,-0.0000653
 7,-0.00013555,0.00008988,0.00002496,0.00015686,-0.00051598\\\@


 NOTHING MAKES A PERSON MORE PRODUCTIVE THAN THE LAST MINUTE.
 Job cpu time:       0 days  0 hours 52 minutes 49.2 seconds.
 Elapsed time:       0 days  0 hours  2 minutes 12.1 seconds.
 File lengths (MBytes):  RWF=    153 Int=      0 D2E=      0 Chk=      5 Scr=      1
 Normal termination of Gaussian 16 at Sat Aug 16 15:24:01 2025.
