 Entering Gaussian System, Link 0=g16
 Initial command:
 /opt/g16/l1.exe "/home/aayush/scratches/g16/Gau-19919.inp" -scrdir="/home/aayush/scratches/g16/"
 Entering Link 1 = /opt/g16/l1.exe PID=     19922.
  
 Copyright (c) 1988,1990,1992,1993,1995,1998,2003,2009,2016,
            Gaussian, Inc.  All Rights Reserved.
  
 This is part of the Gaussian(R) 16 program.  It is based on
 the Gaussian(R) 09 system (copyright 2009, Gaussian, Inc.),
 the Gaussian(R) 03 system (copyright 2003, Gaussian, Inc.),
 the Gaussian(R) 98 system (copyright 1998, Gaussian, Inc.),
 the Gaussian(R) 94 system (copyright 1995, Gaussian, Inc.),
 the Gaussian 92(TM) system (copyright 1992, Gaussian, Inc.),
 the Gaussian 90(TM) system (copyright 1990, Gaussian, Inc.),
 the Gaussian 88(TM) system (copyright 1988, Gaussian, Inc.),
 the Gaussian 86(TM) system (copyright 1986, Carnegie Mellon
 University), and the Gaussian 82(TM) system (copyright 1983,
 Carnegie Mellon University). Gaussian is a federally registered
 trademark of Gaussian, Inc.
  
 This software contains proprietary and confidential information,
 including trade secrets, belonging to Gaussian, Inc.
  
 This software is provided under written license and may be
 used, copied, transmitted, or stored only in accord with that
 written license.
  
 The following legend is applicable only to US Government
 contracts under FAR:
  
                    RESTRICTED RIGHTS LEGEND
  
 Use, reproduction and disclosure by the US Government is
 subject to restrictions as set forth in subparagraphs (a)
 and (c) of the Commercial Computer Software - Restricted
 Rights clause in FAR 52.227-19.
  
 Gaussian, Inc.
 340 Quinnipiac St., Bldg. 40, Wallingford CT 06492
  
  
 ---------------------------------------------------------------
 Warning -- This program may not be used in any manner that
 competes with the business of Gaussian, Inc. or will provide
 assistance to any competitor of Gaussian, Inc.  The licensee
 of this program is prohibited from giving any competitor of
 Gaussian, Inc. access to this program.  By using this program,
 the user acknowledges that Gaussian, Inc. is engaged in the
 business of creating and licensing software in the field of
 computational chemistry and represents and warrants to the
 licensee that it is not a competitor of Gaussian, Inc. and that
 it will not use this program in any manner prohibited above.
 ---------------------------------------------------------------
  

 Cite this work as:
 Gaussian 16, Revision A.03,
 M. J. Frisch, G. W. Trucks, H. B. Schlegel, G. E. Scuseria, 
 M. A. Robb, J. R. Cheeseman, G. Scalmani, V. Barone, 
 G. A. Petersson, H. Nakatsuji, X. Li, M. Caricato, A. V. Marenich, 
 J. Bloino, B. G. Janesko, R. Gomperts, B. Mennucci, H. P. Hratchian, 
 J. V. Ortiz, A. F. Izmaylov, J. L. Sonnenberg, D. Williams-Young, 
 F. Ding, F. Lipparini, F. Egidi, J. Goings, B. Peng, A. Petrone, 
 T. Henderson, D. Ranasinghe, V. G. Zakrzewski, J. Gao, N. Rega, 
 G. Zheng, W. Liang, M. Hada, M. Ehara, K. Toyota, R. Fukuda, 
 J. Hasegawa, M. Ishida, T. Nakajima, Y. Honda, O. Kitao, H. Nakai, 
 T. Vreven, K. Throssell, J. A. Montgomery, Jr., J. E. Peralta, 
 F. Ogliaro, M. J. Bearpark, J. J. Heyd, E. N. Brothers, K. N. Kudin, 
 V. N. Staroverov, T. A. Keith, R. Kobayashi, J. Normand, 
 K. Raghavachari, A. P. Rendell, J. C. Burant, S. S. Iyengar, 
 J. Tomasi, M. Cossi, J. M. Millam, M. Klene, C. Adamo, R. Cammi, 
 J. W. Ochterski, R. L. Martin, K. Morokuma, O. Farkas, 
 J. B. Foresman, and D. J. Fox, Gaussian, Inc., Wallingford CT, 2016.
 
 ******************************************
 Gaussian 16:  ES64L-G16RevA.03 25-Dec-2016
                16-Aug-2025 
 ******************************************
 %nprocshared=24
 Will use up to   24 processors via shared memory.
 %mem=12GB
 %chk=ethyl_propiolate.chk
 --------------------------
 # freq 6-311++g(d,p) m062x
 --------------------------
 1/10=4,30=1,38=1/1,3;
 2/12=2,17=6,18=5,40=1/2;
 3/5=4,6=6,7=1111,11=2,25=1,30=1,71=2,74=-55,140=1/1,2,3;
 4//1;
 5/5=2,38=5,98=1/2;
 8/6=4,10=90,11=11/1;
 11/6=1,8=1,9=11,15=111,16=1/1,2,10;
 10/6=1/2;
 6/7=2,8=2,9=2,10=2,28=1/1;
 7/8=1,10=1,25=1/1,2,3,16;
 1/10=4,30=1/3;
 99//99;
 -------------------
 Title Card Required
 -------------------
 Symbolic Z-matrix:
 Charge =  0 Multiplicity = 2
 O                     2.69674   1.74215  -0.22949 
 H                     1.88889   2.22489   0.00162 
 C                    -3.13426   1.01995   0.42242 
 H                    -4.01483   1.56601   0.66922 
 C                    -2.14459   0.4049    0.14469 
 C                    -0.97651  -0.38409  -0.2094 
 O                    -1.01984  -1.48612  -0.67459 
 O                     0.15606   0.2881    0.05625 
 C                     1.37301  -0.37942  -0.26147 
 C                     1.8328   -1.30047   0.83405 
 H                     2.18664   0.60752  -0.34377 
 H                     1.32127  -0.82255  -1.25613 
 H                     2.81384  -1.70898   0.58991 
 H                     1.89924  -0.76309   1.7807 
 H                     1.12519  -2.12896   0.93733 
 

 GradGradGradGradGradGradGradGradGradGradGradGradGradGradGradGradGradGrad
 Berny optimization.
 Initialization pass.
 Trust Radius=3.00D-01 FncErr=1.00D-07 GrdErr=1.00D-07 EigMax=2.50D+02 EigMin=1.00D-04
 Number of steps in this run=      2 maximum allowed number of steps=      2.
 GradGradGradGradGradGradGradGradGradGradGradGradGradGradGradGradGradGrad

                          Input orientation:                          
 ---------------------------------------------------------------------
 Center     Atomic      Atomic             Coordinates (Angstroms)
 Number     Number       Type             X           Y           Z
 ---------------------------------------------------------------------
      1          8           0        2.696744    1.742148   -0.229486
      2          1           0        1.888892    2.224889    0.001615
      3          6           0       -3.134259    1.019954    0.422420
      4          1           0       -4.014825    1.566012    0.669218
      5          6           0       -2.144591    0.404901    0.144691
      6          6           0       -0.976511   -0.384093   -0.209401
      7          8           0       -1.019841   -1.486117   -0.674589
      8          8           0        0.156063    0.288097    0.056245
      9          6           0        1.373007   -0.379417   -0.261467
     10          6           0        1.832801   -1.300472    0.834049
     11          1           0        2.186644    0.607522   -0.343773
     12          1           0        1.321268   -0.822549   -1.256125
     13          1           0        2.813841   -1.708984    0.589911
     14          1           0        1.899238   -0.763089    1.780699
     15          1           0        1.125193   -2.128957    0.937332
 ---------------------------------------------------------------------
                    Distance matrix (angstroms):
                    1          2          3          4          5
     1  O    0.000000
     2  H    0.969057   0.000000
     3  C    5.911611   5.182759   0.000000
     4  H    6.773762   5.977766   1.065122   0.000000
     5  C    5.036543   4.427393   1.197859   2.262981   0.000000
     6  C    4.244303   3.880960   2.650740   3.715674   1.453377
     7  O    4.942956   4.763354   3.457540   4.482325   2.347814
     8  O    2.941253   2.599393   3.390563   4.405123   2.305314
     9  C    2.500868   2.667913   4.768793   5.803413   3.626791
    10  C    3.336921   3.622742   5.497772   6.514494   4.382141
    11  H    1.249256   1.680424   5.391582   6.356341   4.363399
    12  H    3.086032   3.345293   5.105296   6.155165   3.934603
    13  H    3.549005   4.083746   6.546377   7.573808   5.408584
    14  H    3.309543   3.477536   5.510014   6.452615   4.515891
    15  H    4.337821   4.518272   5.322002   6.335966   4.211912
                    6          7          8          9         10
     6  C    0.000000
     7  O    1.196969   0.000000
     8  O    1.343552   2.250490   0.000000
     9  C    2.350099   2.668553   1.423892   0.000000
    10  C    3.133811   3.232340   2.437208   1.503299   0.000000
    11  H    3.317666   3.843736   2.094112   1.281729   2.270002
    12  H    2.562745   2.501859   2.076909   1.090132   2.204292
    13  H    4.094021   4.042987   3.367034   2.137427   1.090378
    14  H    3.517679   3.882297   2.667844   2.143494   1.090569
    15  H    2.962551   2.759113   2.749123   2.135280   1.094424
                   11         12         13         14         15
    11  H    0.000000
    12  H    1.904302   0.000000
    13  H    2.575139   2.534046   0.000000
    14  H    2.544515   3.091906   1.774596   0.000000
    15  H    3.202534   2.560547   1.774433   1.782136   0.000000
 Stoichiometry    C5H7O3(2)
 Framework group  C1[X(C5H7O3)]
 Deg. of freedom    39
 Full point group                 C1      NOp   1
 Largest Abelian subgroup         C1      NOp   1
 Largest concise Abelian subgroup C1      NOp   1
                         Standard orientation:                         
 ---------------------------------------------------------------------
 Center     Atomic      Atomic             Coordinates (Angstroms)
 Number     Number       Type             X           Y           Z
 ---------------------------------------------------------------------
      1          8           0        2.638365    1.749913   -0.248191
      2          1           0        1.830620    2.232773   -0.016963
      3          6           0       -3.192825    1.028892    0.403340
      4          1           0       -4.073269    1.575081    0.650283
      5          6           0       -2.203295    0.413691    0.125449
      6          6           0       -1.035391   -0.375469   -0.228855
      7          8           0       -1.078968   -1.477340   -0.694382
      8          8           0        0.097334    0.296372    0.037027
      9          6           0        1.314129   -0.371330   -0.280858
     10          6           0        1.773678   -1.292830    0.814388
     11          1           0        2.128001    0.615442   -0.362839
     12          1           0        1.262312   -0.814145   -1.275653
     13          1           0        2.754628   -1.701498    0.570150
     14          1           0        1.840216   -0.755753    1.761204
     15          1           0        1.065872   -2.121180    0.917398
 ---------------------------------------------------------------------
 Rotational constants (GHZ):           3.0349586           1.1298694           0.9021157
 Standard basis: 6-311++G(d,p) (5D, 7F)
 There are   233 symmetry adapted cartesian basis functions of A   symmetry.
 There are   225 symmetry adapted basis functions of A   symmetry.
   225 basis functions,   351 primitive gaussians,   233 cartesian basis functions
    31 alpha electrons       30 beta electrons
       nuclear repulsion energy       348.5857794714 Hartrees.
 NAtoms=   15 NActive=   15 NUniq=   15 SFac= 1.00D+00 NAtFMM=   60 NAOKFM=F Big=F
 Integral buffers will be    131072 words long.
 Raffenetti 2 integral format.
 Two-electron integral symmetry is turned on.
 One-electron integrals computed using PRISM.
 NBasis=   225 RedAO= T EigKep=  7.83D-06  NBF=   225
 NBsUse=   224 1.00D-06 EigRej=  8.27D-07 NBFU=   224
 ExpMin= 3.60D-02 ExpMax= 8.59D+03 ExpMxC= 1.30D+03 IAcc=3 IRadAn=         5 AccDes= 0.00D+00
 Harris functional with IExCor= 1009 and IRadAn=       5 diagonalized for initial guess.
 HarFok:  IExCor= 1009 AccDes= 0.00D+00 IRadAn=         5 IDoV= 1 UseB2=F ITyADJ=14
 ICtDFT=  3500011 ScaDFX=  1.000000  1.000000  1.000000  1.000000
 FoFCou: FMM=F IPFlag=           0 FMFlag=      100000 FMFlg1=           0
         NFxFlg=           0 DoJE=T BraDBF=F KetDBF=T FulRan=T
         wScrn=  0.000000 ICntrl=       500 IOpCl=  0 I1Cent=   200000004 NGrid=           0
         NMat0=    1 NMatS0=      1 NMatT0=    0 NMatD0=    1 NMtDS0=    0 NMtDT0=    0
 Petite list used in FoFCou.
 Initial guess <Sx>= 0.0000 <Sy>= 0.0000 <Sz>= 0.5000 <S**2>= 0.7500 S= 0.5000
 Requested convergence on RMS density matrix=1.00D-08 within 128 cycles.
 Requested convergence on MAX density matrix=1.00D-06.
 Requested convergence on             energy=1.00D-06.
 No special actions if energy rises.
 SCF Done:  E(UM062X) =  -420.200882895     A.U. after   19 cycles
            NFock= 19  Conv=0.37D-08     -V/T= 2.0034
 <Sx>= 0.0000 <Sy>= 0.0000 <Sz>= 0.5000 <S**2>= 0.7604 S= 0.5052
 <L.S>=  0.00000000000    
 Annihilation of the first spin contaminant:
 S**2 before annihilation     0.7604,   after     0.7500
 DoSCS=F DFT=T ScalE2(SS,OS)=  1.000000  1.000000
 Range of M.O.s used for correlation:     1   224
 NBasis=   225 NAE=    31 NBE=    30 NFC=     0 NFV=     0
 NROrb=    224 NOA=    31 NOB=    30 NVA=   193 NVB=   194

 **** Warning!!: The largest alpha MO coefficient is  0.11105715D+03


 **** Warning!!: The largest beta MO coefficient is  0.10470803D+03

 Symmetrizing basis deriv contribution to polar:
 IMax=3 JMax=2 DiffMx= 0.00D+00
 G2DrvN: will do    16 centers at a time, making    1 passes.
 Calling FoFCou, ICntrl=  3107 FMM=F I1Cent=   0 AccDes= 0.00D+00.
 End of G2Drv F.D. properties file   721 does not exist.
 End of G2Drv F.D. properties file   722 does not exist.
 End of G2Drv F.D. properties file   788 does not exist.
          IDoAtm=111111111111111
          Differentiating once with respect to electric field.
                with respect to dipole field.
          Differentiating once with respect to nuclear coordinates.
 Keep R1 and R2 ints in memory in canonical form, NReq=671901989.
          There are    48 degrees of freedom in the 1st order CPHF.  IDoFFX=6 NUNeed=     3.
     45 vectors produced by pass  0 Test12= 2.46D-14 2.08D-09 XBig12= 9.56D+01 3.88D+00.
 AX will form    45 AO Fock derivatives at one time.
     45 vectors produced by pass  1 Test12= 2.46D-14 2.08D-09 XBig12= 1.97D+01 7.33D-01.
     45 vectors produced by pass  2 Test12= 2.46D-14 2.08D-09 XBig12= 6.81D-01 1.23D-01.
     45 vectors produced by pass  3 Test12= 2.46D-14 2.08D-09 XBig12= 1.03D-02 1.33D-02.
     45 vectors produced by pass  4 Test12= 2.46D-14 2.08D-09 XBig12= 1.06D-04 1.36D-03.
     45 vectors produced by pass  5 Test12= 2.46D-14 2.08D-09 XBig12= 9.97D-07 1.12D-04.
     45 vectors produced by pass  6 Test12= 2.46D-14 2.08D-09 XBig12= 7.52D-09 7.38D-06.
     22 vectors produced by pass  7 Test12= 2.46D-14 2.08D-09 XBig12= 4.61D-11 5.94D-07.
      3 vectors produced by pass  8 Test12= 2.46D-14 2.08D-09 XBig12= 3.01D-13 5.31D-08.
      2 vectors produced by pass  9 Test12= 2.46D-14 2.08D-09 XBig12= 2.69D-15 6.22D-09.
 InvSVY:  IOpt=1 It=  1 EMax= 8.88D-15
 Solved reduced A of dimension   342 with    48 vectors.
 Isotropic polarizability for W=    0.000000       76.62 Bohr**3.
 End of Minotr F.D. properties file   721 does not exist.
 End of Minotr F.D. properties file   722 does not exist.
 End of Minotr F.D. properties file   788 does not exist.

 **********************************************************************

            Population analysis using the SCF density.

 **********************************************************************

 Orbital symmetries:
 Alpha Orbitals:
       Occupied  (A) (A) (A) (A) (A) (A) (A) (A) (A) (A) (A) (A)
                 (A) (A) (A) (A) (A) (A) (A) (A) (A) (A) (A) (A)
                 (A) (A) (A) (A) (A) (A) (A)
       Virtual   (A) (A) (A) (A) (A) (A) (A) (A) (A) (A) (A) (A)
                 (A) (A) (A) (A) (A) (A) (A) (A) (A) (A) (A) (A)
                 (A) (A) (A) (A) (A) (A) (A) (A) (A) (A) (A) (A)
                 (A) (A) (A) (A) (A) (A) (A) (A) (A) (A) (A) (A)
                 (A) (A) (A) (A) (A) (A) (A) (A) (A) (A) (A) (A)
                 (A) (A) (A) (A) (A) (A) (A) (A) (A) (A) (A) (A)
                 (A) (A) (A) (A) (A) (A) (A) (A) (A) (A) (A) (A)
                 (A) (A) (A) (A) (A) (A) (A) (A) (A) (A) (A) (A)
                 (A) (A) (A) (A) (A) (A) (A) (A) (A) (A) (A) (A)
                 (A) (A) (A) (A) (A) (A) (A) (A) (A) (A) (A) (A)
                 (A) (A) (A) (A) (A) (A) (A) (A) (A) (A) (A) (A)
                 (A) (A) (A) (A) (A) (A) (A) (A) (A) (A) (A) (A)
                 (A) (A) (A) (A) (A) (A) (A) (A) (A) (A) (A) (A)
                 (A) (A) (A) (A) (A) (A) (A) (A) (A) (A) (A) (A)
                 (A) (A) (A) (A) (A) (A) (A) (A) (A) (A) (A) (A)
                 (A) (A) (A) (A) (A) (A) (A) (A) (A) (A) (A) (A)
                 (A)
 Beta  Orbitals:
       Occupied  (A) (A) (A) (A) (A) (A) (A) (A) (A) (A) (A) (A)
                 (A) (A) (A) (A) (A) (A) (A) (A) (A) (A) (A) (A)
                 (A) (A) (A) (A) (A) (A)
       Virtual   (A) (A) (A) (A) (A) (A) (A) (A) (A) (A) (A) (A)
                 (A) (A) (A) (A) (A) (A) (A) (A) (A) (A) (A) (A)
                 (A) (A) (A) (A) (A) (A) (A) (A) (A) (A) (A) (A)
                 (A) (A) (A) (A) (A) (A) (A) (A) (A) (A) (A) (A)
                 (A) (A) (A) (A) (A) (A) (A) (A) (A) (A) (A) (A)
                 (A) (A) (A) (A) (A) (A) (A) (A) (A) (A) (A) (A)
                 (A) (A) (A) (A) (A) (A) (A) (A) (A) (A) (A) (A)
                 (A) (A) (A) (A) (A) (A) (A) (A) (A) (A) (A) (A)
                 (A) (A) (A) (A) (A) (A) (A) (A) (A) (A) (A) (A)
                 (A) (A) (A) (A) (A) (A) (A) (A) (A) (A) (A) (A)
                 (A) (A) (A) (A) (A) (A) (A) (A) (A) (A) (A) (A)
                 (A) (A) (A) (A) (A) (A) (A) (A) (A) (A) (A) (A)
                 (A) (A) (A) (A) (A) (A) (A) (A) (A) (A) (A) (A)
                 (A) (A) (A) (A) (A) (A) (A) (A) (A) (A) (A) (A)
                 (A) (A) (A) (A) (A) (A) (A) (A) (A) (A) (A) (A)
                 (A) (A) (A) (A) (A) (A) (A) (A) (A) (A) (A) (A)
                 (A) (A)
 The electronic state is 2-A.
 Alpha  occ. eigenvalues --  -19.70488 -19.64938 -19.64285 -10.72405 -10.63953
 Alpha  occ. eigenvalues --  -10.58252 -10.57784 -10.55546  -1.27733  -1.18448
 Alpha  occ. eigenvalues --   -1.11824  -0.92077  -0.88427  -0.79916  -0.71974
 Alpha  occ. eigenvalues --   -0.66775  -0.62457  -0.60820  -0.58716  -0.57915
 Alpha  occ. eigenvalues --   -0.52854  -0.51344  -0.49831  -0.48255  -0.46157
 Alpha  occ. eigenvalues --   -0.41331  -0.41036  -0.40220  -0.38400  -0.37571
 Alpha  occ. eigenvalues --   -0.33756
 Alpha virt. eigenvalues --   -0.02959  -0.00519   0.00489   0.01497   0.01793
 Alpha virt. eigenvalues --    0.03065   0.03228   0.04591   0.05888   0.05961
 Alpha virt. eigenvalues --    0.06517   0.07320   0.07861   0.09295   0.10132
 Alpha virt. eigenvalues --    0.11207   0.11870   0.12261   0.12626   0.12864
 Alpha virt. eigenvalues --    0.13689   0.14180   0.14697   0.15931   0.16250
 Alpha virt. eigenvalues --    0.17499   0.17726   0.18251   0.19533   0.19784
 Alpha virt. eigenvalues --    0.21453   0.21887   0.23724   0.24914   0.25671
 Alpha virt. eigenvalues --    0.26692   0.28120   0.28364   0.28841   0.29542
 Alpha virt. eigenvalues --    0.30312   0.31019   0.31793   0.32489   0.33563
 Alpha virt. eigenvalues --    0.34303   0.35039   0.36743   0.37496   0.40560
 Alpha virt. eigenvalues --    0.42038   0.44196   0.45942   0.47816   0.50097
 Alpha virt. eigenvalues --    0.50541   0.53090   0.55839   0.57197   0.59691
 Alpha virt. eigenvalues --    0.60519   0.62499   0.64714   0.66202   0.66676
 Alpha virt. eigenvalues --    0.67303   0.68602   0.70326   0.71699   0.73490
 Alpha virt. eigenvalues --    0.74373   0.75471   0.78526   0.81496   0.83879
 Alpha virt. eigenvalues --    0.88574   0.91586   0.95320   1.00267   1.04614
 Alpha virt. eigenvalues --    1.06875   1.09506   1.09954   1.12802   1.13572
 Alpha virt. eigenvalues --    1.15222   1.16645   1.17116   1.18777   1.21015
 Alpha virt. eigenvalues --    1.22462   1.23234   1.28735   1.29213   1.33434
 Alpha virt. eigenvalues --    1.35305   1.35944   1.37913   1.41724   1.42759
 Alpha virt. eigenvalues --    1.46358   1.48461   1.50543   1.54757   1.57988
 Alpha virt. eigenvalues --    1.58991   1.59695   1.61273   1.61544   1.64210
 Alpha virt. eigenvalues --    1.65264   1.67395   1.68611   1.72175   1.74761
 Alpha virt. eigenvalues --    1.78549   1.82671   1.83342   1.85192   1.89100
 Alpha virt. eigenvalues --    1.93284   1.98192   1.99823   2.04322   2.07932
 Alpha virt. eigenvalues --    2.11447   2.13472   2.15351   2.23186   2.30277
 Alpha virt. eigenvalues --    2.41155   2.42003   2.50341   2.50702   2.53801
 Alpha virt. eigenvalues --    2.57435   2.58704   2.59971   2.61279   2.63909
 Alpha virt. eigenvalues --    2.65570   2.68941   2.71453   2.73022   2.78252
 Alpha virt. eigenvalues --    2.81292   2.82642   2.88361   2.91790   2.97338
 Alpha virt. eigenvalues --    3.00073   3.02564   3.03213   3.05403   3.08406
 Alpha virt. eigenvalues --    3.13138   3.18894   3.19890   3.21783   3.24287
 Alpha virt. eigenvalues --    3.29916   3.32522   3.36893   3.42670   3.49438
 Alpha virt. eigenvalues --    3.55838   3.65523   3.72718   3.81191   3.84491
 Alpha virt. eigenvalues --    3.85154   3.97977   4.05719   4.11574   4.17045
 Alpha virt. eigenvalues --    4.25024   5.08619   5.12844   5.15663   5.30280
 Alpha virt. eigenvalues --    5.38020   5.45452   5.63304   5.71769   5.93022
 Alpha virt. eigenvalues --   23.61520  23.85371  23.93063  24.03420  25.16786
 Alpha virt. eigenvalues --   49.97584  49.98166  50.09571
  Beta  occ. eigenvalues --  -19.70469 -19.64933 -19.63253 -10.72379 -10.63396
  Beta  occ. eigenvalues --  -10.58251 -10.57784 -10.55552  -1.27576  -1.18309
  Beta  occ. eigenvalues --   -1.07965  -0.91426  -0.87851  -0.79577  -0.70883
  Beta  occ. eigenvalues --   -0.66131  -0.62157  -0.60014  -0.58068  -0.55293
  Beta  occ. eigenvalues --   -0.51513  -0.50697  -0.48240  -0.46893  -0.43453
  Beta  occ. eigenvalues --   -0.40969  -0.40381  -0.38389  -0.37997  -0.37520
  Beta virt. eigenvalues --   -0.10747  -0.02888  -0.00429   0.00548   0.01680
  Beta virt. eigenvalues --    0.01958   0.03130   0.03279   0.04804   0.05950
  Beta virt. eigenvalues --    0.06031   0.06678   0.07433   0.07911   0.09438
  Beta virt. eigenvalues --    0.10250   0.11300   0.12049   0.12367   0.12786
  Beta virt. eigenvalues --    0.13045   0.13796   0.14307   0.14829   0.16191
  Beta virt. eigenvalues --    0.16403   0.17594   0.17825   0.18271   0.19683
  Beta virt. eigenvalues --    0.20050   0.21592   0.22279   0.23998   0.25075
  Beta virt. eigenvalues --    0.25447   0.26772   0.28240   0.28527   0.29183
  Beta virt. eigenvalues --    0.29821   0.30889   0.31173   0.31952   0.32705
  Beta virt. eigenvalues --    0.33845   0.34541   0.35157   0.37473   0.37982
  Beta virt. eigenvalues --    0.41505   0.42360   0.44361   0.46091   0.47941
  Beta virt. eigenvalues --    0.50221   0.50675   0.53298   0.55896   0.57519
  Beta virt. eigenvalues --    0.60192   0.60752   0.62634   0.64969   0.66547
  Beta virt. eigenvalues --    0.67355   0.67709   0.69214   0.70824   0.71924
  Beta virt. eigenvalues --    0.73571   0.74505   0.75751   0.78824   0.81715
  Beta virt. eigenvalues --    0.83943   0.88754   0.91801   0.95328   1.01006
  Beta virt. eigenvalues --    1.05492   1.06996   1.09839   1.10368   1.13602
  Beta virt. eigenvalues --    1.14595   1.15520   1.16880   1.17557   1.19767
  Beta virt. eigenvalues --    1.21301   1.22703   1.23443   1.28964   1.29417
  Beta virt. eigenvalues --    1.33480   1.35486   1.36024   1.38259   1.41895
  Beta virt. eigenvalues --    1.42993   1.46724   1.48849   1.51046   1.56456
  Beta virt. eigenvalues --    1.58281   1.59425   1.59943   1.61357   1.62015
  Beta virt. eigenvalues --    1.64539   1.65545   1.67834   1.69290   1.72585
  Beta virt. eigenvalues --    1.74862   1.78808   1.82973   1.83430   1.85778
  Beta virt. eigenvalues --    1.89336   1.93499   1.98397   2.00030   2.04551
  Beta virt. eigenvalues --    2.08311   2.12133   2.14466   2.15682   2.24783
  Beta virt. eigenvalues --    2.30852   2.41226   2.42842   2.50517   2.50765
  Beta virt. eigenvalues --    2.53312   2.57403   2.59125   2.59990   2.62043
  Beta virt. eigenvalues --    2.64025   2.65553   2.69253   2.71471   2.72319
  Beta virt. eigenvalues --    2.76360   2.81230   2.81803   2.88578   2.92329
  Beta virt. eigenvalues --    2.97402   3.00422   3.03226   3.05099   3.06229
  Beta virt. eigenvalues --    3.08687   3.13383   3.19454   3.20702   3.23229
  Beta virt. eigenvalues --    3.26099   3.30225   3.32601   3.37166   3.42779
  Beta virt. eigenvalues --    3.51502   3.55865   3.65616   3.73085   3.82342
  Beta virt. eigenvalues --    3.85045   3.85444   3.99443   4.06711   4.12029
  Beta virt. eigenvalues --    4.17242   4.25992   5.09954   5.13408   5.15730
  Beta virt. eigenvalues --    5.30321   5.41216   5.46507   5.65569   5.72067
  Beta virt. eigenvalues --    5.93125  23.61525  23.86092  23.93096  24.03429
  Beta virt. eigenvalues --   25.16790  49.97169  49.97823  50.09567
          Condensed to atoms (all electrons):
               1          2          3          4          5          6
     1  O    8.013492   0.289949  -0.001522  -0.000072   0.011895  -0.003326
     2  H    0.289949   0.481411  -0.000868  -0.000218   0.000656  -0.001416
     3  C   -0.001522  -0.000868   5.796141   0.447740  -0.469445   0.935515
     4  H   -0.000072  -0.000218   0.447740   0.425022  -0.077672   0.023905
     5  C    0.011895   0.000656  -0.469445  -0.077672   8.092031  -2.200715
     6  C   -0.003326  -0.001416   0.935515   0.023905  -2.200715   7.550634
     7  O   -0.000144  -0.000270  -0.097561  -0.003353   0.127446   0.351804
     8  O    0.027313   0.012143  -0.094974  -0.004955  -0.266259   0.039593
     9  C   -0.047989   0.003341   0.049815   0.001089  -0.239673   0.092133
    10  C   -0.005837   0.018008  -0.014852  -0.001423  -0.067300  -0.088227
    11  H    0.124596  -0.057262   0.004516   0.000455  -0.010342   0.013670
    12  H   -0.000669  -0.001549  -0.001543  -0.000046   0.008727  -0.001936
    13  H   -0.001323   0.001818  -0.000617  -0.000035  -0.000787  -0.003352
    14  H    0.005171  -0.001516   0.000355   0.000037   0.005585   0.003979
    15  H   -0.004535   0.000410   0.004074   0.000019  -0.029253   0.010326
               7          8          9         10         11         12
     1  O   -0.000144   0.027313  -0.047989  -0.005837   0.124596  -0.000669
     2  H   -0.000270   0.012143   0.003341   0.018008  -0.057262  -0.001549
     3  C   -0.097561  -0.094974   0.049815  -0.014852   0.004516  -0.001543
     4  H   -0.003353  -0.004955   0.001089  -0.001423   0.000455  -0.000046
     5  C    0.127446  -0.266259  -0.239673  -0.067300  -0.010342   0.008727
     6  C    0.351804   0.039593   0.092133  -0.088227   0.013670  -0.001936
     7  O    7.979714  -0.144486   0.076822  -0.086930   0.006643  -0.012686
     8  O   -0.144486   8.383761   0.106193   0.025642  -0.064301  -0.022063
     9  C    0.076822   0.106193   6.243062  -0.392771   0.267692   0.424693
    10  C   -0.086930   0.025642  -0.392771   5.931661  -0.099239  -0.085224
    11  H    0.006643  -0.064301   0.267692  -0.099239   0.535983  -0.038328
    12  H   -0.012686  -0.022063   0.424693  -0.085224  -0.038328   0.503326
    13  H   -0.001929   0.020138  -0.062858   0.426661  -0.013028  -0.005834
    14  H    0.000839  -0.005315  -0.047498   0.412219  -0.009954   0.001848
    15  H    0.003336  -0.021943   0.005305   0.364791   0.012686  -0.003860
              13         14         15
     1  O   -0.001323   0.005171  -0.004535
     2  H    0.001818  -0.001516   0.000410
     3  C   -0.000617   0.000355   0.004074
     4  H   -0.000035   0.000037   0.000019
     5  C   -0.000787   0.005585  -0.029253
     6  C   -0.003352   0.003979   0.010326
     7  O   -0.001929   0.000839   0.003336
     8  O    0.020138  -0.005315  -0.021943
     9  C   -0.062858  -0.047498   0.005305
    10  C    0.426661   0.412219   0.364791
    11  H   -0.013028  -0.009954   0.012686
    12  H   -0.005834   0.001848  -0.003860
    13  H    0.513919  -0.026518  -0.031403
    14  H   -0.026518   0.518196  -0.048544
    15  H   -0.031403  -0.048544   0.543554
          Atomic-Atomic Spin Densities.
               1          2          3          4          5          6
     1  O    0.646102   0.001296  -0.000394  -0.000006   0.005406   0.002787
     2  H    0.001296  -0.019223   0.000239   0.000007  -0.001867  -0.000116
     3  C   -0.000394   0.000239  -0.001565   0.000181  -0.003158   0.005031
     4  H   -0.000006   0.000007   0.000181  -0.000125  -0.000793   0.000887
     5  C    0.005406  -0.001867  -0.003158  -0.000793   0.017048  -0.003138
     6  C    0.002787  -0.000116   0.005031   0.000887  -0.003138   0.001748
     7  O    0.000091   0.000005  -0.000355   0.000011   0.004136  -0.002759
     8  O    0.039884  -0.005763  -0.000201  -0.000147  -0.000337   0.008822
     9  C   -0.167270   0.013771   0.000733  -0.000092  -0.020626  -0.008509
    10  C    0.027581  -0.003202  -0.000435   0.000051   0.010599   0.000579
    11  H   -0.042573   0.007037   0.000709   0.000054  -0.003430   0.003322
    12  H    0.005472  -0.000464   0.000243  -0.000003  -0.000485   0.001188
    13  H    0.000198   0.000074   0.000008   0.000001  -0.000013   0.000545
    14  H    0.005180  -0.000739  -0.000051  -0.000007   0.001292   0.001109
    15  H   -0.002672   0.000321  -0.000103   0.000002  -0.001342  -0.002842
               7          8          9         10         11         12
     1  O    0.000091   0.039884  -0.167270   0.027581  -0.042573   0.005472
     2  H    0.000005  -0.005763   0.013771  -0.003202   0.007037  -0.000464
     3  C   -0.000355  -0.000201   0.000733  -0.000435   0.000709   0.000243
     4  H    0.000011  -0.000147  -0.000092   0.000051   0.000054  -0.000003
     5  C    0.004136  -0.000337  -0.020626   0.010599  -0.003430  -0.000485
     6  C   -0.002759   0.008822  -0.008509   0.000579   0.003322   0.001188
     7  O    0.001781   0.001804  -0.000484  -0.001488  -0.001301   0.000335
     8  O    0.001804   0.052038  -0.120234   0.018177  -0.021224   0.007337
     9  C   -0.000484  -0.120234   0.799930  -0.055510   0.133598  -0.033274
    10  C   -0.001488   0.018177  -0.055510  -0.019031  -0.024121   0.013032
    11  H   -0.001301  -0.021224   0.133598  -0.024121  -0.100964   0.004728
    12  H    0.000335   0.007337  -0.033274   0.013032   0.004728  -0.003893
    13  H   -0.000021  -0.000045  -0.001536   0.003173  -0.001729   0.000077
    14  H    0.000227   0.005019  -0.024229   0.012234  -0.001142   0.001199
    15  H   -0.000646  -0.001997   0.008088   0.001080   0.000135  -0.003018
              13         14         15
     1  O    0.000198   0.005180  -0.002672
     2  H    0.000074  -0.000739   0.000321
     3  C    0.000008  -0.000051  -0.000103
     4  H    0.000001  -0.000007   0.000002
     5  C   -0.000013   0.001292  -0.001342
     6  C    0.000545   0.001109  -0.002842
     7  O   -0.000021   0.000227  -0.000646
     8  O   -0.000045   0.005019  -0.001997
     9  C   -0.001536  -0.024229   0.008088
    10  C    0.003173   0.012234   0.001080
    11  H   -0.001729  -0.001142   0.000135
    12  H    0.000077   0.001199  -0.003018
    13  H    0.001442  -0.000035  -0.001006
    14  H   -0.000035   0.013552  -0.007973
    15  H   -0.001006  -0.007973   0.042773
 Mulliken charges and spin densities:
               1          2
     1  O   -0.406998   0.521082
     2  H    0.255363  -0.008622
     3  C   -0.556774   0.000881
     4  H    0.189506   0.000020
     5  C    1.115106   0.003292
     6  C   -0.722588   0.008654
     7  O   -0.199248   0.001337
     8  O    0.009513  -0.016867
     9  C   -0.479357   0.524358
    10  C   -0.337180  -0.017282
    11  H    0.326212  -0.046900
    12  H    0.235143  -0.007525
    13  H    0.185147   0.001134
    14  H    0.191116   0.005636
    15  H    0.195037   0.030801
 Sum of Mulliken charges =  -0.00000   1.00000
 Mulliken charges and spin densities with hydrogens summed into heavy atoms:
               1          2
     1  O    0.174576   0.465560
     3  C   -0.367267   0.000901
     5  C    1.115106   0.003292
     6  C   -0.722588   0.008654
     7  O   -0.199248   0.001337
     8  O    0.009513  -0.016867
     9  C   -0.244214   0.516833
    10  C    0.234121   0.020290
 APT charges:
               1
     1  O   -0.303517
     2  H    0.266714
     3  C   -0.168794
     4  H    0.238365
     5  C   -0.322993
     6  C    1.563488
     7  O   -0.788348
     8  O   -1.061300
     9  C    0.909925
    10  C   -0.171735
    11  H   -0.236862
    12  H   -0.036979
    13  H    0.032457
    14  H    0.037246
    15  H    0.042334
 Sum of APT charges =  -0.00000
 APT charges with hydrogens summed into heavy atoms:
               1
     1  O   -0.273665
     3  C    0.069571
     5  C   -0.322993
     6  C    1.563488
     7  O   -0.788348
     8  O   -1.061300
     9  C    0.872946
    10  C   -0.059699
 Electronic spatial extent (au):  <R**2>=           1264.3423
 Charge=              0.0000 electrons
 Dipole moment (field-independent basis, Debye):
    X=             -1.8714    Y=              0.2728    Z=              1.2849  Tot=              2.2863
 Quadrupole moment (field-independent basis, Debye-Ang):
   XX=            -47.0442   YY=            -48.9212   ZZ=            -48.0130
   XY=            -13.6517   XZ=             -1.6760   YZ=             -0.2726
 Traceless Quadrupole moment (field-independent basis, Debye-Ang):
   XX=              0.9486   YY=             -0.9284   ZZ=             -0.0202
   XY=            -13.6517   XZ=             -1.6760   YZ=             -0.2726
 Octapole moment (field-independent basis, Debye-Ang**2):
  XXX=            -59.6332  YYY=             12.3538  ZZZ=             -2.9454  XYY=             -2.9131
  XXY=              1.6455  XXZ=             13.2796  XZZ=              4.6197  YZZ=             -0.9271
  YYZ=              6.8563  XYZ=              1.1780
 Hexadecapole moment (field-independent basis, Debye-Ang**3):
 XXXX=          -1039.4935 YYYY=           -377.1357 ZZZZ=           -122.5913 XXXY=           -163.3266
 XXXZ=            -35.0523 YYYX=             -4.1288 YYYZ=              2.3322 ZZZX=              3.9921
 ZZZY=              3.7485 XXYY=           -251.4428 XXZZ=           -216.8071 YYZZ=            -91.6254
 XXYZ=             24.0523 YYXZ=             -3.6423 ZZXY=             -1.2067
 N-N= 3.485857794714D+02 E-N=-1.681235252743D+03  KE= 4.187690794994D+02
  Exact polarizability:  94.837  -1.005  83.488  -4.504   3.335  51.525
 Approx polarizability:  97.228  -5.563  97.337  -6.958   9.760  60.957
                          Isotropic Fermi Contact Couplings
        Atom                 a.u.       MegaHertz       Gauss      10(-4) cm-1
     1  O(17)              0.09735     -59.01493     -21.05799     -19.68526
     2  H(1)              -0.00849     -37.94435     -13.53949     -12.65687
     3  C(13)              0.00035       0.39522       0.14102       0.13183
     4  H(1)              -0.00000      -0.01210      -0.00432      -0.00404
     5  C(13)             -0.00028      -0.31803      -0.11348      -0.10608
     6  C(13)              0.02003      22.51366       8.03343       7.50975
     7  O(17)              0.00211      -1.28117      -0.45715      -0.42735
     8  O(17)              0.03362     -20.38186      -7.27275      -6.79866
     9  C(13)              0.21363     240.16521      85.69692      80.11049
    10  C(13)             -0.00518      -5.81946      -2.07653      -1.94116
    11  H(1)              -0.02809    -125.57362     -44.80779     -41.88685
    12  H(1)              -0.00001      -0.02572      -0.00918      -0.00858
    13  H(1)               0.00082       3.67637       1.31182       1.22630
    14  H(1)               0.00326      14.58341       5.20372       4.86450
    15  H(1)               0.01545      69.05242      24.63962      23.03341
 --------------------------------------------------------
       Center         ----  Spin Dipole Couplings  ----
                      3XX-RR        3YY-RR        3ZZ-RR
 --------------------------------------------------------
     1   Atom       -0.308422      1.401844     -1.093422
     2   Atom        0.057852      0.011231     -0.069083
     3   Atom        0.001425     -0.001186     -0.000239
     4   Atom        0.001076     -0.000494     -0.000582
     5   Atom        0.003835     -0.001189     -0.002647
     6   Atom        0.022157     -0.010236     -0.011921
     7   Atom       -0.000757     -0.008291      0.009048
     8   Atom       -0.017581      0.034932     -0.017351
     9   Atom        0.011817      0.317060     -0.328877
    10   Atom       -0.018363      0.022344     -0.003981
    11   Atom       -0.023132      0.149382     -0.126250
    12   Atom       -0.028232     -0.008133      0.036365
    13   Atom        0.000427      0.004859     -0.005286
    14   Atom       -0.007063     -0.003953      0.011016
    15   Atom       -0.002536      0.004759     -0.002223
 --------------------------------------------------------
                        XY            XZ            YZ
 --------------------------------------------------------
     1   Atom        1.437903      0.099391      0.163337
     2   Atom       -0.053532     -0.034438      0.025106
     3   Atom       -0.000464     -0.000069      0.001241
     4   Atom       -0.000373     -0.000250      0.000101
     5   Atom       -0.001169     -0.000835     -0.000109
     6   Atom        0.010254      0.008377      0.004053
     7   Atom        0.005315     -0.004110     -0.000294
     8   Atom        0.072645     -0.003603     -0.035062
     9   Atom        0.476051     -0.013954     -0.019600
    10   Atom        0.007271     -0.002302     -0.025143
    11   Atom        0.163728      0.000444      0.008404
    12   Atom        0.015056     -0.000880      0.026365
    13   Atom       -0.007258      0.004143     -0.005613
    14   Atom        0.000893      0.002217     -0.005673
    15   Atom        0.004339      0.000436     -0.006319
 --------------------------------------------------------


 ---------------------------------------------------------------------------------
              Anisotropic Spin Dipole Couplings in Principal Axis System
 ---------------------------------------------------------------------------------

       Atom             a.u.   MegaHertz   Gauss  10(-4) cm-1        Axes

              Baa    -1.1276    81.594    29.115    27.217  0.8514 -0.4688 -0.2354
     1 O(17)  Bbb    -1.1030    79.815    28.480    26.624  0.1774 -0.1651  0.9702
              Bcc     2.2307  -161.409   -57.595   -53.840  0.4937  0.8678  0.0574
 
              Baa    -0.0797   -42.503   -15.166   -14.178  0.1799 -0.1620  0.9702
     2 H(1)   Bbb    -0.0238   -12.683    -4.526    -4.231  0.5583  0.8289  0.0349
              Bcc     0.1034    55.187    19.692    18.408  0.8099 -0.5354 -0.2396
 
              Baa    -0.0021    -0.278    -0.099    -0.093  0.0987  0.8262 -0.5547
     3 C(13)  Bbb     0.0005     0.068     0.024     0.023  0.3156  0.5027  0.8048
              Bcc     0.0016     0.210     0.075     0.070  0.9437 -0.2545 -0.2111
 
              Baa    -0.0006    -0.346    -0.123    -0.115  0.0062 -0.5368  0.8437
     4 H(1)   Bbb    -0.0006    -0.294    -0.105    -0.098  0.2660  0.8142  0.5160
              Bcc     0.0012     0.640     0.229     0.214  0.9639 -0.2212 -0.1478
 
              Baa    -0.0028    -0.376    -0.134    -0.125  0.1536  0.1771  0.9721
     5 C(13)  Bbb    -0.0014    -0.186    -0.066    -0.062  0.1826  0.9618 -0.2041
              Bcc     0.0042     0.562     0.200     0.187  0.9711 -0.2089 -0.1154
 
              Baa    -0.0152    -2.042    -0.729    -0.681 -0.0017 -0.6289  0.7775
     6 C(13)  Bbb    -0.0121    -1.619    -0.578    -0.540 -0.3609  0.7255  0.5860
              Bcc     0.0273     3.661     1.306     1.221  0.9326  0.2795  0.2282
 
              Baa    -0.0112     0.809     0.289     0.270 -0.4790  0.8737 -0.0846
     7 O(17)  Bbb     0.0004    -0.028    -0.010    -0.009  0.7906  0.4714  0.3908
              Bcc     0.0108    -0.781    -0.279    -0.261 -0.3814 -0.1203  0.9166
 
              Baa    -0.0744     5.380     1.920     1.795  0.7392 -0.5935 -0.3183
     8 O(17)  Bbb    -0.0202     1.459     0.521     0.487  0.4157  0.0303  0.9090
              Bcc     0.0945    -6.840    -2.441    -2.281  0.5298  0.8043 -0.2691
 
              Baa    -0.3355   -45.020   -16.064   -15.017  0.8063 -0.5896 -0.0462
     9 C(13)  Bbb    -0.3294   -44.209   -15.775   -14.746  0.0516 -0.0077  0.9986
              Bcc     0.6649    89.228    31.839    29.763  0.5892  0.8076 -0.0242
 
              Baa    -0.0210    -2.824    -1.008    -0.942  0.7142 -0.4367 -0.5471
    10 C(13)  Bbb    -0.0175    -2.346    -0.837    -0.783  0.6879  0.2935  0.6638
              Bcc     0.0385     5.170     1.845     1.725  0.1293  0.8504 -0.5100
 
              Baa    -0.1287   -68.674   -24.505   -22.907  0.4232 -0.2753  0.8632
    11 H(1)   Bbb    -0.1196   -63.824   -22.774   -21.289  0.7445 -0.4374 -0.5045
              Bcc     0.2483   132.498    47.279    44.197  0.5164  0.8561  0.0198
 
              Baa    -0.0391   -20.859    -7.443    -6.958  0.7992 -0.5645  0.2066
    12 H(1)   Bbb    -0.0099    -5.300    -1.891    -1.768  0.5965  0.7023 -0.3886
              Bcc     0.0490    26.159     9.334     8.726  0.0743  0.4338  0.8980
 
              Baa    -0.0080    -4.248    -1.516    -1.417 -0.2107  0.2895  0.9337
    13 H(1)   Bbb    -0.0049    -2.639    -0.942    -0.880  0.8045  0.5940 -0.0026
              Bcc     0.0129     6.887     2.457     2.297 -0.5554  0.7506 -0.3580
 
              Baa    -0.0082    -4.394    -1.568    -1.466  0.8347 -0.4947 -0.2419
    14 H(1)   Bbb    -0.0049    -2.589    -0.924    -0.864  0.5433  0.8118  0.2143
              Bcc     0.0131     6.983     2.492     2.329  0.0904 -0.3103  0.9463
 
              Baa    -0.0075    -4.017    -1.433    -1.340 -0.5181  0.5287  0.6723
    15 H(1)   Bbb    -0.0020    -1.077    -0.384    -0.359  0.8052  0.0364  0.5919
              Bcc     0.0095     5.094     1.818     1.699  0.2885  0.8480 -0.4446
 

 ---------------------------------------------------------------------------------

 Calling FoFJK, ICntrl=    100127 FMM=F ISym2X=0 I1Cent= 0 IOpClX= 1 NMat=1 NMatS=1 NMatT=0.
 Full mass-weighted force constant matrix:
 Low frequencies ----1775.8799   -0.0010   -0.0010   -0.0002    9.9298   18.8803
 Low frequencies ---   30.2268   67.0071   83.3926
 ******    1 imaginary frequencies (negative Signs) ****** 
 Diagonal vibrational polarizability:
       32.5544379      30.1537418      94.4608863
 Harmonic frequencies (cm**-1), IR intensities (KM/Mole), Raman scattering
 activities (A**4/AMU), depolarization ratios for plane and unpolarized
 incident light, reduced masses (AMU), force constants (mDyne/A),
 and normal coordinates:
                      1                      2                      3
                      A                      A                      A
 Frequencies --  -1775.8799                63.1976                82.7520
 Red. masses --      1.0742                 6.6097                 4.5290
 Frc consts  --      1.9960                 0.0156                 0.0183
 IR Inten    --   1050.0473                 4.5160                 0.7765
  Atom  AN      X      Y      Z        X      Y      Z        X      Y      Z
     1   8    -0.02  -0.04  -0.00     0.05   0.05   0.21    -0.19   0.09  -0.01
     2   1     0.04   0.02  -0.00     0.04   0.04   0.19    -0.21  -0.02   0.13
     3   6     0.00  -0.00  -0.00    -0.01   0.03  -0.12     0.04   0.18  -0.21
     4   1     0.00   0.00   0.00    -0.02   0.05  -0.20     0.07   0.29  -0.37
     5   6     0.00   0.00  -0.00     0.00   0.01  -0.02     0.01   0.05  -0.03
     6   6    -0.01  -0.00  -0.00     0.02  -0.03   0.09    -0.01  -0.04   0.09
     7   8     0.00   0.00   0.00     0.03  -0.15   0.39    -0.04  -0.01   0.04
     8   8     0.01  -0.00  -0.00     0.00   0.11  -0.20     0.01  -0.12   0.23
     9   6    -0.04  -0.03   0.01     0.01   0.08  -0.15    -0.00  -0.03   0.02
    10   6     0.01   0.01  -0.00    -0.11  -0.09  -0.24     0.21  -0.11  -0.14
    11   1     0.47   0.87   0.06     0.05   0.07   0.07    -0.09   0.04  -0.02
    12   1     0.06   0.08  -0.04     0.09   0.22  -0.22    -0.12   0.05  -0.01
    13   1     0.00  -0.00  -0.00    -0.08  -0.04  -0.21     0.19  -0.04  -0.33
    14   1    -0.00  -0.00   0.01    -0.21  -0.22  -0.16     0.33  -0.20  -0.10
    15   1    -0.01   0.01  -0.01    -0.12  -0.11  -0.44     0.26  -0.15  -0.11
                      4                      5                      6
                      A                      A                      A
 Frequencies --    114.0064               155.9886               185.3171
 Red. masses --      4.9052                 3.3765                 1.9591
 Frc consts  --      0.0376                 0.0484                 0.0396
 IR Inten    --      1.3465                 5.0617                 6.0687
  Atom  AN      X      Y      Z        X      Y      Z        X      Y      Z
     1   8     0.25  -0.09  -0.10     0.14  -0.08   0.12    -0.11  -0.06   0.05
     2   1     0.37   0.08  -0.02     0.26  -0.00   0.37    -0.14  -0.22   0.27
     3   6    -0.26  -0.19  -0.16     0.00   0.07   0.01    -0.07  -0.09  -0.02
     4   1    -0.40  -0.35  -0.30     0.06   0.15   0.02    -0.15  -0.21  -0.03
     5   6    -0.08   0.00   0.03    -0.06  -0.03  -0.01     0.04   0.08   0.00
     6   6    -0.01   0.08   0.10    -0.09  -0.07  -0.02     0.03   0.07  -0.00
     7   8     0.02   0.11   0.03    -0.11  -0.07  -0.01    -0.03   0.06   0.04
     8   8    -0.02   0.06   0.19    -0.08  -0.06  -0.03     0.07   0.02  -0.06
     9   6    -0.04   0.07   0.03    -0.05   0.02  -0.08     0.03  -0.08  -0.06
    10   6     0.04  -0.04  -0.10     0.19   0.22  -0.02     0.05   0.02   0.01
    11   1     0.03   0.00  -0.01    -0.08   0.02  -0.14     0.03  -0.09  -0.12
    12   1    -0.15   0.14   0.00    -0.09  -0.08  -0.03    -0.04  -0.16  -0.02
    13   1     0.00  -0.06  -0.26     0.22   0.33  -0.10    -0.13  -0.31  -0.17
    14   1     0.18  -0.14  -0.06     0.26   0.37  -0.11     0.47   0.21  -0.12
    15   1     0.02  -0.02  -0.10     0.32   0.14   0.20    -0.15   0.25   0.39
                      7                      8                      9
                      A                      A                      A
 Frequencies --    209.0780               215.3255               271.9561
 Red. masses --      1.1296                 1.4798                 4.7155
 Frc consts  --      0.0291                 0.0404                 0.2055
 IR Inten    --     62.1245                38.3553                 2.8246
  Atom  AN      X      Y      Z        X      Y      Z        X      Y      Z
     1   8    -0.03  -0.01  -0.05     0.02   0.03  -0.06    -0.04  -0.06   0.02
     2   1     0.10  -0.17   0.74     0.18  -0.06   0.67    -0.09  -0.10  -0.07
     3   6    -0.02  -0.02  -0.00     0.06   0.05   0.00     0.01   0.06  -0.19
     4   1    -0.05  -0.07  -0.00     0.11   0.14   0.01    -0.02   0.23  -0.66
     5   6     0.01   0.03  -0.00    -0.02  -0.07  -0.00     0.04  -0.17   0.43
     6   6     0.01   0.02  -0.00     0.00  -0.04   0.00     0.03  -0.04   0.13
     7   8    -0.02   0.02   0.01     0.08  -0.03  -0.02     0.03   0.07  -0.12
     8   8     0.02  -0.00  -0.01    -0.04   0.02   0.03     0.03   0.03  -0.06
     9   6     0.02  -0.02  -0.00    -0.03   0.04   0.02    -0.00  -0.01  -0.10
    10   6     0.00  -0.00   0.02    -0.08  -0.00  -0.01    -0.08   0.08   0.01
    11   1    -0.00  -0.01  -0.06    -0.02   0.05  -0.03     0.02  -0.05  -0.10
    12   1     0.02  -0.04   0.01    -0.03   0.07   0.01    -0.03  -0.07  -0.07
    13   1     0.17   0.27   0.21    -0.25  -0.32  -0.17    -0.02   0.11   0.18
    14   1    -0.34  -0.07   0.08     0.26   0.03  -0.05    -0.24   0.18  -0.04
    15   1     0.19  -0.19  -0.21    -0.31   0.21   0.19    -0.04   0.05  -0.01
                     10                     11                     12
                      A                      A                      A
 Frequencies --    286.5663               425.2672               536.2305
 Red. masses --      4.8819                 3.5901                 5.2968
 Frc consts  --      0.2362                 0.3825                 0.8974
 IR Inten    --      7.6349                 5.7148                 5.5210
  Atom  AN      X      Y      Z        X      Y      Z        X      Y      Z
     1   8    -0.13  -0.26   0.04     0.01   0.01   0.02    -0.08  -0.16  -0.02
     2   1    -0.21  -0.27  -0.20     0.00   0.04  -0.06    -0.03  -0.10   0.01
     3   6     0.05   0.05   0.05     0.07  -0.08  -0.01     0.18  -0.14  -0.06
     4   1     0.12   0.11   0.17     0.00  -0.21   0.03     0.06  -0.31  -0.15
     5   6    -0.07  -0.06  -0.12     0.15   0.10  -0.08     0.31   0.07   0.04
     6   6     0.04   0.06   0.00     0.05  -0.04   0.05     0.03  -0.06  -0.05
     7   8     0.30   0.03   0.03    -0.04  -0.02   0.01    -0.16  -0.07  -0.02
     8   8    -0.05   0.14   0.09     0.04  -0.13   0.20    -0.10   0.12  -0.01
     9   6    -0.16  -0.01  -0.05    -0.02   0.02  -0.18    -0.09   0.24   0.20
    10   6     0.01   0.08  -0.06    -0.18   0.15  -0.07    -0.00   0.05  -0.03
    11   1    -0.09  -0.20  -0.18    -0.02   0.04  -0.19    -0.09  -0.08   0.16
    12   1    -0.38  -0.09   0.00    -0.21   0.01  -0.17     0.05   0.32   0.16
    13   1     0.14   0.37  -0.04    -0.15   0.01   0.31    -0.04   0.15  -0.39
    14   1    -0.16   0.10  -0.06    -0.42   0.37  -0.17     0.21  -0.26   0.13
    15   1     0.25  -0.13  -0.09    -0.31   0.26  -0.06     0.07  -0.03  -0.16
                     13                     14                     15
                      A                      A                      A
 Frequencies --    593.0629               632.7333               744.8655
 Red. masses --      4.3354                 4.2348                 1.3142
 Frc consts  --      0.8984                 0.9989                 0.4296
 IR Inten    --     19.0836                 1.7260                39.2217
  Atom  AN      X      Y      Z        X      Y      Z        X      Y      Z
     1   8     0.05   0.11   0.01    -0.05  -0.13  -0.02    -0.00  -0.00  -0.00
     2   1     0.22   0.38   0.03    -0.11  -0.23  -0.01     0.00   0.01   0.00
     3   6    -0.03   0.00  -0.00    -0.18   0.11   0.05    -0.08  -0.12  -0.03
     4   1    -0.23  -0.27  -0.12    -0.30  -0.04   0.01     0.55   0.79   0.21
     5   6     0.17   0.26   0.13    -0.05   0.23   0.08     0.04   0.06   0.02
     6   6    -0.05  -0.04  -0.04    -0.05  -0.10  -0.02    -0.00  -0.00  -0.00
     7   8     0.19  -0.06  -0.03     0.15  -0.10  -0.05     0.01  -0.00  -0.00
     8   8    -0.11  -0.05  -0.07    -0.02  -0.14  -0.02    -0.00  -0.00  -0.00
     9   6    -0.23  -0.16  -0.00     0.19   0.17   0.03    -0.01   0.00   0.00
    10   6    -0.01  -0.05   0.03     0.01   0.06  -0.03    -0.00   0.00  -0.00
    11   1    -0.23   0.10  -0.01     0.06  -0.08   0.17    -0.01  -0.00   0.01
    12   1    -0.27  -0.26   0.05     0.49   0.38  -0.08     0.00   0.00   0.00
    13   1     0.03   0.15  -0.15    -0.04  -0.12   0.07    -0.00   0.01  -0.01
    14   1     0.10   0.02  -0.02    -0.04  -0.04   0.03     0.00  -0.00   0.00
    15   1     0.20  -0.21   0.22    -0.18   0.21  -0.20     0.00  -0.00   0.00
                     16                     17                     18
                      A                      A                      A
 Frequencies --    773.7320               780.5020               812.2761
 Red. masses --      2.4207                 2.1072                 1.2674
 Frc consts  --      0.8538                 0.7563                 0.4927
 IR Inten    --      1.8658                62.9784               115.1905
  Atom  AN      X      Y      Z        X      Y      Z        X      Y      Z
     1   8     0.00   0.00   0.00    -0.01  -0.00  -0.00    -0.05  -0.05  -0.01
     2   1    -0.03  -0.05  -0.01     0.04   0.07   0.02     0.29   0.48   0.06
     3   6    -0.02   0.05  -0.15    -0.01   0.03  -0.11     0.02  -0.01  -0.00
     4   1     0.07  -0.27   0.88     0.07  -0.29   0.88     0.03   0.01  -0.02
     5   6     0.00  -0.05   0.15     0.00   0.02  -0.05    -0.00  -0.04   0.00
     6   6    -0.01   0.09  -0.23     0.01  -0.10   0.25     0.01   0.06  -0.02
     7   8     0.00  -0.03   0.07    -0.00   0.04  -0.07     0.01   0.05   0.03
     8   8     0.00  -0.03   0.06    -0.00   0.02  -0.06     0.00  -0.06  -0.01
     9   6     0.01   0.01   0.00    -0.01  -0.01  -0.00    -0.01  -0.01  -0.01
    10   6     0.00   0.01  -0.01    -0.00  -0.01   0.01    -0.01  -0.01  -0.01
    11   1     0.02   0.01  -0.07    -0.03  -0.01   0.08    -0.27  -0.04   0.42
    12   1    -0.07  -0.05   0.03     0.08   0.06  -0.04     0.30   0.38  -0.19
    13   1    -0.01  -0.03   0.02     0.01   0.03  -0.02     0.04   0.08   0.05
    14   1    -0.03  -0.02   0.01     0.03   0.03  -0.01    -0.00   0.21  -0.14
    15   1    -0.04   0.04  -0.06     0.05  -0.04   0.07     0.08  -0.05   0.23
                     19                     20                     21
                      A                      A                      A
 Frequencies --    837.5765               899.5554               956.7093
 Red. masses --      1.1469                 2.5869                 3.8652
 Frc consts  --      0.4741                 1.2333                 2.0844
 IR Inten    --     67.7922                22.4153                 4.0354
  Atom  AN      X      Y      Z        X      Y      Z        X      Y      Z
     1   8    -0.04  -0.04   0.01    -0.03  -0.03   0.00    -0.03  -0.01  -0.00
     2   1     0.30   0.53   0.01     0.20   0.34   0.02     0.20   0.35   0.04
     3   6    -0.00   0.00   0.00    -0.02   0.01   0.00    -0.13   0.08   0.04
     4   1     0.00   0.01   0.00    -0.03   0.00  -0.00    -0.14   0.09   0.04
     5   6    -0.01  -0.01  -0.01     0.02   0.04   0.02    -0.08   0.04   0.02
     6   6     0.02   0.01   0.02    -0.01  -0.07  -0.04     0.16  -0.11  -0.06
     7   8     0.01   0.02   0.00    -0.03  -0.10  -0.04    -0.07  -0.16  -0.06
     8   8     0.01  -0.03  -0.02    -0.05   0.20   0.07     0.24   0.11   0.06
     9   6     0.03   0.02   0.01     0.08   0.01  -0.11    -0.03  -0.05   0.08
    10   6     0.02   0.04   0.01     0.11  -0.13   0.05    -0.14   0.06  -0.06
    11   1    -0.28   0.15  -0.28    -0.09   0.08  -0.11    -0.03  -0.07   0.14
    12   1    -0.11  -0.34   0.17    -0.20   0.16  -0.17    -0.07  -0.11   0.11
    13   1    -0.07  -0.14  -0.04     0.16  -0.33   0.58    -0.08   0.42  -0.44
    14   1    -0.01  -0.25   0.17    -0.18   0.19  -0.11     0.14   0.10  -0.10
    15   1    -0.15   0.13  -0.34    -0.07   0.04   0.20     0.21  -0.21   0.16
                     22                     23                     24
                      A                      A                      A
 Frequencies --   1093.2395              1119.9412              1147.1379
 Red. masses --      2.4854                 2.1355                 1.7561
 Frc consts  --      1.7502                 1.5781                 1.3615
 IR Inten    --     36.7153               137.2135                 5.2087
  Atom  AN      X      Y      Z        X      Y      Z        X      Y      Z
     1   8    -0.00  -0.01   0.01    -0.01  -0.01   0.01     0.00  -0.00   0.01
     2   1    -0.03  -0.03  -0.04     0.05   0.10  -0.01     0.00   0.02  -0.02
     3   6    -0.02   0.02   0.01     0.02  -0.01  -0.01     0.01  -0.00  -0.00
     4   1    -0.02   0.03   0.01     0.02  -0.02  -0.01     0.01  -0.00  -0.00
     5   6    -0.02  -0.01  -0.00     0.02   0.00   0.00     0.00  -0.00  -0.00
     6   6     0.06   0.00  -0.00    -0.04   0.02   0.00    -0.01   0.00   0.01
     7   8    -0.00   0.01   0.01     0.01   0.01   0.01     0.01   0.02   0.01
     8   8     0.09  -0.10  -0.04    -0.11   0.03   0.06    -0.01  -0.02  -0.04
     9   6    -0.11   0.23  -0.08     0.21  -0.02  -0.09     0.06   0.01   0.19
    10   6    -0.02  -0.12   0.13    -0.14  -0.02   0.05    -0.03  -0.06  -0.14
    11   1    -0.08   0.14  -0.60     0.04   0.14  -0.34    -0.07   0.12  -0.55
    12   1    -0.26   0.32  -0.13     0.28  -0.18  -0.04    -0.05  -0.07   0.23
    13   1     0.05   0.08   0.06    -0.06   0.38  -0.39     0.11   0.11   0.19
    14   1     0.17  -0.09   0.10     0.32  -0.04   0.03    -0.17   0.45  -0.41
    15   1     0.19  -0.27   0.35     0.29  -0.34   0.19    -0.04   0.02   0.29
                     25                     26                     27
                      A                      A                      A
 Frequencies --   1227.2968              1271.2108              1368.6703
 Red. masses --      1.2528                 7.8942                 1.2312
 Frc consts  --      1.1118                 7.5162                 1.3589
 IR Inten    --     89.0484               723.4608                 4.3126
  Atom  AN      X      Y      Z        X      Y      Z        X      Y      Z
     1   8    -0.01  -0.01  -0.01     0.02   0.01   0.00     0.00   0.00  -0.00
     2   1     0.05   0.08   0.04    -0.12  -0.22  -0.02    -0.03  -0.06  -0.01
     3   6    -0.00   0.00   0.00    -0.11   0.07   0.03    -0.01   0.01   0.00
     4   1    -0.00   0.00   0.00    -0.11   0.12   0.05    -0.01   0.01   0.01
     5   6    -0.00  -0.00  -0.00    -0.04   0.00   0.00    -0.00   0.00  -0.00
     6   6     0.03   0.01   0.01     0.65   0.03   0.00     0.06  -0.01  -0.01
     7   8     0.00   0.01   0.00    -0.07   0.01   0.00    -0.01   0.00   0.00
     8   8    -0.03  -0.04  -0.02    -0.33  -0.06  -0.04    -0.02   0.01   0.02
     9   6     0.06   0.10  -0.03     0.03  -0.12   0.03    -0.07   0.06  -0.04
    10   6    -0.02  -0.04  -0.02     0.03   0.02   0.01     0.00   0.01  -0.07
    11   1     0.30  -0.03   0.56    -0.09   0.12  -0.13    -0.05   0.04   0.05
    12   1    -0.53  -0.41   0.23    -0.21   0.40  -0.17     0.62  -0.49   0.17
    13   1     0.06   0.08   0.07    -0.02  -0.04  -0.05     0.02  -0.16   0.30
    14   1     0.05   0.10  -0.09    -0.04   0.02   0.02    -0.03  -0.23   0.07
    15   1     0.04  -0.06   0.13    -0.08   0.09  -0.18     0.13  -0.06   0.35
                     28                     29                     30
                      A                      A                      A
 Frequencies --   1409.8977              1481.6895              1483.3800
 Red. masses --      1.3258                 1.0472                 1.0411
 Frc consts  --      1.5528                 1.3546                 1.3498
 IR Inten    --     18.2310                 5.6518                 5.9800
  Atom  AN      X      Y      Z        X      Y      Z        X      Y      Z
     1   8     0.00  -0.00  -0.00     0.00   0.00  -0.00    -0.00  -0.00   0.00
     2   1    -0.03  -0.05  -0.00    -0.02  -0.03  -0.00     0.02   0.04   0.00
     3   6    -0.00   0.00   0.00     0.00  -0.00  -0.00     0.00  -0.00  -0.00
     4   1    -0.01   0.00   0.00     0.00  -0.00  -0.00     0.00  -0.00  -0.00
     5   6    -0.00   0.00  -0.00     0.00  -0.00   0.00     0.00   0.00  -0.00
     6   6     0.02  -0.00  -0.00    -0.00   0.00   0.00    -0.01   0.00   0.00
     7   8    -0.00  -0.00  -0.00    -0.00  -0.00  -0.00     0.00  -0.00  -0.00
     8   8    -0.00   0.01   0.02     0.00   0.00   0.00    -0.00  -0.00  -0.00
     9   6    -0.05   0.05  -0.04    -0.01  -0.02  -0.00     0.02  -0.01  -0.01
    10   6     0.05  -0.11   0.08    -0.04  -0.02  -0.03     0.04  -0.01  -0.02
    11   1    -0.07   0.05   0.05    -0.07   0.02   0.02     0.07  -0.04  -0.03
    12   1     0.36  -0.29   0.08    -0.00   0.04  -0.03    -0.08   0.07  -0.05
    13   1     0.10   0.31  -0.36     0.28   0.46   0.44     0.10   0.31  -0.27
    14   1    -0.13   0.43  -0.21     0.56  -0.20   0.04    -0.41  -0.37   0.22
    15   1    -0.36   0.21  -0.29    -0.31   0.22  -0.10    -0.28   0.32   0.51
                     31                     32                     33
                      A                      A                      A
 Frequencies --   1547.8346              1846.8802              2269.6341
 Red. masses --      1.0554                12.7051                 5.7429
 Frc consts  --      1.4897                25.5332                17.4298
 IR Inten    --     27.6463               339.4841                83.8122
  Atom  AN      X      Y      Z        X      Y      Z        X      Y      Z
     1   8    -0.03   0.01   0.01    -0.00   0.00   0.00    -0.00  -0.00   0.00
     2   1     0.17   0.31   0.02    -0.00  -0.01  -0.00     0.00   0.00  -0.00
     3   6    -0.00   0.00   0.00     0.07  -0.04  -0.02    -0.31   0.19   0.09
     4   1    -0.00   0.00   0.00     0.11  -0.04  -0.02    -0.62   0.39   0.18
     5   6    -0.00   0.00  -0.00    -0.04   0.01   0.01     0.44  -0.27  -0.12
     6   6     0.01  -0.00  -0.00    -0.01   0.74   0.32    -0.07   0.06   0.03
     7   8     0.00   0.01   0.00    -0.01  -0.50  -0.21     0.00  -0.01  -0.00
     8   8    -0.02  -0.01   0.00    -0.01  -0.05  -0.02    -0.01  -0.00  -0.00
     9   6    -0.05  -0.00   0.01    -0.02   0.03   0.01     0.00   0.00   0.00
    10   6     0.01   0.00   0.00     0.01  -0.00  -0.01    -0.00   0.00  -0.00
    11   1     0.75  -0.45  -0.25     0.07  -0.02  -0.04     0.00  -0.00  -0.00
    12   1     0.17   0.04  -0.02     0.10  -0.02   0.04    -0.00   0.00  -0.00
    13   1     0.02   0.00   0.05    -0.01  -0.06   0.03    -0.00  -0.00  -0.00
    14   1     0.06   0.02  -0.01    -0.03   0.01  -0.01    -0.00  -0.00   0.00
    15   1    -0.03   0.02  -0.09     0.04  -0.02   0.04     0.00  -0.00   0.00
                     34                     35                     36
                      A                      A                      A
 Frequencies --   3059.8879              3135.0085              3141.4988
 Red. masses --      1.0379                 1.0907                 1.0936
 Frc consts  --      5.7258                 6.3161                 6.3586
 IR Inten    --      1.1080                 5.0478                 4.6670
  Atom  AN      X      Y      Z        X      Y      Z        X      Y      Z
     1   8    -0.00  -0.00  -0.00     0.00   0.00   0.00     0.00   0.00   0.00
     2   1     0.00   0.00   0.00    -0.00   0.00   0.00    -0.00   0.00   0.00
     3   6    -0.00   0.00   0.00    -0.00   0.00   0.00    -0.00  -0.00   0.00
     4   1     0.00  -0.00  -0.00    -0.00  -0.00   0.00    -0.00  -0.00   0.00
     5   6     0.00   0.00  -0.00     0.00   0.00  -0.00     0.00   0.00  -0.00
     6   6    -0.00  -0.00  -0.00    -0.00  -0.00  -0.00    -0.00  -0.00  -0.00
     7   8    -0.00   0.00  -0.00    -0.00   0.00   0.00    -0.00   0.00   0.00
     8   8     0.00   0.00   0.00     0.00  -0.00   0.00     0.00  -0.00   0.00
     9   6    -0.00  -0.00   0.00    -0.00  -0.02  -0.06    -0.00  -0.02  -0.05
    10   6    -0.01  -0.04   0.03     0.04   0.04   0.03    -0.07  -0.03  -0.01
    11   1     0.01   0.01   0.00    -0.00  -0.01  -0.01     0.00   0.00  -0.01
    12   1     0.00  -0.00  -0.00     0.04   0.30   0.69     0.03   0.24   0.55
    13   1    -0.39   0.16   0.10    -0.17   0.08   0.04     0.47  -0.20  -0.12
    14   1    -0.03  -0.24  -0.40    -0.02  -0.24  -0.43     0.01   0.16   0.29
    15   1     0.50   0.58  -0.07    -0.25  -0.29   0.04     0.31   0.37  -0.05
                     37                     38                     39
                      A                      A                      A
 Frequencies --   3166.0046              3488.6674              3823.9287
 Red. masses --      1.1023                 1.1714                 1.0666
 Frc consts  --      6.5100                 8.4001                 9.1888
 IR Inten    --      6.6839                63.0844                50.7664
  Atom  AN      X      Y      Z        X      Y      Z        X      Y      Z
     1   8    -0.00  -0.00  -0.00     0.00  -0.00  -0.00    -0.05   0.03   0.01
     2   1     0.00  -0.00   0.00    -0.00  -0.00   0.00     0.83  -0.50  -0.24
     3   6     0.00  -0.00  -0.00    -0.10   0.06   0.03    -0.00   0.00   0.00
     4   1     0.00   0.00   0.00     0.82  -0.51  -0.23     0.00  -0.00  -0.00
     5   6    -0.00   0.00   0.00     0.03  -0.02  -0.01    -0.00   0.00   0.00
     6   6     0.00   0.00   0.00    -0.00   0.00   0.00     0.00  -0.00   0.00
     7   8     0.00  -0.00  -0.00     0.00   0.00   0.00    -0.00   0.00   0.00
     8   8     0.00  -0.00  -0.00     0.00  -0.00  -0.00    -0.00   0.00   0.00
     9   6     0.00   0.01   0.02    -0.00   0.00   0.00     0.00   0.00  -0.00
    10   6    -0.05   0.05   0.06     0.00   0.00  -0.00    -0.00  -0.00  -0.00
    11   1     0.00   0.00   0.00     0.00   0.00   0.00    -0.02  -0.01   0.00
    12   1    -0.01  -0.10  -0.23     0.00  -0.00  -0.00    -0.00  -0.00   0.00
    13   1     0.64  -0.26  -0.15     0.00  -0.00   0.00     0.00   0.00  -0.00
    14   1    -0.05  -0.32  -0.57    -0.00   0.00   0.00     0.00   0.00   0.00
    15   1    -0.01   0.01   0.01    -0.00   0.00  -0.00     0.00  -0.00   0.00

 -------------------
 - Thermochemistry -
 -------------------
 Temperature   298.150 Kelvin.  Pressure   1.00000 Atm.
 Atom     1 has atomic number  8 and mass  15.99491
 Atom     2 has atomic number  1 and mass   1.00783
 Atom     3 has atomic number  6 and mass  12.00000
 Atom     4 has atomic number  1 and mass   1.00783
 Atom     5 has atomic number  6 and mass  12.00000
 Atom     6 has atomic number  6 and mass  12.00000
 Atom     7 has atomic number  8 and mass  15.99491
 Atom     8 has atomic number  8 and mass  15.99491
 Atom     9 has atomic number  6 and mass  12.00000
 Atom    10 has atomic number  6 and mass  12.00000
 Atom    11 has atomic number  1 and mass   1.00783
 Atom    12 has atomic number  1 and mass   1.00783
 Atom    13 has atomic number  1 and mass   1.00783
 Atom    14 has atomic number  1 and mass   1.00783
 Atom    15 has atomic number  1 and mass   1.00783
 Molecular mass:   115.03952 amu.
 Principal axes and moments of inertia in atomic units:
                           1         2         3
     Eigenvalues --   594.651011597.300732000.56504
           X            0.99932  -0.03674   0.00274
           Y            0.03679   0.99909  -0.02181
           Z           -0.00194   0.02189   0.99976
 This molecule is an asymmetric top.
 Rotational symmetry number  1.
 Warning -- assumption of classical behavior for rotation
           may cause significant error
 Rotational temperatures (Kelvin)      0.14566     0.05423     0.04329
 Rotational constants (GHZ):           3.03496     1.12987     0.90212
    1 imaginary frequencies ignored.
 Zero-point vibrational energy     279079.8 (Joules/Mol)
                                   66.70168 (Kcal/Mol)
 Warning -- explicit consideration of  12 degrees of freedom as
           vibrations may cause significant error
 Vibrational temperatures:     90.93   119.06   164.03   224.43   266.63
          (Kelvin)            300.82   309.81   391.28   412.30   611.86
                              771.52   853.29   910.36  1071.70  1113.23
                             1122.97  1168.68  1205.09  1294.26  1376.49
                             1572.93  1611.35  1650.48  1765.81  1828.99
                             1969.21  2028.53  2131.82  2134.25  2226.99
                             2657.25  3265.50  4402.50  4510.58  4519.92
                             4555.17  5019.41  5501.78
 
 Zero-point correction=                           0.106296 (Hartree/Particle)
 Thermal correction to Energy=                    0.116033
 Thermal correction to Enthalpy=                  0.116977
 Thermal correction to Gibbs Free Energy=         0.070470
 Sum of electronic and zero-point Energies=           -420.094587
 Sum of electronic and thermal Energies=              -420.084850
 Sum of electronic and thermal Enthalpies=            -420.083905
 Sum of electronic and thermal Free Energies=         -420.130413
 
                     E (Thermal)             CV                S
                      KCal/Mol        Cal/Mol-Kelvin    Cal/Mol-Kelvin
 Total                   72.812             33.135             97.884
 Electronic               0.000              0.000              1.377
 Translational            0.889              2.981             40.136
 Rotational               0.889              2.981             29.031
 Vibrational             71.035             27.173             27.339
 Vibration     1          0.597              1.972              4.355
 Vibration     2          0.600              1.961              3.825
 Vibration     3          0.607              1.938              3.200
 Vibration     4          0.620              1.896              2.598
 Vibration     5          0.631              1.860              2.274
 Vibration     6          0.642              1.827              2.052
 Vibration     7          0.645              1.818              1.998
 Vibration     8          0.675              1.725              1.584
 Vibration     9          0.684              1.699              1.494
 Vibration    10          0.787              1.415              0.874
 Vibration    11          0.891              1.170              0.573
 Vibration    12          0.951              1.047              0.462
                       Q            Log10(Q)             Ln(Q)
 Total Bot       0.385675D-32        -32.413778        -74.635483
 Total V=0       0.301230D+17         16.478898         37.944065
 Vib (Bot)       0.805788D-46        -46.093779       -106.134849
 Vib (Bot)    1  0.326632D+01          0.514059          1.183664
 Vib (Bot)    2  0.248760D+01          0.395781          0.911319
 Vib (Bot)    3  0.179493D+01          0.254049          0.584969
 Vib (Bot)    4  0.129761D+01          0.113143          0.260521
 Vib (Bot)    5  0.108181D+01          0.034149          0.078632
 Vib (Bot)    6  0.950312D+00         -0.022134         -0.050965
 Vib (Bot)    7  0.920409D+00         -0.036019         -0.082938
 Vib (Bot)    8  0.709923D+00         -0.148789         -0.342598
 Vib (Bot)    9  0.668569D+00         -0.174854         -0.402615
 Vib (Bot)   10  0.411224D+00         -0.385922         -0.888618
 Vib (Bot)   11  0.296512D+00         -0.527957         -1.215667
 Vib (Bot)   12  0.253571D+00         -0.595900         -1.372109
 Vib (V=0)       0.629357D+03          2.798897          6.444699
 Vib (V=0)    1  0.380437D+01          0.580283          1.336150
 Vib (V=0)    2  0.303735D+01          0.482495          1.110986
 Vib (V=0)    3  0.236327D+01          0.373514          0.860048
 Vib (V=0)    4  0.189060D+01          0.276601          0.636897
 Vib (V=0)    5  0.169177D+01          0.228340          0.525772
 Vib (V=0)    6  0.157382D+01          0.196955          0.453507
 Vib (V=0)    7  0.154745D+01          0.189617          0.436609
 Vib (V=0)    8  0.136833D+01          0.136190          0.313589
 Vib (V=0)    9  0.133486D+01          0.125435          0.288824
 Vib (V=0)   10  0.114738D+01          0.059708          0.137484
 Vib (V=0)   11  0.108131D+01          0.033950          0.078172
 Vib (V=0)   12  0.106062D+01          0.025561          0.058857
 Electronic      0.200000D+01          0.301030          0.693147
 Translational   0.484981D+08          7.685724         17.697035
 Rotational      0.493454D+06          5.693246         13.109184
 ***** Axes restored to original set *****
 -------------------------------------------------------------------
 Center     Atomic                   Forces (Hartrees/Bohr)
 Number     Number              X              Y              Z
 -------------------------------------------------------------------
      1        8          -0.008092146   -0.017045537   -0.001644122
      2        1           0.000815736    0.000376785   -0.000111258
      3        6           0.000129137   -0.000070972   -0.000017868
      4        1           0.000010710    0.000009369    0.000002747
      5        6           0.000184823    0.000025409   -0.000060718
      6        6          -0.001380986   -0.000099092   -0.000696151
      7        8           0.000327714    0.000107532    0.000096204
      8        8           0.003425237   -0.000716593    0.000019117
      9        6          -0.007125642   -0.004332507    0.002852047
     10        6           0.002129656    0.003222902   -0.000813957
     11        1           0.008191983    0.016100229    0.001590489
     12        1           0.001690067    0.002191497   -0.000926567
     13        1           0.000035835   -0.000004393   -0.000028675
     14        1          -0.000091967   -0.000068771    0.000151499
     15        1          -0.000250158    0.000304142   -0.000412787
 -------------------------------------------------------------------
 Cartesian Forces:  Max     0.017045537 RMS     0.004230561

 GradGradGradGradGradGradGradGradGradGradGradGradGradGradGradGradGradGrad
 Berny optimization.
 Search for a local minimum.
 Step number   1 out of a maximum of    2
 All quantities printed in internal units (Hartrees-Bohrs-Radians)
 Second derivative matrix not updated -- analytic derivatives used.
 ITU=  0
     Eigenvalues ---   -0.18195   0.00098   0.00120   0.00172   0.00186
     Eigenvalues ---    0.00287   0.00611   0.00779   0.01505   0.02068
     Eigenvalues ---    0.02702   0.03225   0.04277   0.05349   0.05769
     Eigenvalues ---    0.07104   0.07584   0.08729   0.09093   0.10092
     Eigenvalues ---    0.10603   0.11646   0.14847   0.16745   0.18804
     Eigenvalues ---    0.25832   0.28833   0.35273   0.45927   0.50134
     Eigenvalues ---    0.66096   0.71528   0.77100   0.80446   0.84982
     Eigenvalues ---    0.89849   0.98064   1.74447   2.73814
 Eigenvalue     1 is  -1.82D-01 should be greater than     0.000000 Eigenvector:
                          Y11       X11       Y1        X1        X9
   1                    0.78297   0.39503  -0.32701  -0.19728  -0.16573
                          Y9        Y12       Y10       Z11       Z12
   1                   -0.15922   0.05908   0.05175   0.04953  -0.04870
 Angle between quadratic step and forces=  44.85 degrees.
 Linear search not attempted -- first point.
 B after Tr=    -0.005237   -0.005333   -0.001377
         Rot=    0.999999   -0.000417    0.000322    0.001051 Ang=  -0.13 deg.
 Variable       Old X    -DE/DX   Delta X   Delta X   Delta X     New X
                                 (Linear)    (Quad)   (Total)
    X1        5.09611  -0.00809   0.00000  -0.04287  -0.04119   5.05492
    Y1        3.29218  -0.01705   0.00000  -0.13378  -0.14938   3.14280
    Z1       -0.43367  -0.00164   0.00000  -0.01220  -0.00770  -0.44136
    X2        3.56949   0.00082   0.00000   0.02295   0.02651   3.59599
    Y2        4.20443   0.00038   0.00000  -0.02448  -0.03736   4.16707
    Z2        0.00305  -0.00011   0.00000  -0.02104  -0.01662  -0.01357
    X3       -5.92289   0.00013   0.00000  -0.01117  -0.01288  -5.93577
    Y3        1.92743  -0.00007   0.00000  -0.01002  -0.00355   1.92389
    Z3        0.79826  -0.00002   0.00000   0.00384   0.00025   0.79851
    X4       -7.58692   0.00001   0.00000  -0.01539  -0.01524  -7.60216
    Y4        2.95933   0.00001   0.00000  -0.01831  -0.00872   2.95061
    Z4        1.26464   0.00000   0.00000   0.00803   0.00422   1.26886
    X5       -4.05269   0.00018   0.00000  -0.00565  -0.00944  -4.06213
    Y5        0.76515   0.00003   0.00000   0.00299   0.00596   0.77112
    Z5        0.27343  -0.00006   0.00000  -0.00325  -0.00660   0.26683
    X6       -1.84534  -0.00138   0.00000  -0.00220  -0.00865  -1.85398
    Y6       -0.72583  -0.00010   0.00000   0.02189   0.02079  -0.70504
    Z6       -0.39571  -0.00070   0.00000  -0.01230  -0.01545  -0.41116
    X7       -1.92722   0.00033   0.00000   0.02108   0.01088  -1.91634
    Y7       -2.80835   0.00011   0.00000   0.03935   0.03914  -2.76921
    Z7       -1.27479   0.00010   0.00000  -0.05294  -0.05785  -1.33264
    X8        0.29492   0.00343   0.00000   0.00116  -0.00301   0.29190
    Y8        0.54442  -0.00072   0.00000   0.00796   0.00189   0.54631
    Z8        0.10629   0.00002   0.00000   0.03888   0.03816   0.14444
    X9        2.59461  -0.00713   0.00000  -0.04857  -0.05506   2.53955
    Y9       -0.71699  -0.00433   0.00000  -0.01856  -0.02886  -0.74585
    Z9       -0.49410   0.00285   0.00000   0.02629   0.02593  -0.46817
   X10        3.46349   0.00213   0.00000   0.03441   0.02306   3.48655
   Y10       -2.45754   0.00322   0.00000   0.03832   0.02432  -2.43322
   Z10        1.57612  -0.00081   0.00000   0.00821   0.00706   1.58319
   X11        4.13216   0.00819   0.00000   0.02252   0.02023   4.15239
   Y11        1.14805   0.01610   0.00000   0.06180   0.04826   1.19631
   Z11       -0.64964   0.00159   0.00000   0.01134   0.01364  -0.63599
   X12        2.49683   0.00169   0.00000  -0.00973  -0.01665   2.48018
   Y12       -1.55439   0.00219   0.00000   0.03255   0.02396  -1.53043
   Z12       -2.37373  -0.00093   0.00000   0.00885   0.00781  -2.36593
   X13        5.31739   0.00004   0.00000   0.03924   0.02662   5.34401
   Y13       -3.22951  -0.00000   0.00000   0.06440   0.04689  -3.18262
   Z13        1.11477  -0.00003   0.00000  -0.00947  -0.01005   1.10472
   X14        3.58904  -0.00009   0.00000   0.02311   0.01272   3.60176
   Y14       -1.44203  -0.00007   0.00000   0.03109   0.01536  -1.42667
   Z14        3.36503   0.00015   0.00000   0.01074   0.01051   3.37554
   X15        2.12631  -0.00025   0.00000   0.05693   0.04211   2.16842
   Y15       -4.02315   0.00030   0.00000   0.01270   0.00130  -4.02184
   Z15        1.77130  -0.00041   0.00000   0.01001   0.00669   1.77799
         Item               Value     Threshold  Converged?
 Maximum Force            0.017046     0.000450     NO 
 RMS     Force            0.004231     0.000300     NO 
 Maximum Displacement     0.149379     0.001800     NO 
 RMS     Displacement     0.033070     0.001200     NO 
 Predicted change in Energy=-5.940308D-03
 GradGradGradGradGradGradGradGradGradGradGradGradGradGradGradGradGradGrad


 ----------------------------------------------------------------------

 Electric dipole moment (input orientation):
 (Debye = 10**-18 statcoulomb cm , SI units = C m)
                  (au)            (Debye)         (10**-30 SI)
   Tot        0.899518D+00      0.228635D+01      0.762643D+01
   x         -0.736265D+00     -0.187140D+01     -0.624231D+01
   y          0.107322D+00      0.272785D+00      0.909913D+00
   z          0.505499D+00      0.128485D+01      0.428580D+01

 Dipole polarizability, Alpha (input orientation).
 (esu units = cm**3 , SI units = C**2 m**2 J**-1)
 Alpha(0;0):
               (au)            (10**-24 esu)      (10**-40 SI)
   iso        0.766169D+02      0.113534D+02      0.126324D+02
   aniso      0.401307D+02      0.594675D+01      0.661665D+01
   xx         0.948376D+02      0.140535D+02      0.156366D+02
   yx        -0.100390D+01     -0.148762D+00     -0.165520D+00
   yy         0.834897D+02      0.123719D+02      0.137656D+02
   zx        -0.450590D+01     -0.667706D+00     -0.742923D+00
   zy         0.332461D+01      0.492656D+00      0.548154D+00
   zz         0.515233D+02      0.763496D+01      0.849504D+01

 ----------------------------------------------------------------------

 Dipole orientation:
     8          2.76115575          3.63253765         -4.02213050
     1          2.30382814          4.38892030         -2.41831580
     6         -2.60855268          1.44431803          5.52650470
     1         -3.11259173          2.30713182          7.27373587
     6         -2.04276705          0.47217493          3.56211545
     6         -1.42310829         -0.78737709          1.20145353
     8         -2.31960672         -2.75115776          0.52599594
     8          0.28945658          0.54522027         -0.11670651
     6          1.03247246         -0.48928910         -2.48692578
     6          3.11435383         -2.40664368         -2.24238557
     1          1.89983455          1.47344564         -3.61031384
     1         -0.61421666         -1.10090886         -3.56309712
     1          3.74718809         -3.00063085         -4.11118944
     1          4.71378358         -1.60597791         -1.21868096
     1          2.41258409         -4.06487500         -1.22499651

 Electric dipole moment (dipole orientation):
 (Debye = 10**-18 statcoulomb cm , SI units = C m)
                  (au)            (Debye)         (10**-30 SI)
   Tot        0.899518D+00      0.228635D+01      0.762643D+01
   x          0.000000D+00      0.000000D+00      0.000000D+00
   y          0.000000D+00      0.000000D+00      0.000000D+00
   z          0.899518D+00      0.228635D+01      0.762643D+01

 Dipole polarizability, Alpha (dipole orientation).
 (esu units = cm**3 , SI units = C**2 m**2 J**-1)
 Alpha(0;0):
               (au)            (10**-24 esu)      (10**-40 SI)
   iso        0.766169D+02      0.113534D+02      0.126324D+02
   aniso      0.401307D+02      0.594675D+01      0.661665D+01
   xx         0.618306D+02      0.916234D+01      0.101945D+02
   yx         0.570296D+01      0.845092D+00      0.940292D+00
   yy         0.822358D+02      0.121861D+02      0.135589D+02
   zx        -0.180110D+02     -0.266895D+01     -0.296961D+01
   zy         0.357492D+01      0.529748D+00      0.589424D+00
   zz         0.857842D+02      0.127119D+02      0.141439D+02

 ----------------------------------------------------------------------
 1\1\GINC-AJ\Freq\UM062X\6-311++G(d,p)\C5H7O3(2)\AAYUSH\16-Aug-2025\0\\
 # freq 6-311++g(d,p) m062x\\Title Card Required\\0,2\O,2.696744,1.7421
 48,-0.229486\H,1.888892,2.224889,0.001615\C,-3.134259,1.019954,0.42242
 \H,-4.014825,1.566012,0.669218\C,-2.144591,0.404901,0.144691\C,-0.9765
 11,-0.384093,-0.209401\O,-1.019841,-1.486117,-0.674589\O,0.156063,0.28
 8097,0.056245\C,1.373007,-0.379417,-0.261467\C,1.832801,-1.300472,0.83
 4049\H,2.186644,0.607522,-0.343773\H,1.321268,-0.822549,-1.256125\H,2.
 813841,-1.708984,0.589911\H,1.899238,-0.763089,1.780699\H,1.125193,-2.
 128957,0.937332\\Version=ES64L-G16RevA.03\State=2-A\HF=-420.2008829\S2
 =0.760393\S2-1=0.\S2A=0.750043\RMSD=3.714e-09\RMSF=4.231e-03\ZeroPoint
 =0.1062959\Thermal=0.1160333\Dipole=-0.736265,0.1073219,0.5054987\Dipo
 leDeriv=-0.2252451,0.1952294,-0.0464455,0.109348,-0.1699939,0.0259662,
 -0.0236093,0.0497278,-0.5153119,0.1155651,-0.043802,0.0491276,0.129091
 6,0.3805078,-0.0189354,0.0589475,0.0155924,0.3040695,-0.2162591,0.0182
 5,0.0084246,0.0386001,-0.1529079,-0.0094355,0.0152423,-0.0095645,-0.13
 72143,0.2684768,-0.0182624,-0.0079982,-0.0273546,0.2342836,0.012059,-0
 .0117091,0.0124836,0.2123349,-0.581905,0.2109664,0.0956736,0.2430817,-
 0.2589488,-0.0727041,0.11118,-0.0749082,-0.1281264,2.5647573,-0.018174
 7,-0.0103227,0.2636759,1.5145742,0.5230534,0.1736467,0.5313556,0.61113
 18,-0.8212432,0.0759418,0.0292839,-0.1357123,-1.062404,-0.3275767,-0.0
 889926,-0.3246596,-0.4813959,-2.2234399,-0.3204058,-0.1197956,-0.11327
 08,-0.5956462,-0.1092298,-0.0809969,-0.0954224,-0.364815,1.4203111,0.5
 303899,-0.0040383,0.0364955,0.9685961,-0.115311,-0.184746,-0.2473819,0
 .3408687,-0.1860021,-0.2227467,0.0373511,-0.0310722,-0.2635955,0.10849
 56,-0.0303665,0.0885512,-0.0656084,-0.1944171,-0.4349941,0.0266222,-0.
 5227308,-0.6767279,0.0545071,-0.028169,-0.0523812,0.1605577,-0.0408523
 ,-0.0616571,-0.0707561,0.0170264,-0.0407686,-0.0226573,0.0600263,0.077
 3744,-0.0293164,-0.0451818,0.0709787,0.0224675,0.0625053,0.0821743,0.0
 012182,0.023466,-0.0096897,0.0603791,0.0971854,0.0291891,-0.0016667,0.
 0054494,0.0372481,-0.0760604,-0.0200312,-0.0338283,-0.0226952,0.06825,
 -0.0109024,-0.0079273,-0.0751333,0.0036088,0.0266106,0.0261116,0.07275
 07,0.0551418\Polar=94.8375834,-1.0038966,83.4897453,-4.5059035,3.32460
 65,51.5232801\Quadrupole=0.7100025,-0.6951637,-0.0148388,-10.1497573,-
 1.2429198,-0.2024649\PG=C01 [X(C5H7O3)]\NImag=1\\0.40623392,-0.1995412
 3,0.16820433,-0.10639108,0.06266495,0.04380735,-0.37214898,0.21941466,
 0.10537295,0.36835668,0.18714384,-0.14615157,-0.05931821,-0.20634943,0
 .15838125,0.09956470,-0.06512636,-0.03178716,-0.10241957,0.06493842,0.
 03162165,0.00001742,-0.00003733,0.00001093,-0.00003711,0.00023879,0.00
 003250,1.08952105,-0.00009286,0.00007448,-0.00000926,0.00013451,-0.000
 17169,-0.00002097,-0.64234290,0.45654440,0.00000104,-0.00000373,0.0000
 6606,0.00001226,-0.00005611,-0.00007880,-0.29038325,0.17931720,0.14206
 296,0.00003779,-0.00000518,-0.00001179,-0.00004255,-0.00004971,0.00000
 102,-0.29803739,0.16812099,0.07590134,0.28827172,0.00001574,-0.0000178
 5,0.00000621,-0.00001312,0.00007973,0.00000754,0.16794119,-0.13161566,
 -0.04625684,-0.16842779,0.12123310,-0.00001240,0.00001082,-0.00003934,
 0.00001376,0.00001099,0.00003990,0.07582339,-0.04624904,-0.05101928,-0
 .07608192,0.04690893,0.03930444,0.00007089,0.00005381,0.00003231,-0.00
 010002,0.00050327,0.00009448,-0.79226235,0.47095234,0.21306470,0.00826
 219,-0.00232543,-0.00096966,1.05090881,0.00001406,-0.00008838,-0.00003
 410,-0.00002868,-0.00026327,-0.00002995,0.47275789,-0.32783472,-0.1328
 9298,-0.00216759,0.00660138,-0.00043270,-0.58787584,0.47124775,-0.0000
 0800,0.00001712,-0.00000756,-0.00001628,-0.00003926,0.00000363,0.21383
 639,-0.13289375,-0.09405751,-0.00090141,-0.00041959,0.00762234,-0.2666
 9860,0.18382867,0.14375605,0.00103924,-0.00155502,-0.00085711,-0.00080
 118,-0.00445474,-0.00040381,0.00672076,-0.00080896,-0.00039615,0.00056
 422,0.00355402,0.00157449,-0.20748547,0.09390572,0.04218197,0.59500852
 ,0.00089261,-0.00046029,-0.00016728,-0.00103216,-0.00104128,-0.0001500
 3,0.00000300,0.00220849,-0.00021258,0.00258780,0.00372552,-0.00097164,
 0.08386534,-0.11490540,-0.01826911,-0.03132800,0.90010572,-0.00005281,
 -0.00125294,-0.00058693,-0.00007459,-0.00102015,-0.00005696,-0.0000156
 1,-0.00019091,0.00237162,0.00117040,-0.00093764,0.00545754,0.03802892,
 -0.01933080,-0.08198439,-0.02149133,0.29441836,0.33165790,-0.00030628,
 -0.00050440,0.00017434,-0.00004354,0.00106903,0.00003637,-0.00323761,0
 .00172432,0.00078729,-0.00023990,-0.00126985,-0.00055889,0.00624241,0.
 03334985,0.01458355,-0.10875654,-0.00253792,0.00009551,0.10956937,-0.0
 0088492,0.00032445,0.00035867,0.00078435,0.00134125,-0.00003947,0.0000
 7979,0.00150531,0.00053124,0.00022071,0.00069471,0.00072641,0.02680290
 ,-0.04828359,-0.03037089,-0.00692651,-0.66811452,-0.24789281,0.0354890
 7,0.77601296,-0.00026782,0.00035074,0.00035776,0.00028468,0.00069211,-
 0.00000491,0.00006170,0.00055182,0.00048441,0.00008216,0.00072800,-0.0
 0070664,0.01170449,-0.03029810,0.00895140,-0.00244373,-0.24982090,-0.1
 8530010,0.01296218,0.31324959,0.16616704,0.00322370,0.00819145,0.00159
 224,-0.00168276,0.00483999,0.00082531,-0.00337571,0.00256717,0.0011241
 9,0.00138723,0.00023446,0.00006402,-0.06508229,-0.00667359,-0.00145092
 ,-0.22089016,-0.06390396,-0.02424893,-0.00767792,-0.06572182,-0.025678
 63,0.51070582,-0.00241259,-0.00011811,-0.00011989,0.00152087,0.0012192
 3,0.00032200,0.00220054,-0.00152096,-0.00084107,-0.00047422,-0.0006576
 8,-0.00009285,0.01183490,0.01308896,0.00027878,-0.05494481,-0.13849335
 ,-0.03409961,-0.06071699,-0.05576015,-0.03486488,0.02949347,0.30322478
 ,-0.00051583,-0.00058943,0.00089938,0.00012548,0.00022062,-0.00068791,
 0.00099047,-0.00087620,0.00005259,-0.00023672,-0.00014088,-0.00044148,
 0.00642972,0.00127185,0.01135252,-0.01987454,-0.03354830,-0.07738663,-
 0.02496159,-0.03500518,0.01554630,0.00546085,0.10188787,0.12828438,-0.
 04027374,-0.07566403,-0.00606747,0.00948060,-0.00149210,-0.00226945,0.
 00139273,-0.00079369,-0.00028764,-0.00038949,0.00037819,0.00018552,0.0
 0210454,-0.00297848,-0.00189107,-0.07878154,-0.00482970,-0.00169255,0.
 00708566,0.01667333,0.00774014,-0.13794133,0.03627307,0.02257897,0.352
 99168,-0.04717291,-0.09070566,-0.00719052,0.00358132,-0.00463905,-0.00
 164261,-0.00048019,0.00061307,0.00033150,0.00012100,0.00012018,0.00012
 583,-0.00393949,-0.00049596,-0.00208708,-0.00382984,0.02250315,0.00881
 522,-0.00388856,-0.00971682,-0.00126720,0.08063138,-0.10872454,-0.0297
 5626,-0.07822963,0.36027954,0.00537383,0.00913479,0.00214799,-0.002294
 17,0.00025825,0.00012073,-0.00046903,0.00046613,0.00006971,0.00009424,
 0.00009991,-0.00025485,-0.00178805,-0.00247896,0.00519977,0.00366016,0
 .01290700,0.00522127,-0.00068881,-0.00301909,-0.00633325,0.03076265,-0
 .02862918,-0.08665660,0.02905443,0.05155905,0.57686598,0.00315500,0.00
 411665,0.00046332,-0.00182978,0.00029561,0.00091291,-0.00029175,0.0001
 9775,0.00010933,0.00009340,-0.00001474,-0.00009025,-0.00110780,-0.0004
 8189,0.00112988,0.00586523,0.00712363,0.00148857,-0.00018952,-0.002472
 95,-0.00178830,-0.03111254,0.03053058,-0.02454035,-0.07174743,0.023398
 92,-0.01938019,0.57196972,0.00425394,0.00722831,0.00011338,-0.00147959
 ,0.00019446,0.00090261,0.00000897,0.00001454,0.00002814,-0.00002091,-0
 .00002898,0.00001632,0.00036122,0.00017857,-0.00052031,-0.00132312,-0.
 00036227,0.00020853,0.00096166,0.00003256,0.00128948,0.01379601,-0.012
 29803,0.00897405,0.03560036,-0.11370974,0.06376560,0.00057789,0.527797
 99,-0.00057327,-0.00201446,0.00033523,0.00004596,-0.00001486,0.0001362
 9,0.00015862,-0.00017104,0.00004457,-0.00002220,-0.00000151,0.00002442
 ,0.00014767,0.00062754,-0.00077522,-0.00100005,-0.00410723,-0.00023631
 ,-0.00041615,0.00192752,0.00060326,0.00536433,-0.00338599,0.01222051,-
 0.03382724,0.06001819,-0.16791205,-0.02065189,0.05031183,0.53457287,-0
 .00166726,0.04368668,0.00525583,-0.00080193,0.01806599,0.00395433,-0.0
 0033840,0.00031581,0.00008219,0.00006649,-0.00005972,0.00000727,-0.001
 19725,0.00001883,-0.00017281,0.00281527,0.00258649,0.00393141,0.000031
 41,-0.00087520,-0.00084443,-0.03675998,-0.00977143,0.00244630,0.006464
 83,0.03128863,-0.00506959,-0.00177530,-0.00460882,0.00051768,0.0339090
 2,0.05659294,0.05842409,0.00337270,-0.01589978,-0.00972668,0.00078179,
 -0.00034966,0.00016909,0.00003214,0.00009911,-0.00012051,-0.00004089,-
 0.00084574,0.00065029,0.00037049,0.01075162,0.00065633,0.00312818,-0.0
 0160969,-0.00098992,-0.00102540,-0.01510629,0.00585468,-0.00085044,0.0
 6690746,0.04704941,-0.01474132,-0.01754475,-0.02486114,0.00443719,-0.0
 7742344,-0.06524075,0.00448461,-0.00081559,-0.01684010,-0.00207891,-0.
 00564397,0.00142122,-0.00000470,0.00001393,-0.00005482,0.00000762,-0.0
 0001360,0.00000123,0.00006271,-0.00002032,0.00022679,0.00082421,-0.001
 28222,-0.00022309,-0.00095471,0.00033255,0.00017821,0.00474330,0.00314
 058,-0.00055293,0.00778547,0.00647830,-0.02488397,0.00580992,0.0101397
 8,-0.00310365,-0.01107947,-0.00259672,0.04456685,0.00161667,0.00268364
 ,0.00086714,-0.00090819,0.00031326,-0.00010210,-0.00009261,0.00004110,
 0.00002239,0.00004625,-0.00003137,0.00004125,-0.00037268,0.00022434,-0
 .00081676,0.00479868,0.00617237,0.00322476,-0.00140010,-0.00333227,-0.
 00098179,-0.01349119,0.01796235,0.03279681,-0.04488575,-0.00413821,-0.
 03441573,0.00340403,-0.00490413,-0.00592342,-0.00295360,-0.01037186,-0
 .00952936,0.05375355,0.00211074,0.00362488,0.00117190,-0.00074691,0.00
 050883,-0.00014818,0.00002565,-0.00000796,0.00005250,-0.00001313,0.000
 00496,0.00000191,0.00039100,-0.00012655,-0.00016379,-0.00259206,-0.001
 14454,-0.00132945,-0.00104019,0.00049125,0.00100453,0.00838859,-0.0076
 5150,-0.01351966,0.00273007,-0.08598097,-0.10991653,0.00196798,0.01155
 600,0.02137206,-0.00530826,-0.01298593,-0.01149215,-0.00662661,0.09334
 816,-0.00187820,-0.00267250,0.00056745,0.00076082,-0.00001312,-0.00014
 085,-0.00001376,0.00000333,0.00006966,-0.00001179,-0.00000050,0.000006
 70,0.00018037,0.00019883,-0.00037512,-0.00258830,-0.00242682,0.0002642
 4,-0.00121706,0.00116822,0.00069622,0.00595113,-0.00544154,-0.00255408
 ,-0.01582790,-0.10068855,-0.28091472,-0.00301095,-0.01055402,-0.016006
 11,0.00237443,0.00574010,0.00039864,0.01659564,0.11151808,0.29866053,0
 .00008136,0.00018544,-0.00006889,-0.00003735,-0.00004843,-0.00001449,-
 0.00004762,0.00003254,-0.00002870,0.00002052,-0.00001236,-0.00000461,-
 0.00012027,0.00000043,0.00025592,0.00125876,0.00024845,0.00031779,-0.0
 0020613,-0.00006042,-0.00045628,0.00005459,0.00075767,-0.00201891,-0.0
 0859135,0.00149812,0.00370116,-0.27030146,0.09400744,0.05577725,0.0000
 2919,0.00018496,-0.00003056,0.00016434,-0.00011408,-0.00040394,0.29099
 503,-0.00069570,-0.00020631,-0.00002529,0.00013262,0.00018214,-0.00012
 227,0.00005378,-0.00002898,-0.00003416,-0.00001886,-0.00000084,0.00001
 255,0.00028947,0.00012441,-0.00008941,-0.00148408,-0.00276055,-0.00038
 200,-0.00017107,0.00124883,0.00009024,0.00490457,-0.00148423,0.0042717
 9,0.01638672,-0.00850424,-0.00787853,0.09207690,-0.08324213,-0.0225898
 6,0.00065235,0.00050541,-0.00022032,-0.00041530,0.00050843,0.00034421,
 -0.10308332,0.08903817,0.00025775,0.00025200,-0.00000012,-0.00008490,-
 0.00003083,-0.00004082,-0.00009555,0.00008985,0.00001061,0.00001865,0.
 00000438,-0.00001675,-0.00028975,-0.00025620,0.00032525,0.00139117,0.0
 0195405,0.00027075,-0.00013350,-0.00080737,-0.00047015,-0.00533757,0.0
 0457882,-0.00351530,-0.02075575,0.00644999,0.00864751,0.05778356,-0.02
 358004,-0.06306866,-0.00029967,-0.00047652,0.00040558,0.00047820,-0.00
 107090,0.00015400,-0.06079091,0.02316837,0.06345544,-0.00022364,0.0001
 4645,-0.00017723,0.00014860,0.00001190,-0.00006727,0.00000323,0.000008
 83,0.00002783,-0.00001902,0.00000676,-0.00000725,0.00003922,0.00001748
 ,0.00001128,-0.00079561,-0.00113510,-0.00056824,-0.00022590,0.00077837
 ,0.00009050,0.00135215,-0.00071621,0.00057471,-0.00191802,-0.00548445,
 -0.00814763,-0.04817317,-0.00748625,-0.01451533,0.00017320,0.00036250,
 0.00042734,0.00036814,0.00140791,-0.00134501,0.00363872,0.01352686,0.0
 2595658,0.04667757,-0.00003873,0.00018570,-0.00074960,0.00015425,-0.00
 013345,0.00022205,-0.00003271,-0.00000743,-0.00000693,0.00000723,0.000
 00686,-0.00000664,-0.00004491,0.00002669,0.00013508,0.00025332,0.00012
 327,-0.00028032,-0.00022090,0.00013923,-0.00019207,-0.00194037,0.00088
 141,-0.00119981,0.00082711,0.01103777,0.02214342,-0.00733150,-0.116154
 18,-0.12132213,0.00029051,0.00123624,0.00041841,0.00173598,-0.00290302
 ,0.00315524,-0.00208753,-0.00625045,-0.00889634,0.00790849,0.12274918,
 0.00040263,0.00051345,0.00079071,-0.00007837,0.00015125,-0.00023223,-0
 .00001967,0.00002758,0.00000981,-0.00000378,-0.00000581,-0.00000090,-0
 .00001080,0.00002178,-0.00001036,-0.00034371,-0.00056112,-0.00024643,0
 .00006011,0.00033767,0.00020540,0.00108719,-0.00010760,0.00250599,-0.0
 0028386,-0.01112897,-0.02504192,-0.01457522,-0.11864224,-0.25059414,-0
 .00079334,-0.00152330,-0.00032481,-0.00170189,0.00356331,-0.00164683,-
 0.00048753,-0.00194128,-0.00442329,0.01661401,0.12702398,0.27493466,-0
 .00085607,-0.00117160,-0.00019548,0.00044751,-0.00008729,-0.00014493,0
 .00006537,-0.00005697,-0.00003682,-0.00002145,0.00002404,0.00001529,0.
 00010007,-0.00008254,-0.00004313,-0.00056018,0.00128714,-0.00011330,-0
 .00064541,-0.00055445,-0.00046489,0.00129039,-0.00153719,0.00074463,0.
 00500860,0.00664392,-0.00039326,-0.15795864,-0.12974467,0.01491806,0.0
 0200432,0.00425262,-0.00046747,-0.00004752,-0.00058071,0.00043453,-0.0
 1693832,-0.02215495,0.00190171,-0.00104547,0.00051976,0.00013424,0.169
 15679,-0.00018491,-0.00031807,-0.00007366,-0.00017292,0.00022012,0.000
 10543,-0.00006683,0.00005802,0.00001169,0.00002055,-0.00002494,-0.0000
 2000,-0.00002286,0.00007982,0.00022305,0.00078244,-0.00204026,0.000146
 35,-0.00063436,0.00107446,-0.00048798,0.00029893,0.00243949,-0.0011400
 5,-0.01178868,-0.01912615,0.00632945,-0.13244008,-0.19634595,0.0149127
 3,0.00114156,-0.00062062,0.00156135,0.00068670,0.00075796,-0.00033097,
 0.00849110,0.01087036,-0.00137927,-0.00935354,-0.01093781,0.00227131,0
 .14324290,0.21391358,-0.00038514,-0.00046885,0.00028927,0.00043088,-0.
 00013513,-0.00031379,0.00008756,-0.00005868,-0.00003159,-0.00000582,0.
 00002140,0.00002267,0.00001148,-0.00017455,-0.00022760,-0.00023325,0.0
 0223781,0.00077752,0.00023136,-0.00149705,-0.00037494,-0.00025915,-0.0
 0262545,0.00093326,0.01555840,0.01998311,-0.00627559,0.01633967,0.0175
 4688,-0.04624101,-0.00031014,0.00339199,-0.00121515,-0.00055511,-0.001
 04364,0.00082027,0.00425271,0.00539594,-0.00173404,-0.01887430,-0.0204
 4435,0.00407432,-0.01628918,-0.02212942,0.04949638\\0.00809215,0.01704
 554,0.00164412,-0.00081574,-0.00037678,0.00011126,-0.00012914,0.000070
 97,0.00001787,-0.00001071,-0.00000937,-0.00000275,-0.00018482,-0.00002
 541,0.00006072,0.00138099,0.00009909,0.00069615,-0.00032771,-0.0001075
 3,-0.00009620,-0.00342524,0.00071659,-0.00001912,0.00712564,0.00433251
 ,-0.00285205,-0.00212966,-0.00322290,0.00081396,-0.00819198,-0.0161002
 3,-0.00159049,-0.00169007,-0.00219150,0.00092657,-0.00003584,0.0000043
 9,0.00002868,0.00009197,0.00006877,-0.00015150,0.00025016,-0.00030414,
 0.00041279\\\@


 ABALONE: AN EXPRESSION OF DISBELIEF.
 Job cpu time:       0 days  0 hours 53 minutes 22.8 seconds.
 Elapsed time:       0 days  0 hours  2 minutes 13.5 seconds.
 File lengths (MBytes):  RWF=    153 Int=      0 D2E=      0 Chk=      5 Scr=      1
 Normal termination of Gaussian 16 at Sat Aug 16 14:54:59 2025.
