 Entering Gaussian System, Link 0=g16
 Initial command:
 /opt/g16/l1.exe "/home/aayush/scratches/g16/Gau-17362.inp" -scrdir="/home/aayush/scratches/g16/"
 Entering Link 1 = /opt/g16/l1.exe PID=     17365.
  
 Copyright (c) 1988,1990,1992,1993,1995,1998,2003,2009,2016,
            Gaussian, Inc.  All Rights Reserved.
  
 This is part of the Gaussian(R) 16 program.  It is based on
 the Gaussian(R) 09 system (copyright 2009, Gaussian, Inc.),
 the Gaussian(R) 03 system (copyright 2003, Gaussian, Inc.),
 the Gaussian(R) 98 system (copyright 1998, Gaussian, Inc.),
 the Gaussian(R) 94 system (copyright 1995, Gaussian, Inc.),
 the Gaussian 92(TM) system (copyright 1992, Gaussian, Inc.),
 the Gaussian 90(TM) system (copyright 1990, Gaussian, Inc.),
 the Gaussian 88(TM) system (copyright 1988, Gaussian, Inc.),
 the Gaussian 86(TM) system (copyright 1986, Carnegie Mellon
 University), and the Gaussian 82(TM) system (copyright 1983,
 Carnegie Mellon University). Gaussian is a federally registered
 trademark of Gaussian, Inc.
  
 This software contains proprietary and confidential information,
 including trade secrets, belonging to Gaussian, Inc.
  
 This software is provided under written license and may be
 used, copied, transmitted, or stored only in accord with that
 written license.
  
 The following legend is applicable only to US Government
 contracts under FAR:
  
                    RESTRICTED RIGHTS LEGEND
  
 Use, reproduction and disclosure by the US Government is
 subject to restrictions as set forth in subparagraphs (a)
 and (c) of the Commercial Computer Software - Restricted
 Rights clause in FAR 52.227-19.
  
 Gaussian, Inc.
 340 Quinnipiac St., Bldg. 40, Wallingford CT 06492
  
  
 ---------------------------------------------------------------
 Warning -- This program may not be used in any manner that
 competes with the business of Gaussian, Inc. or will provide
 assistance to any competitor of Gaussian, Inc.  The licensee
 of this program is prohibited from giving any competitor of
 Gaussian, Inc. access to this program.  By using this program,
 the user acknowledges that Gaussian, Inc. is engaged in the
 business of creating and licensing software in the field of
 computational chemistry and represents and warrants to the
 licensee that it is not a competitor of Gaussian, Inc. and that
 it will not use this program in any manner prohibited above.
 ---------------------------------------------------------------
  

 Cite this work as:
 Gaussian 16, Revision A.03,
 M. J. Frisch, G. W. Trucks, H. B. Schlegel, G. E. Scuseria, 
 M. A. Robb, J. R. Cheeseman, G. Scalmani, V. Barone, 
 G. A. Petersson, H. Nakatsuji, X. Li, M. Caricato, A. V. Marenich, 
 J. Bloino, B. G. Janesko, R. Gomperts, B. Mennucci, H. P. Hratchian, 
 J. V. Ortiz, A. F. Izmaylov, J. L. Sonnenberg, D. Williams-Young, 
 F. Ding, F. Lipparini, F. Egidi, J. Goings, B. Peng, A. Petrone, 
 T. Henderson, D. Ranasinghe, V. G. Zakrzewski, J. Gao, N. Rega, 
 G. Zheng, W. Liang, M. Hada, M. Ehara, K. Toyota, R. Fukuda, 
 J. Hasegawa, M. Ishida, T. Nakajima, Y. Honda, O. Kitao, H. Nakai, 
 T. Vreven, K. Throssell, J. A. Montgomery, Jr., J. E. Peralta, 
 F. Ogliaro, M. J. Bearpark, J. J. Heyd, E. N. Brothers, K. N. Kudin, 
 V. N. Staroverov, T. A. Keith, R. Kobayashi, J. Normand, 
 K. Raghavachari, A. P. Rendell, J. C. Burant, S. S. Iyengar, 
 J. Tomasi, M. Cossi, J. M. Millam, M. Klene, C. Adamo, R. Cammi, 
 J. W. Ochterski, R. L. Martin, K. Morokuma, O. Farkas, 
 J. B. Foresman, and D. J. Fox, Gaussian, Inc., Wallingford CT, 2016.
 
 ******************************************
 Gaussian 16:  ES64L-G16RevA.03 25-Dec-2016
                20-Jun-2025 
 ******************************************
 %nprocshared=24
 Will use up to   24 processors via shared memory.
 %mem=12GB
 %chk=ethyl_propiolate_ts1.chk
 -------------------
 # freq 6-31+g m062x
 -------------------
 1/10=4,30=1,38=1/1,3;
 2/12=2,17=6,18=5,40=1/2;
 3/5=1,6=6,7=10,11=2,25=1,30=1,71=2,74=-55,140=1/1,2,3;
 4//1;
 5/5=2,38=5,98=1/2;
 8/6=4,10=90,11=11/1;
 11/6=1,8=1,9=11,15=111,16=1/1,2,10;
 10/6=1/2;
 6/7=2,8=2,9=2,10=2,28=1/1;
 7/8=1,10=1,25=1/1,2,3,16;
 1/10=4,30=1/3;
 99//99;
 -------------------
 Title Card Required
 -------------------
 Symbolic Z-matrix:
 Charge =  0 Multiplicity = 2
 O                     2.69959   1.74832  -0.22888 
 H                     1.8851    2.22338   0.00224 
 C                    -3.13433   1.01999   0.42243 
 H                    -4.01489   1.56595   0.66921 
 C                    -2.14469   0.40489   0.14472 
 C                    -0.97587  -0.38403  -0.20907 
 O                    -1.01998  -1.48614  -0.67461 
 O                     0.15493   0.28837   0.05622 
 C                     1.37543  -0.37883  -0.26286 
 C                     1.83174  -1.30206   0.83447 
 H                     2.15175   0.53235  -0.35381 
 H                     1.31113  -0.83561  -1.25089 
 H                     2.81362  -1.70906   0.59014 
 H                     1.8998   -0.7627    1.77995 
 H                     1.12668  -2.13094   0.94015 
 

 GradGradGradGradGradGradGradGradGradGradGradGradGradGradGradGradGradGrad
 Berny optimization.
 Initialization pass.
 Trust Radius=3.00D-01 FncErr=1.00D-07 GrdErr=1.00D-07 EigMax=2.50D+02 EigMin=1.00D-04
 Number of steps in this run=      2 maximum allowed number of steps=      2.
 GradGradGradGradGradGradGradGradGradGradGradGradGradGradGradGradGradGrad

                          Input orientation:                          
 ---------------------------------------------------------------------
 Center     Atomic      Atomic             Coordinates (Angstroms)
 Number     Number       Type             X           Y           Z
 ---------------------------------------------------------------------
      1          8           0        2.699585    1.748319   -0.228876
      2          1           0        1.885103    2.223380    0.002240
      3          6           0       -3.134327    1.019992    0.422431
      4          1           0       -4.014893    1.565947    0.669205
      5          6           0       -2.144689    0.404886    0.144721
      6          6           0       -0.975869   -0.384033   -0.209065
      7          8           0       -1.019982   -1.486143   -0.674611
      8          8           0        0.154933    0.288371    0.056217
      9          6           0        1.375434   -0.378829   -0.262857
     10          6           0        1.831737   -1.302064    0.834472
     11          1           0        2.151751    0.532354   -0.353809
     12          1           0        1.311126   -0.835610   -1.250889
     13          1           0        2.813616   -1.709064    0.590135
     14          1           0        1.899803   -0.762702    1.779950
     15          1           0        1.126681   -2.130937    0.940154
 ---------------------------------------------------------------------
                    Distance matrix (angstroms):
                    1          2          3          4          5
     1  O    0.000000
     2  H    0.970813   0.000000
     3  C    5.915166   5.178743   0.000000
     4  H    6.776727   5.973861   1.065064   0.000000
     5  C    5.040970   4.423397   1.197857   2.262920   0.000000
     6  C    4.249268   3.876650   2.651229   3.716106   1.453856
     7  O    4.949303   4.760064   3.457552   4.482252   2.347821
     8  O    2.947538   2.596278   3.389486   4.404021   2.304272
     9  C    2.505851   2.664870   4.771191   5.805732   3.629269
    10  C    3.344952   3.622736   5.497592   6.514283   4.381940
    11  H    1.339515   1.748554   5.364975   6.335801   4.327144
    12  H    3.106287   3.355175   5.099540   6.149855   3.928004
    13  H    3.554895   4.083120   6.546289   7.573670   5.408509
    14  H    3.313647   3.475220   5.510292   6.452906   4.516099
    15  H    4.346181   4.518292   5.324714   6.338466   4.214852
                    6          7          8          9         10
     6  C    0.000000
     7  O    1.197216   0.000000
     8  O    1.342093   2.250208   0.000000
     9  C    2.351924   2.670899   1.427090   0.000000
    10  C    3.132795   3.231643   2.438614   1.504894   0.000000
    11  H    3.262319   3.773213   2.053030   1.200498   2.208961
    12  H    2.553364   2.487841   2.075727   1.090409   2.199397
    13  H    4.093241   4.042988   3.367998   2.136700   1.090613
    14  H    3.516967   3.882445   2.668442   2.143684   1.090630
    15  H    2.965315   2.762497   2.752942   2.139859   1.093299
                   11         12         13         14         15
    11  H    0.000000
    12  H    1.839220   0.000000
    13  H    2.520526   2.531752   0.000000
    14  H    2.508700   3.088340   1.773785   0.000000
    15  H    3.133405   2.551972   1.773764   1.781865   0.000000
 Stoichiometry    C5H7O3(2)
 Framework group  C1[X(C5H7O3)]
 Deg. of freedom    39
 Full point group                 C1      NOp   1
 Largest Abelian subgroup         C1      NOp   1
 Largest concise Abelian subgroup C1      NOp   1
                         Standard orientation:                         
 ---------------------------------------------------------------------
 Center     Atomic      Atomic             Coordinates (Angstroms)
 Number     Number       Type             X           Y           Z
 ---------------------------------------------------------------------
      1          8           0        2.641054    1.757555   -0.248172
      2          1           0        1.826540    2.232561   -0.017056
      3          6           0       -3.192809    1.028835    0.403135
      4          1           0       -4.073412    1.574731    0.649909
      5          6           0       -2.203130    0.413796    0.125425
      6          6           0       -1.034257   -0.375044   -0.228361
      7          8           0       -1.078296   -1.477157   -0.693907
      8          8           0        0.096500    0.297436    0.036921
      9          6           0        1.317046   -0.369682   -0.282153
     10          6           0        1.773411   -1.292887    0.815176
     11          1           0        2.093302    0.541553   -0.373105
     12          1           0        1.252769   -0.826468   -1.270185
     13          1           0        2.755317   -1.699821    0.570839
     14          1           0        1.841441   -0.753520    1.760654
     15          1           0        1.068411   -2.121807    0.920858
 ---------------------------------------------------------------------
 Rotational constants (GHZ):           3.0289656           1.1296158           0.9014510
 Standard basis: 6-31+G (6D, 7F)
 There are   118 symmetry adapted cartesian basis functions of A   symmetry.
 There are   118 symmetry adapted basis functions of A   symmetry.
   118 basis functions,   236 primitive gaussians,   118 cartesian basis functions
    31 alpha electrons       30 beta electrons
       nuclear repulsion energy       348.5146553000 Hartrees.
 NAtoms=   15 NActive=   15 NUniq=   15 SFac= 1.00D+00 NAtFMM=   60 NAOKFM=F Big=F
 Integral buffers will be    131072 words long.
 Raffenetti 2 integral format.
 Two-electron integral symmetry is turned on.
 One-electron integrals computed using PRISM.
 NBasis=   118 RedAO= T EigKep=  1.62D-06  NBF=   118
 NBsUse=   118 1.00D-06 EigRej= -1.00D+00 NBFU=   118
 ExpMin= 4.38D-02 ExpMax= 5.48D+03 ExpMxC= 8.25D+02 IAcc=3 IRadAn=         5 AccDes= 0.00D+00
 Harris functional with IExCor= 1009 and IRadAn=       5 diagonalized for initial guess.
 HarFok:  IExCor= 1009 AccDes= 0.00D+00 IRadAn=         5 IDoV= 1 UseB2=F ITyADJ=14
 ICtDFT=  3500011 ScaDFX=  1.000000  1.000000  1.000000  1.000000
 FoFCou: FMM=F IPFlag=           0 FMFlag=      100000 FMFlg1=           0
         NFxFlg=           0 DoJE=T BraDBF=F KetDBF=T FulRan=T
         wScrn=  0.000000 ICntrl=       500 IOpCl=  0 I1Cent=   200000004 NGrid=           0
         NMat0=    1 NMatS0=      1 NMatT0=    0 NMatD0=    1 NMtDS0=    0 NMtDT0=    0
 Petite list used in FoFCou.
 Initial guess <Sx>= 0.0000 <Sy>= 0.0000 <Sz>= 0.5000 <S**2>= 0.7500 S= 0.5000
 Requested convergence on RMS density matrix=1.00D-08 within 128 cycles.
 Requested convergence on MAX density matrix=1.00D-06.
 Requested convergence on             energy=1.00D-06.
 No special actions if energy rises.
 SCF Done:  E(UM062X) =  -419.950522460     A.U. after   20 cycles
            NFock= 20  Conv=0.82D-08     -V/T= 2.0050
 <Sx>= 0.0000 <Sy>= 0.0000 <Sz>= 0.5000 <S**2>= 0.7593 S= 0.5047
 <L.S>=  0.00000000000    
 Annihilation of the first spin contaminant:
 S**2 before annihilation     0.7593,   after     0.7500
 DoSCS=F DFT=T ScalE2(SS,OS)=  1.000000  1.000000
 Range of M.O.s used for correlation:     1   118
 NBasis=   118 NAE=    31 NBE=    30 NFC=     0 NFV=     0
 NROrb=    118 NOA=    31 NOB=    30 NVA=    87 NVB=    88

 **** Warning!!: The largest alpha MO coefficient is  0.22199501D+03


 **** Warning!!: The largest beta MO coefficient is  0.21829827D+03

 Symmetrizing basis deriv contribution to polar:
 IMax=3 JMax=2 DiffMx= 0.00D+00
 G2DrvN: will do    16 centers at a time, making    1 passes.
 Calling FoFCou, ICntrl=  3107 FMM=F I1Cent=   0 AccDes= 0.00D+00.
 End of G2Drv F.D. properties file   721 does not exist.
 End of G2Drv F.D. properties file   722 does not exist.
 End of G2Drv F.D. properties file   788 does not exist.
          IDoAtm=111111111111111
          Differentiating once with respect to electric field.
                with respect to dipole field.
          Differentiating once with respect to nuclear coordinates.
 Keep R1 and R2 ints in memory in canonical form, NReq=71861349.
          There are    48 degrees of freedom in the 1st order CPHF.  IDoFFX=6 NUNeed=     3.
     45 vectors produced by pass  0 Test12= 1.11D-14 2.08D-09 XBig12= 9.32D+01 3.62D+00.
 AX will form    45 AO Fock derivatives at one time.
     45 vectors produced by pass  1 Test12= 1.11D-14 2.08D-09 XBig12= 1.88D+01 7.71D-01.
     45 vectors produced by pass  2 Test12= 1.11D-14 2.08D-09 XBig12= 5.22D-01 1.01D-01.
     45 vectors produced by pass  3 Test12= 1.11D-14 2.08D-09 XBig12= 3.28D-03 6.74D-03.
     45 vectors produced by pass  4 Test12= 1.11D-14 2.08D-09 XBig12= 2.60D-05 7.78D-04.
     45 vectors produced by pass  5 Test12= 1.11D-14 2.08D-09 XBig12= 1.82D-07 4.89D-05.
     38 vectors produced by pass  6 Test12= 1.11D-14 2.08D-09 XBig12= 9.62D-10 3.15D-06.
     11 vectors produced by pass  7 Test12= 1.11D-14 2.08D-09 XBig12= 4.98D-12 1.82D-07.
      3 vectors produced by pass  8 Test12= 1.11D-14 2.08D-09 XBig12= 3.08D-14 1.39D-08.
      2 vectors produced by pass  9 Test12= 1.11D-14 2.08D-09 XBig12= 1.61D-15 8.31D-09.
      1 vectors produced by pass 10 Test12= 1.11D-14 2.08D-09 XBig12= 3.62D-16 2.83D-09.
 InvSVY:  IOpt=1 It=  1 EMax= 8.88D-15
 Solved reduced A of dimension   325 with    48 vectors.
 Isotropic polarizability for W=    0.000000       73.46 Bohr**3.
 End of Minotr F.D. properties file   721 does not exist.
 End of Minotr F.D. properties file   722 does not exist.
 End of Minotr F.D. properties file   788 does not exist.

 **********************************************************************

            Population analysis using the SCF density.

 **********************************************************************

 Orbital symmetries:
 Alpha Orbitals:
       Occupied  (A) (A) (A) (A) (A) (A) (A) (A) (A) (A) (A) (A)
                 (A) (A) (A) (A) (A) (A) (A) (A) (A) (A) (A) (A)
                 (A) (A) (A) (A) (A) (A) (A)
       Virtual   (A) (A) (A) (A) (A) (A) (A) (A) (A) (A) (A) (A)
                 (A) (A) (A) (A) (A) (A) (A) (A) (A) (A) (A) (A)
                 (A) (A) (A) (A) (A) (A) (A) (A) (A) (A) (A) (A)
                 (A) (A) (A) (A) (A) (A) (A) (A) (A) (A) (A) (A)
                 (A) (A) (A) (A) (A) (A) (A) (A) (A) (A) (A) (A)
                 (A) (A) (A) (A) (A) (A) (A) (A) (A) (A) (A) (A)
                 (A) (A) (A) (A) (A) (A) (A) (A) (A) (A) (A) (A)
                 (A) (A) (A)
 Beta  Orbitals:
       Occupied  (A) (A) (A) (A) (A) (A) (A) (A) (A) (A) (A) (A)
                 (A) (A) (A) (A) (A) (A) (A) (A) (A) (A) (A) (A)
                 (A) (A) (A) (A) (A) (A)
       Virtual   (A) (A) (A) (A) (A) (A) (A) (A) (A) (A) (A) (A)
                 (A) (A) (A) (A) (A) (A) (A) (A) (A) (A) (A) (A)
                 (A) (A) (A) (A) (A) (A) (A) (A) (A) (A) (A) (A)
                 (A) (A) (A) (A) (A) (A) (A) (A) (A) (A) (A) (A)
                 (A) (A) (A) (A) (A) (A) (A) (A) (A) (A) (A) (A)
                 (A) (A) (A) (A) (A) (A) (A) (A) (A) (A) (A) (A)
                 (A) (A) (A) (A) (A) (A) (A) (A) (A) (A) (A) (A)
                 (A) (A) (A) (A)
 The electronic state is 2-A.
 Alpha  occ. eigenvalues --  -19.72530 -19.68612 -19.67865 -10.74473 -10.64069
 Alpha  occ. eigenvalues --  -10.59665 -10.59330 -10.55839  -1.29742  -1.20472
 Alpha  occ. eigenvalues --   -1.14179  -0.92524  -0.88926  -0.80114  -0.72537
 Alpha  occ. eigenvalues --   -0.66646  -0.62627  -0.60773  -0.59111  -0.57792
 Alpha  occ. eigenvalues --   -0.53372  -0.51265  -0.50014  -0.48011  -0.45832
 Alpha  occ. eigenvalues --   -0.41554  -0.41127  -0.40601  -0.38517  -0.37768
 Alpha  occ. eigenvalues --   -0.35569
 Alpha virt. eigenvalues --   -0.02913   0.01716   0.02241   0.03226   0.03428
 Alpha virt. eigenvalues --    0.04173   0.04818   0.06202   0.07650   0.07901
 Alpha virt. eigenvalues --    0.08179   0.08631   0.09745   0.10960   0.12224
 Alpha virt. eigenvalues --    0.12649   0.14238   0.15486   0.16196   0.16799
 Alpha virt. eigenvalues --    0.17866   0.18809   0.19473   0.19720   0.21408
 Alpha virt. eigenvalues --    0.21571   0.22347   0.24385   0.25221   0.26968
 Alpha virt. eigenvalues --    0.27239   0.27390   0.29482   0.30497   0.30974
 Alpha virt. eigenvalues --    0.32060   0.33126   0.33368   0.34943   0.36376
 Alpha virt. eigenvalues --    0.37532   0.38226   0.39727   0.41563   0.42971
 Alpha virt. eigenvalues --    0.45868   0.57390   0.60410   0.68296   0.69411
 Alpha virt. eigenvalues --    0.71701   0.72864   0.74195   0.75149   0.76041
 Alpha virt. eigenvalues --    0.77252   0.79920   0.84316   0.86128   0.90826
 Alpha virt. eigenvalues --    0.94589   0.96628   1.02253   1.07537   1.09867
 Alpha virt. eigenvalues --    1.11940   1.12735   1.15651   1.19308   1.21051
 Alpha virt. eigenvalues --    1.21879   1.24041   1.27768   1.28997   1.31061
 Alpha virt. eigenvalues --    1.32475   1.36550   1.37882   1.42852   1.46129
 Alpha virt. eigenvalues --    1.49780   1.61203   1.69980   1.78115   1.84794
 Alpha virt. eigenvalues --    1.98864   2.03192
  Beta  occ. eigenvalues --  -19.72525 -19.67861 -19.67288 -10.74455 -10.63624
  Beta  occ. eigenvalues --  -10.59665 -10.59331 -10.55847  -1.29655  -1.20359
  Beta  occ. eigenvalues --   -1.09352  -0.92034  -0.88446  -0.79880  -0.71655
  Beta  occ. eigenvalues --   -0.66163  -0.62363  -0.59852  -0.58238  -0.55819
  Beta  occ. eigenvalues --   -0.51411  -0.50844  -0.48131  -0.46637  -0.43050
  Beta  occ. eigenvalues --   -0.40676  -0.39880  -0.38542  -0.38486  -0.37703
  Beta virt. eigenvalues --   -0.11380  -0.02866   0.01761   0.02332   0.03323
  Beta virt. eigenvalues --    0.03489   0.04291   0.04904   0.06243   0.07706
  Beta virt. eigenvalues --    0.07989   0.08262   0.08692   0.10005   0.10995
  Beta virt. eigenvalues --    0.12342   0.12749   0.14325   0.15569   0.16228
  Beta virt. eigenvalues --    0.16860   0.17900   0.18772   0.19325   0.19759
  Beta virt. eigenvalues --    0.21825   0.21953   0.22692   0.24477   0.25524
  Beta virt. eigenvalues --    0.27128   0.27474   0.27507   0.29648   0.30712
  Beta virt. eigenvalues --    0.31614   0.32332   0.33229   0.33623   0.34990
  Beta virt. eigenvalues --    0.36630   0.37610   0.38490   0.40323   0.42008
  Beta virt. eigenvalues --    0.43897   0.46068   0.57421   0.60577   0.68516
  Beta virt. eigenvalues --    0.69624   0.71792   0.72960   0.74740   0.75414
  Beta virt. eigenvalues --    0.76101   0.77852   0.80598   0.84400   0.86264
  Beta virt. eigenvalues --    0.91111   0.94750   0.97138   1.02403   1.07704
  Beta virt. eigenvalues --    1.09936   1.12613   1.13121   1.16007   1.19498
  Beta virt. eigenvalues --    1.21099   1.21757   1.24718   1.29206   1.29906
  Beta virt. eigenvalues --    1.31275   1.35057   1.37201   1.38069   1.42929
  Beta virt. eigenvalues --    1.46140   1.49664   1.61213   1.70733   1.78834
  Beta virt. eigenvalues --    1.86882   1.98888   2.03218
          Condensed to atoms (all electrons):
               1          2          3          4          5          6
     1  O    8.323618   0.176319   0.007472   0.000001   0.020019  -0.021872
     2  H    0.176319   0.415690   0.004858  -0.000000   0.005254  -0.012748
     3  C    0.007472   0.004858  23.667437   0.744317  -4.508750 -12.854522
     4  H    0.000001  -0.000000   0.744317   0.332139  -0.317520  -0.107193
     5  C    0.020019   0.005254  -4.508750  -0.317520  16.756168  -4.140099
     6  C   -0.021872  -0.012748 -12.854522  -0.107193  -4.140099  21.425192
     7  O   -0.000086   0.000233  -0.038357  -0.000330   0.210600  -0.027643
     8  O    0.039301   0.006957  -0.905259  -0.000920  -1.433922   1.569268
     9  C   -0.080042   0.021794  -0.266954  -0.000399  -0.415625   0.481429
    10  C   -0.006094  -0.005424  -0.106151  -0.000193  -0.348841   0.178751
    11  H    0.018010  -0.022057   0.010955   0.000000   0.026315  -0.015743
    12  H    0.003877  -0.000121  -0.001121  -0.000000  -0.000772   0.000009
    13  H    0.000852  -0.000006   0.000037   0.000000   0.000572   0.004213
    14  H    0.002144  -0.000043   0.002151   0.000000   0.005487  -0.002547
    15  H   -0.000817   0.000009   0.004205   0.000000   0.008329  -0.011330
               7          8          9         10         11         12
     1  O   -0.000086   0.039301  -0.080042  -0.006094   0.018010   0.003877
     2  H    0.000233   0.006957   0.021794  -0.005424  -0.022057  -0.000121
     3  C   -0.038357  -0.905259  -0.266954  -0.106151   0.010955  -0.001121
     4  H   -0.000330  -0.000920  -0.000399  -0.000193   0.000000  -0.000000
     5  C    0.210600  -1.433922  -0.415625  -0.348841   0.026315  -0.000772
     6  C   -0.027643   1.569268   0.481429   0.178751  -0.015743   0.000009
     7  O    8.470033  -0.243271   0.009971  -0.054690   0.000097   0.000549
     8  O   -0.243271   9.267483  -0.061802   0.118648  -0.049945  -0.041039
     9  C    0.009971  -0.061802   6.626465  -0.511732   0.244612   0.432772
    10  C   -0.054690   0.118648  -0.511732   6.136586  -0.007314  -0.084036
    11  H    0.000097  -0.049945   0.244612  -0.007314   0.561679  -0.028175
    12  H    0.000549  -0.041039   0.432772  -0.084036  -0.028175   0.468737
    13  H   -0.000140   0.007154  -0.079353   0.410179  -0.002091  -0.000748
    14  H   -0.000412  -0.000617  -0.052397   0.391784  -0.006025   0.003280
    15  H    0.002151  -0.007885  -0.058891   0.402299   0.003987  -0.003462
              13         14         15
     1  O    0.000852   0.002144  -0.000817
     2  H   -0.000006  -0.000043   0.000009
     3  C    0.000037   0.002151   0.004205
     4  H    0.000000   0.000000   0.000000
     5  C    0.000572   0.005487   0.008329
     6  C    0.004213  -0.002547  -0.011330
     7  O   -0.000140  -0.000412   0.002151
     8  O    0.007154  -0.000617  -0.007885
     9  C   -0.079353  -0.052397  -0.058891
    10  C    0.410179   0.391784   0.402299
    11  H   -0.002091  -0.006025   0.003987
    12  H   -0.000748   0.003280  -0.003462
    13  H    0.478898  -0.022450  -0.022840
    14  H   -0.022450   0.473769  -0.026651
    15  H   -0.022840  -0.026651   0.472597
          Atomic-Atomic Spin Densities.
               1          2          3          4          5          6
     1  O    0.825241   0.001054   0.002819   0.000000   0.006429  -0.010385
     2  H    0.001054  -0.027591  -0.001611   0.000000  -0.002858   0.004193
     3  C    0.002819  -0.001611  -0.175706  -0.001204   0.070378   0.087154
     4  H    0.000000   0.000000  -0.001204  -0.000210   0.000863   0.000559
     5  C    0.006429  -0.002858   0.070378   0.000863  -0.040453  -0.051659
     6  C   -0.010385   0.004193   0.087154   0.000559  -0.051659   0.009881
     7  O    0.000682  -0.000053   0.009688   0.000010   0.003051  -0.012616
     8  O    0.044122  -0.004202   0.017242  -0.000027   0.021754  -0.040874
     9  C   -0.174219   0.008416   0.003249  -0.000021   0.000823   0.016916
    10  C    0.048285  -0.002809  -0.000750   0.000010  -0.000610  -0.012473
    11  H   -0.043492   0.002252  -0.004702   0.000000  -0.011627   0.013349
    12  H    0.003462  -0.000088   0.002538   0.000000   0.008785  -0.013217
    13  H    0.000323  -0.000001  -0.000028  -0.000000  -0.000107   0.000284
    14  H    0.001155  -0.000035   0.000714   0.000000   0.001909  -0.003355
    15  H   -0.000534   0.000006  -0.001788  -0.000000  -0.005671   0.008807
               7          8          9         10         11         12
     1  O    0.000682   0.044122  -0.174219   0.048285  -0.043492   0.003462
     2  H   -0.000053  -0.004202   0.008416  -0.002809   0.002252  -0.000088
     3  C    0.009688   0.017242   0.003249  -0.000750  -0.004702   0.002538
     4  H    0.000010  -0.000027  -0.000021   0.000010   0.000000   0.000000
     5  C    0.003051   0.021754   0.000823  -0.000610  -0.011627   0.008785
     6  C   -0.012616  -0.040874   0.016916  -0.012473   0.013349  -0.013217
     7  O    0.000258   0.002317  -0.002399   0.002823  -0.001044   0.002020
     8  O    0.002317   0.063686  -0.149872   0.045087  -0.023099   0.008676
     9  C   -0.002399  -0.149872   0.717343  -0.119727   0.143249  -0.034517
    10  C    0.002823   0.045087  -0.119727   0.035370  -0.042834   0.017721
    11  H   -0.001044  -0.023099   0.143249  -0.042834  -0.109243   0.001010
    12  H    0.002020   0.008676  -0.034517   0.017721   0.001010  -0.002606
    13  H    0.000042   0.000383  -0.004999   0.004855  -0.000093   0.000122
    14  H    0.000232   0.002105  -0.012104   0.010553  -0.000171   0.000110
    15  H   -0.001829  -0.002028   0.013282  -0.010357  -0.000070  -0.000952
              13         14         15
     1  O    0.000323   0.001155  -0.000534
     2  H   -0.000001  -0.000035   0.000006
     3  C   -0.000028   0.000714  -0.001788
     4  H   -0.000000   0.000000  -0.000000
     5  C   -0.000107   0.001909  -0.005671
     6  C    0.000284  -0.003355   0.008807
     7  O    0.000042   0.000232  -0.001829
     8  O    0.000383   0.002105  -0.002028
     9  C   -0.004999  -0.012104   0.013282
    10  C    0.004855   0.010553  -0.010357
    11  H   -0.000093  -0.000171  -0.000070
    12  H    0.000122   0.000110  -0.000952
    13  H    0.000695   0.000221  -0.000758
    14  H    0.000221   0.005249  -0.002380
    15  H   -0.000758  -0.002380   0.026397
 Mulliken charges and spin densities:
               1          2
     1  O   -0.482704   0.704943
     2  H    0.409283  -0.023326
     3  C    0.239684   0.007993
     4  H    0.350098  -0.000018
     5  C    0.132784   0.001007
     6  C   -0.465165  -0.003436
     7  O   -0.328704   0.003182
     8  O   -0.264151  -0.014730
     9  C   -0.289849   0.405422
    10  C   -0.513771  -0.024855
    11  H    0.265694  -0.076516
    12  H    0.250250  -0.006936
    13  H    0.225724   0.000939
    14  H    0.232528   0.004205
    15  H    0.238300   0.022126
 Sum of Mulliken charges =  -0.00000   1.00000
 Mulliken charges and spin densities with hydrogens summed into heavy atoms:
               1          2
     1  O   -0.073420   0.681617
     3  C    0.589782   0.007975
     5  C    0.132784   0.001007
     6  C   -0.465165  -0.003436
     7  O   -0.328704   0.003182
     8  O   -0.264151  -0.014730
     9  C    0.226095   0.321970
    10  C    0.182780   0.002415
 APT charges:
               1
     1  O   -0.164486
     2  H    0.299117
     3  C   -0.213053
     4  H    0.262796
     5  C   -0.305011
     6  C    1.522259
     7  O   -0.758794
     8  O   -1.042623
     9  C    0.919499
    10  C   -0.192281
    11  H   -0.410631
    12  H   -0.043936
    13  H    0.038172
    14  H    0.042276
    15  H    0.046696
 Sum of APT charges =   0.00000
 APT charges with hydrogens summed into heavy atoms:
               1
     1  O    0.134630
     3  C    0.049743
     5  C   -0.305011
     6  C    1.522259
     7  O   -0.758794
     8  O   -1.042623
     9  C    0.464932
    10  C   -0.065136
 Electronic spatial extent (au):  <R**2>=           1265.4052
 Charge=             -0.0000 electrons
 Dipole moment (field-independent basis, Debye):
    X=             -1.8339    Y=              0.7813    Z=              1.2624  Tot=              2.3595
 Quadrupole moment (field-independent basis, Debye-Ang):
   XX=            -47.5938   YY=            -48.8226   ZZ=            -48.5738
   XY=            -12.7674   XZ=             -1.6591   YZ=             -0.5340
 Traceless Quadrupole moment (field-independent basis, Debye-Ang):
   XX=              0.7363   YY=             -0.4926   ZZ=             -0.2437
   XY=            -12.7674   XZ=             -1.6591   YZ=             -0.5340
 Octapole moment (field-independent basis, Debye-Ang**2):
  XXX=            -60.9367  YYY=             17.2797  ZZZ=             -2.8180  XYY=              0.2300
  XXY=              3.1472  XXZ=             13.5157  XZZ=              4.3042  YZZ=             -0.4798
  YYZ=              7.2452  XYZ=              1.7311
 Hexadecapole moment (field-independent basis, Debye-Ang**3):
 XXXX=          -1055.8120 YYYY=           -374.5733 ZZZZ=           -124.4850 XXXY=           -158.6359
 XXXZ=            -33.3280 YYYX=              2.4214 YYYZ=              1.2652 ZZZX=              3.5716
 ZZZY=              3.4870 XXYY=           -248.8334 XXZZ=           -218.2651 YYZZ=            -92.6249
 XXYZ=             24.0113 YYXZ=             -4.1712 ZZXY=             -1.4316
 N-N= 3.485146553000D+02 E-N=-1.679165704636D+03  KE= 4.178527306033D+02
  Exact polarizability:  91.308   0.844  81.612  -4.773   4.339  47.452
 Approx polarizability:  90.605  -5.849  90.299  -7.137  11.841  51.676
                          Isotropic Fermi Contact Couplings
        Atom                 a.u.       MegaHertz       Gauss      10(-4) cm-1
     1  O(17)              0.09581     -58.07956     -20.72423     -19.37326
     2  H(1)              -0.01211     -54.13543     -19.31687     -18.05764
     3  C(13)              0.00017       0.19312       0.06891       0.06442
     4  H(1)              -0.00000      -0.02157      -0.00770      -0.00720
     5  C(13)             -0.00019      -0.21524      -0.07680      -0.07180
     6  C(13)              0.01088      12.23671       4.36636       4.08173
     7  O(17)              0.00122      -0.73927      -0.26379      -0.24659
     8  O(17)              0.01856     -11.25364      -4.01558      -3.75381
     9  C(13)              0.14860     167.05878      59.61073      55.72481
    10  C(13)             -0.00512      -5.75895      -2.05494      -1.92098
    11  H(1)              -0.02182     -97.53040     -34.80127     -32.53264
    12  H(1)              -0.00056      -2.52257      -0.90012      -0.84144
    13  H(1)               0.00075       3.35034       1.19548       1.11755
    14  H(1)               0.00232      10.38392       3.70524       3.46370
    15  H(1)               0.01113      49.74543      17.75041      16.59329
 --------------------------------------------------------
       Center         ----  Spin Dipole Couplings  ----
                      3XX-RR        3YY-RR        3ZZ-RR
 --------------------------------------------------------
     1   Atom       -0.304055      1.575317     -1.271262
     2   Atom        0.078577      0.003068     -0.081645
     3   Atom        0.001402     -0.000986     -0.000416
     4   Atom        0.001015     -0.000477     -0.000538
     5   Atom        0.003126     -0.001093     -0.002034
     6   Atom        0.016055     -0.006998     -0.009057
     7   Atom        0.000067     -0.005819      0.005752
     8   Atom       -0.008859      0.017993     -0.009134
     9   Atom        0.007859      0.218440     -0.226300
    10   Atom       -0.012361      0.015627     -0.003266
    11   Atom       -0.017605      0.123163     -0.105557
    12   Atom       -0.021017     -0.004869      0.025887
    13   Atom       -0.000832      0.005374     -0.004542
    14   Atom       -0.005776     -0.002139      0.007916
    15   Atom       -0.003119      0.004394     -0.001276
 --------------------------------------------------------
                        XY            XZ            YZ
 --------------------------------------------------------
     1   Atom        1.692282      0.112256      0.182418
     2   Atom       -0.068818     -0.043563      0.029204
     3   Atom       -0.000191     -0.000090      0.000771
     4   Atom       -0.000248     -0.000229      0.000067
     5   Atom       -0.000489     -0.000608     -0.000108
     6   Atom        0.007539      0.005310      0.002692
     7   Atom        0.004434     -0.002605     -0.000341
     8   Atom        0.046420     -0.002216     -0.023226
     9   Atom        0.330705     -0.012002     -0.017234
    10   Atom        0.005415     -0.001666     -0.017356
    11   Atom        0.137683     -0.000614      0.006607
    12   Atom        0.011848      0.000153      0.020726
    13   Atom       -0.005314      0.003194     -0.004613
    14   Atom        0.001358      0.001106     -0.006012
    15   Atom        0.002692     -0.000269     -0.005305
 --------------------------------------------------------


 ---------------------------------------------------------------------------------
              Anisotropic Spin Dipole Couplings in Principal Axis System
 ---------------------------------------------------------------------------------

       Atom             a.u.   MegaHertz   Gauss  10(-4) cm-1        Axes

              Baa    -1.3010    94.142    33.592    31.402  0.8453 -0.4828 -0.2290
     1 O(17)  Bbb    -1.2822    92.777    33.105    30.947  0.1703 -0.1629  0.9718
              Bcc     2.5832  -186.919   -66.697   -62.349  0.5065  0.8605  0.0555
 
              Baa    -0.0946   -50.482   -18.013   -16.839  0.1788 -0.1641  0.9701
     2 H(1)   Bbb    -0.0375   -20.025    -7.145    -6.680  0.5225  0.8513  0.0477
              Bcc     0.1321    70.507    25.158    23.518  0.8337 -0.4983 -0.2379
 
              Baa    -0.0015    -0.205    -0.073    -0.068  0.0361  0.8223 -0.5679
     3 C(13)  Bbb     0.0001     0.013     0.005     0.004  0.1382  0.5588  0.8177
              Bcc     0.0014     0.192     0.069     0.064  0.9898 -0.1080 -0.0934
 
              Baa    -0.0006    -0.312    -0.111    -0.104  0.0671 -0.4081  0.9105
     4 H(1)   Bbb    -0.0005    -0.269    -0.096    -0.090  0.2052  0.8987  0.3877
              Bcc     0.0011     0.581     0.207     0.194  0.9764 -0.1608 -0.1441
 
              Baa    -0.0021    -0.286    -0.102    -0.095  0.1282  0.1621  0.9784
     5 C(13)  Bbb    -0.0011    -0.150    -0.054    -0.050  0.0882  0.9808 -0.1740
              Bcc     0.0032     0.436     0.156     0.145  0.9878 -0.1086 -0.1115
 
              Baa    -0.0109    -1.464    -0.522    -0.488 -0.0083 -0.5559  0.8312
     6 C(13)  Bbb    -0.0086    -1.153    -0.411    -0.385 -0.3503  0.7802  0.5183
              Bcc     0.0195     2.617     0.934     0.873  0.9366  0.2869  0.2012
 
              Baa    -0.0083     0.598     0.213     0.199 -0.4855  0.8715 -0.0690
     7 O(17)  Bbb     0.0012    -0.084    -0.030    -0.028  0.7578  0.4589  0.4638
              Bcc     0.0071    -0.514    -0.183    -0.171 -0.4358 -0.1728  0.8833
 
              Baa    -0.0480     3.474     1.239     1.159  0.7142 -0.6180 -0.3286
     8 O(17)  Bbb    -0.0108     0.784     0.280     0.262  0.4352  0.0244  0.9000
              Bcc     0.0588    -4.258    -1.519    -1.420  0.5482  0.7858 -0.2864
 
              Baa    -0.2339   -31.393   -11.202   -10.472  0.8041 -0.5905 -0.0687
     9 C(13)  Bbb    -0.2269   -30.449   -10.865   -10.157  0.0734 -0.0160  0.9972
              Bcc     0.4609    61.842    22.067    20.628  0.5899  0.8069 -0.0305
 
              Baa    -0.0147    -1.972    -0.704    -0.658  0.6400 -0.4646 -0.6120
    10 C(13)  Bbb    -0.0120    -1.613    -0.576    -0.538  0.7556  0.2357  0.6112
              Bcc     0.0267     3.585     1.279     1.196  0.1397  0.8536 -0.5019
 
              Baa    -0.1082   -57.705   -20.590   -19.248  0.4475 -0.2905  0.8458
    11 H(1)   Bbb    -0.0993   -53.007   -18.914   -17.681  0.7264 -0.4336 -0.5332
              Bcc     0.2075   110.712    39.505    36.929  0.5217  0.8530  0.0170
 
              Baa    -0.0293   -15.656    -5.587    -5.222  0.7987 -0.5640  0.2095
    12 H(1)   Bbb    -0.0075    -4.006    -1.429    -1.336  0.5937  0.6825 -0.4263
              Bcc     0.0369    19.662     7.016     6.559  0.0975  0.4648  0.8800
 
              Baa    -0.0067    -3.569    -1.274    -1.191 -0.3061  0.2194  0.9264
    13 H(1)   Bbb    -0.0038    -2.035    -0.726    -0.679  0.8241  0.5481  0.1425
              Bcc     0.0105     5.604     2.000     1.869 -0.4765  0.8071 -0.3486
 
              Baa    -0.0071    -3.798    -1.355    -1.267  0.7871 -0.5506 -0.2781
    14 H(1)   Bbb    -0.0036    -1.931    -0.689    -0.644  0.6163  0.7210  0.3167
              Bcc     0.0107     5.729     2.044     1.911  0.0262 -0.4207  0.9068
 
              Baa    -0.0053    -2.803    -1.000    -0.935 -0.5656  0.5129  0.6458
    15 H(1)   Bbb    -0.0029    -1.525    -0.544    -0.509  0.7962  0.1356  0.5896
              Bcc     0.0081     4.328     1.544     1.444  0.2148  0.8477 -0.4851
 

 ---------------------------------------------------------------------------------

 Calling FoFJK, ICntrl=    100127 FMM=F ISym2X=0 I1Cent= 0 IOpClX= 1 NMat=1 NMatS=1 NMatT=0.
 Full mass-weighted force constant matrix:
 Low frequencies ----1191.9389 -462.8542 -141.4938 -104.3365  -71.4163  -56.9838
 Low frequencies ---   -8.9322   -0.0007   -0.0007
 ******    4 imaginary frequencies (negative Signs) ****** 
 Diagonal vibrational polarizability:
       58.2353953     175.0609080     277.2770316
 Harmonic frequencies (cm**-1), IR intensities (KM/Mole), Raman scattering
 activities (A**4/AMU), depolarization ratios for plane and unpolarized
 incident light, reduced masses (AMU), force constants (mDyne/A),
 and normal coordinates:
                      1                      2                      3
                      A                      A                      A
 Frequencies --  -1191.9384              -461.3969              -119.1372
 Red. masses --      1.1928                 1.0556                 7.2269
 Frc consts  --      0.9985                 0.1324                 0.0604
 IR Inten    --   1802.5212               139.7989                10.9397
  Atom  AN      X      Y      Z        X      Y      Z        X      Y      Z
     1   8    -0.05  -0.09  -0.01    -0.01   0.00  -0.05    -0.23   0.02   0.25
     2   1     0.10   0.12  -0.00     0.17  -0.18   0.96    -0.47  -0.35   0.18
     3   6     0.00  -0.00   0.00    -0.00   0.00  -0.01     0.09   0.06   0.01
     4   1     0.00   0.00   0.00    -0.00   0.00  -0.02     0.09   0.04   0.06
     5   6     0.00   0.00  -0.00    -0.00   0.00  -0.01     0.09   0.08  -0.05
     6   6    -0.01   0.00  -0.00     0.00   0.00  -0.00     0.06   0.02  -0.01
     7   8     0.00   0.00   0.00     0.00  -0.00   0.01     0.00  -0.12   0.33
     8   8     0.01  -0.00   0.00     0.00  -0.00   0.00     0.09   0.08  -0.31
     9   6    -0.02   0.01   0.02    -0.00  -0.00  -0.01     0.07  -0.04  -0.17
    10   6     0.02   0.02  -0.01     0.00   0.01   0.01    -0.08  -0.05  -0.12
    11   1     0.39   0.84   0.15    -0.01   0.02  -0.10     0.16  -0.04  -0.08
    12   1     0.16   0.20  -0.08    -0.01  -0.02   0.00     0.14  -0.03  -0.18
    13   1     0.00   0.00  -0.00     0.00   0.01   0.01    -0.08  -0.10  -0.03
    14   1    -0.01  -0.01   0.01     0.00   0.01   0.01    -0.13  -0.04  -0.12
    15   1    -0.02   0.03  -0.04     0.00   0.01   0.01    -0.13  -0.02  -0.16
                      4                      5                      6
                      A                      A                      A
 Frequencies --    -97.1052                26.7269                87.9137
 Red. masses --      5.0734                 3.8801                 3.7771
 Frc consts  --      0.0282                 0.0016                 0.0172
 IR Inten    --     15.4014                 7.2632                10.9468
  Atom  AN      X      Y      Z        X      Y      Z        X      Y      Z
     1   8     0.36  -0.06   0.09     0.03  -0.06  -0.02     0.01  -0.01   0.13
     2   1     0.61   0.35   0.10     0.03  -0.09   0.01     0.04   0.08   0.05
     3   6    -0.11  -0.10  -0.00     0.03  -0.12   0.25     0.16   0.20   0.06
     4   1    -0.13  -0.13   0.01     0.04  -0.20   0.48     0.32   0.43   0.13
     5   6    -0.09  -0.06  -0.02     0.02  -0.02  -0.01    -0.04  -0.07  -0.02
     6   6    -0.05  -0.02   0.02     0.02   0.03  -0.13    -0.08  -0.13  -0.05
     7   8     0.02  -0.09   0.17     0.02   0.03  -0.12    -0.07  -0.12  -0.07
     8   8    -0.10   0.09  -0.10     0.02   0.06  -0.19    -0.09  -0.10  -0.03
     9   6    -0.07   0.13  -0.07     0.02  -0.03   0.02    -0.05   0.00  -0.06
    10   6    -0.07   0.07  -0.11    -0.15   0.10   0.21     0.15   0.20   0.02
    11   1    -0.10   0.10  -0.00     0.07  -0.06  -0.01    -0.15   0.05  -0.16
    12   1    -0.03   0.17  -0.09     0.12  -0.16   0.07    -0.07  -0.12  -0.00
    13   1    -0.03   0.17  -0.09    -0.15   0.00   0.38     0.18   0.29  -0.01
    14   1    -0.16  -0.00  -0.06    -0.22   0.24   0.13     0.17   0.34  -0.06
    15   1    -0.01   0.01  -0.22    -0.22   0.16   0.26     0.26   0.13   0.20
                      7                      8                      9
                      A                      A                      A
 Frequencies --    108.7672               174.2012               251.0870
 Red. masses --      2.3221                 1.2717                 3.9830
 Frc consts  --      0.0162                 0.0227                 0.1479
 IR Inten    --      6.0779                 1.6172                 4.9768
  Atom  AN      X      Y      Z        X      Y      Z        X      Y      Z
     1   8     0.00  -0.11   0.08     0.00  -0.02   0.00    -0.04  -0.13   0.02
     2   1    -0.05  -0.16  -0.02    -0.02  -0.04  -0.01    -0.11  -0.21  -0.05
     3   6    -0.12  -0.11  -0.05    -0.04  -0.03  -0.00     0.03   0.05  -0.11
     4   1    -0.23  -0.25  -0.11    -0.09  -0.10  -0.01     0.04   0.25  -0.48
     5   6     0.01   0.06   0.03     0.01   0.05   0.01     0.00  -0.16   0.27
     6   6     0.01   0.07   0.02    -0.00   0.02  -0.00     0.04  -0.04   0.16
     7   8    -0.07   0.07   0.00    -0.08   0.03   0.00     0.16   0.06  -0.09
     8   8     0.05   0.00  -0.01     0.02  -0.03  -0.02     0.01   0.09  -0.02
     9   6    -0.00  -0.06  -0.08     0.02  -0.03  -0.01    -0.06  -0.01  -0.12
    10   6     0.13   0.11   0.00     0.06   0.02   0.02    -0.12   0.09  -0.02
    11   1     0.01  -0.08  -0.24     0.01  -0.03  -0.03    -0.00  -0.10  -0.22
    12   1    -0.13  -0.19  -0.01     0.03  -0.06   0.00    -0.19  -0.09  -0.07
    13   1    -0.01  -0.12  -0.18     0.32   0.47   0.28    -0.00   0.23   0.21
    14   1     0.49   0.31  -0.14    -0.46  -0.06   0.10    -0.40   0.17  -0.04
    15   1     0.02   0.25   0.39     0.38  -0.30  -0.30    -0.01  -0.01  -0.11
                     10                     11                     12
                      A                      A                      A
 Frequencies --    268.9859               420.1668               557.6605
 Red. masses --      4.4057                 3.5593                 4.8379
 Frc consts  --      0.1878                 0.3702                 0.8864
 IR Inten    --      6.5705                 6.9326                 7.6952
  Atom  AN      X      Y      Z        X      Y      Z        X      Y      Z
     1   8    -0.07  -0.17  -0.00     0.00   0.02   0.01    -0.05  -0.09  -0.01
     2   1    -0.14  -0.24  -0.08     0.02   0.07  -0.05    -0.01  -0.03   0.01
     3   6     0.00   0.01   0.10     0.08  -0.07  -0.00     0.22  -0.14  -0.07
     4   1     0.08  -0.02   0.44     0.02  -0.24   0.12     0.06  -0.34  -0.19
     5   6    -0.09   0.02  -0.25     0.14   0.08  -0.10     0.32   0.04   0.04
     6   6    -0.00   0.09  -0.08     0.06  -0.03   0.01     0.04  -0.04  -0.04
     7   8     0.26   0.02   0.07    -0.05  -0.03   0.02    -0.13  -0.05  -0.02
     8   8    -0.05   0.10   0.14     0.05  -0.13   0.22    -0.12   0.16  -0.01
     9   6    -0.13  -0.03   0.00    -0.01   0.03  -0.16    -0.18   0.13   0.16
    10   6     0.06   0.01  -0.05    -0.18   0.13  -0.06    -0.01   0.02  -0.02
    11   1    -0.10  -0.17  -0.19    -0.02   0.07  -0.21    -0.18  -0.13   0.03
    12   1    -0.37  -0.12   0.06    -0.18   0.04  -0.16    -0.24   0.04   0.21
    13   1     0.16   0.28  -0.09    -0.17  -0.02   0.31    -0.01   0.22  -0.41
    14   1    -0.05  -0.02  -0.02    -0.42   0.32  -0.15     0.22  -0.22   0.10
    15   1     0.27  -0.17  -0.08    -0.33   0.25  -0.09     0.17  -0.13  -0.05
                     13                     14                     15
                      A                      A                      A
 Frequencies --    598.6485               658.9199               778.6695
 Red. masses --      2.4800                 2.4430                 3.1959
 Frc consts  --      0.5237                 0.6249                 1.1417
 IR Inten    --     15.6421                59.5647                63.4600
  Atom  AN      X      Y      Z        X      Y      Z        X      Y      Z
     1   8    -0.03   0.05   0.01    -0.04   0.04   0.01    -0.01  -0.02   0.00
     2   1     0.36   0.69   0.06     0.36   0.68   0.05     0.04   0.07   0.02
     3   6    -0.03   0.03   0.01     0.09  -0.07  -0.03    -0.00   0.04  -0.07
     4   1    -0.22  -0.22  -0.11     0.30   0.22   0.07    -0.02  -0.38   0.80
     5   6     0.09   0.18   0.08    -0.02  -0.19  -0.07    -0.01   0.06  -0.14
     6   6    -0.03  -0.01  -0.01     0.05   0.09   0.03     0.01  -0.15   0.35
     7   8     0.15  -0.02  -0.01    -0.09   0.10   0.04    -0.00   0.03  -0.09
     8   8    -0.05  -0.08  -0.06     0.05   0.07   0.01    -0.00   0.04  -0.08
     9   6    -0.11  -0.13  -0.03    -0.05  -0.12  -0.05     0.01   0.01  -0.00
    10   6    -0.01  -0.04   0.02     0.00  -0.05   0.02     0.00  -0.00  -0.00
    11   1    -0.27   0.11   0.02    -0.16   0.09  -0.08    -0.03  -0.03   0.04
    12   1    -0.08  -0.16  -0.02    -0.18  -0.19  -0.01     0.07   0.02  -0.01
    13   1     0.02   0.04  -0.01     0.03  -0.01   0.06     0.00   0.01  -0.03
    14   1     0.02   0.06  -0.04    -0.02   0.05  -0.04     0.03  -0.02   0.01
    15   1     0.08  -0.10   0.16     0.05  -0.09   0.12     0.03  -0.02   0.00
                     16                     17                     18
                      A                      A                      A
 Frequencies --    800.2883               815.6992               872.8584
 Red. masses --      1.5656                 1.4340                 1.8504
 Frc consts  --      0.5908                 0.5621                 0.8306
 IR Inten    --    242.2251                76.8449                38.7586
  Atom  AN      X      Y      Z        X      Y      Z        X      Y      Z
     1   8    -0.07  -0.08   0.01    -0.00  -0.01   0.00     0.01   0.01   0.00
     2   1     0.23   0.43  -0.01     0.00   0.01   0.00    -0.03  -0.05  -0.01
     3   6    -0.03   0.03   0.02    -0.10  -0.12  -0.05    -0.00   0.06  -0.17
     4   1    -0.08  -0.01  -0.03     0.54   0.75   0.31     0.03  -0.35   0.88
     5   6    -0.03   0.02   0.01     0.05   0.09   0.03     0.01  -0.06   0.14
     6   6     0.03  -0.02  -0.02     0.00  -0.01   0.01    -0.01   0.05  -0.12
     7   8    -0.01  -0.03  -0.01     0.02  -0.01  -0.01     0.00  -0.01   0.03
     8   8     0.02   0.01   0.00    -0.00  -0.02  -0.01    -0.00  -0.01   0.02
     9   6     0.12   0.10   0.02    -0.01   0.02   0.01    -0.01  -0.01  -0.00
    10   6     0.03   0.03   0.01    -0.01   0.01  -0.00     0.00  -0.00   0.01
    11   1    -0.18  -0.05  -0.39    -0.03  -0.02  -0.01     0.03   0.06  -0.07
    12   1    -0.11  -0.31   0.22     0.01  -0.01   0.03    -0.06  -0.05   0.02
    13   1    -0.06  -0.18   0.01    -0.01   0.02  -0.05    -0.01  -0.02   0.01
    14   1    -0.02  -0.29   0.18     0.02  -0.03   0.02    -0.01  -0.03   0.02
    15   1    -0.19   0.16  -0.39    -0.00   0.01  -0.03    -0.02   0.01  -0.03
                     19                     20                     21
                      A                      A                      A
 Frequencies --    900.3386               905.2006               969.7126
 Red. masses --      2.9474                 1.5291                 3.1635
 Frc consts  --      1.4077                 0.7382                 1.7527
 IR Inten    --     49.0988               648.2826                24.8164
  Atom  AN      X      Y      Z        X      Y      Z        X      Y      Z
     1   8    -0.03  -0.03  -0.00    -0.07  -0.10  -0.01     0.01   0.04   0.00
     2   1     0.12   0.21   0.04     0.17   0.27   0.06     0.04   0.07   0.01
     3   6    -0.07   0.02   0.00     0.00   0.01  -0.01    -0.10   0.07   0.03
     4   1    -0.03   0.07   0.06    -0.01  -0.03   0.06    -0.13   0.05   0.03
     5   6     0.00   0.07   0.04    -0.02  -0.03   0.01    -0.08   0.02   0.01
     6   6     0.03  -0.10  -0.06     0.04   0.04  -0.02     0.15  -0.08  -0.04
     7   8    -0.05  -0.14  -0.05     0.00   0.03   0.02    -0.05  -0.11  -0.05
     8   8    -0.01   0.23   0.09     0.01  -0.07  -0.01     0.21   0.05   0.03
     9   6     0.08  -0.00  -0.09     0.06   0.07   0.03    -0.07  -0.08   0.09
    10   6     0.06  -0.12   0.02    -0.04   0.04  -0.05    -0.15   0.09  -0.06
    11   1     0.06  -0.13   0.15    -0.22  -0.42   0.48     0.16  -0.00   0.05
    12   1    -0.10   0.33  -0.23     0.34   0.35  -0.11    -0.09  -0.22   0.16
    13   1     0.16  -0.15   0.46     0.02   0.18  -0.08    -0.12   0.46  -0.58
    14   1    -0.13   0.34  -0.21     0.04   0.21  -0.15     0.18  -0.01  -0.03
    15   1     0.05  -0.05   0.36     0.09  -0.03   0.17     0.21  -0.20   0.07
                     22                     23                     24
                      A                      A                      A
 Frequencies --   1132.5514              1161.8842              1205.4501
 Red. masses --      3.0064                 2.2222                 1.6501
 Frc consts  --      2.2720                 1.7675                 1.4127
 IR Inten    --     30.8362                36.9490                 0.5389
  Atom  AN      X      Y      Z        X      Y      Z        X      Y      Z
     1   8    -0.01  -0.01   0.00    -0.00  -0.00   0.00    -0.00  -0.00  -0.00
     2   1    -0.02  -0.02  -0.04     0.03   0.05  -0.00    -0.01  -0.02   0.03
     3   6    -0.03   0.02   0.01     0.03  -0.02  -0.01    -0.02   0.01   0.01
     4   1    -0.03   0.02   0.01     0.03  -0.02  -0.01    -0.02   0.01   0.01
     5   6    -0.03  -0.01  -0.01     0.02   0.01   0.00    -0.01   0.00   0.00
     6   6     0.10   0.00  -0.00    -0.08   0.01   0.00     0.06  -0.01  -0.01
     7   8    -0.01   0.01   0.01     0.01   0.00   0.00    -0.01  -0.02  -0.01
     8   8     0.08  -0.10  -0.03    -0.09   0.05   0.07     0.03   0.02   0.02
     9   6    -0.11   0.26  -0.13     0.17  -0.05  -0.16    -0.12  -0.05  -0.11
    10   6    -0.03  -0.14   0.18    -0.10   0.02   0.11     0.08   0.08   0.09
    11   1    -0.04   0.10  -0.42     0.14   0.03  -0.04    -0.14  -0.19   0.49
    12   1    -0.29   0.34  -0.18     0.37  -0.16  -0.13     0.12   0.20  -0.24
    13   1     0.04   0.13  -0.04    -0.11   0.30  -0.47    -0.09  -0.24  -0.06
    14   1     0.22  -0.14   0.17     0.34  -0.25   0.22     0.01  -0.37   0.35
    15   1     0.23  -0.33   0.36     0.25  -0.28   0.01    -0.11   0.16  -0.40
                     25                     26                     27
                      A                      A                      A
 Frequencies --   1316.8609              1335.7103              1396.4658
 Red. masses --      1.2556                 4.2787                 1.2626
 Frc consts  --      1.2829                 4.4977                 1.4507
 IR Inten    --     83.0687               555.7980                 2.3015
  Atom  AN      X      Y      Z        X      Y      Z        X      Y      Z
     1   8    -0.01   0.00  -0.00     0.01   0.01  -0.00    -0.00   0.00   0.00
     2   1     0.07   0.09   0.05    -0.05  -0.11   0.02     0.03   0.06  -0.00
     3   6     0.02  -0.01  -0.01    -0.06   0.04   0.02     0.01  -0.01  -0.00
     4   1     0.02  -0.02  -0.01    -0.06   0.06   0.03     0.01  -0.01  -0.00
     5   6     0.01  -0.00  -0.00    -0.02   0.00   0.00     0.00   0.00   0.00
     6   6    -0.11   0.00   0.01     0.41   0.02   0.00    -0.05   0.01   0.00
     7   8     0.01  -0.00  -0.00    -0.03   0.03   0.01     0.01  -0.00  -0.00
     8   8     0.04  -0.02  -0.01    -0.27  -0.06  -0.03     0.01  -0.01  -0.03
     9   6     0.02   0.07  -0.05     0.10  -0.05  -0.03     0.08  -0.08   0.06
    10   6     0.00  -0.00   0.01    -0.01   0.00  -0.00    -0.01   0.04   0.04
    11   1     0.47  -0.17   0.55     0.28   0.19   0.40     0.06  -0.09  -0.22
    12   1    -0.54  -0.30   0.17    -0.62  -0.18   0.10    -0.57   0.67  -0.25
    13   1     0.02   0.03   0.00     0.00   0.04  -0.02    -0.06   0.05  -0.16
    14   1     0.03   0.01   0.00     0.04   0.05  -0.04     0.05   0.02   0.04
    15   1     0.00  -0.00  -0.00     0.00  -0.01  -0.05    -0.01   0.01  -0.20
                     28                     29                     30
                      A                      A                      A
 Frequencies --   1450.1884              1518.0518              1522.3749
 Red. masses --      1.2394                 1.0493                 1.0422
 Frc consts  --      1.5357                 1.4247                 1.4232
 IR Inten    --     23.6203                 5.9663                 9.5222
  Atom  AN      X      Y      Z        X      Y      Z        X      Y      Z
     1   8     0.00  -0.00  -0.00     0.00  -0.00  -0.00    -0.00   0.00   0.00
     2   1    -0.01  -0.02   0.00    -0.02  -0.04  -0.00     0.02   0.03  -0.00
     3   6    -0.00   0.00   0.00     0.00  -0.00  -0.00    -0.00   0.00   0.00
     4   1    -0.00   0.00   0.00     0.00  -0.00  -0.00    -0.00   0.00   0.00
     5   6    -0.00   0.00  -0.00     0.00  -0.00   0.00     0.00   0.00  -0.00
     6   6     0.00   0.00   0.00    -0.01   0.00   0.00     0.00   0.00   0.00
     7   8    -0.00  -0.00  -0.00    -0.00  -0.01  -0.00     0.00   0.00  -0.00
     8   8     0.00   0.00   0.00     0.01   0.00  -0.00    -0.01  -0.00   0.00
     9   6    -0.01   0.02  -0.01    -0.00  -0.01  -0.00     0.00  -0.02  -0.01
    10   6     0.04  -0.10   0.10    -0.05  -0.02  -0.01     0.03  -0.02  -0.04
    11   1    -0.07   0.04   0.04    -0.17   0.08   0.08     0.10  -0.07  -0.05
    12   1     0.08  -0.08   0.02    -0.03  -0.01  -0.00    -0.00   0.06  -0.05
    13   1     0.06   0.31  -0.46     0.23   0.34   0.47     0.20   0.45  -0.08
    14   1    -0.15   0.49  -0.23     0.66  -0.03  -0.05    -0.18  -0.39   0.21
    15   1    -0.36   0.20  -0.39    -0.19   0.09  -0.28    -0.39   0.39   0.44
                     31                     32                     33
                      A                      A                      A
 Frequencies --   1557.7794              1913.5109              2333.2050
 Red. masses --      1.1075                12.6380                 5.5492
 Frc consts  --      1.5835                27.2640                17.7985
 IR Inten    --     30.0640               306.5037                81.0221
  Atom  AN      X      Y      Z        X      Y      Z        X      Y      Z
     1   8    -0.01   0.01   0.00     0.00   0.00   0.00    -0.00  -0.00   0.00
     2   1     0.11   0.18   0.01    -0.00  -0.01  -0.00     0.00   0.00   0.00
     3   6    -0.00   0.00   0.00     0.07  -0.04  -0.02    -0.30   0.19   0.09
     4   1    -0.01   0.00   0.00     0.11  -0.05  -0.02    -0.63   0.39   0.18
     5   6    -0.00  -0.00  -0.00    -0.05   0.01   0.00     0.43  -0.27  -0.12
     6   6     0.03  -0.01  -0.00     0.02   0.74   0.31    -0.07   0.06   0.03
     7   8    -0.00   0.01   0.00    -0.01  -0.50  -0.21    -0.00  -0.01  -0.00
     8   8    -0.03  -0.01   0.00    -0.03  -0.04  -0.02    -0.01  -0.00  -0.00
     9   6    -0.07  -0.00   0.02    -0.01   0.02   0.01     0.00   0.00   0.00
    10   6     0.01  -0.00   0.00     0.01  -0.00  -0.01    -0.00   0.00  -0.00
    11   1     0.72  -0.41  -0.31     0.11  -0.03  -0.06     0.00  -0.01  -0.00
    12   1     0.29   0.06  -0.04     0.10  -0.00   0.03     0.00   0.00  -0.00
    13   1     0.03  -0.01   0.12    -0.01  -0.05   0.02     0.00  -0.00  -0.00
    14   1     0.14   0.07  -0.05    -0.03   0.01  -0.01    -0.00  -0.00   0.00
    15   1    -0.03   0.01  -0.19     0.03  -0.01   0.03     0.00  -0.00   0.00
                     34                     35                     36
                      A                      A                      A
 Frequencies --   3098.0802              3166.2849              3181.9541
 Red. masses --      1.0355                 1.0853                 1.0985
 Frc consts  --      5.8558                 6.4103                 6.5529
 IR Inten    --      4.1051                 6.4306                 4.2997
  Atom  AN      X      Y      Z        X      Y      Z        X      Y      Z
     1   8    -0.00  -0.00  -0.00     0.00   0.00   0.00     0.00  -0.00   0.00
     2   1     0.00   0.00   0.00     0.00   0.00  -0.00    -0.00   0.00  -0.00
     3   6    -0.00   0.00   0.00    -0.00  -0.00   0.00     0.00  -0.00   0.00
     4   1     0.00  -0.00  -0.00    -0.00   0.00   0.00    -0.00  -0.00   0.00
     5   6     0.00  -0.00  -0.00     0.00   0.00  -0.00    -0.00   0.00   0.00
     6   6    -0.00  -0.00  -0.00    -0.00  -0.00  -0.00     0.00  -0.00  -0.00
     7   8    -0.00   0.00  -0.00    -0.00   0.00   0.00    -0.00   0.00   0.00
     8   8     0.00   0.00   0.00     0.00  -0.00  -0.00     0.00  -0.00   0.00
     9   6    -0.00   0.00  -0.00    -0.00  -0.03  -0.07    -0.00  -0.01  -0.02
    10   6     0.00  -0.04   0.03     0.01   0.02   0.02    -0.08  -0.04  -0.02
    11   1     0.01   0.01  -0.00    -0.00  -0.00  -0.01     0.00   0.01  -0.00
    12   1     0.00  -0.00  -0.00     0.06   0.40   0.85     0.01   0.09   0.20
    13   1    -0.44   0.17   0.11     0.04  -0.01  -0.01     0.48  -0.22  -0.13
    14   1    -0.03  -0.26  -0.44    -0.01  -0.14  -0.23     0.01   0.21   0.39
    15   1     0.46   0.53  -0.06    -0.10  -0.12   0.02     0.43   0.52  -0.07
                     37                     38                     39
                      A                      A                      A
 Frequencies --   3201.5948              3532.0111              3819.8015
 Red. masses --      1.1006                 1.1795                 1.0659
 Frc consts  --      6.6468                 8.6694                 9.1635
 IR Inten    --      9.9879                55.2832                23.9091
  Atom  AN      X      Y      Z        X      Y      Z        X      Y      Z
     1   8    -0.00  -0.00  -0.00     0.00  -0.00  -0.00    -0.05   0.03   0.01
     2   1    -0.00  -0.00   0.00    -0.00  -0.00   0.00     0.83  -0.50  -0.24
     3   6     0.00  -0.00  -0.00    -0.10   0.06   0.03    -0.00   0.00   0.00
     4   1     0.00  -0.00   0.00     0.82  -0.51  -0.23     0.00  -0.00  -0.00
     5   6    -0.00  -0.00   0.00     0.03  -0.02  -0.01    -0.00   0.00  -0.00
     6   6     0.00   0.00   0.00    -0.00   0.00   0.00     0.00  -0.00   0.00
     7   8     0.00  -0.00  -0.00     0.00   0.00   0.00    -0.00  -0.00  -0.00
     8   8     0.00  -0.00  -0.00    -0.00  -0.00  -0.00    -0.00   0.00   0.00
     9   6     0.00   0.01   0.02    -0.00   0.00   0.00     0.00   0.00  -0.00
    10   6    -0.05   0.05   0.06     0.00   0.00  -0.00    -0.00  -0.00   0.00
    11   1     0.00  -0.00   0.00     0.00   0.00   0.00    -0.02  -0.01   0.00
    12   1    -0.02  -0.10  -0.22     0.00  -0.00   0.00    -0.00  -0.00   0.00
    13   1     0.62  -0.25  -0.14     0.00  -0.00   0.00     0.00  -0.00  -0.00
    14   1    -0.05  -0.34  -0.59    -0.00   0.00   0.00     0.00   0.00   0.00
    15   1    -0.03  -0.01   0.02    -0.00   0.00  -0.00     0.00  -0.00   0.00

 -------------------
 - Thermochemistry -
 -------------------
 Temperature   298.150 Kelvin.  Pressure   1.00000 Atm.
 Atom     1 has atomic number  8 and mass  15.99491
 Atom     2 has atomic number  1 and mass   1.00783
 Atom     3 has atomic number  6 and mass  12.00000
 Atom     4 has atomic number  1 and mass   1.00783
 Atom     5 has atomic number  6 and mass  12.00000
 Atom     6 has atomic number  6 and mass  12.00000
 Atom     7 has atomic number  8 and mass  15.99491
 Atom     8 has atomic number  8 and mass  15.99491
 Atom     9 has atomic number  6 and mass  12.00000
 Atom    10 has atomic number  6 and mass  12.00000
 Atom    11 has atomic number  1 and mass   1.00783
 Atom    12 has atomic number  1 and mass   1.00783
 Atom    13 has atomic number  1 and mass   1.00783
 Atom    14 has atomic number  1 and mass   1.00783
 Atom    15 has atomic number  1 and mass   1.00783
 Molecular mass:   115.03952 amu.
 Principal axes and moments of inertia in atomic units:
                           1         2         3
     Eigenvalues --   595.827561597.659372002.04027
           X            0.99929  -0.03746   0.00279
           Y            0.03751   0.99907  -0.02147
           Z           -0.00199   0.02156   0.99977
 This molecule is an asymmetric top.
 Rotational symmetry number  1.
 Warning -- assumption of classical behavior for rotation
           may cause significant error
 Rotational temperatures (Kelvin)      0.14537     0.05421     0.04326
 Rotational constants (GHZ):           3.02897     1.12962     0.90145
    4 imaginary frequencies ignored.
 Zero-point vibrational energy     281359.3 (Joules/Mol)
                                   67.24649 (Kcal/Mol)
 Warning -- explicit consideration of   9 degrees of freedom as
           vibrations may cause significant error
 Vibrational temperatures:     38.45   126.49   156.49   250.64   361.26
          (Kelvin)            387.01   604.53   802.35   861.32   948.04
                             1120.33  1151.44  1173.61  1255.85  1295.39
                             1302.38  1395.20  1629.49  1671.69  1734.37
                             1894.67  1921.79  2009.20  2086.50  2184.14
                             2190.36  2241.30  2753.12  3356.96  4457.45
                             4555.58  4578.12  4606.38  5081.78  5495.84
 
 Zero-point correction=                           0.107164 (Hartree/Particle)
 Thermal correction to Energy=                    0.115222
 Thermal correction to Enthalpy=                  0.116166
 Thermal correction to Gibbs Free Energy=         0.071992
 Sum of electronic and zero-point Energies=           -419.843358
 Sum of electronic and thermal Energies=              -419.835301
 Sum of electronic and thermal Enthalpies=            -419.834357
 Sum of electronic and thermal Free Energies=         -419.878531
 
                     E (Thermal)             CV                S
                      KCal/Mol        Cal/Mol-Kelvin    Cal/Mol-Kelvin
 Total                   72.303             26.984             92.972
 Electronic               0.000              0.000              1.377
 Translational            0.889              2.981             40.136
 Rotational               0.889              2.981             29.034
 Vibrational             70.525             21.022             22.424
 Vibration     1          0.593              1.984              6.059
 Vibration     2          0.601              1.958              3.706
 Vibration     3          0.606              1.942              3.291
 Vibration     4          0.627              1.874              2.390
 Vibration     5          0.663              1.761              1.723
 Vibration     6          0.673              1.730              1.603
 Vibration     7          0.783              1.426              0.891
 Vibration     8          0.913              1.123              0.529
 Vibration     9          0.957              1.035              0.452
                       Q            Log10(Q)             Ln(Q)
 Total Bot       0.769243D-33        -33.113937        -76.247657
 Total V=0       0.150691D+17         16.178086         37.251420
 Vib (Bot)       0.160481D-46        -46.794575       -107.748492
 Vib (Bot)    1  0.774802D+01          0.889191          2.047438
 Vib (Bot)    2  0.233955D+01          0.369133          0.849959
 Vib (Bot)    3  0.188352D+01          0.274970          0.633141
 Vib (Bot)    4  0.115525D+01          0.062677          0.144319
 Vib (Bot)    5  0.776905D+00         -0.109632         -0.252437
 Vib (Bot)    6  0.718852D+00         -0.143361         -0.330100
 Vib (Bot)    7  0.417850D+00         -0.378980         -0.872633
 Vib (Bot)    8  0.279339D+00         -0.553869         -1.275331
 Vib (Bot)    9  0.249774D+00         -0.602452         -1.387198
 Vib (V=0)       0.314374D+03          2.497447          5.750585
 Vib (V=0)    1  0.826414D+01          0.917198          2.111926
 Vib (V=0)    2  0.289238D+01          0.461256          1.062081
 Vib (V=0)    3  0.244875D+01          0.388945          0.895579
 Vib (V=0)    4  0.175881D+01          0.245219          0.564639
 Vib (V=0)    5  0.142389D+01          0.153478          0.353396
 Vib (V=0)    6  0.137564D+01          0.138505          0.318920
 Vib (V=0)    7  0.115161D+01          0.061306          0.141163
 Vib (V=0)    8  0.107274D+01          0.030494          0.070215
 Vib (V=0)    9  0.105892D+01          0.024862          0.057246
 Electronic      0.200000D+01          0.301030          0.693147
 Translational   0.484981D+08          7.685724         17.697035
 Rotational      0.494179D+06          5.693884         13.110653
 ***** Axes restored to original set *****
 -------------------------------------------------------------------
 Center     Atomic                   Forces (Hartrees/Bohr)
 Number     Number              X              Y              Z
 -------------------------------------------------------------------
      1        8           0.012074212   -0.006997450   -0.003496909
      2        1          -0.013212005    0.012047249    0.004703055
      3        6          -0.017445028    0.011305720    0.005090368
      4        1          -0.000803692    0.000273173    0.000137496
      5        6           0.021081334   -0.013327816   -0.006064713
      6        6          -0.030837790    0.042078924    0.018406198
      7        8           0.001801824   -0.046506475   -0.019786516
      8        8           0.006442928    0.012217763    0.005006515
      9        6           0.019805320   -0.001176828   -0.003351004
     10        6           0.000363220    0.000378003   -0.000479633
     11        1          -0.000546995   -0.007843874   -0.000989062
     12        1           0.000421535   -0.000554457   -0.001295366
     13        1           0.001166433   -0.000729120    0.000189218
     14        1           0.000169926    0.000352030    0.001246638
     15        1          -0.000481222   -0.001516842    0.000683713
 -------------------------------------------------------------------
 Cartesian Forces:  Max     0.046506475 RMS     0.013314357

 GradGradGradGradGradGradGradGradGradGradGradGradGradGradGradGradGradGrad
 Berny optimization.
 Search for a local minimum.
 Step number   1 out of a maximum of    2
 All quantities printed in internal units (Hartrees-Bohrs-Radians)
 Second derivative matrix not updated -- analytic derivatives used.
 ITU=  0
     Eigenvalues ---   -0.11970  -0.01156  -0.00682  -0.00192   0.00011
     Eigenvalues ---    0.00090   0.00133   0.00260   0.01142   0.01768
     Eigenvalues ---    0.02611   0.03303   0.04180   0.05665   0.06563
     Eigenvalues ---    0.07627   0.08117   0.08881   0.09888   0.10859
     Eigenvalues ---    0.10983   0.12283   0.15841   0.18136   0.21066
     Eigenvalues ---    0.27366   0.30988   0.37801   0.46423   0.53756
     Eigenvalues ---    0.68260   0.75289   0.79188   0.83395   0.90950
     Eigenvalues ---    0.92450   0.97101   1.87224   2.89345
 Eigenvalue     1 is  -1.20D-01 should be greater than     0.000000 Eigenvector:
                          Y11       Y1        X11       X1        Y12
   1                    0.70615  -0.47913   0.33250  -0.27849   0.12027
                          X9        Y10       X12       Z11       X10
   1                   -0.10611   0.08013   0.07492   0.07398   0.06229
 Eigenvalue     2 is  -1.16D-02 should be greater than     0.000000 Eigenvector:
                          Z2        Z1        Z7        Y2        Z8
   1                    0.81919  -0.41611  -0.16614  -0.15340   0.14958
                          X2        X1        Z12       Y7        Z11
   1                    0.14025  -0.08314   0.07863   0.07698  -0.07264
 Eigenvalue     3 is  -6.82D-03 should be greater than     0.000000 Eigenvector:
                          Z7        Z2        Z8        Y7        Z1
   1                    0.58423   0.39708  -0.35706  -0.23568   0.22868
                          Z15       Z12       Z9        Y8        Z10
   1                   -0.20140  -0.17589  -0.16505   0.14589  -0.13815
 Eigenvalue     4 is  -1.92D-03 should be greater than     0.000000 Eigenvector:
                          X2        X1        Y2        X4        X3
   1                    0.69520   0.41859   0.33598  -0.14244  -0.13322
                          Y13       Y4        X11       Y1        X8
   1                    0.13101  -0.12925  -0.12620  -0.11711  -0.11624
 Quadratic step=5.066D-01 exceeds max=3.000D-01 adjusted using Lamda=-9.588D-04.
 Angle between NR and scaled steps=  31.54 degrees.
 Angle between quadratic step and forces=  73.38 degrees.
 Linear search not attempted -- first point.
 B after Tr=    -0.009542   -0.008158   -0.003229
         Rot=    1.000000    0.000136    0.000129   -0.000029 Ang=   0.02 deg.
 Variable       Old X    -DE/DX   Delta X   Delta X   Delta X     New X
                                 (Linear)    (Quad)   (Total)
    X1        5.10148   0.01207   0.00000   0.05852   0.04890   5.15037
    Y1        3.30384  -0.00700   0.00000   0.01108   0.00311   3.30696
    Z1       -0.43251  -0.00350   0.00000   0.02039   0.01759  -0.41492
    X2        3.56233  -0.01321   0.00000   0.11179   0.10198   3.66431
    Y2        4.20158   0.01205   0.00000   0.15829   0.15036   4.35194
    Z2        0.00423   0.00470   0.00000   0.04438   0.04091   0.04514
    X3       -5.92302  -0.01745   0.00000  -0.03364  -0.04351  -5.96653
    Y3        1.92751   0.01131   0.00000   0.03765   0.02937   1.95687
    Z3        0.79828   0.00509   0.00000   0.01060   0.00530   0.80358
    X4       -7.58705  -0.00080   0.00000  -0.01245  -0.02250  -7.60955
    Y4        2.95921   0.00027   0.00000   0.06874   0.06049   3.01970
    Z4        1.26461   0.00014   0.00000   0.02720   0.02119   1.28580
    X5       -4.05287   0.02108   0.00000  -0.05382  -0.06347  -4.11635
    Y5        0.76512  -0.01333   0.00000  -0.01936  -0.02768   0.73744
    Z5        0.27348  -0.00606   0.00000  -0.01393  -0.01842   0.25506
    X6       -1.84413  -0.03084   0.00000  -0.07802  -0.08742  -1.93154
    Y6       -0.72572   0.04208   0.00000  -0.01433  -0.02271  -0.74843
    Z6       -0.39508   0.01841   0.00000  -0.00397  -0.00750  -0.40257
    X7       -1.92749   0.00180   0.00000  -0.03606  -0.04511  -1.97259
    Y7       -2.80840  -0.04651   0.00000  -0.06925  -0.07787  -2.88627
    Z7       -1.27483  -0.01979   0.00000  -0.01185  -0.01480  -1.28963
    X8        0.29278   0.00644   0.00000  -0.02996  -0.03956   0.25322
    Y8        0.54494   0.01222   0.00000  -0.01014  -0.01826   0.52668
    Z8        0.10623   0.00501   0.00000  -0.01333  -0.01663   0.08960
    X9        2.59919   0.01981   0.00000   0.03905   0.02968   2.62887
    Y9       -0.71588  -0.00118   0.00000  -0.00389  -0.01203  -0.72792
    Z9       -0.49673  -0.00335   0.00000  -0.01778  -0.02014  -0.51686
   X10        3.46148   0.00036   0.00000   0.03641   0.02661   3.48809
   Y10       -2.46054   0.00038   0.00000   0.00301  -0.00452  -2.46507
   Z10        1.57692  -0.00048   0.00000   0.00014  -0.00152   1.57541
   X11        4.06622  -0.00055   0.00000  -0.03125  -0.04068   4.02554
   Y11        1.00600  -0.00784   0.00000  -0.05778  -0.06589   0.94011
   Z11       -0.66860  -0.00099   0.00000  -0.00645  -0.00890  -0.67750
   X12        2.47767   0.00042   0.00000   0.03368   0.02484   2.50251
   Y12       -1.57907  -0.00055   0.00000  -0.01135  -0.02001  -1.59908
   Z12       -2.36384  -0.00130   0.00000  -0.01834  -0.02049  -2.38433
   X13        5.31696   0.00117   0.00000   0.06347   0.05381   5.37078
   Y13       -3.22966  -0.00073   0.00000   0.03982   0.03228  -3.19738
   Z13        1.11519   0.00019   0.00000   0.02493   0.02395   1.13915
   X14        3.59011   0.00017   0.00000   0.00574  -0.00458   3.58552
   Y14       -1.44130   0.00035   0.00000   0.01523   0.00820  -1.43310
   Z14        3.36362   0.00125   0.00000   0.00062  -0.00130   3.36232
   X15        2.12912  -0.00048   0.00000   0.07077   0.06101   2.19013
   Y15       -4.02689  -0.00152   0.00000  -0.02729  -0.03484  -4.06173
   Z15        1.77663   0.00068   0.00000   0.00231   0.00075   1.77738
         Item               Value     Threshold  Converged?
 Maximum Force            0.046506     0.000450     NO 
 RMS     Force            0.013314     0.000300     NO 
 Maximum Displacement     0.150360     0.001800     NO 
 RMS     Displacement     0.044182     0.001200     NO 
 Predicted change in Energy=-4.426280D-03
 GradGradGradGradGradGradGradGradGradGradGradGradGradGradGradGradGradGrad


 ----------------------------------------------------------------------

 Electric dipole moment (input orientation):
 (Debye = 10**-18 statcoulomb cm , SI units = C m)
                  (au)            (Debye)         (10**-30 SI)
   Tot        0.928308D+00      0.235952D+01      0.787053D+01
   x         -0.721501D+00     -0.183387D+01     -0.611714D+01
   y          0.307442D+00      0.781439D+00      0.260660D+01
   z          0.496661D+00      0.126239D+01      0.421087D+01

 Dipole polarizability, Alpha (input orientation).
 (esu units = cm**3 , SI units = C**2 m**2 J**-1)
 Alpha(0;0):
               (au)            (10**-24 esu)      (10**-40 SI)
   iso        0.734572D+02      0.108852D+02      0.121115D+02
   aniso      0.414617D+02      0.614399D+01      0.683611D+01
   xx         0.913078D+02      0.135304D+02      0.150546D+02
   yx         0.843378D+00      0.124976D+00      0.139054D+00
   yy         0.816116D+02      0.120936D+02      0.134559D+02
   zx        -0.477305D+01     -0.707292D+00     -0.786969D+00
   zy         0.433919D+01      0.643002D+00      0.715436D+00
   zz         0.474521D+02      0.703167D+01      0.782379D+01

 ----------------------------------------------------------------------

 Dipole orientation:
     8          3.31175630          4.06646843         -3.10219573
     1          2.86829463          4.49731661         -1.37495419
     6         -2.64848361          0.53218064          5.66895109
     1         -3.12221919          1.05668582          7.55345227
     6         -2.11709411         -0.05973918          3.54969652
     6         -1.54716452         -0.85225621          0.98157477
     8         -2.63072616         -2.50874320         -0.11407263
     8          0.35151142          0.51991634          0.00975836
     6          1.07022439         -0.06436823         -2.52299637
     6          2.91230480         -2.22653270         -2.66155063
     1          2.11508923          1.83740699         -3.18489406
     1         -0.59938123         -0.26790054         -3.71335678
     1          3.54976362         -2.47663461         -4.60542515
     1          4.54988537         -1.85027252         -1.46805017
     1          1.99682692         -3.97051605         -2.03791035

 Electric dipole moment (dipole orientation):
 (Debye = 10**-18 statcoulomb cm , SI units = C m)
                  (au)            (Debye)         (10**-30 SI)
   Tot        0.928308D+00      0.235952D+01      0.787053D+01
   x          0.000000D+00      0.000000D+00      0.000000D+00
   y          0.000000D+00      0.000000D+00      0.000000D+00
   z          0.928308D+00      0.235952D+01      0.787053D+01

 Dipole polarizability, Alpha (dipole orientation).
 (esu units = cm**3 , SI units = C**2 m**2 J**-1)
 Alpha(0;0):
               (au)            (10**-24 esu)      (10**-40 SI)
   iso        0.734572D+02      0.108852D+02      0.121115D+02
   aniso      0.414617D+02      0.614399D+01      0.683611D+01
   xx         0.613460D+02      0.909054D+01      0.101146D+02
   yx         0.135047D+02      0.200119D+01      0.222662D+01
   yy         0.762616D+02      0.113008D+02      0.125738D+02
   zx        -0.158746D+02     -0.235238D+01     -0.261737D+01
   zy         0.425009D+01      0.629798D+00      0.700745D+00
   zz         0.827640D+02      0.122644D+02      0.136459D+02

 ----------------------------------------------------------------------
 1\1\GINC-AJ\Freq\UM062X\6-31+G\C5H7O3(2)\AAYUSH\20-Jun-2025\0\\# freq 
 6-31+g m062x\\Title Card Required\\0,2\O,2.699585,1.748319,-0.228876\H
 ,1.885103,2.22338,0.00224\C,-3.134327,1.019992,0.422431\H,-4.014893,1.
 565947,0.669205\C,-2.144689,0.404886,0.144721\C,-0.975869,-0.384033,-0
 .209065\O,-1.019982,-1.486143,-0.674611\O,0.154933,0.288371,0.056217\C
 ,1.375434,-0.378829,-0.262857\C,1.831737,-1.302064,0.834472\H,2.151751
 ,0.532354,-0.353809\H,1.311126,-0.83561,-1.250889\H,2.813616,-1.709064
 ,0.590135\H,1.899803,-0.762702,1.77995\H,1.126681,-2.130937,0.940154\\
 Version=ES64L-G16RevA.03\State=2-A\HF=-419.9505225\S2=0.759334\S2-1=0.
 \S2A=0.75004\RMSD=8.218e-09\RMSF=1.331e-02\ZeroPoint=0.1071641\Thermal
 =0.1152216\Dipole=-0.7215012,0.3074416,0.4966611\DipoleDeriv=-0.102095
 9,0.231108,-0.0694754,0.2374008,0.1397884,0.0241264,-0.0255063,0.10102
 26,-0.531152,0.1131163,0.0417416,0.0697923,0.2177542,0.4220908,-0.0404
 112,0.0856571,-0.0057103,0.3621427,-0.2328094,-0.016973,-0.0055832,0.0
 129771,-0.1987506,0.0024941,0.0006739,0.0034367,-0.2075984,0.2717549,0
 .0048478,0.0018832,-0.00292,0.262533,0.0052881,-0.0005811,0.0058304,0.
 2540995,-0.5764549,0.2052677,0.0985214,0.2603345,-0.2485283,-0.0884306
 ,0.1250817,-0.0905817,-0.0900507,2.4950646,0.0046367,-0.0081306,0.2407
 795,1.4567427,0.4873651,0.1612422,0.5027411,0.6149708,-0.7954221,0.052
 4571,0.0228664,-0.1518605,-1.0019788,-0.2967288,-0.0949382,-0.2963594,
 -0.4789819,-2.1163872,-0.3527905,-0.1156937,-0.1367735,-0.5904217,-0.0
 815661,-0.0910391,-0.0638261,-0.4210595,1.4197697,0.6963826,-0.0129145
 ,0.1708219,0.998868,-0.1160083,-0.2124572,-0.2821668,0.339858,-0.22403
 9,-0.2123446,0.0277895,-0.0477966,-0.2799829,0.1061657,-0.0199226,0.10
 29611,-0.0728207,-0.3476426,-0.6423377,0.0379709,-0.7818081,-1.0530086
 ,0.0911036,-0.0340691,-0.055997,0.1687579,-0.044108,-0.0793963,-0.0739
 328,0.0011648,-0.0463873,-0.0312263,0.062015,0.0669689,-0.0413117,-0.0
 548965,0.0835127,0.0247422,0.0732091,0.0948396,0.001447,0.0387779,-0.0
 214014,0.0745735,0.1204453,0.025497,0.0013749,-0.0011548,0.045376,-0.0
 948596,-0.0229985,-0.0379083,-0.0389924,0.0737045,-0.0416092,0.0007891
 ,-0.0921284,-0.0011803,0.0312408,0.0280645,0.0709902,0.0675649\Polar=9
 1.3078204,0.8433785,81.6116296,-4.7730458,4.339193,47.45209\Quadrupole
 =0.546121,-0.3649408,-0.1811801,-9.4923127,-1.2335308,-0.3969579\PG=C0
 1 [X(C5H7O3)]\NImag=4\\0.38165506,-0.20768018,0.13865105,-0.10667044,0
 .06169744,0.02731878,-0.36640405,0.22190585,0.10631595,0.36490833,0.19
 538181,-0.13267757,-0.05978842,-0.21114252,0.14712233,0.10154219,-0.06
 463049,-0.02426686,-0.10430241,0.06560952,0.02293559,0.00006326,0.0001
 9087,0.00005903,0.00000584,0.00028474,0.00002595,1.14612875,-0.0000832
 8,-0.00010810,-0.00003178,0.00008125,-0.00021689,-0.00001846,-0.672471
 27,0.48570679,-0.00001867,-0.00008046,0.00006149,0.00002213,-0.0000740
 2,-0.00011147,-0.30398524,0.18507673,0.16130217,0.00001001,-0.00003883
 ,-0.00001719,-0.00004747,-0.00005489,0.00000418,-0.30699398,0.16973991
 ,0.07671730,0.29542584,0.00002681,0.00003253,0.00001298,-0.00000919,0.
 00009068,0.00000494,0.16969730,-0.13892619,-0.04633625,-0.17138673,0.1
 2527818,-0.00000955,0.00001960,-0.00004924,0.00001497,0.00001154,0.000
 05984,0.07666995,-0.04632003,-0.05811721,-0.07749050,0.04759194,0.0420
 5682,0.00016971,0.00049320,0.00007889,-0.00001055,0.00058303,0.0001000
 0,-0.84444749,0.49825538,0.22524114,0.01105212,-0.00077601,-0.00027026
 ,1.11195810,-0.00007104,-0.00022295,-0.00006454,-0.00001614,-0.0002616
 6,-0.00003860,0.49972358,-0.35729556,-0.13642791,-0.00050774,0.0113027
 9,-0.00124401,-0.61623897,0.51414832,0.00000542,0.00005564,-0.00000174
 ,-0.00006187,-0.00003628,0.00002228,0.22584329,-0.13636379,-0.11791480
 ,-0.00019154,-0.00124518,0.01380154,-0.27905626,0.18620194,0.18353995,
 -0.00037570,-0.00369701,-0.00090619,-0.00079804,-0.00455760,-0.0004471
 4,0.01148109,0.00201565,0.00096923,-0.00033215,0.00289474,0.00128618,-
 0.21711694,0.09038428,0.04037495,0.62541997,0.00036065,-0.00043402,0.0
 0005214,-0.00095204,-0.00103856,-0.00024937,0.00130436,0.01039506,-0.0
 0365740,0.00215242,0.00239668,-0.00060284,0.08481238,-0.13183403,-0.01
 191123,-0.00945107,0.96021259,-0.00043321,-0.00189213,-0.00071968,-0.0
 0007995,-0.00094139,0.00013129,0.00071069,-0.00374386,0.01727637,0.001
 00065,-0.00052302,0.00335335,0.03792569,-0.01278714,-0.11161480,-0.013
 24474,0.32174445,0.33884678,0.00005160,0.00026510,0.00021771,-0.000003
 77,0.00113215,0.00002473,-0.00475561,0.00040125,0.00018580,-0.00023532
 ,-0.00087789,-0.00038782,0.00606126,0.04036318,0.01771946,-0.08887095,
 -0.00587304,-0.00139604,0.09298627,-0.00046009,0.00028510,0.00022872,0
 .00071329,0.00150171,-0.00000518,-0.00049969,0.00100591,0.00125267,0.0
 0030589,0.00071051,0.00066543,0.02375184,-0.04770474,-0.03232532,-0.01
 068856,-0.71798486,-0.27673771,0.03566524,0.82487664,-0.00004748,0.000
 44823,0.00032299,0.00028111,0.00078068,-0.00002594,-0.00009585,0.00139
 977,-0.00152863,0.00010770,0.00062657,-0.00053459,0.01045506,-0.032757
 96,0.01380104,-0.00393923,-0.27836654,-0.18031221,0.01290243,0.3430120
 8,0.15785116,0.00291390,0.01090901,0.00206822,-0.00012808,0.00534317,0
 .00046038,-0.00232443,0.00279793,0.00122677,0.00120261,0.00020238,0.00
 004908,-0.06776887,-0.01029308,-0.00303685,-0.25957825,-0.09151450,-0.
 03612099,-0.00918597,-0.05741129,-0.02203736,0.58520297,-0.00244510,-0
 .00155890,-0.00045326,0.00155997,0.00134240,0.00048115,0.00273892,-0.0
 0141130,-0.00045650,-0.00040383,-0.00078646,-0.00016799,0.01347720,0.0
 1094442,-0.00154945,-0.06321153,-0.13374352,-0.03357946,-0.06400802,-0
 .05726388,-0.03537019,0.03581043,0.29933408,-0.00021005,-0.00054974,0.
 00112873,-0.00022087,-0.00007807,-0.00133367,0.00106849,-0.00060452,-0
 .00062245,-0.00017229,-0.00018816,-0.00039188,0.00726225,-0.00030788,0
 .01259448,-0.02300729,-0.03234393,-0.07225138,-0.02595332,-0.03557160,
 0.01514925,0.00561524,0.10290458,0.11950804,-0.03804657,-0.07536444,-0
 .00626638,0.00783637,-0.00093905,-0.00186152,0.00164341,-0.00159421,-0
 .00057525,-0.00030620,0.00039194,0.00017231,0.00333348,-0.00260057,-0.
 00196407,-0.08416710,0.00217624,0.00209827,0.00676822,0.01491928,0.006
 96752,-0.16195091,0.03780563,0.02492207,0.41700033,-0.04286289,-0.0825
 0574,-0.00653773,0.00258890,-0.00400643,-0.00145677,-0.00021447,0.0004
 6616,0.00053790,0.00006930,0.00012724,0.00008259,-0.00376245,-0.000512
 30,-0.00293393,-0.01445415,0.01725680,0.00640548,-0.00322873,-0.007348
 36,-0.00048448,0.09216450,-0.10580180,-0.02876251,-0.05137831,0.419513
 80,0.00608803,0.01162499,0.00301975,-0.00200701,0.00038974,0.00002345,
 -0.00037310,0.00084857,-0.00049744,0.00006345,0.00003696,-0.00021139,-
 0.00201579,-0.00326722,0.00679304,0.00198153,0.01104268,0.00586284,-0.
 00053271,-0.00274053,-0.00595076,0.03558331,-0.02759077,-0.08161824,0.
 02755956,0.05032750,0.58559281,0.00340887,0.00658345,0.00065735,-0.001
 33275,0.00033681,0.00097287,-0.00032266,0.00022122,0.00013015,0.000105
 53,-0.00001445,-0.00010762,-0.00118521,-0.00055713,0.00119721,0.006207
 53,0.00703733,0.00167306,-0.00032738,-0.00256934,-0.00171366,-0.031510
 81,0.03214629,-0.02569585,-0.07510328,0.02136792,-0.01996857,0.5859493
 1,0.00480454,0.00938698,0.00022145,-0.00111221,0.00025764,0.00097135,-
 0.00006584,-0.00007178,0.00002780,-0.00000264,-0.00002849,0.00002448,0
 .00040530,0.00038159,-0.00059121,-0.00102578,0.00012075,0.00041289,0.0
 0099997,-0.00006191,0.00127205,0.01315491,-0.01242191,0.01001586,0.032
 66065,-0.12018226,0.06145909,0.00591589,0.55027069,-0.00071017,-0.0019
 5390,0.00038213,0.00016589,-0.00011825,0.00005646,0.00018477,-0.000218
 19,0.00012746,-0.00003463,0.00000742,0.00001277,0.00008286,0.00067739,
 -0.00099634,-0.00148807,-0.00431680,-0.00049157,-0.00042949,0.00183691
 ,0.00056993,0.00728949,-0.00407338,0.01171156,-0.03338182,0.06224281,-
 0.17051800,-0.02245416,0.04716443,0.54960330,0.01611059,0.04489617,0.0
 0396463,-0.00364202,0.01326780,0.00394523,-0.00053894,0.00055524,0.000
 13145,0.00009643,-0.00010811,0.00001631,-0.00177847,-0.00003812,-0.000
 18049,0.00428527,0.00363414,0.00519173,-0.00028264,-0.00097885,-0.0010
 1725,-0.04548981,-0.01215562,0.00266906,-0.02405287,0.00225995,-0.0041
 1502,-0.00138239,-0.00378815,-0.00061467,0.05734083,0.05148192,0.06475
 661,0.00412391,-0.01319699,-0.01297124,-0.00065072,-0.00063088,0.00042
 940,0.00014432,0.00011807,-0.00018193,-0.00005291,-0.00143241,0.000919
 34,0.00044939,0.01402604,-0.00024179,0.00304342,-0.00281488,-0.0006127
 3,-0.00095257,-0.01105783,0.00881057,-0.00174735,0.03665740,-0.0061824
 8,-0.01474644,-0.02250583,-0.03014604,0.00523249,-0.04276029,-0.009554
 41,0.00232933,-0.00057965,-0.00835810,-0.00077811,-0.00579586,0.003344
 13,-0.00004260,-0.00000486,-0.00007601,0.00001260,-0.00001811,0.000009
 91,0.00017051,0.00004133,0.00036988,0.00073049,-0.00200484,-0.00072193
 ,-0.00118570,0.00057465,0.00037775,0.00735407,0.00414478,-0.00046150,0
 .00857585,0.00724485,-0.03744756,0.00860201,0.01595871,-0.00451809,-0.
 01183375,-0.00477073,0.04807114,0.00163294,0.00343258,0.00109689,-0.00
 077069,0.00049036,-0.00025889,-0.00000086,0.00010647,-0.00001581,0.000
 05634,-0.00005582,0.00005012,-0.00034502,-0.00007285,-0.00079753,0.004
 61263,0.00646850,0.00321631,-0.00123541,-0.00326226,-0.00092256,-0.015
 02707,0.02037012,0.03406020,-0.04665957,-0.00801346,-0.03439268,0.0024
 8862,-0.00531465,-0.00719459,-0.00343452,-0.01380736,-0.01379528,0.058
 12283,0.00238218,0.00451059,0.00136462,-0.00060851,0.00056705,-0.00030
 069,0.00004456,-0.00003054,0.00007417,-0.00000802,-0.00000079,0.000000
 02,0.00026858,-0.00006168,-0.00028253,-0.00243487,-0.00070831,-0.00093
 421,-0.00096710,0.00032610,0.00098415,0.00773970,-0.00877478,-0.014325
 93,-0.00011964,-0.09226436,-0.11157769,0.00200004,0.01049204,0.0230187
 7,-0.00686400,-0.01607983,-0.01669345,-0.00227987,0.10351576,-0.001863
 78,-0.00339653,0.00026599,0.00055150,0.00006668,-0.00011270,-0.0000467
 0,-0.00005447,0.00011350,-0.00000708,0.00000777,0.00000402,0.00023602,
 0.00037486,-0.00043075,-0.00266004,-0.00280494,0.00001904,-0.00152345,
 0.00146983,0.00087388,0.00494223,-0.00564053,-0.00355926,-0.01819097,-
 0.10571210,-0.27931155,-0.00324355,-0.01079549,-0.01758196,0.00286225,
 0.00684955,0.00058615,0.02015689,0.11694683,0.29968638,0.00000035,0.00
 005824,-0.00012651,-0.00002734,-0.00010869,-0.00000606,-0.00005391,0.0
 0004753,-0.00002840,0.00001957,-0.00001314,0.00000092,-0.00016798,-0.0
 0001949,0.00027462,0.00142146,0.00020428,0.00035030,-0.00024148,-0.000
 07814,-0.00048998,0.00018095,0.00066375,-0.00220578,-0.00943621,0.0017
 3559,0.00500462,-0.27445556,0.09459398,0.05620047,0.00026305,0.0003778
 0,0.00006358,0.00014199,-0.00012736,-0.00051114,0.29801495,-0.00060437
 ,-0.00022705,-0.00009482,0.00008577,0.00017250,-0.00009072,0.00006464,
 -0.00001497,-0.00004949,-0.00001828,0.00000099,0.00001417,0.00026368,0
 .00006567,-0.00003685,-0.00140069,-0.00242748,-0.00041891,-0.00016018,
 0.00111409,0.00006981,0.00427829,-0.00191490,0.00431071,0.01862756,-0.
 00856007,-0.00709823,0.09237294,-0.08546920,-0.02255444,0.00052466,0.0
 0053454,-0.00040148,-0.00035557,0.00063031,0.00013703,-0.10464853,0.09
 187261,0.00022650,0.00019912,-0.00005186,-0.00008529,-0.00000186,-0.00
 001991,-0.00008807,0.00007620,-0.00002572,0.00001401,0.00000765,-0.000
 01552,-0.00024706,-0.00027483,0.00041618,0.00114927,0.00188076,0.00010
 051,-0.00004437,-0.00074916,-0.00045581,-0.00476113,0.00447023,-0.0035
 9313,-0.02275058,0.00890347,0.00718363,0.05865143,-0.02396880,-0.06440
 230,-0.00027001,-0.00058404,0.00060599,0.00039086,-0.00114789,0.000218
 47,-0.06195186,0.02334716,0.06622889,-0.00021840,-0.00011330,-0.000298
 36,0.00009718,0.00002937,-0.00002652,0.00001065,0.00000177,0.00000487,
 -0.00002268,0.00001134,-0.00000707,0.00007299,0.00000151,0.00005100,-0
 .00104851,-0.00109711,-0.00081835,-0.00016705,0.00079595,0.00011064,0.
 00142310,-0.00094255,0.00089828,-0.00137831,-0.00477574,-0.01023686,-0
 .05045998,-0.00852841,-0.01418343,0.00020867,0.00058417,0.00070307,0.0
 0027170,0.00140988,-0.00126541,0.00281551,0.01509669,0.02746276,0.0494
 2469,-0.00008345,0.00012697,-0.00071842,0.00018326,-0.00017764,0.00027
 023,-0.00006035,-0.00000638,-0.00002278,0.00001230,0.00000774,-0.00000
 730,-0.00003786,0.00004569,0.00023294,0.00046455,0.00022493,-0.0002243
 8,-0.00028572,0.00002376,-0.00025828,-0.00250565,0.00110134,-0.0013517
 7,0.00256005,0.00962702,0.02500587,-0.00846637,-0.11982991,-0.12328740
 ,0.00033073,0.00161830,0.00021178,0.00168318,-0.00282002,0.00304841,-0
 .00234524,-0.00619477,-0.01025927,0.00840658,0.12792818,0.00033379,0.0
 0031435,0.00074653,-0.00009230,0.00016344,-0.00036178,-0.00002420,0.00
 003837,0.00004928,-0.00000636,-0.00000697,-0.00000868,-0.00004902,0.00
 003951,-0.00009561,-0.00021127,-0.00059373,-0.00023619,0.00001487,0.00
 042565,0.00020298,0.00120926,-0.00044282,0.00278914,-0.00113171,-0.012
 33349,-0.02693564,-0.01489721,-0.11965065,-0.25408960,-0.00054303,-0.0
 0107201,0.00011748,-0.00147808,0.00363760,-0.00154742,-0.00153035,-0.0
 0284630,-0.00518109,0.01734006,0.12958561,0.28093056,-0.00097157,-0.00
 184071,-0.00017361,0.00031704,-0.00004650,-0.00017298,0.00010488,-0.00
 007486,-0.00000547,-0.00003065,0.00001681,0.00001299,0.00017288,-0.000
 05742,-0.00017735,-0.00114030,0.00073746,-0.00007342,-0.00056176,-0.00
 020325,-0.00056110,0.00204067,-0.00140565,0.00096986,0.00451922,0.0085
 0403,-0.00263878,-0.16207982,-0.13269758,0.01656756,0.00229681,0.00496
 106,-0.00090609,0.00014609,-0.00043558,0.00056321,-0.01847536,-0.02412
 662,0.00230353,-0.00102958,0.00014400,0.00106555,0.17469144,-0.0001475
 3,-0.00001549,-0.00001231,-0.00008071,0.00029569,0.00010381,-0.0001064
 9,0.00007841,-0.00000877,0.00002308,-0.00002348,-0.00001471,-0.0000629
 0,0.00008509,0.00033586,0.00113599,-0.00219426,0.00017597,-0.00061133,
 0.00113267,-0.00040332,0.00038202,0.00214465,-0.00139969,-0.01380255,-
 0.01962720,0.00628549,-0.13386876,-0.20269819,0.01634214,0.00122444,-0
 .00109830,0.00209289,0.00061064,0.00069847,-0.00049688,0.00965942,0.01
 041775,-0.00189875,-0.01088014,-0.01167520,0.00274143,0.14652482,0.222
 47939,-0.00056190,-0.00127646,0.00020111,0.00027625,-0.00018744,-0.000
 34069,0.00009358,-0.00007968,-0.00003655,-0.00000032,0.00002145,0.0000
 3027,0.00008595,-0.00016495,-0.00028434,-0.00058767,0.00213158,0.00075
 758,0.00038788,-0.00133642,-0.00034106,0.00015827,-0.00267638,0.000950
 32,0.01582672,0.02247640,-0.00598492,0.01619655,0.01747802,-0.04986574
 ,-0.00020644,0.00473368,-0.00189923,-0.00011586,-0.00076375,0.00077622
 ,0.00495557,0.00571236,-0.00100832,-0.01973466,-0.02222524,0.00362006,
 -0.01677391,-0.02384315,0.05342530\\-0.01207421,0.00699745,0.00349691,
 0.01321201,-0.01204725,-0.00470305,0.01744503,-0.01130572,-0.00509037,
 0.00080369,-0.00027317,-0.00013750,-0.02108133,0.01332782,0.00606471,0
 .03083779,-0.04207892,-0.01840620,-0.00180182,0.04650648,0.01978652,-0
 .00644293,-0.01221776,-0.00500651,-0.01980532,0.00117683,0.00335100,-0
 .00036322,-0.00037800,0.00047963,0.00054699,0.00784387,0.00098906,-0.0
 0042154,0.00055446,0.00129537,-0.00116643,0.00072912,-0.00018922,-0.00
 016993,-0.00035203,-0.00124664,0.00048122,0.00151684,-0.00068371\\\@


 ALTHOUGH J.J. COULD DIAGNOSE THE FAULTS OF AN
 APPARATUS WITH UNCANNY ACCURACY, IT WAS JUST AS
 WELL NOT TO LET HIM HANDLE IT.
   -- GEORGE THOMPSON, ABOUT HIS FATHER
 Job cpu time:       0 days  0 hours 19 minutes  7.4 seconds.
 Elapsed time:       0 days  0 hours  0 minutes 47.9 seconds.
 File lengths (MBytes):  RWF=     59 Int=      0 D2E=      0 Chk=      8 Scr=      1
 Normal termination of Gaussian 16 at Fri Jun 20 12:34:45 2025.
