 Entering Gaussian System, Link 0=g16
 Initial command:
 /opt/g16/l1.exe "/home/aayush/scratches/g16/Gau-15430.inp" -scrdir="/home/aayush/scratches/g16/"
 Entering Link 1 = /opt/g16/l1.exe PID=     15433.
  
 Copyright (c) 1988,1990,1992,1993,1995,1998,2003,2009,2016,
            Gaussian, Inc.  All Rights Reserved.
  
 This is part of the Gaussian(R) 16 program.  It is based on
 the Gaussian(R) 09 system (copyright 2009, Gaussian, Inc.),
 the Gaussian(R) 03 system (copyright 2003, Gaussian, Inc.),
 the Gaussian(R) 98 system (copyright 1998, Gaussian, Inc.),
 the Gaussian(R) 94 system (copyright 1995, Gaussian, Inc.),
 the Gaussian 92(TM) system (copyright 1992, Gaussian, Inc.),
 the Gaussian 90(TM) system (copyright 1990, Gaussian, Inc.),
 the Gaussian 88(TM) system (copyright 1988, Gaussian, Inc.),
 the Gaussian 86(TM) system (copyright 1986, Carnegie Mellon
 University), and the Gaussian 82(TM) system (copyright 1983,
 Carnegie Mellon University). Gaussian is a federally registered
 trademark of Gaussian, Inc.
  
 This software contains proprietary and confidential information,
 including trade secrets, belonging to Gaussian, Inc.
  
 This software is provided under written license and may be
 used, copied, transmitted, or stored only in accord with that
 written license.
  
 The following legend is applicable only to US Government
 contracts under FAR:
  
                    RESTRICTED RIGHTS LEGEND
  
 Use, reproduction and disclosure by the US Government is
 subject to restrictions as set forth in subparagraphs (a)
 and (c) of the Commercial Computer Software - Restricted
 Rights clause in FAR 52.227-19.
  
 Gaussian, Inc.
 340 Quinnipiac St., Bldg. 40, Wallingford CT 06492
  
  
 ---------------------------------------------------------------
 Warning -- This program may not be used in any manner that
 competes with the business of Gaussian, Inc. or will provide
 assistance to any competitor of Gaussian, Inc.  The licensee
 of this program is prohibited from giving any competitor of
 Gaussian, Inc. access to this program.  By using this program,
 the user acknowledges that Gaussian, Inc. is engaged in the
 business of creating and licensing software in the field of
 computational chemistry and represents and warrants to the
 licensee that it is not a competitor of Gaussian, Inc. and that
 it will not use this program in any manner prohibited above.
 ---------------------------------------------------------------
  

 Cite this work as:
 Gaussian 16, Revision A.03,
 M. J. Frisch, G. W. Trucks, H. B. Schlegel, G. E. Scuseria, 
 M. A. Robb, J. R. Cheeseman, G. Scalmani, V. Barone, 
 G. A. Petersson, H. Nakatsuji, X. Li, M. Caricato, A. V. Marenich, 
 J. Bloino, B. G. Janesko, R. Gomperts, B. Mennucci, H. P. Hratchian, 
 J. V. Ortiz, A. F. Izmaylov, J. L. Sonnenberg, D. Williams-Young, 
 F. Ding, F. Lipparini, F. Egidi, J. Goings, B. Peng, A. Petrone, 
 T. Henderson, D. Ranasinghe, V. G. Zakrzewski, J. Gao, N. Rega, 
 G. Zheng, W. Liang, M. Hada, M. Ehara, K. Toyota, R. Fukuda, 
 J. Hasegawa, M. Ishida, T. Nakajima, Y. Honda, O. Kitao, H. Nakai, 
 T. Vreven, K. Throssell, J. A. Montgomery, Jr., J. E. Peralta, 
 F. Ogliaro, M. J. Bearpark, J. J. Heyd, E. N. Brothers, K. N. Kudin, 
 V. N. Staroverov, T. A. Keith, R. Kobayashi, J. Normand, 
 K. Raghavachari, A. P. Rendell, J. C. Burant, S. S. Iyengar, 
 J. Tomasi, M. Cossi, J. M. Millam, M. Klene, C. Adamo, R. Cammi, 
 J. W. Ochterski, R. L. Martin, K. Morokuma, O. Farkas, 
 J. B. Foresman, and D. J. Fox, Gaussian, Inc., Wallingford CT, 2016.
 
 ******************************************
 Gaussian 16:  ES64L-G16RevA.03 25-Dec-2016
                23-Jun-2025 
 ******************************************
 %nprocshared=24
 Will use up to   24 processors via shared memory.
 %mem=12GB
 %chk=ethyl_propiolate_ts1.chk
 --------------------------
 # freq 6-311++g(d,p) m062x
 --------------------------
 1/10=4,30=1,38=1/1,3;
 2/12=2,17=6,18=5,40=1/2;
 3/5=4,6=6,7=1111,11=2,25=1,30=1,71=2,74=-55,140=1/1,2,3;
 4//1;
 5/5=2,38=5,98=1/2;
 8/6=4,10=90,11=11/1;
 11/6=1,8=1,9=11,15=111,16=1/1,2,10;
 10/6=1/2;
 6/7=2,8=2,9=2,10=2,28=1/1;
 7/8=1,10=1,25=1/1,2,3,16;
 1/10=4,30=1/3;
 99//99;
 -------------------
 Title Card Required
 -------------------
 Symbolic Z-matrix:
 Charge =  0 Multiplicity = 2
 O                     2.64105   1.75756  -0.24817 
 H                     1.82654   2.23256  -0.01706 
 C                    -3.19281   1.02883   0.40314 
 H                    -4.07341   1.57473   0.64991 
 C                    -2.20313   0.4138    0.12543 
 C                    -1.03426  -0.37504  -0.22836 
 O                    -1.0783   -1.47716  -0.69391 
 O                     0.0965    0.29744   0.03692 
 C                     1.31705  -0.36968  -0.28215 
 C                     1.77341  -1.29289   0.81518 
 H                     2.0933    0.54155  -0.37311 
 H                     1.25277  -0.82647  -1.27019 
 H                     2.75532  -1.69982   0.57084 
 H                     1.84144  -0.75352   1.76065 
 H                     1.06841  -2.12181   0.92086 
 

 GradGradGradGradGradGradGradGradGradGradGradGradGradGradGradGradGradGrad
 Berny optimization.
 Initialization pass.
 Trust Radius=3.00D-01 FncErr=1.00D-07 GrdErr=1.00D-07 EigMax=2.50D+02 EigMin=1.00D-04
 Number of steps in this run=      2 maximum allowed number of steps=      2.
 GradGradGradGradGradGradGradGradGradGradGradGradGradGradGradGradGradGrad

                          Input orientation:                          
 ---------------------------------------------------------------------
 Center     Atomic      Atomic             Coordinates (Angstroms)
 Number     Number       Type             X           Y           Z
 ---------------------------------------------------------------------
      1          8           0        2.641054    1.757555   -0.248172
      2          1           0        1.826540    2.232561   -0.017056
      3          6           0       -3.192809    1.028835    0.403135
      4          1           0       -4.073412    1.574731    0.649909
      5          6           0       -2.203130    0.413796    0.125425
      6          6           0       -1.034257   -0.375044   -0.228361
      7          8           0       -1.078296   -1.477157   -0.693907
      8          8           0        0.096500    0.297436    0.036921
      9          6           0        1.317046   -0.369682   -0.282153
     10          6           0        1.773411   -1.292887    0.815176
     11          1           0        2.093302    0.541553   -0.373105
     12          1           0        1.252769   -0.826468   -1.270185
     13          1           0        2.755317   -1.699821    0.570839
     14          1           0        1.841441   -0.753520    1.760654
     15          1           0        1.068411   -2.121807    0.920858
 ---------------------------------------------------------------------
                    Distance matrix (angstroms):
                    1          2          3          4          5
     1  O    0.000000
     2  H    0.970813   0.000000
     3  C    5.915166   5.178743   0.000000
     4  H    6.776727   5.973861   1.065064   0.000000
     5  C    5.040970   4.423398   1.197857   2.262920   0.000000
     6  C    4.249268   3.876650   2.651228   3.716106   1.453856
     7  O    4.949304   4.760064   3.457551   4.482252   2.347820
     8  O    2.947538   2.596278   3.389485   4.404021   2.304272
     9  C    2.505851   2.664869   4.771191   5.805732   3.629269
    10  C    3.344953   3.622736   5.497591   6.514283   4.381940
    11  H    1.339515   1.748554   5.364975   6.335801   4.327145
    12  H    3.106287   3.355176   5.099540   6.149855   3.928005
    13  H    3.554896   4.083121   6.546288   7.573670   5.408509
    14  H    3.313648   3.475220   5.510292   6.452906   4.516100
    15  H    4.346181   4.518292   5.324714   6.338466   4.214852
                    6          7          8          9         10
     6  C    0.000000
     7  O    1.197216   0.000000
     8  O    1.342094   2.250208   0.000000
     9  C    2.351924   2.670900   1.427090   0.000000
    10  C    3.132795   3.231644   2.438614   1.504894   0.000000
    11  H    3.262319   3.773213   2.053030   1.200498   2.208962
    12  H    2.553364   2.487842   2.075727   1.090409   2.199397
    13  H    4.093241   4.042988   3.367998   2.136700   1.090612
    14  H    3.516968   3.882446   2.668442   2.143684   1.090630
    15  H    2.965316   2.762497   2.752942   2.139859   1.093299
                   11         12         13         14         15
    11  H    0.000000
    12  H    1.839220   0.000000
    13  H    2.520526   2.531751   0.000000
    14  H    2.508700   3.088340   1.773785   0.000000
    15  H    3.133405   2.551972   1.773764   1.781865   0.000000
 Stoichiometry    C5H7O3(2)
 Framework group  C1[X(C5H7O3)]
 Deg. of freedom    39
 Full point group                 C1      NOp   1
 Largest Abelian subgroup         C1      NOp   1
 Largest concise Abelian subgroup C1      NOp   1
                         Standard orientation:                         
 ---------------------------------------------------------------------
 Center     Atomic      Atomic             Coordinates (Angstroms)
 Number     Number       Type             X           Y           Z
 ---------------------------------------------------------------------
      1          8           0        2.641054    1.757555   -0.248172
      2          1           0        1.826540    2.232561   -0.017056
      3          6           0       -3.192809    1.028835    0.403135
      4          1           0       -4.073412    1.574731    0.649909
      5          6           0       -2.203130    0.413796    0.125425
      6          6           0       -1.034257   -0.375044   -0.228361
      7          8           0       -1.078296   -1.477157   -0.693907
      8          8           0        0.096500    0.297436    0.036921
      9          6           0        1.317046   -0.369682   -0.282153
     10          6           0        1.773411   -1.292887    0.815176
     11          1           0        2.093302    0.541553   -0.373105
     12          1           0        1.252769   -0.826468   -1.270185
     13          1           0        2.755317   -1.699821    0.570839
     14          1           0        1.841441   -0.753520    1.760654
     15          1           0        1.068411   -2.121807    0.920858
 ---------------------------------------------------------------------
 Rotational constants (GHZ):           3.0289657           1.1296157           0.9014509
 Standard basis: 6-311++G(d,p) (5D, 7F)
 There are   233 symmetry adapted cartesian basis functions of A   symmetry.
 There are   225 symmetry adapted basis functions of A   symmetry.
   225 basis functions,   351 primitive gaussians,   233 cartesian basis functions
    31 alpha electrons       30 beta electrons
       nuclear repulsion energy       348.5146468227 Hartrees.
 NAtoms=   15 NActive=   15 NUniq=   15 SFac= 1.00D+00 NAtFMM=   60 NAOKFM=F Big=F
 Integral buffers will be    131072 words long.
 Raffenetti 2 integral format.
 Two-electron integral symmetry is turned on.
 One-electron integrals computed using PRISM.
 NBasis=   225 RedAO= T EigKep=  7.83D-06  NBF=   225
 NBsUse=   224 1.00D-06 EigRej=  8.24D-07 NBFU=   224
 ExpMin= 3.60D-02 ExpMax= 8.59D+03 ExpMxC= 1.30D+03 IAcc=3 IRadAn=         5 AccDes= 0.00D+00
 Harris functional with IExCor= 1009 and IRadAn=       5 diagonalized for initial guess.
 HarFok:  IExCor= 1009 AccDes= 0.00D+00 IRadAn=         5 IDoV= 1 UseB2=F ITyADJ=14
 ICtDFT=  3500011 ScaDFX=  1.000000  1.000000  1.000000  1.000000
 FoFCou: FMM=F IPFlag=           0 FMFlag=      100000 FMFlg1=           0
         NFxFlg=           0 DoJE=T BraDBF=F KetDBF=T FulRan=T
         wScrn=  0.000000 ICntrl=       500 IOpCl=  0 I1Cent=   200000004 NGrid=           0
         NMat0=    1 NMatS0=      1 NMatT0=    0 NMatD0=    1 NMtDS0=    0 NMtDT0=    0
 Petite list used in FoFCou.
 Initial guess <Sx>= 0.0000 <Sy>= 0.0000 <Sz>= 0.5000 <S**2>= 0.7500 S= 0.5000
 Requested convergence on RMS density matrix=1.00D-08 within 128 cycles.
 Requested convergence on MAX density matrix=1.00D-06.
 Requested convergence on             energy=1.00D-06.
 No special actions if energy rises.
 SCF Done:  E(UM062X) =  -420.199145948     A.U. after   20 cycles
            NFock= 20  Conv=0.34D-08     -V/T= 2.0033
 <Sx>= 0.0000 <Sy>= 0.0000 <Sz>= 0.5000 <S**2>= 0.7592 S= 0.5046
 <L.S>=  0.00000000000    
 Annihilation of the first spin contaminant:
 S**2 before annihilation     0.7592,   after     0.7500
 DoSCS=F DFT=T ScalE2(SS,OS)=  1.000000  1.000000
 Range of M.O.s used for correlation:     1   224
 NBasis=   225 NAE=    31 NBE=    30 NFC=     0 NFV=     0
 NROrb=    224 NOA=    31 NOB=    30 NVA=   193 NVB=   194

 **** Warning!!: The largest alpha MO coefficient is  0.11440630D+03


 **** Warning!!: The largest beta MO coefficient is  0.10754360D+03

 Symmetrizing basis deriv contribution to polar:
 IMax=3 JMax=2 DiffMx= 0.00D+00
 G2DrvN: will do    16 centers at a time, making    1 passes.
 Calling FoFCou, ICntrl=  3107 FMM=F I1Cent=   0 AccDes= 0.00D+00.
 End of G2Drv F.D. properties file   721 does not exist.
 End of G2Drv F.D. properties file   722 does not exist.
 End of G2Drv F.D. properties file   788 does not exist.
          IDoAtm=111111111111111
          Differentiating once with respect to electric field.
                with respect to dipole field.
          Differentiating once with respect to nuclear coordinates.
 Keep R1 and R2 ints in memory in canonical form, NReq=671901989.
          There are    48 degrees of freedom in the 1st order CPHF.  IDoFFX=6 NUNeed=     3.
     45 vectors produced by pass  0 Test12= 2.46D-14 2.08D-09 XBig12= 9.50D+01 3.84D+00.
 AX will form    45 AO Fock derivatives at one time.
     45 vectors produced by pass  1 Test12= 2.46D-14 2.08D-09 XBig12= 1.97D+01 7.32D-01.
     45 vectors produced by pass  2 Test12= 2.46D-14 2.08D-09 XBig12= 6.62D-01 1.23D-01.
     45 vectors produced by pass  3 Test12= 2.46D-14 2.08D-09 XBig12= 9.94D-03 1.31D-02.
     45 vectors produced by pass  4 Test12= 2.46D-14 2.08D-09 XBig12= 9.68D-05 1.10D-03.
     45 vectors produced by pass  5 Test12= 2.46D-14 2.08D-09 XBig12= 8.13D-07 1.05D-04.
     43 vectors produced by pass  6 Test12= 2.46D-14 2.08D-09 XBig12= 5.84D-09 6.47D-06.
     18 vectors produced by pass  7 Test12= 2.46D-14 2.08D-09 XBig12= 3.25D-11 5.71D-07.
      3 vectors produced by pass  8 Test12= 2.46D-14 2.08D-09 XBig12= 2.15D-13 5.06D-08.
      2 vectors produced by pass  9 Test12= 2.46D-14 2.08D-09 XBig12= 2.00D-15 5.96D-09.
 InvSVY:  IOpt=1 It=  1 EMax= 5.33D-15
 Solved reduced A of dimension   336 with    48 vectors.
 Isotropic polarizability for W=    0.000000       77.25 Bohr**3.
 End of Minotr F.D. properties file   721 does not exist.
 End of Minotr F.D. properties file   722 does not exist.
 End of Minotr F.D. properties file   788 does not exist.

 **********************************************************************

            Population analysis using the SCF density.

 **********************************************************************

 Orbital symmetries:
 Alpha Orbitals:
       Occupied  (A) (A) (A) (A) (A) (A) (A) (A) (A) (A) (A) (A)
                 (A) (A) (A) (A) (A) (A) (A) (A) (A) (A) (A) (A)
                 (A) (A) (A) (A) (A) (A) (A)
       Virtual   (A) (A) (A) (A) (A) (A) (A) (A) (A) (A) (A) (A)
                 (A) (A) (A) (A) (A) (A) (A) (A) (A) (A) (A) (A)
                 (A) (A) (A) (A) (A) (A) (A) (A) (A) (A) (A) (A)
                 (A) (A) (A) (A) (A) (A) (A) (A) (A) (A) (A) (A)
                 (A) (A) (A) (A) (A) (A) (A) (A) (A) (A) (A) (A)
                 (A) (A) (A) (A) (A) (A) (A) (A) (A) (A) (A) (A)
                 (A) (A) (A) (A) (A) (A) (A) (A) (A) (A) (A) (A)
                 (A) (A) (A) (A) (A) (A) (A) (A) (A) (A) (A) (A)
                 (A) (A) (A) (A) (A) (A) (A) (A) (A) (A) (A) (A)
                 (A) (A) (A) (A) (A) (A) (A) (A) (A) (A) (A) (A)
                 (A) (A) (A) (A) (A) (A) (A) (A) (A) (A) (A) (A)
                 (A) (A) (A) (A) (A) (A) (A) (A) (A) (A) (A) (A)
                 (A) (A) (A) (A) (A) (A) (A) (A) (A) (A) (A) (A)
                 (A) (A) (A) (A) (A) (A) (A) (A) (A) (A) (A) (A)
                 (A) (A) (A) (A) (A) (A) (A) (A) (A) (A) (A) (A)
                 (A) (A) (A) (A) (A) (A) (A) (A) (A) (A) (A) (A)
                 (A)
 Beta  Orbitals:
       Occupied  (A) (A) (A) (A) (A) (A) (A) (A) (A) (A) (A) (A)
                 (A) (A) (A) (A) (A) (A) (A) (A) (A) (A) (A) (A)
                 (A) (A) (A) (A) (A) (A)
       Virtual   (A) (A) (A) (A) (A) (A) (A) (A) (A) (A) (A) (A)
                 (A) (A) (A) (A) (A) (A) (A) (A) (A) (A) (A) (A)
                 (A) (A) (A) (A) (A) (A) (A) (A) (A) (A) (A) (A)
                 (A) (A) (A) (A) (A) (A) (A) (A) (A) (A) (A) (A)
                 (A) (A) (A) (A) (A) (A) (A) (A) (A) (A) (A) (A)
                 (A) (A) (A) (A) (A) (A) (A) (A) (A) (A) (A) (A)
                 (A) (A) (A) (A) (A) (A) (A) (A) (A) (A) (A) (A)
                 (A) (A) (A) (A) (A) (A) (A) (A) (A) (A) (A) (A)
                 (A) (A) (A) (A) (A) (A) (A) (A) (A) (A) (A) (A)
                 (A) (A) (A) (A) (A) (A) (A) (A) (A) (A) (A) (A)
                 (A) (A) (A) (A) (A) (A) (A) (A) (A) (A) (A) (A)
                 (A) (A) (A) (A) (A) (A) (A) (A) (A) (A) (A) (A)
                 (A) (A) (A) (A) (A) (A) (A) (A) (A) (A) (A) (A)
                 (A) (A) (A) (A) (A) (A) (A) (A) (A) (A) (A) (A)
                 (A) (A) (A) (A) (A) (A) (A) (A) (A) (A) (A) (A)
                 (A) (A) (A) (A) (A) (A) (A) (A) (A) (A) (A) (A)
                 (A) (A)
 The electronic state is 2-A.
 Alpha  occ. eigenvalues --  -19.70075 -19.65826 -19.64629 -10.72081 -10.63160
 Alpha  occ. eigenvalues --  -10.58052 -10.57599 -10.55089  -1.27348  -1.18089
 Alpha  occ. eigenvalues --   -1.12747  -0.91820  -0.88195  -0.79547  -0.71930
 Alpha  occ. eigenvalues --   -0.66342  -0.62339  -0.60617  -0.58482  -0.57613
 Alpha  occ. eigenvalues --   -0.53546  -0.50923  -0.50026  -0.47871  -0.45848
 Alpha  occ. eigenvalues --   -0.41513  -0.41016  -0.40697  -0.38208  -0.37356
 Alpha  occ. eigenvalues --   -0.35508
 Alpha virt. eigenvalues --   -0.02709  -0.00519   0.00561   0.01448   0.01837
 Alpha virt. eigenvalues --    0.03182   0.03342   0.04629   0.05969   0.06002
 Alpha virt. eigenvalues --    0.06551   0.07362   0.07979   0.09390   0.10195
 Alpha virt. eigenvalues --    0.11298   0.11865   0.12362   0.12719   0.12867
 Alpha virt. eigenvalues --    0.13830   0.14254   0.14842   0.15917   0.16401
 Alpha virt. eigenvalues --    0.17580   0.17907   0.18371   0.19607   0.19748
 Alpha virt. eigenvalues --    0.21521   0.22061   0.23823   0.25102   0.25500
 Alpha virt. eigenvalues --    0.26672   0.28014   0.28447   0.28560   0.29709
 Alpha virt. eigenvalues --    0.30433   0.31083   0.31969   0.32589   0.33678
 Alpha virt. eigenvalues --    0.34425   0.35149   0.36944   0.37680   0.40879
 Alpha virt. eigenvalues --    0.42321   0.44340   0.46222   0.47829   0.50327
 Alpha virt. eigenvalues --    0.50720   0.53225   0.56002   0.57458   0.60038
 Alpha virt. eigenvalues --    0.60462   0.62743   0.64644   0.66530   0.67447
 Alpha virt. eigenvalues --    0.67517   0.69005   0.70629   0.72048   0.73697
 Alpha virt. eigenvalues --    0.74649   0.75920   0.79037   0.81877   0.84038
 Alpha virt. eigenvalues --    0.88803   0.92064   0.95548   1.00426   1.04423
 Alpha virt. eigenvalues --    1.07057   1.09063   1.10093   1.12572   1.13661
 Alpha virt. eigenvalues --    1.15350   1.16831   1.17343   1.18791   1.21166
 Alpha virt. eigenvalues --    1.22730   1.23455   1.28956   1.29464   1.33919
 Alpha virt. eigenvalues --    1.35593   1.36270   1.38090   1.41423   1.42863
 Alpha virt. eigenvalues --    1.46939   1.48973   1.50771   1.55003   1.58296
 Alpha virt. eigenvalues --    1.59360   1.60364   1.61828   1.62334   1.64766
 Alpha virt. eigenvalues --    1.65867   1.67854   1.69992   1.73292   1.75247
 Alpha virt. eigenvalues --    1.79464   1.83373   1.83751   1.86336   1.89650
 Alpha virt. eigenvalues --    1.94367   1.99484   2.00639   2.04790   2.08377
 Alpha virt. eigenvalues --    2.10811   2.13673   2.17333   2.25231   2.31283
 Alpha virt. eigenvalues --    2.41420   2.43375   2.50528   2.50875   2.53967
 Alpha virt. eigenvalues --    2.57630   2.59016   2.60251   2.61988   2.64239
 Alpha virt. eigenvalues --    2.65824   2.69135   2.71659   2.73466   2.79038
 Alpha virt. eigenvalues --    2.81669   2.83218   2.89236   2.92488   2.97511
 Alpha virt. eigenvalues --    2.98313   3.01033   3.03415   3.05545   3.08851
 Alpha virt. eigenvalues --    3.13278   3.17890   3.18899   3.20701   3.23941
 Alpha virt. eigenvalues --    3.30076   3.32780   3.37420   3.42983   3.47987
 Alpha virt. eigenvalues --    3.56045   3.65637   3.72493   3.81370   3.84935
 Alpha virt. eigenvalues --    3.85674   3.97119   4.05853   4.12081   4.17499
 Alpha virt. eigenvalues --    4.26330   5.07560   5.12906   5.15953   5.29729
 Alpha virt. eigenvalues --    5.31051   5.45352   5.59773   5.72168   5.93512
 Alpha virt. eigenvalues --   23.61742  23.88206  23.93390  24.04065  25.16954
 Alpha virt. eigenvalues --   49.96535  49.98157  50.09874
  Beta  occ. eigenvalues --  -19.70067 -19.64625 -19.64568 -10.72064 -10.62740
  Beta  occ. eigenvalues --  -10.58051 -10.57599 -10.55093  -1.27241  -1.17982
  Beta  occ. eigenvalues --   -1.07865  -0.91287  -0.87727  -0.79296  -0.70940
  Beta  occ. eigenvalues --   -0.65900  -0.62010  -0.59781  -0.57804  -0.55241
  Beta  occ. eigenvalues --   -0.51588  -0.50541  -0.48005  -0.46596  -0.43085
  Beta  occ. eigenvalues --   -0.40680  -0.40006  -0.38573  -0.38194  -0.37317
  Beta virt. eigenvalues --   -0.11180  -0.02663  -0.00406   0.00616   0.01676
  Beta virt. eigenvalues --    0.01959   0.03231   0.03383   0.04824   0.06027
  Beta virt. eigenvalues --    0.06083   0.06680   0.07482   0.08028   0.09550
  Beta virt. eigenvalues --    0.10312   0.11420   0.12082   0.12465   0.12896
  Beta virt. eigenvalues --    0.13046   0.13924   0.14390   0.14944   0.16178
  Beta virt. eigenvalues --    0.16525   0.17684   0.17979   0.18399   0.19812
  Beta virt. eigenvalues --    0.19945   0.21637   0.22329   0.23876   0.24770
  Beta virt. eigenvalues --    0.25507   0.26760   0.28103   0.28619   0.28910
  Beta virt. eigenvalues --    0.29949   0.30851   0.31264   0.32115   0.32746
  Beta virt. eigenvalues --    0.33878   0.34685   0.35268   0.37550   0.38114
  Beta virt. eigenvalues --    0.41735   0.42624   0.44477   0.46318   0.47953
  Beta virt. eigenvalues --    0.50399   0.50820   0.53431   0.56053   0.57703
  Beta virt. eigenvalues --    0.60470   0.60664   0.62860   0.64867   0.66743
  Beta virt. eigenvalues --    0.67573   0.68253   0.69486   0.70960   0.72198
  Beta virt. eigenvalues --    0.73755   0.74743   0.76116   0.79272   0.82078
  Beta virt. eigenvalues --    0.84085   0.88938   0.92224   0.95575   1.00966
  Beta virt. eigenvalues --    1.05118   1.07163   1.09811   1.10249   1.13836
  Beta virt. eigenvalues --    1.14462   1.15614   1.16968   1.17841   1.19942
  Beta virt. eigenvalues --    1.21549   1.22932   1.23682   1.29060   1.29631
  Beta virt. eigenvalues --    1.33945   1.35762   1.36332   1.38375   1.41658
  Beta virt. eigenvalues --    1.42988   1.47243   1.49384   1.51200   1.56750
  Beta virt. eigenvalues --    1.58469   1.59643   1.60483   1.62120   1.62436
  Beta virt. eigenvalues --    1.64988   1.66078   1.68398   1.70447   1.73299
  Beta virt. eigenvalues --    1.75423   1.79499   1.83405   1.83899   1.86930
  Beta virt. eigenvalues --    1.89771   1.94399   1.99445   2.00721   2.04935
  Beta virt. eigenvalues --    2.08639   2.11409   2.14267   2.17555   2.26114
  Beta virt. eigenvalues --    2.31626   2.41441   2.43757   2.50531   2.50970
  Beta virt. eigenvalues --    2.53741   2.57373   2.59411   2.60259   2.62416
  Beta virt. eigenvalues --    2.64311   2.65768   2.69259   2.71583   2.72721
  Beta virt. eigenvalues --    2.77643   2.81688   2.82130   2.89057   2.92800
  Beta virt. eigenvalues --    2.97675   3.00740   3.02546   3.03419   3.05606
  Beta virt. eigenvalues --    3.08988   3.13470   3.19240   3.20270   3.23089
  Beta virt. eigenvalues --    3.24691   3.30295   3.32819   3.37519   3.43045
  Beta virt. eigenvalues --    3.49992   3.56062   3.65732   3.72813   3.82569
  Beta virt. eigenvalues --    3.85438   3.85908   3.98750   4.06599   4.12442
  Beta virt. eigenvalues --    4.17661   4.26975   5.09352   5.13254   5.16002
  Beta virt. eigenvalues --    5.30559   5.35666   5.45830   5.62335   5.72325
  Beta virt. eigenvalues --    5.93570  23.61745  23.88576  23.93410  24.04073
  Beta virt. eigenvalues --   25.16956  49.95891  49.98162  50.09871
          Condensed to atoms (all electrons):
               1          2          3          4          5          6
     1  O    8.029172   0.280321  -0.001295  -0.000054   0.011322  -0.002463
     2  H    0.280321   0.482959  -0.000767  -0.000196   0.000370  -0.001584
     3  C   -0.001295  -0.000767   5.790212   0.447654  -0.459073   0.934674
     4  H   -0.000054  -0.000196   0.447654   0.425512  -0.077032   0.024062
     5  C    0.011322   0.000370  -0.459073  -0.077032   8.076918  -2.191617
     6  C   -0.002463  -0.001584   0.934674   0.024062  -2.191617   7.536406
     7  O   -0.000262  -0.000339  -0.096804  -0.003307   0.124133   0.355110
     8  O    0.024405   0.010086  -0.094069  -0.005031  -0.269896   0.045708
     9  C   -0.033211   0.007204   0.047129   0.000890  -0.230027   0.085515
    10  C   -0.008701   0.017094  -0.014474  -0.001370  -0.068697  -0.089970
    11  H    0.053941  -0.050723   0.005005   0.000472  -0.012697   0.014174
    12  H    0.000666  -0.001183  -0.001679  -0.000063   0.008684  -0.000383
    13  H   -0.001567   0.001871  -0.000643  -0.000035  -0.000564  -0.003626
    14  H    0.005890  -0.001599   0.000437   0.000035   0.005582   0.004784
    15  H   -0.004314   0.000353   0.004072   0.000025  -0.029343   0.009584
               7          8          9         10         11         12
     1  O   -0.000262   0.024405  -0.033211  -0.008701   0.053941   0.000666
     2  H   -0.000339   0.010086   0.007204   0.017094  -0.050723  -0.001183
     3  C   -0.096804  -0.094069   0.047129  -0.014474   0.005005  -0.001679
     4  H   -0.003307  -0.005031   0.000890  -0.001370   0.000472  -0.000063
     5  C    0.124133  -0.269896  -0.230027  -0.068697  -0.012697   0.008684
     6  C    0.355110   0.045708   0.085515  -0.089970   0.014174  -0.000383
     7  O    7.980810  -0.144861   0.075626  -0.086330   0.008483  -0.013473
     8  O   -0.144861   8.385292   0.135537   0.019510  -0.080263  -0.021172
     9  C    0.075626   0.135537   6.073832  -0.351907   0.339638   0.427487
    10  C   -0.086330   0.019510  -0.351907   5.915642  -0.112863  -0.078333
    11  H    0.008483  -0.080263   0.339638  -0.112863   0.584625  -0.044924
    12  H   -0.013473  -0.021172   0.427487  -0.078333  -0.044924   0.501670
    13  H   -0.002077   0.020266  -0.058068   0.423795  -0.015059  -0.005489
    14  H    0.000682  -0.006781  -0.037028   0.403882  -0.012171   0.003013
    15  H    0.003294  -0.020927  -0.003006   0.373543   0.015341  -0.004528
              13         14         15
     1  O   -0.001567   0.005890  -0.004314
     2  H    0.001871  -0.001599   0.000353
     3  C   -0.000643   0.000437   0.004072
     4  H   -0.000035   0.000035   0.000025
     5  C   -0.000564   0.005582  -0.029343
     6  C   -0.003626   0.004784   0.009584
     7  O   -0.002077   0.000682   0.003294
     8  O    0.020266  -0.006781  -0.020927
     9  C   -0.058068  -0.037028  -0.003006
    10  C    0.423795   0.403882   0.373543
    11  H   -0.015059  -0.012171   0.015341
    12  H   -0.005489   0.003013  -0.004528
    13  H    0.518140  -0.028206  -0.030933
    14  H   -0.028206   0.523880  -0.047929
    15  H   -0.030933  -0.047929   0.542192
          Atomic-Atomic Spin Densities.
               1          2          3          4          5          6
     1  O    0.789518   0.004913  -0.000385  -0.000009   0.005079   0.002472
     2  H    0.004913  -0.026329   0.000162   0.000003  -0.001387  -0.000346
     3  C   -0.000385   0.000162   0.000655   0.000394  -0.006687   0.005539
     4  H   -0.000009   0.000003   0.000394  -0.000083  -0.001352   0.001078
     5  C    0.005079  -0.001387  -0.006687  -0.001352   0.018932  -0.001380
     6  C    0.002472  -0.000346   0.005539   0.001078  -0.001380  -0.005474
     7  O    0.000122   0.000006  -0.000769   0.000001   0.005849  -0.003616
     8  O    0.036951  -0.004487   0.000660  -0.000102  -0.005505   0.011298
     9  C   -0.142293   0.010956   0.000590  -0.000035  -0.015966  -0.006330
    10  C    0.027806  -0.003031  -0.000873   0.000026   0.012252  -0.000916
    11  H   -0.063297   0.006347   0.001071   0.000078  -0.005241   0.004163
    12  H    0.005130  -0.000339   0.000282  -0.000005  -0.001212   0.000924
    13  H    0.000149   0.000059  -0.000003   0.000001   0.000033   0.000303
    14  H    0.004227  -0.000585  -0.000041  -0.000013   0.000573   0.000725
    15  H   -0.002160   0.000246  -0.000123   0.000009  -0.000169  -0.002153
               7          8          9         10         11         12
     1  O    0.000122   0.036951  -0.142293   0.027806  -0.063297   0.005130
     2  H    0.000006  -0.004487   0.010956  -0.003031   0.006347  -0.000339
     3  C   -0.000769   0.000660   0.000590  -0.000873   0.001071   0.000282
     4  H    0.000001  -0.000102  -0.000035   0.000026   0.000078  -0.000005
     5  C    0.005849  -0.005505  -0.015966   0.012252  -0.005241  -0.001212
     6  C   -0.003616   0.011298  -0.006330  -0.000916   0.004163   0.000924
     7  O    0.001164   0.001660  -0.000127  -0.001428  -0.001777   0.000479
     8  O    0.001660   0.033226  -0.082571   0.014520  -0.023399   0.005165
     9  C   -0.000127  -0.082571   0.541059  -0.030772   0.133034  -0.025623
    10  C   -0.001428   0.014520  -0.030772  -0.020194  -0.029148   0.011189
    11  H   -0.001777  -0.023399   0.133034  -0.029148  -0.061920   0.003466
    12  H    0.000479   0.005165  -0.025623   0.011189   0.003466  -0.001501
    13  H   -0.000024   0.000020  -0.001404   0.002832  -0.001710   0.000009
    14  H    0.000278   0.003288  -0.017171   0.009889  -0.001202   0.000662
    15  H   -0.000704  -0.000851   0.006406  -0.000419   0.000035  -0.002007
              13         14         15
     1  O    0.000149   0.004227  -0.002160
     2  H    0.000059  -0.000585   0.000246
     3  C   -0.000003  -0.000041  -0.000123
     4  H    0.000001  -0.000013   0.000009
     5  C    0.000033   0.000573  -0.000169
     6  C    0.000303   0.000725  -0.002153
     7  O   -0.000024   0.000278  -0.000704
     8  O    0.000020   0.003288  -0.000851
     9  C   -0.001404  -0.017171   0.006406
    10  C    0.002832   0.009889  -0.000419
    11  H   -0.001710  -0.001202   0.000035
    12  H    0.000009   0.000662  -0.002007
    13  H    0.000901  -0.000211  -0.000582
    14  H   -0.000211   0.008053  -0.004760
    15  H   -0.000582  -0.004760   0.028569
 Mulliken charges and spin densities:
               1          2
     1  O   -0.353850   0.668224
     2  H    0.256133  -0.013810
     3  C   -0.560381   0.000473
     4  H    0.188435  -0.000009
     5  C    1.111937   0.003821
     6  C   -0.720376   0.006287
     7  O   -0.200686   0.001112
     8  O    0.002198  -0.010127
     9  C   -0.479612   0.369754
    10  C   -0.340820  -0.008267
    11  H    0.307019  -0.039500
    12  H    0.229706  -0.003381
    13  H    0.182195   0.000374
    14  H    0.185527   0.003712
    15  H    0.192574   0.021337
 Sum of Mulliken charges =  -0.00000   1.00000
 Mulliken charges and spin densities with hydrogens summed into heavy atoms:
               1          2
     1  O   -0.097717   0.654414
     3  C   -0.371946   0.000464
     5  C    1.111937   0.003821
     6  C   -0.720376   0.006287
     7  O   -0.200686   0.001112
     8  O    0.002198  -0.010127
     9  C    0.057113   0.326873
    10  C    0.219476   0.017155
 APT charges:
               1
     1  O   -0.170334
     2  H    0.287983
     3  C   -0.174137
     4  H    0.237687
     5  C   -0.318295
     6  C    1.561065
     7  O   -0.791363
     8  O   -1.059273
     9  C    0.969802
    10  C   -0.175795
    11  H   -0.414759
    12  H   -0.053031
    13  H    0.029101
    14  H    0.032146
    15  H    0.039203
 Sum of APT charges =  -0.00000
 APT charges with hydrogens summed into heavy atoms:
               1
     1  O    0.117649
     3  C    0.063550
     5  C   -0.318295
     6  C    1.561065
     7  O   -0.791363
     8  O   -1.059273
     9  C    0.502012
    10  C   -0.075345
 Electronic spatial extent (au):  <R**2>=           1263.7049
 Charge=             -0.0000 electrons
 Dipole moment (field-independent basis, Debye):
    X=             -1.5462    Y=              0.7007    Z=              1.2451  Tot=              2.1052
 Quadrupole moment (field-independent basis, Debye-Ang):
   XX=            -46.2608   YY=            -48.3091   ZZ=            -48.1332
   XY=            -12.4253   XZ=             -1.7832   YZ=             -0.3096
 Traceless Quadrupole moment (field-independent basis, Debye-Ang):
   XX=              1.3069   YY=             -0.7414   ZZ=             -0.5655
   XY=            -12.4253   XZ=             -1.7832   YZ=             -0.3096
 Octapole moment (field-independent basis, Debye-Ang**2):
  XXX=            -55.3134  YYY=             14.7519  ZZZ=             -3.0936  XYY=             -0.5613
  XXY=              4.8815  XXZ=             12.8202  XZZ=              4.6313  YZZ=             -0.6323
  YYZ=              6.5242  XYZ=              1.1062
 Hexadecapole moment (field-independent basis, Debye-Ang**3):
 XXXX=          -1029.5972 YYYY=           -373.7743 ZZZZ=           -123.1944 XXXY=           -151.6921
 XXXZ=            -36.0346 YYYX=              2.6190 YYYZ=              2.0770 ZZZX=              3.6611
 ZZZY=              3.7426 XXYY=           -245.1837 XXZZ=           -216.9209 YYZZ=            -91.7010
 XXYZ=             23.4591 YYXZ=             -4.4081 ZZXY=             -0.4769
 N-N= 3.485146468227D+02 E-N=-1.681197425819D+03  KE= 4.188091583741D+02
  Exact polarizability:  95.363   0.251  84.975  -4.615   3.298  51.426
 Approx polarizability:  96.733  -5.819  96.347  -6.896   9.921  60.768
                          Isotropic Fermi Contact Couplings
        Atom                 a.u.       MegaHertz       Gauss      10(-4) cm-1
     1  O(17)              0.11567     -70.12165     -25.02115     -23.39006
     2  H(1)              -0.01138     -50.88368     -18.15656     -16.97297
     3  C(13)              0.00023       0.25896       0.09241       0.08638
     4  H(1)              -0.00000      -0.01423      -0.00508      -0.00475
     5  C(13)             -0.00028      -0.31317      -0.11175      -0.10446
     6  C(13)              0.01306      14.68155       5.23874       4.89724
     7  O(17)              0.00167      -1.01323      -0.36155      -0.33798
     8  O(17)              0.01803     -10.92791      -3.89935      -3.64516
     9  C(13)              0.16420     184.59264      65.86725      61.57348
    10  C(13)             -0.00352      -3.96082      -1.41332      -1.32119
    11  H(1)              -0.01795     -80.21882     -28.62407     -26.75812
    12  H(1)               0.00076       3.41239       1.21763       1.13825
    13  H(1)               0.00059       2.63144       0.93896       0.87775
    14  H(1)               0.00211       9.44610       3.37061       3.15088
    15  H(1)               0.01102      49.25728      17.57622      16.43046
 --------------------------------------------------------
       Center         ----  Spin Dipole Couplings  ----
                      3XX-RR        3YY-RR        3ZZ-RR
 --------------------------------------------------------
     1   Atom       -0.369659      1.723458     -1.353799
     2   Atom        0.075817      0.008805     -0.084622
     3   Atom        0.001391     -0.001006     -0.000385
     4   Atom        0.001025     -0.000483     -0.000543
     5   Atom        0.003309     -0.001138     -0.002171
     6   Atom        0.015895     -0.007098     -0.008797
     7   Atom        0.000475     -0.005873      0.005399
     8   Atom       -0.007222      0.018963     -0.011741
     9   Atom        0.011714      0.237746     -0.249459
    10   Atom       -0.014868      0.017589     -0.002721
    11   Atom       -0.020146      0.135646     -0.115499
    12   Atom       -0.021245     -0.004441      0.025686
    13   Atom       -0.000508      0.005124     -0.004615
    14   Atom       -0.006105     -0.002079      0.008184
    15   Atom       -0.002157      0.004171     -0.002014
 --------------------------------------------------------
                        XY            XZ            YZ
 --------------------------------------------------------
     1   Atom        1.777597      0.122984      0.205754
     2   Atom       -0.066398     -0.043222      0.030323
     3   Atom       -0.000222     -0.000072      0.000864
     4   Atom       -0.000256     -0.000231      0.000072
     5   Atom       -0.000561     -0.000640     -0.000130
     6   Atom        0.007335      0.005316      0.002636
     7   Atom        0.004577     -0.005060     -0.000536
     8   Atom        0.049493     -0.003816     -0.024238
     9   Atom        0.362145     -0.014212     -0.019777
    10   Atom        0.005809     -0.001942     -0.020803
    11   Atom        0.149379     -0.000331      0.007605
    12   Atom        0.012465      0.000308      0.020791
    13   Atom       -0.005485      0.003106     -0.004769
    14   Atom        0.001277      0.001162     -0.005626
    15   Atom        0.003768      0.000189     -0.004931
 --------------------------------------------------------


 ---------------------------------------------------------------------------------
              Anisotropic Spin Dipole Couplings in Principal Axis System
 ---------------------------------------------------------------------------------

       Atom             a.u.   MegaHertz   Gauss  10(-4) cm-1        Axes

              Baa    -1.3870   100.364    35.812    33.478  0.8507 -0.4707 -0.2342
     1 O(17)  Bbb    -1.3667    98.891    35.287    32.986  0.1755 -0.1656  0.9704
              Bcc     2.7537  -199.254   -71.099   -66.464  0.4955  0.8666  0.0582
 
              Baa    -0.0977   -52.144   -18.606   -17.393  0.1785 -0.1648  0.9700
     2 H(1)   Bbb    -0.0319   -17.032    -6.077    -5.681  0.5370  0.8424  0.0443
              Bcc     0.1297    69.175    24.684    23.074  0.8245 -0.5130 -0.2389
 
              Baa    -0.0016    -0.217    -0.078    -0.073  0.0467  0.8197 -0.5709
     3 C(13)  Bbb     0.0002     0.026     0.009     0.009  0.1527  0.5590  0.8150
              Bcc     0.0014     0.191     0.068     0.064  0.9872 -0.1253 -0.0990
 
              Baa    -0.0006    -0.317    -0.113    -0.106  0.0572 -0.4454  0.8935
     4 H(1)   Bbb    -0.0005    -0.272    -0.097    -0.091  0.2112  0.8801  0.4253
              Bcc     0.0011     0.588     0.210     0.196  0.9758 -0.1644 -0.1444
 
              Baa    -0.0023    -0.306    -0.109    -0.102  0.1294  0.1751  0.9760
     5 C(13)  Bbb    -0.0012    -0.157    -0.056    -0.052  0.0956  0.9775 -0.1880
              Bcc     0.0034     0.462     0.165     0.154  0.9870 -0.1176 -0.1097
 
              Baa    -0.0107    -1.438    -0.513    -0.480  0.0019 -0.5913  0.8065
     6 C(13)  Bbb    -0.0085    -1.146    -0.409    -0.382 -0.3476  0.7558  0.5549
              Bcc     0.0193     2.584     0.922     0.862  0.9376  0.2814  0.2041
 
              Baa    -0.0086     0.619     0.221     0.207 -0.5137  0.8441 -0.1538
     7 O(17)  Bbb    -0.0006     0.043     0.015     0.014  0.6410  0.4967  0.5852
              Bcc     0.0092    -0.663    -0.236    -0.221 -0.5703 -0.2020  0.7962
 
              Baa    -0.0495     3.580     1.277     1.194  0.7048 -0.6272 -0.3316
     8 O(17)  Bbb    -0.0139     1.004     0.358     0.335  0.4338  0.0111  0.9009
              Bcc     0.0633    -4.584    -1.636    -1.529  0.5613  0.7788 -0.2799
 
              Baa    -0.2547   -34.173   -12.194   -11.399  0.8029 -0.5930 -0.0608
     9 C(13)  Bbb    -0.2502   -33.578   -11.982   -11.201  0.0681 -0.0101  0.9976
              Bcc     0.5049    67.751    24.175    22.599  0.5922  0.8052 -0.0323
 
              Baa    -0.0171    -2.294    -0.819    -0.765  0.6916 -0.4531 -0.5624
    10 C(13)  Bbb    -0.0143    -1.913    -0.683    -0.638  0.7108  0.2892  0.6412
              Bcc     0.0314     4.207     1.501     1.403  0.1279  0.8432 -0.5221
 
              Baa    -0.1181   -62.987   -22.475   -21.010  0.4187 -0.2725  0.8663
    11 H(1)   Bbb    -0.1083   -57.775   -20.616   -19.272  0.7458 -0.4411 -0.4992
              Bcc     0.2263   120.762    43.091    40.282  0.5182  0.8551  0.0185
 
              Baa    -0.0299   -15.944    -5.689    -5.318  0.8021 -0.5608  0.2054
    12 H(1)   Bbb    -0.0070    -3.760    -1.342    -1.254  0.5878  0.6804 -0.4377
              Bcc     0.0369    19.704     7.031     6.572  0.1057  0.4718  0.8754
 
              Baa    -0.0068    -3.602    -1.285    -1.202 -0.2278  0.2704  0.9354
    13 H(1)   Bbb    -0.0039    -2.054    -0.733    -0.685  0.8405  0.5396  0.0487
              Bcc     0.0106     5.656     2.018     1.887 -0.4916  0.7973 -0.3503
 
              Baa    -0.0072    -3.818    -1.362    -1.274  0.8452 -0.4779 -0.2393
    14 H(1)   Bbb    -0.0035    -1.883    -0.672    -0.628  0.5334  0.7819  0.3226
              Bcc     0.0107     5.701     2.034     1.902  0.0329 -0.4003  0.9158
 
              Baa    -0.0060    -3.217    -1.148    -1.073 -0.5382  0.5196  0.6636
    15 H(1)   Bbb    -0.0019    -1.024    -0.365    -0.342  0.7835  0.0182  0.6211
              Bcc     0.0079     4.241     1.513     1.415  0.3107  0.8542 -0.4169
 

 ---------------------------------------------------------------------------------

 Calling FoFJK, ICntrl=    100127 FMM=F ISym2X=0 I1Cent= 0 IOpClX= 1 NMat=1 NMatS=1 NMatT=0.
 Full mass-weighted force constant matrix:
 Low frequencies ----1271.9763   -0.0007   -0.0006   -0.0004    6.2111   12.5338
 Low frequencies ---   22.3051   61.8938   73.8018
 ******    1 imaginary frequencies (negative Signs) ****** 
 Diagonal vibrational polarizability:
       44.7120678      65.1635712     101.5863092
 Harmonic frequencies (cm**-1), IR intensities (KM/Mole), Raman scattering
 activities (A**4/AMU), depolarization ratios for plane and unpolarized
 incident light, reduced masses (AMU), force constants (mDyne/A),
 and normal coordinates:
                      1                      2                      3
                      A                      A                      A
 Frequencies --  -1271.9763                61.0588                73.6315
 Red. masses --      1.1593                 7.0870                 5.3445
 Frc consts  --      1.1051                 0.0156                 0.0171
 IR Inten    --   1934.0984                 4.4969                 1.3949
  Atom  AN      X      Y      Z        X      Y      Z        X      Y      Z
     1   8    -0.04  -0.08  -0.01     0.03   0.03   0.24     0.33  -0.12   0.02
     2   1     0.04   0.02  -0.01     0.02   0.00   0.27     0.43   0.10  -0.08
     3   6     0.00  -0.00  -0.00    -0.00   0.06  -0.14    -0.12  -0.22   0.15
     4   1     0.00   0.00   0.00    -0.01   0.11  -0.25    -0.17  -0.34   0.26
     5   6     0.00   0.00  -0.00     0.00   0.01  -0.03    -0.06  -0.07   0.03
     6   6    -0.01  -0.00  -0.00     0.01  -0.04   0.10    -0.02   0.03  -0.06
     7   8     0.00   0.00   0.00     0.02  -0.16   0.40     0.03   0.01  -0.00
     8   8     0.02  -0.00   0.00    -0.00   0.08  -0.19    -0.04   0.13  -0.18
     9   6    -0.02   0.00   0.02    -0.01   0.07  -0.18    -0.03   0.07  -0.03
    10   6     0.01   0.02  -0.01    -0.05  -0.05  -0.27    -0.17   0.13   0.08
    11   1     0.37   0.88   0.15     0.02   0.07  -0.04     0.03   0.01  -0.01
    12   1     0.14   0.18  -0.07     0.03   0.18  -0.24     0.05   0.01  -0.01
    13   1     0.00   0.00  -0.00    -0.03  -0.00  -0.28    -0.15   0.09   0.21
    14   1    -0.01  -0.00   0.01    -0.09  -0.15  -0.21    -0.25   0.20   0.05
    15   1    -0.02   0.03  -0.04    -0.03  -0.08  -0.39    -0.20   0.15   0.06
                      4                      5                      6
                      A                      A                      A
 Frequencies --     98.3822               125.8843               168.4946
 Red. masses --      4.5879                 2.8260                 2.6297
 Frc consts  --      0.0262                 0.0264                 0.0440
 IR Inten    --      1.2924                 4.5957                 9.2440
  Atom  AN      X      Y      Z        X      Y      Z        X      Y      Z
     1   8     0.21  -0.02  -0.10     0.05  -0.07   0.11     0.11   0.10  -0.03
     2   1     0.35   0.15   0.04     0.14  -0.06   0.36     0.15   0.28  -0.26
     3   6    -0.19  -0.07  -0.20     0.02   0.08   0.00     0.13   0.15   0.04
     4   1    -0.27  -0.12  -0.38     0.07   0.15   0.01     0.26   0.34   0.09
     5   6    -0.09  -0.00   0.01    -0.04  -0.01  -0.01    -0.04  -0.10  -0.02
     6   6    -0.03   0.03   0.11    -0.07  -0.06  -0.02    -0.05  -0.11  -0.02
     7   8    -0.00   0.06   0.02    -0.10  -0.05  -0.04     0.01  -0.11  -0.04
     8   8    -0.05  -0.01   0.26    -0.06  -0.08  -0.01    -0.10  -0.05   0.03
     9   6    -0.05   0.07   0.05    -0.04  -0.02  -0.08    -0.03   0.08   0.06
    10   6     0.12  -0.06  -0.14     0.20   0.21   0.01    -0.05  -0.01  -0.01
    11   1    -0.07   0.06   0.03    -0.11   0.01  -0.24    -0.07   0.13   0.18
    12   1    -0.17   0.18   0.00    -0.13  -0.16  -0.00     0.08   0.18   0.01
    13   1     0.10   0.01  -0.33     0.20   0.25  -0.08     0.10   0.26   0.13
    14   1     0.22  -0.20  -0.07     0.32   0.38  -0.10    -0.38  -0.16   0.10
    15   1     0.16  -0.10  -0.17     0.29   0.17   0.28     0.11  -0.19  -0.31
                      7                      8                      9
                      A                      A                      A
 Frequencies --    204.4495               218.1333               270.4714
 Red. masses --      1.1153                 1.2987                 4.3929
 Frc consts  --      0.0275                 0.0364                 0.1893
 IR Inten    --     99.2496                 3.0987                 3.6895
  Atom  AN      X      Y      Z        X      Y      Z        X      Y      Z
     1   8    -0.01   0.01  -0.07     0.01   0.01  -0.01    -0.03  -0.07   0.01
     2   1     0.17  -0.17   0.93     0.06   0.01   0.15    -0.08  -0.10  -0.10
     3   6     0.01   0.00   0.00     0.05   0.04   0.00     0.02   0.06  -0.18
     4   1     0.02   0.01   0.01     0.10   0.12   0.00     0.01   0.24  -0.61
     5   6     0.00  -0.01  -0.01    -0.02  -0.06  -0.00     0.03  -0.17   0.40
     6   6     0.01  -0.00  -0.00     0.00  -0.03   0.00     0.04  -0.04   0.13
     7   8     0.02  -0.00   0.00     0.07  -0.03  -0.02     0.07   0.06  -0.11
     8   8    -0.00   0.01   0.00    -0.03   0.02   0.03     0.02   0.04  -0.03
     9   6    -0.00   0.01   0.01    -0.03   0.04   0.01    -0.02  -0.01  -0.09
    10   6    -0.03  -0.01   0.01    -0.06   0.00  -0.01    -0.09   0.08  -0.00
    11   1    -0.01   0.01  -0.04    -0.02   0.03   0.00     0.01  -0.06  -0.15
    12   1     0.01   0.01   0.01    -0.04   0.05  -0.00    -0.08  -0.07  -0.06
    13   1     0.03   0.09   0.10    -0.31  -0.45  -0.27    -0.00   0.17   0.21
    14   1    -0.18  -0.05   0.05     0.46   0.09  -0.10    -0.33   0.15  -0.02
    15   1     0.02  -0.07  -0.10    -0.37   0.31   0.31    -0.02   0.01  -0.08
                     10                     11                     12
                      A                      A                      A
 Frequencies --    292.2267               420.9692               552.5881
 Red. masses --      4.2354                 3.6068                 4.7334
 Frc consts  --      0.2131                 0.3766                 0.8516
 IR Inten    --      8.0990                 4.6398                 4.2706
  Atom  AN      X      Y      Z        X      Y      Z        X      Y      Z
     1   8    -0.09  -0.20   0.02     0.01   0.02   0.02    -0.04  -0.07  -0.01
     2   1    -0.16  -0.21  -0.20     0.01   0.06  -0.07     0.03   0.03   0.01
     3   6     0.04   0.04   0.07     0.07  -0.08  -0.01     0.19  -0.14  -0.07
     4   1     0.12   0.09   0.24     0.00  -0.22   0.04     0.04  -0.35  -0.17
     5   6    -0.08  -0.04  -0.16     0.15   0.10  -0.08     0.33   0.10   0.06
     6   6     0.03   0.05  -0.01     0.05  -0.04   0.05     0.02  -0.05  -0.05
     7   8     0.28   0.03   0.03    -0.06  -0.02   0.01    -0.09  -0.06  -0.02
     8   8    -0.05   0.12   0.12     0.05  -0.14   0.21    -0.13   0.13  -0.03
     9   6    -0.15  -0.02  -0.04    -0.01   0.03  -0.17    -0.20   0.12   0.16
    10   6    -0.00   0.05  -0.05    -0.18   0.14  -0.06    -0.00   0.01  -0.01
    11   1    -0.11  -0.20  -0.23    -0.03   0.07  -0.21    -0.18  -0.10   0.06
    12   1    -0.40  -0.12   0.03    -0.17   0.03  -0.16    -0.21   0.05   0.20
    13   1     0.14   0.35  -0.01    -0.16  -0.01   0.31    -0.01   0.23  -0.42
    14   1    -0.20   0.05  -0.04    -0.43   0.33  -0.15     0.23  -0.22   0.10
    15   1     0.24  -0.16  -0.12    -0.33   0.26  -0.08     0.18  -0.15  -0.03
                     13                     14                     15
                      A                      A                      A
 Frequencies --    601.8476               693.0053               743.9061
 Red. masses --      6.1932                 2.3982                 1.3172
 Frc consts  --      1.3217                 0.6786                 0.4295
 IR Inten    --     16.2000                 8.2761                38.3965
  Atom  AN      X      Y      Z        X      Y      Z        X      Y      Z
     1   8     0.02   0.07   0.01    -0.01  -0.09  -0.01     0.00  -0.00  -0.00
     2   1     0.22   0.40   0.04    -0.35  -0.65  -0.06    -0.01  -0.01  -0.00
     3   6    -0.17   0.08   0.04    -0.08   0.05   0.02    -0.09  -0.12  -0.03
     4   1    -0.41  -0.23  -0.09    -0.15  -0.03   0.00     0.55   0.79   0.21
     5   6     0.09   0.38   0.17    -0.02   0.10   0.03     0.04   0.06   0.02
     6   6    -0.08  -0.07  -0.04    -0.02  -0.08  -0.02    -0.00  -0.00  -0.00
     7   8     0.31  -0.10  -0.05     0.02  -0.09  -0.04     0.01  -0.00  -0.00
     8   8    -0.10  -0.17  -0.08    -0.02  -0.01   0.02    -0.00  -0.00  -0.00
     9   6    -0.12  -0.12  -0.03     0.16   0.19   0.06    -0.00   0.00   0.00
    10   6    -0.01  -0.03   0.02     0.01   0.07  -0.03    -0.00   0.00  -0.00
    11   1    -0.20   0.15   0.12     0.17  -0.24  -0.07    -0.00  -0.01  -0.00
    12   1     0.04  -0.06  -0.07     0.16   0.12   0.09    -0.00  -0.00   0.01
    13   1     0.01   0.04  -0.02    -0.05  -0.07  -0.03    -0.00   0.01  -0.01
    14   1     0.03   0.08  -0.05     0.00  -0.15   0.10     0.00  -0.01   0.00
    15   1     0.08  -0.08   0.18    -0.14   0.16  -0.29     0.00   0.00  -0.01
                     16                     17                     18
                      A                      A                      A
 Frequencies --    773.9410               781.7665               818.2594
 Red. masses --      1.7685                 3.2129                 1.1118
 Frc consts  --      0.6241                 1.1569                 0.4386
 IR Inten    --      8.6006                55.4293                53.0833
  Atom  AN      X      Y      Z        X      Y      Z        X      Y      Z
     1   8     0.00   0.00   0.00    -0.01  -0.01  -0.00    -0.04  -0.03   0.01
     2   1    -0.01  -0.01  -0.00     0.03   0.04   0.02     0.25   0.46   0.00
     3   6    -0.01   0.05  -0.15    -0.01   0.03  -0.10    -0.01   0.01   0.00
     4   1     0.08  -0.29   0.91     0.06  -0.28   0.83    -0.01   0.01   0.01
     5   6     0.01  -0.04   0.11     0.00   0.04  -0.09    -0.01   0.00  -0.00
     6   6    -0.00   0.06  -0.14     0.01  -0.15   0.36     0.02  -0.01   0.02
     7   8     0.00  -0.02   0.04    -0.00   0.05  -0.10     0.00  -0.00  -0.01
     8   8     0.00  -0.02   0.04    -0.00   0.04  -0.09     0.01  -0.00  -0.02
     9   6     0.00   0.00   0.00    -0.00  -0.00  -0.00     0.04   0.03   0.01
    10   6     0.00   0.00  -0.00    -0.00  -0.01   0.01     0.03   0.02   0.02
    11   1     0.00   0.01  -0.04    -0.01  -0.03   0.10    -0.16   0.13  -0.41
    12   1    -0.04  -0.02   0.02     0.09   0.06  -0.04    -0.15  -0.37   0.20
    13   1    -0.00  -0.02   0.01     0.01   0.04  -0.03    -0.06  -0.17  -0.02
    14   1    -0.02  -0.01   0.00     0.04   0.02  -0.01    -0.02  -0.29   0.19
    15   1    -0.02   0.02  -0.03     0.06  -0.05   0.07    -0.15   0.12  -0.35
                     19                     20                     21
                      A                      A                      A
 Frequencies --    885.9497               899.5304               955.8342
 Red. masses --      1.4407                 2.9428                 3.9461
 Frc consts  --      0.6663                 1.4030                 2.1242
 IR Inten    --    640.4861                12.1595                15.5013
  Atom  AN      X      Y      Z        X      Y      Z        X      Y      Z
     1   8    -0.08  -0.11  -0.01    -0.00   0.01   0.00    -0.00   0.03   0.00
     2   1     0.32   0.56   0.06     0.07   0.14   0.01     0.11   0.21   0.02
     3   6    -0.01   0.01   0.00    -0.03   0.01   0.00    -0.12   0.08   0.04
     4   1    -0.00   0.02  -0.00    -0.04  -0.00  -0.00    -0.14   0.08   0.04
     5   6    -0.01  -0.00   0.01     0.02   0.05   0.02    -0.08   0.04   0.02
     6   6     0.03   0.01  -0.02    -0.02  -0.08  -0.03     0.15  -0.11  -0.06
     7   8    -0.01   0.00   0.01    -0.04  -0.12  -0.05    -0.07  -0.16  -0.07
     8   8    -0.01  -0.01   0.01    -0.05   0.23   0.08     0.25   0.12   0.06
     9   6     0.08   0.06   0.01     0.06  -0.01  -0.12    -0.06  -0.07   0.07
    10   6    -0.01   0.01  -0.03     0.11  -0.15   0.06    -0.14   0.06  -0.05
    11   1    -0.20  -0.31   0.36     0.08   0.12  -0.19     0.16  -0.01   0.04
    12   1     0.27   0.33  -0.12    -0.28   0.13  -0.16    -0.17  -0.19   0.13
    13   1     0.04   0.06   0.06     0.16  -0.35   0.60    -0.09   0.43  -0.49
    14   1    -0.01   0.19  -0.13    -0.18   0.19  -0.11     0.16   0.05  -0.07
    15   1     0.04   0.00   0.14    -0.06   0.02   0.22     0.22  -0.22   0.13
                     22                     23                     24
                      A                      A                      A
 Frequencies --   1101.9443              1126.8470              1172.1396
 Red. masses --      3.2168                 2.1138                 1.6290
 Frc consts  --      2.3014                 1.5814                 1.3187
 IR Inten    --     36.2398                60.5772                 1.6679
  Atom  AN      X      Y      Z        X      Y      Z        X      Y      Z
     1   8    -0.01  -0.02   0.00    -0.00  -0.00   0.00    -0.00  -0.00  -0.01
     2   1    -0.03  -0.04  -0.03     0.03   0.06  -0.01    -0.01  -0.02   0.02
     3   6    -0.03   0.02   0.01     0.02  -0.01  -0.01    -0.01   0.01   0.00
     4   1    -0.03   0.03   0.01     0.02  -0.02  -0.01    -0.01   0.01   0.00
     5   6    -0.03  -0.01  -0.00     0.02   0.00  -0.00    -0.00   0.00   0.00
     6   6     0.09   0.00  -0.01    -0.04   0.01  -0.00     0.03  -0.01  -0.01
     7   8    -0.01   0.01   0.01     0.01   0.00   0.00    -0.01  -0.02  -0.01
     8   8     0.11  -0.12  -0.05    -0.09   0.03   0.06     0.03   0.03   0.02
     9   6    -0.15   0.28  -0.09     0.16  -0.01  -0.16    -0.10  -0.05  -0.13
    10   6    -0.00  -0.13   0.15    -0.12  -0.01   0.12     0.07   0.08   0.10
    11   1    -0.12   0.05  -0.43     0.11   0.12  -0.19    -0.04  -0.21   0.51
    12   1    -0.32   0.41  -0.16     0.24  -0.12  -0.13     0.13   0.18  -0.25
    13   1     0.06   0.02   0.12    -0.09   0.33  -0.42    -0.11  -0.22  -0.09
    14   1     0.16  -0.14   0.15     0.38  -0.20   0.18     0.04  -0.40   0.37
    15   1     0.18  -0.25   0.36     0.30  -0.36   0.12    -0.06   0.12  -0.38
                     25                     26                     27
                      A                      A                      A
 Frequencies --   1278.7117              1291.4298              1369.4692
 Red. masses --      7.1618                 1.1410                 1.2149
 Frc consts  --      6.8995                 1.1212                 1.3424
 IR Inten    --    664.5599                42.2336                 0.8248
  Atom  AN      X      Y      Z        X      Y      Z        X      Y      Z
     1   8     0.03   0.01  -0.00     0.01  -0.00   0.00     0.00  -0.00  -0.00
     2   1    -0.15  -0.26  -0.03    -0.03  -0.05  -0.03    -0.03  -0.06  -0.00
     3   6    -0.10   0.07   0.03     0.00  -0.00  -0.00    -0.01   0.01   0.00
     4   1    -0.10   0.11   0.05     0.00  -0.00  -0.00    -0.01   0.01   0.00
     5   6    -0.04   0.00   0.00     0.00   0.00   0.00    -0.00   0.00  -0.00
     6   6     0.61   0.02   0.00    -0.03  -0.01  -0.00     0.05  -0.01  -0.01
     7   8    -0.07   0.01   0.00    -0.00  -0.01  -0.00    -0.01   0.00   0.00
     8   8    -0.31  -0.04  -0.03     0.03   0.03   0.02    -0.01   0.01   0.03
     9   6     0.06  -0.12   0.03    -0.04  -0.06   0.05    -0.06   0.07  -0.05
    10   6     0.01   0.00   0.01     0.00   0.01   0.00    -0.00  -0.00  -0.07
    11   1    -0.32   0.34  -0.17    -0.38   0.04  -0.56    -0.10   0.07   0.14
    12   1    -0.09   0.25  -0.12     0.58   0.36  -0.20     0.58  -0.56   0.20
    13   1    -0.01   0.01  -0.05    -0.03  -0.03  -0.04     0.03  -0.14   0.28
    14   1    -0.02   0.08  -0.04    -0.05  -0.02   0.02    -0.01  -0.18   0.04
    15   1    -0.06   0.05  -0.11    -0.01   0.02  -0.03     0.12  -0.06   0.32
                     28                     29                     30
                      A                      A                      A
 Frequencies --   1412.1902              1482.9778              1488.1157
 Red. masses --      1.3290                 1.0467                 1.0392
 Frc consts  --      1.5616                 1.3563                 1.3559
 IR Inten    --     22.0097                 5.3415                 4.9975
  Atom  AN      X      Y      Z        X      Y      Z        X      Y      Z
     1   8     0.00  -0.00  -0.00     0.00  -0.00  -0.00    -0.00   0.00   0.00
     2   1    -0.02  -0.04   0.00    -0.02  -0.04  -0.00     0.02   0.04  -0.00
     3   6    -0.00   0.00   0.00     0.00  -0.00  -0.00     0.00  -0.00  -0.00
     4   1    -0.00   0.00   0.00     0.00  -0.00  -0.00     0.00  -0.00   0.00
     5   6    -0.00   0.00  -0.00     0.00  -0.00   0.00     0.00   0.00  -0.00
     6   6     0.01  -0.00   0.00    -0.01   0.00   0.00     0.00   0.00   0.00
     7   8    -0.00  -0.00  -0.00    -0.00  -0.01  -0.00     0.00  -0.00  -0.00
     8   8     0.01   0.01   0.01     0.01   0.01  -0.00    -0.01  -0.00   0.00
     9   6    -0.04   0.05  -0.04    -0.01  -0.02  -0.00     0.01  -0.02  -0.01
    10   6     0.05  -0.11   0.09    -0.05  -0.02  -0.01     0.02  -0.02  -0.03
    11   1    -0.09   0.04   0.09    -0.17   0.06   0.07     0.13  -0.06  -0.05
    12   1     0.28  -0.27   0.08    -0.01   0.01  -0.01    -0.02   0.07  -0.05
    13   1     0.09   0.31  -0.40     0.23   0.32   0.48     0.19   0.45  -0.08
    14   1    -0.15   0.45  -0.22     0.66  -0.04  -0.05    -0.17  -0.41   0.22
    15   1    -0.36   0.20  -0.30    -0.19   0.09  -0.29    -0.38   0.38   0.43
                     31                     32                     33
                      A                      A                      A
 Frequencies --   1533.4981              1847.5082              2269.7090
 Red. masses --      1.1045                12.5082                 5.7441
 Frc consts  --      1.5303                25.1547                17.4347
 IR Inten    --     26.1028               332.5184                80.7148
  Atom  AN      X      Y      Z        X      Y      Z        X      Y      Z
     1   8    -0.01   0.01   0.00    -0.00   0.00   0.00    -0.00  -0.00   0.00
     2   1     0.10   0.18   0.01    -0.00  -0.01  -0.00     0.00   0.00  -0.00
     3   6    -0.00   0.00   0.00     0.06  -0.04  -0.02    -0.31   0.19   0.09
     4   1    -0.01   0.00   0.00     0.11  -0.04  -0.02    -0.62   0.39   0.17
     5   6    -0.00  -0.00  -0.00    -0.04   0.01   0.01     0.44  -0.27  -0.12
     6   6     0.03  -0.01  -0.00    -0.00   0.74   0.31    -0.07   0.06   0.03
     7   8    -0.00   0.01   0.00    -0.01  -0.49  -0.21     0.00  -0.01  -0.00
     8   8    -0.04  -0.01   0.00    -0.01  -0.05  -0.02    -0.01  -0.00  -0.00
     9   6    -0.07  -0.00   0.01    -0.02   0.03   0.01     0.00   0.00   0.00
    10   6     0.00  -0.00   0.00     0.01  -0.00  -0.01    -0.00   0.00  -0.00
    11   1     0.78  -0.34  -0.29     0.13  -0.03  -0.06    -0.00  -0.01  -0.00
    12   1     0.25   0.02  -0.02     0.11  -0.01   0.03    -0.00   0.00  -0.00
    13   1     0.02  -0.02   0.11    -0.01  -0.06   0.03    -0.00  -0.00  -0.00
    14   1     0.13   0.07  -0.05    -0.03   0.01  -0.01    -0.00  -0.00   0.00
    15   1    -0.01  -0.01  -0.17     0.04  -0.02   0.04     0.00  -0.00   0.00
                     34                     35                     36
                      A                      A                      A
 Frequencies --   3066.3080              3132.5942              3144.9587
 Red. masses --      1.0359                 1.0870                 1.0998
 Frc consts  --      5.7386                 6.2849                 6.4088
 IR Inten    --      2.4864                 5.5898                 2.8113
  Atom  AN      X      Y      Z        X      Y      Z        X      Y      Z
     1   8    -0.00  -0.00  -0.00     0.00   0.00   0.00     0.00  -0.00   0.00
     2   1     0.00   0.00   0.00     0.00   0.00   0.00    -0.00   0.00  -0.00
     3   6    -0.00   0.00   0.00    -0.00   0.00   0.00     0.00  -0.00  -0.00
     4   1     0.00  -0.00  -0.00    -0.00  -0.00   0.00    -0.00   0.00   0.00
     5   6     0.00  -0.00  -0.00     0.00   0.00  -0.00     0.00   0.00   0.00
     6   6    -0.00  -0.00  -0.00    -0.00  -0.00  -0.00    -0.00  -0.00  -0.00
     7   8    -0.00   0.00  -0.00    -0.00   0.00   0.00    -0.00   0.00   0.00
     8   8     0.00   0.00   0.00     0.00  -0.00   0.00     0.00  -0.00   0.00
     9   6    -0.00   0.00  -0.00    -0.00  -0.03  -0.07    -0.00  -0.01  -0.02
    10   6     0.00  -0.04   0.03     0.01   0.02   0.02    -0.08  -0.04  -0.02
    11   1     0.01   0.01   0.00    -0.00  -0.00  -0.01     0.00   0.01  -0.00
    12   1     0.00  -0.00  -0.00     0.06   0.39   0.84     0.02   0.11   0.24
    13   1    -0.43   0.17   0.11     0.02  -0.00  -0.01     0.49  -0.21  -0.13
    14   1    -0.03  -0.26  -0.44    -0.02  -0.15  -0.26     0.01   0.21   0.37
    15   1     0.46   0.54  -0.06    -0.13  -0.15   0.02     0.42   0.50  -0.07
                     37                     38                     39
                      A                      A                      A
 Frequencies --   3163.6876              3489.1021              3803.5427
 Red. masses --      1.1023                 1.1713                 1.0668
 Frc consts  --      6.5005                 8.4015                 9.0932
 IR Inten    --      8.0521                62.7264                45.4743
  Atom  AN      X      Y      Z        X      Y      Z        X      Y      Z
     1   8    -0.00  -0.00  -0.00     0.00  -0.00  -0.00    -0.05   0.03   0.01
     2   1     0.00  -0.00   0.00    -0.00  -0.00   0.00     0.83  -0.49  -0.24
     3   6     0.00  -0.00  -0.00    -0.10   0.06   0.03    -0.00   0.00   0.00
     4   1     0.00   0.00   0.00     0.82  -0.51  -0.23     0.00  -0.00  -0.00
     5   6    -0.00   0.00   0.00     0.03  -0.02  -0.01    -0.00   0.00   0.00
     6   6     0.00   0.00   0.00    -0.00   0.00   0.00     0.00  -0.00   0.00
     7   8     0.00  -0.00  -0.00     0.00   0.00   0.00    -0.00   0.00   0.00
     8   8     0.00  -0.00  -0.00     0.00  -0.00  -0.00    -0.00   0.00   0.00
     9   6     0.00   0.01   0.02    -0.00   0.00   0.00     0.00   0.00  -0.00
    10   6    -0.05   0.05   0.06     0.00   0.00  -0.00    -0.00  -0.00  -0.00
    11   1     0.00  -0.00   0.00     0.00   0.00  -0.00    -0.01  -0.01   0.00
    12   1    -0.02  -0.10  -0.23     0.00  -0.00  -0.00    -0.00  -0.00   0.00
    13   1     0.62  -0.25  -0.15     0.00  -0.00   0.00     0.00   0.00  -0.00
    14   1    -0.05  -0.34  -0.59    -0.00   0.00   0.00     0.00   0.00   0.00
    15   1    -0.03  -0.01   0.01    -0.00   0.00  -0.00     0.00  -0.00   0.00

 -------------------
 - Thermochemistry -
 -------------------
 Temperature   298.150 Kelvin.  Pressure   1.00000 Atm.
 Atom     1 has atomic number  8 and mass  15.99491
 Atom     2 has atomic number  1 and mass   1.00783
 Atom     3 has atomic number  6 and mass  12.00000
 Atom     4 has atomic number  1 and mass   1.00783
 Atom     5 has atomic number  6 and mass  12.00000
 Atom     6 has atomic number  6 and mass  12.00000
 Atom     7 has atomic number  8 and mass  15.99491
 Atom     8 has atomic number  8 and mass  15.99491
 Atom     9 has atomic number  6 and mass  12.00000
 Atom    10 has atomic number  6 and mass  12.00000
 Atom    11 has atomic number  1 and mass   1.00783
 Atom    12 has atomic number  1 and mass   1.00783
 Atom    13 has atomic number  1 and mass   1.00783
 Atom    14 has atomic number  1 and mass   1.00783
 Atom    15 has atomic number  1 and mass   1.00783
 Molecular mass:   115.03952 amu.
 Principal axes and moments of inertia in atomic units:
                           1         2         3
     Eigenvalues --   595.827541597.659512002.04039
           X            0.99929  -0.03746   0.00279
           Y            0.03751   0.99907  -0.02147
           Z           -0.00199   0.02156   0.99977
 This molecule is an asymmetric top.
 Rotational symmetry number  1.
 Warning -- assumption of classical behavior for rotation
           may cause significant error
 Rotational temperatures (Kelvin)      0.14537     0.05421     0.04326
 Rotational constants (GHZ):           3.02897     1.12962     0.90145
    1 imaginary frequencies ignored.
 Zero-point vibrational energy     280016.3 (Joules/Mol)
                                   66.92549 (Kcal/Mol)
 Warning -- explicit consideration of  12 degrees of freedom as
           vibrations may cause significant error
 Vibrational temperatures:     87.85   105.94   141.55   181.12   242.43
          (Kelvin)            294.16   313.85   389.15   420.45   605.68
                              795.05   865.92   997.08  1070.31  1113.53
                             1124.79  1177.29  1274.68  1294.22  1375.23
                             1585.45  1621.28  1686.45  1839.78  1858.08
                             1970.36  2031.83  2133.67  2141.07  2206.36
                             2658.15  3265.61  4411.73  4507.10  4524.89
                             4551.84  5020.04  5472.45
 
 Zero-point correction=                           0.106653 (Hartree/Particle)
 Thermal correction to Energy=                    0.116462
 Thermal correction to Enthalpy=                  0.117406
 Thermal correction to Gibbs Free Energy=         0.070424
 Sum of electronic and zero-point Energies=           -420.092493
 Sum of electronic and thermal Energies=              -420.082684
 Sum of electronic and thermal Enthalpies=            -420.081740
 Sum of electronic and thermal Free Energies=         -420.128722
 
                     E (Thermal)             CV                S
                      KCal/Mol        Cal/Mol-Kelvin    Cal/Mol-Kelvin
 Total                   73.081             32.885             98.881
 Electronic               0.000              0.000              1.377
 Translational            0.889              2.981             40.136
 Rotational               0.889              2.981             29.034
 Vibrational             71.303             26.923             28.333
 Vibration     1          0.597              1.973              4.423
 Vibration     2          0.599              1.966              4.054
 Vibration     3          0.604              1.950              3.486
 Vibration     4          0.611              1.927              3.008
 Vibration     5          0.625              1.881              2.452
 Vibration     6          0.640              1.834              2.093
 Vibration     7          0.646              1.813              1.975
 Vibration     8          0.674              1.728              1.593
 Vibration     9          0.688              1.688              1.461
 Vibration    10          0.783              1.425              0.889
 Vibration    11          0.908              1.134              0.539
 Vibration    12          0.960              1.028              0.446
                       Q            Log10(Q)             Ln(Q)
 Total Bot       0.404649D-32        -32.392921        -74.587458
 Total V=0       0.461114D+17         16.663809         38.369837
 Vib (Bot)       0.844189D-46        -46.073560       -106.088293
 Vib (Bot)    1  0.338160D+01          0.529123          1.218350
 Vib (Bot)    2  0.279960D+01          0.447095          1.029475
 Vib (Bot)    3  0.208667D+01          0.319454          0.735569
 Vib (Bot)    4  0.162111D+01          0.209812          0.483111
 Vib (Bot)    5  0.119662D+01          0.077957          0.179503
 Vib (Bot)    6  0.973603D+00         -0.011618         -0.026752
 Vib (Bot)    7  0.907508D+00         -0.042149         -0.097053
 Vib (Bot)    8  0.714363D+00         -0.146081         -0.336364
 Vib (Bot)    9  0.653603D+00         -0.184686         -0.425255
 Vib (Bot)   10  0.416798D+00         -0.380075         -0.875154
 Vib (Bot)   11  0.283289D+00         -0.547770         -1.261288
 Vib (Bot)   12  0.247630D+00         -0.606196         -1.395819
 Vib (V=0)       0.961988D+03          2.983170          6.869002
 Vib (V=0)    1  0.391837D+01          0.593105          1.365676
 Vib (V=0)    2  0.334389D+01          0.524253          1.207136
 Vib (V=0)    3  0.264574D+01          0.422547          0.972950
 Vib (V=0)    4  0.219647D+01          0.341724          0.786849
 Vib (V=0)    5  0.179688D+01          0.254520          0.586053
 Vib (V=0)    6  0.159449D+01          0.202621          0.466552
 Vib (V=0)    7  0.153613D+01          0.186429          0.429268
 Vib (V=0)    8  0.137196D+01          0.137341          0.316240
 Vib (V=0)    9  0.132292D+01          0.121533          0.279841
 Vib (V=0)   10  0.115094D+01          0.061052          0.140577
 Vib (V=0)   11  0.107468D+01          0.031278          0.072019
 Vib (V=0)   12  0.105796D+01          0.024470          0.056344
 Electronic      0.200000D+01          0.301030          0.693147
 Translational   0.484981D+08          7.685724         17.697035
 Rotational      0.494179D+06          5.693884         13.110653
 ***** Axes restored to original set *****
 -------------------------------------------------------------------
 Center     Atomic                   Forces (Hartrees/Bohr)
 Number     Number              X              Y              Z
 -------------------------------------------------------------------
      1        8          -0.001633662   -0.003591548   -0.000355805
      2        1           0.000129165    0.000033160   -0.000027950
      3        6           0.000032463   -0.000017278   -0.000005157
      4        1           0.000003117    0.000002364    0.000000558
      5        6           0.000042300    0.000010760   -0.000015325
      6        6          -0.000220380   -0.000036794   -0.000141929
      7        8           0.000096644    0.000002349   -0.000006074
      8        8           0.000483076   -0.000141766    0.000045862
      9        6          -0.000735348    0.000236085    0.000632127
     10        6           0.000458678    0.000719248   -0.000234656
     11        1           0.001016493    0.002211138    0.000360290
     12        1           0.000376389    0.000493946   -0.000152594
     13        1           0.000013423    0.000012471   -0.000011570
     14        1          -0.000018344   -0.000015065    0.000028161
     15        1          -0.000044014    0.000080930   -0.000115938
 -------------------------------------------------------------------
 Cartesian Forces:  Max     0.003591548 RMS     0.000735081

 GradGradGradGradGradGradGradGradGradGradGradGradGradGradGradGradGradGrad
 Berny optimization.
 Search for a local minimum.
 Step number   1 out of a maximum of    2
 All quantities printed in internal units (Hartrees-Bohrs-Radians)
 Second derivative matrix not updated -- analytic derivatives used.
 ITU=  0
     Eigenvalues ---   -0.12355   0.00091   0.00126   0.00133   0.00176
     Eigenvalues ---    0.00217   0.00443   0.00575   0.01472   0.02064
     Eigenvalues ---    0.02748   0.03226   0.04336   0.05380   0.06159
     Eigenvalues ---    0.07444   0.08128   0.08705   0.09089   0.09514
     Eigenvalues ---    0.10425   0.11583   0.15000   0.16909   0.18996
     Eigenvalues ---    0.26778   0.29032   0.37611   0.46918   0.50956
     Eigenvalues ---    0.67308   0.71936   0.77668   0.80828   0.85815
     Eigenvalues ---    0.89845   0.96819   1.74441   2.73826
 Eigenvalue     1 is  -1.24D-01 should be greater than     0.000000 Eigenvector:
                          Y11       Y1        X11       X1        Y12
   1                    0.74338  -0.45860   0.31146  -0.24102   0.12019
                          X9        Z11       Y10       X12       X10
   1                   -0.11452   0.08355   0.08117   0.07224   0.06020
 Angle between quadratic step and forces=  33.98 degrees.
 Linear search not attempted -- first point.
 B after Tr=    -0.000852   -0.001199   -0.000182
         Rot=    1.000000   -0.000016    0.000035    0.000191 Ang=  -0.02 deg.
 Variable       Old X    -DE/DX   Delta X   Delta X   Delta X     New X
                                 (Linear)    (Quad)   (Total)
    X1        4.99087  -0.00163   0.00000  -0.01047  -0.01004   4.98083
    Y1        3.32130  -0.00359   0.00000  -0.02952  -0.03261   3.28869
    Z1       -0.46898  -0.00036   0.00000  -0.00208  -0.00181  -0.47079
    X2        3.45166   0.00013   0.00000   0.00647   0.00723   3.45889
    Y2        4.21893   0.00003   0.00000  -0.00116  -0.00368   4.21525
    Z2       -0.03223  -0.00003   0.00000  -0.00139  -0.00120  -0.03343
    X3       -6.03353   0.00003   0.00000  -0.00207  -0.00224  -6.03577
    Y3        1.94422  -0.00002   0.00000  -0.00288  -0.00180   1.94242
    Z3        0.76181  -0.00001   0.00000   0.00070   0.00016   0.76198
    X4       -7.69763   0.00000   0.00000  -0.00330  -0.00311  -7.70074
    Y4        2.97581   0.00000   0.00000  -0.00498  -0.00328   2.97253
    Z4        1.22815   0.00000   0.00000   0.00120   0.00058   1.22873
    X5       -4.16331   0.00004   0.00000  -0.00042  -0.00099  -4.16430
    Y5        0.78196   0.00001   0.00000   0.00049   0.00087   0.78283
    Z5        0.23702  -0.00002   0.00000  -0.00049  -0.00094   0.23608
    X6       -1.95446  -0.00022   0.00000   0.00051  -0.00058  -1.95504
    Y6       -0.70873  -0.00004   0.00000   0.00443   0.00399  -0.70474
    Z6       -0.43154  -0.00014   0.00000  -0.00194  -0.00228  -0.43382
    X7       -2.03768   0.00010   0.00000   0.00559   0.00376  -2.03392
    Y7       -2.79142   0.00000   0.00000   0.00684   0.00646  -2.78497
    Z7       -1.31129  -0.00001   0.00000  -0.00752  -0.00794  -1.31923
    X8        0.18236   0.00048   0.00000   0.00090   0.00025   0.18261
    Y8        0.56207  -0.00014   0.00000   0.00328   0.00201   0.56409
    Z8        0.06977   0.00005   0.00000   0.00578   0.00562   0.07539
    X9        2.48886  -0.00074   0.00000  -0.00777  -0.00885   2.48001
    Y9       -0.69860   0.00024   0.00000  -0.00027  -0.00239  -0.70099
    Z9       -0.53319   0.00063   0.00000   0.00430   0.00427  -0.52892
   X10        3.35126   0.00046   0.00000   0.00523   0.00335   3.35461
   Y10       -2.44320   0.00072   0.00000   0.00767   0.00514  -2.43806
   Z10        1.54046  -0.00023   0.00000   0.00079   0.00076   1.54122
   X11        3.95577   0.00102   0.00000   0.00658   0.00617   3.96194
   Y11        1.02339   0.00221   0.00000   0.01569   0.01300   1.03639
   Z11       -0.70507   0.00036   0.00000  -0.00005   0.00008  -0.70499
   X12        2.36739   0.00038   0.00000  -0.00308  -0.00436   2.36303
   Y12       -1.56180   0.00049   0.00000   0.00417   0.00215  -1.55965
   Z12       -2.40030  -0.00015   0.00000   0.00235   0.00228  -2.39802
   X13        5.20679   0.00001   0.00000   0.00533   0.00318   5.20998
   Y13       -3.21220   0.00001   0.00000   0.01025   0.00704  -3.20516
   Z13        1.07873  -0.00001   0.00000  -0.00150  -0.00142   1.07731
   X14        3.47982  -0.00002   0.00000   0.00214   0.00051   3.48033
   Y14       -1.42395  -0.00002   0.00000   0.00470   0.00207  -1.42188
   Z14        3.32715   0.00003   0.00000   0.00202   0.00203   3.32918
   X15        2.01900  -0.00004   0.00000   0.00820   0.00570   2.02470
   Y15       -4.00963   0.00008   0.00000   0.00305   0.00102  -4.00861
   Z15        1.74017  -0.00012   0.00000  -0.00003  -0.00020   1.73997
         Item               Value     Threshold  Converged?
 Maximum Force            0.003592     0.000450     NO 
 RMS     Force            0.000735     0.000300     NO 
 Maximum Displacement     0.032605     0.001800     NO 
 RMS     Displacement     0.006536     0.001200     NO 
 Predicted change in Energy=-2.449440D-04
 GradGradGradGradGradGradGradGradGradGradGradGradGradGradGradGradGradGrad


 ----------------------------------------------------------------------

 Electric dipole moment (input orientation):
 (Debye = 10**-18 statcoulomb cm , SI units = C m)
                  (au)            (Debye)         (10**-30 SI)
   Tot        0.828266D+00      0.210524D+01      0.702233D+01
   x         -0.608332D+00     -0.154623D+01     -0.515765D+01
   y          0.275660D+00      0.700659D+00      0.233715D+01
   z          0.489865D+00      0.124511D+01      0.415325D+01

 Dipole polarizability, Alpha (input orientation).
 (esu units = cm**3 , SI units = C**2 m**2 J**-1)
 Alpha(0;0):
               (au)            (10**-24 esu)      (10**-40 SI)
   iso        0.772548D+02      0.114480D+02      0.127376D+02
   aniso      0.409717D+02      0.607138D+01      0.675532D+01
   xx         0.953629D+02      0.141313D+02      0.157232D+02
   yx         0.251412D+00      0.372554D-01      0.414523D-01
   yy         0.849755D+02      0.125921D+02      0.140106D+02
   zx        -0.461521D+01     -0.683903D+00     -0.760945D+00
   zy         0.329832D+01      0.488761D+00      0.543820D+00
   zz         0.514261D+02      0.762056D+01      0.847902D+01

 ----------------------------------------------------------------------

 Dipole orientation:
     8          3.46484508          4.01280230         -2.83760363
     1          2.90602157          4.46618044         -1.15005633
     6         -3.13023130          0.62860908          5.52904885
     1         -3.72930293          1.17759511          7.37040866
     6         -2.45791096          0.00917293          3.45823657
     6         -1.71778147         -0.81598043          0.94437900
     8         -2.73884087         -2.47369893         -0.20796889
     8          0.25812318          0.52774049          0.09439580
     6          1.14631041         -0.09023446         -2.37582995
     6          2.97144644         -2.27109254         -2.36343996
     1          2.25425071          1.79441477         -2.98177209
     1         -0.43789554         -0.29060664         -3.67817812
     1          3.74078091         -2.54788450         -4.25528061
     1          4.52524816         -1.89767373         -1.06192334
     1          1.99685454         -3.99959720         -1.78816316

 Electric dipole moment (dipole orientation):
 (Debye = 10**-18 statcoulomb cm , SI units = C m)
                  (au)            (Debye)         (10**-30 SI)
   Tot        0.828266D+00      0.210524D+01      0.702233D+01
   x          0.000000D+00      0.000000D+00      0.000000D+00
   y          0.000000D+00      0.000000D+00      0.000000D+00
   z          0.828266D+00      0.210524D+01      0.702233D+01

 Dipole polarizability, Alpha (dipole orientation).
 (esu units = cm**3 , SI units = C**2 m**2 J**-1)
 Alpha(0;0):
               (au)            (10**-24 esu)      (10**-40 SI)
   iso        0.772548D+02      0.114480D+02      0.127376D+02
   aniso      0.409717D+02      0.607138D+01      0.675532D+01
   xx         0.677304D+02      0.100366D+02      0.111672D+02
   yx         0.119961D+02      0.177764D+01      0.197789D+01
   yy         0.800054D+02      0.118556D+02      0.131911D+02
   zx        -0.177985D+02     -0.263747D+01     -0.293458D+01
   zy         0.517527D+01      0.766895D+00      0.853286D+00
   zz         0.840286D+02      0.124518D+02      0.138544D+02

 ----------------------------------------------------------------------
 1\1\GINC-AJ\Freq\UM062X\6-311++G(d,p)\C5H7O3(2)\AAYUSH\23-Jun-2025\0\\
 # freq 6-311++g(d,p) m062x\\Title Card Required\\0,2\O,2.641054,1.7575
 55,-0.248172\H,1.82654,2.232561,-0.017056\C,-3.192809,1.028835,0.40313
 5\H,-4.073412,1.574731,0.649909\C,-2.20313,0.413796,0.125425\C,-1.0342
 57,-0.375044,-0.228361\O,-1.078296,-1.477157,-0.693907\O,0.0965,0.2974
 36,0.036921\C,1.317046,-0.369682,-0.282153\C,1.773411,-1.292887,0.8151
 76\H,2.093302,0.541553,-0.373105\H,1.252769,-0.826468,-1.270185\H,2.75
 5317,-1.699821,0.570839\H,1.841441,-0.75352,1.760654\H,1.068411,-2.121
 807,0.920858\\Version=ES64L-G16RevA.03\State=2-A\HF=-420.1991459\S2=0.
 759154\S2-1=0.\S2A=0.750038\RMSD=3.356e-09\RMSF=7.351e-04\ZeroPoint=0.
 1066526\Thermal=0.1164616\Dipole=-0.6083318,0.2756604,0.4898648\Dipole
 Deriv=-0.141628,0.2703748,-0.0511276,0.2541483,0.0982966,0.0041029,-0.
 00569,0.0718695,-0.4676696,0.1434339,-0.0240649,0.0458031,0.1651316,0.
 4138258,-0.0244266,0.0608162,0.0175341,0.3066888,-0.2239951,0.0192293,
 0.00964,0.0422396,-0.1572152,-0.010208,0.0161305,-0.009529,-0.1412008,
 0.2668796,-0.0168116,-0.0075988,-0.0266216,0.2336609,0.0117712,-0.0114
 201,0.0121132,0.2125207,-0.5733697,0.2013078,0.0940412,0.2384084,-0.25
 45689,-0.0711652,0.1109156,-0.0744295,-0.1269464,2.5524868,-0.0049543,
 -0.0110248,0.2650472,1.5215936,0.521727,0.1669333,0.5367947,0.6091144,
 -0.8255142,0.0699145,0.029338,-0.1337283,-1.065432,-0.3273229,-0.08513
 26,-0.3242709,-0.4831441,-2.2070758,-0.3590725,-0.1132692,-0.1245997,-
 0.6047692,-0.1110252,-0.0795098,-0.0949112,-0.3659743,1.51955,0.690837
 ,-0.0235865,0.1173477,1.0545284,-0.1183267,-0.2244504,-0.292476,0.3353
 286,-0.2062276,-0.2292301,0.0279619,-0.0546054,-0.2671115,0.0985927,-0
 .0236857,0.0880354,-0.0540464,-0.3637387,-0.6223431,0.0447885,-0.73563
 82,-1.0154098,0.0928759,-0.0256058,-0.0448343,0.1348709,-0.0573641,-0.
 0809143,-0.0653963,0.0002944,-0.0632304,-0.0207262,0.0644254,0.0773472
 ,-0.0384983,-0.0509618,0.0730299,0.0233456,0.0657218,0.0796593,0.00225
 18,0.024333,-0.0103956,0.0586049,0.097253,0.0275201,-0.0009129,0.00470
 46,0.0313822,-0.0773601,-0.0204234,-0.0302684,-0.0321962,0.0702718,-0.
 0148226,-0.0020023,-0.0778503,-0.0052096,0.0292393,0.0323637,0.0774209
 ,0.0525479\Polar=95.3629007,0.2514122,84.9754797,-4.615208,3.2983248,5
 1.4260792\Quadrupole=0.971659,-0.5512281,-0.4204309,-9.2378907,-1.3257
 405,-0.2301567\PG=C01 [X(C5H7O3)]\NImag=1\\0.39409203,-0.19942008,0.14
 160321,-0.10563230,0.05927288,0.03540263,-0.37268301,0.21321710,0.1045
 2558,0.36918195,0.18821560,-0.13905919,-0.05829884,-0.20342715,0.14621
 751,0.09998923,-0.06284820,-0.03110975,-0.10215212,0.06228597,0.030989
 02,0.00008634,0.00015236,0.00002973,-0.00001842,0.00027473,0.00003506,
 1.08962308,-0.00013993,-0.00008897,-0.00002530,0.00012239,-0.00020105,
 -0.00002351,-0.64242448,0.45639655,-0.00001780,-0.00005874,0.00005549,
 0.00000685,-0.00006776,-0.00008214,-0.29041451,0.17930944,0.14190062,0
 .00001996,-0.00004231,-0.00001441,-0.00004828,-0.00005549,0.00000103,-
 0.29811630,0.16817435,0.07593841,0.28838960,0.00003106,0.00002680,0.00
 001006,-0.00000936,0.00008469,0.00000769,0.16797859,-0.13152824,-0.046
 26265,-0.16847286,0.12118789,-0.00000772,0.00001628,-0.00003541,0.0000
 1416,0.00001154,0.00004046,0.07585066,-0.04625398,-0.05093883,-0.07611
 644,0.04691657,0.03926574,0.00022336,0.00049248,0.00007419,-0.00005619
 ,0.00056509,0.00009907,-0.79241503,0.47104191,0.21309010,0.00820565,-0
 .00230759,-0.00095849,1.05102007,-0.00002883,-0.00015691,-0.00004020,-
 0.00003976,-0.00026800,-0.00002860,0.47287397,-0.32788572,-0.13289841,
 -0.00216622,0.00655090,-0.00044282,-0.58765342,0.47097686,-0.00001531,
 0.00002833,-0.00000442,-0.00001184,-0.00002813,0.00000465,0.21386506,-
 0.13289089,-0.09404316,-0.00090415,-0.00042845,0.00757907,-0.26652784,
 0.18365462,0.14374287,0.00017326,-0.00308138,-0.00092033,-0.00107842,-
 0.00465030,-0.00039582,0.00698720,-0.00102315,-0.00048527,0.00060236,0
 .00353945,0.00156726,-0.20737435,0.09375321,0.04204127,0.59908385,0.00
 070259,-0.00069499,-0.00017496,-0.00108518,-0.00110241,-0.00016184,-0.
 00022638,0.00237475,-0.00017499,0.00257880,0.00374115,-0.00095471,0.08
 344161,-0.11459612,-0.01820588,-0.02830800,0.90148388,-0.00024009,-0.0
 0176563,-0.00059913,-0.00020565,-0.00112284,-0.00005740,-0.00010250,-0
 .00015783,0.00246258,0.00117045,-0.00092920,0.00546207,0.03773423,-0.0
 1912476,-0.08201547,-0.02029204,0.29463683,0.33317843,0.00002803,0.000
 18843,0.00020380,0.00000804,0.00114592,0.00003735,-0.00329521,0.001768
 72,0.00080219,-0.00024760,-0.00127005,-0.00055759,0.00625456,0.0332401
 6,0.01453000,-0.10870669,-0.00231828,0.00010790,0.10976192,-0.00077298
 ,0.00033975,0.00032632,0.00087061,0.00136560,-0.00004976,0.00024300,0.
 00142846,0.00050099,0.00022942,0.00069053,0.00071955,0.02674915,-0.048
 27353,-0.03028569,-0.00812696,-0.66733070,-0.24785034,0.03572930,0.775
 20247,-0.00021970,0.00042016,0.00033477,0.00035437,0.00071567,-0.00001
 088,0.00014239,0.00051711,0.00045091,0.00008567,0.00072730,-0.00070759
 ,0.01169025,-0.03030084,0.00896032,-0.00303063,-0.24971174,-0.18556293
 ,0.01295360,0.31314823,0.16627362,0.00351357,0.01056532,0.00189338,-0.
 00090899,0.00558779,0.00081828,-0.00345582,0.00267674,0.00117421,0.001
 36642,0.00024697,0.00006876,-0.06498475,-0.00681844,-0.00145964,-0.226
 81623,-0.06703705,-0.02629297,-0.00777321,-0.06446512,-0.02493720,0.52
 315449,-0.00269203,-0.00101571,-0.00017722,0.00158799,0.00119457,0.000
 31824,0.00219474,-0.00151626,-0.00084195,-0.00048457,-0.00067411,-0.00
 010342,0.01217695,0.01325905,0.00041844,-0.05383532,-0.14134545,-0.034
 38614,-0.06129380,-0.05629364,-0.03529337,0.03106198,0.30902750,-0.000
 39386,-0.00056095,0.00080786,0.00008360,0.00016141,-0.00072771,0.00097
 195,-0.00087698,0.00007404,-0.00023846,-0.00014109,-0.00044388,0.00650
 326,0.00128359,0.01136591,-0.01959100,-0.03342992,-0.07844181,-0.02485
 073,-0.03537596,0.01557311,0.00474965,0.10266331,0.12842398,-0.0389116
 3,-0.07466442,-0.00627010,0.00885190,-0.00243678,-0.00238229,0.0015781
 6,-0.00095819,-0.00035740,-0.00041428,0.00039155,0.00018184,0.00244731
 ,-0.00283593,-0.00177723,-0.07784530,-0.00539886,-0.00151999,0.0073414
 7,0.01644321,0.00763399,-0.13806952,0.03582004,0.02267758,0.38181829,-
 0.04116777,-0.08139617,-0.00685159,0.00257993,-0.00521425,-0.00154912,
 -0.00041872,0.00058453,0.00032784,0.00010706,0.00014765,0.00013717,-0.
 00399902,-0.00062658,-0.00218795,-0.00672022,0.02269675,0.00872466,-0.
 00325978,-0.00939390,-0.00113846,0.07742269,-0.11272035,-0.02962656,-0
 .04381234,0.41346230,0.00644352,0.01165084,0.00219546,-0.00229882,0.00
 063208,0.00004390,-0.00051819,0.00051439,0.00007583,0.00010548,0.00008
 980,-0.00025027,-0.00194644,-0.00245459,0.00514693,0.00410225,0.013439
 83,0.00593389,-0.00053512,-0.00320487,-0.00657072,0.02922709,-0.028976
 07,-0.08522508,0.03048798,0.05080304,0.57838085,0.00386650,0.00613671,
 0.00065645,-0.00166977,0.00058374,0.00095436,-0.00033897,0.00023566,0.
 00012361,0.00010148,-0.00001680,-0.00009142,-0.00117196,-0.00051908,0.
 00113318,0.00602631,0.00736659,0.00141293,-0.00028495,-0.00258035,-0.0
 0175218,-0.03169317,0.03045077,-0.02450847,-0.07101690,0.02239709,-0.0
 2067558,0.57292364,0.00473520,0.00863368,0.00030274,-0.00132111,0.0003
 9681,0.00093321,-0.00003021,0.00003710,0.00004311,-0.00001035,-0.00003
 347,0.00001579,0.00027299,0.00019203,-0.00055399,-0.00086732,0.0000227
 6,0.00025609,0.00086266,-0.00016310,0.00136741,0.01316387,-0.01230412,
 0.00891087,0.03311266,-0.11685116,0.06257319,0.00561826,0.53675080,-0.
 00047624,-0.00168401,0.00025628,0.00007681,0.00002418,0.00015700,0.000
 16372,-0.00017086,0.00004318,-0.00002404,0.00000203,0.00002595,0.00013
 600,0.00058553,-0.00077329,-0.00143056,-0.00404970,-0.00041154,-0.0003
 4664,0.00199038,0.00063339,0.00544317,-0.00416055,0.01202829,-0.032617
 07,0.06295769,-0.16827409,-0.02193104,0.04658802,0.53703203,0.00896676
 ,0.04470781,0.00507852,-0.00119667,0.01394883,0.00333177,-0.00055979,0
 .00049656,0.00015189,0.00011415,-0.00009408,0.00000461,-0.00182508,0.0
 0002383,-0.00027495,0.00429182,0.00393129,0.00511064,-0.00050950,-0.00
 125598,-0.00102096,-0.04383317,-0.01218294,0.00266611,-0.02326231,0.00
 080037,-0.00428475,-0.00167498,-0.00398086,0.00004559,0.06011343,0.048
 86456,0.06742142,0.00521298,-0.01195717,-0.00443891,0.00105168,-0.0005
 8327,0.00036552,0.00009612,0.00014258,-0.00017619,-0.00005199,-0.00128
 607,0.00073603,0.00041903,0.01245648,0.00036274,0.00314688,-0.00266853
 ,-0.00052597,-0.00080258,-0.01323057,0.00939334,-0.00133512,0.03853613
 ,-0.00496365,-0.01495810,-0.02180105,-0.02860608,0.00436354,-0.0416976
 4,-0.02473752,0.00287864,-0.00037773,-0.00857495,-0.00132116,-0.004087
 26,0.00152636,0.00000538,0.00000747,-0.00005529,0.00000408,-0.00001293
 ,-0.00000500,0.00014404,-0.00002404,0.00028194,0.00049636,-0.00195438,
 -0.00065890,-0.00120019,0.00063749,0.00043410,0.00671212,0.00407145,-0
 .00049269,0.00945702,0.00803239,-0.03457929,0.00843290,0.01391759,-0.0
 0360276,-0.01271374,-0.00715109,0.04566331,0.00190149,0.00344766,0.000
 87248,-0.00087493,0.00047874,-0.00009624,-0.00010521,0.00005138,0.0000
 2755,0.00004970,-0.00003470,0.00004177,-0.00038891,0.00023027,-0.00083
 555,0.00494820,0.00620118,0.00354759,-0.00154873,-0.00337652,-0.001032
 16,-0.01382154,0.01871174,0.03264462,-0.04581622,-0.00707468,-0.034917
 93,0.00211670,-0.00543124,-0.00642797,-0.00357363,-0.01285746,-0.01256
 812,0.05651034,0.00235930,0.00438468,0.00115471,-0.00067518,0.00070464
 ,-0.00014465,0.00001280,0.00000590,0.00005479,-0.00000736,0.00000143,0
 .00000373,0.00029112,-0.00012448,-0.00020379,-0.00251955,-0.00092910,-
 0.00088896,-0.00115753,0.00042824,0.00096156,0.00767632,-0.00851802,-0
 .01361824,0.00047174,-0.09034277,-0.10960542,0.00145808,0.01142336,0.0
 2114405,-0.00638879,-0.01542488,-0.01494421,-0.00237970,0.09997556,-0.
 00205092,-0.00324832,0.00039443,0.00068878,-0.00009412,-0.00014027,-0.
 00000231,-0.00000424,0.00006646,-0.00001552,0.00000020,0.00000404,0.00
 023611,0.00019242,-0.00033483,-0.00284501,-0.00285832,-0.00006321,-0.0
 0131263,0.00139308,0.00084879,0.00687695,-0.00530722,-0.00294860,-0.01
 966972,-0.10349030,-0.27515515,-0.00297234,-0.01030198,-0.01660851,0.0
 0247283,0.00637761,0.00121865,0.02000162,0.11423248,0.29346715,0.00003
 117,0.00006908,-0.00007893,-0.00004191,-0.00006732,-0.00001657,-0.0000
 5074,0.00003392,-0.00002766,0.00002100,-0.00001278,-0.00000501,-0.0001
 1670,0.00000261,0.00025798,0.00128652,0.00024537,0.00032464,-0.0002116
 7,-0.00005883,-0.00046618,0.00007390,0.00081926,-0.00205691,-0.0089152
 3,0.00138989,0.00379240,-0.27006476,0.09340555,0.05580784,0.00022670,0
 .00035900,-0.00003769,0.00016796,-0.00010418,-0.00041740,0.29087788,-0
 .00060603,-0.00018708,-0.00002750,0.00013367,0.00017020,-0.00011785,0.
 00005750,-0.00002995,-0.00003418,-0.00001963,-0.00000030,0.00001280,0.
 00028150,0.00011745,-0.00009430,-0.00158118,-0.00275124,-0.00040533,-0
 .00015203,0.00126777,0.00009513,0.00489129,-0.00175425,0.00427549,0.01
 643233,-0.00803367,-0.00798667,0.09152837,-0.08315532,-0.02221676,0.00
 041554,0.00053409,-0.00033075,-0.00031619,0.00056052,0.00028198,-0.102
 50704,0.08856992,0.00020954,0.00019797,0.00000168,-0.00008231,-0.00002
 445,-0.00003813,-0.00009894,0.00009121,0.00001153,0.00001854,0.0000046
 6,-0.00001719,-0.00028412,-0.00025755,0.00032819,0.00137716,0.00195447
 ,0.00026492,-0.00013187,-0.00080471,-0.00047034,-0.00525722,0.00460879
 ,-0.00353220,-0.02095564,0.00632229,0.00839870,0.05773320,-0.02332070,
 -0.06266046,-0.00011793,-0.00044548,0.00055766,0.00041391,-0.00109670,
 0.00017804,-0.06076449,0.02307788,0.06334507,-0.00027149,-0.00003844,-
 0.00018019,0.00014517,-0.00000686,-0.00006787,0.00000576,0.00000741,0.
 00002799,-0.00001970,0.00000695,-0.00000757,0.00004593,0.00001472,0.00
 001248,-0.00087803,-0.00117791,-0.00060182,-0.00021149,0.00081652,0.00
 009737,0.00153643,-0.00082825,0.00053743,-0.00232573,-0.00526203,-0.00
 855162,-0.04818936,-0.00830886,-0.01439560,0.00030917,0.00062590,0.000
 54707,0.00035064,0.00142869,-0.00140391,0.00359503,0.01372807,0.025960
 44,0.04690810,-0.00003896,0.00019027,-0.00066767,0.00015354,-0.0001257
 0,0.00021578,-0.00003245,-0.00000686,-0.00000704,0.00000659,0.00000610
 ,-0.00000713,-0.00003853,0.00003106,0.00014041,0.00028778,0.00008869,-
 0.00026498,-0.00021722,0.00015741,-0.00020993,-0.00196575,0.00101336,-
 0.00116872,0.00113243,0.01101335,0.02228392,-0.00810890,-0.11718413,-0
 .12148959,0.00016379,0.00135311,0.00013108,0.00178710,-0.00285748,0.00
 316258,-0.00205197,-0.00631123,-0.00891227,0.00827073,0.12363742,0.000
 25915,0.00024593,0.00069315,-0.00006656,0.00012433,-0.00025785,-0.0000
 2459,0.00003030,0.00001333,-0.00000292,-0.00000577,-0.00000170,-0.0000
 1897,0.00002035,-0.00001472,-0.00033759,-0.00053620,-0.00027669,0.0000
 4924,0.00033129,0.00021512,0.00106302,-0.00022813,0.00255967,-0.000659
 43,-0.01189104,-0.02491274,-0.01473107,-0.11845558,-0.25004320,-0.0004
 0538,-0.00098214,0.00002323,-0.00154907,0.00372208,-0.00169168,-0.0005
 1421,-0.00201208,-0.00455050,0.01692843,0.12723516,0.27400881,-0.00103
 635,-0.00173031,-0.00023787,0.00038951,-0.00015653,-0.00015522,0.00007
 496,-0.00006329,-0.00004016,-0.00002415,0.00002365,0.00001516,0.000136
 09,-0.00007708,-0.00003348,-0.00070052,0.00108424,-0.00015332,-0.00060
 498,-0.00044448,-0.00049862,0.00171158,-0.00150655,0.00080525,0.004539
 99,0.00701754,-0.00043027,-0.15892982,-0.13122124,0.01597603,0.0024131
 1,0.00509710,-0.00083669,0.00008415,-0.00046575,0.00041348,-0.01687916
 ,-0.02228618,0.00197973,-0.00100044,0.00065182,0.00000994,0.16982605,-
 0.00004168,-0.00000080,-0.00001640,-0.00015034,0.00027546,0.00011096,-
 0.00007217,0.00006424,0.00001343,0.00002000,-0.00002483,-0.00001938,-0
 .00002818,0.00006796,0.00021823,0.00067647,-0.00202073,0.00013155,-0.0
 0059798,0.00110061,-0.00049564,0.00022397,0.00225408,-0.00116110,-0.01
 223357,-0.01836209,0.00519866,-0.13274908,-0.19915915,0.01611606,0.001
 11228,-0.00129304,0.00208491,0.00056242,0.00071241,-0.00033584,0.00847
 745,0.01100307,-0.00139541,-0.00927664,-0.01100538,0.00240151,0.144077
 06,0.21638817,-0.00072614,-0.00128880,0.00018192,0.00038831,-0.0002317
 7,-0.00033725,0.00009710,-0.00006633,-0.00003455,-0.00000773,0.0000217
 8,0.00002253,0.00002861,-0.00016469,-0.00022399,-0.00025604,0.00218153
 ,0.00078522,0.00025067,-0.00147599,-0.00040166,-0.00007960,-0.00260617
 ,0.00097912,0.01577047,0.01942995,-0.00520822,0.01621548,0.01772424,-0
 .04780227,-0.00004424,0.00505867,-0.00173636,-0.00012251,-0.00077142,0
 .00076471,0.00420219,0.00548213,-0.00181697,-0.01890262,-0.02044160,0.
 00423578,-0.01681396,-0.02285154,0.05059198\\0.00163366,0.00359155,0.0
 0035581,-0.00012917,-0.00003316,0.00002795,-0.00003246,0.00001728,0.00
 000516,-0.00000312,-0.00000236,-0.00000056,-0.00004230,-0.00001076,0.0
 0001533,0.00022038,0.00003679,0.00014193,-0.00009664,-0.00000235,0.000
 00607,-0.00048308,0.00014177,-0.00004586,0.00073535,-0.00023608,-0.000
 63213,-0.00045868,-0.00071925,0.00023466,-0.00101649,-0.00221114,-0.00
 036029,-0.00037639,-0.00049395,0.00015259,-0.00001342,-0.00001247,0.00
 001157,0.00001834,0.00001507,-0.00002816,0.00004401,-0.00008093,0.0001
 1594\\\@


 The impersonal hand of government can
 never replace the helping hand of a neighbor.
                        -- Hubert H. Humphrey
 Job cpu time:       0 days  0 hours 56 minutes 27.5 seconds.
 Elapsed time:       0 days  0 hours  2 minutes 21.2 seconds.
 File lengths (MBytes):  RWF=    153 Int=      0 D2E=      0 Chk=      8 Scr=      1
 Normal termination of Gaussian 16 at Mon Jun 23 01:11:47 2025.
