 Entering Gaussian System, Link 0=g16
 Initial command:
 /opt/g16/l1.exe "/home/aayush/scratches/g16/Gau-16410.inp" -scrdir="/home/aayush/scratches/g16/"
 Entering Link 1 = /opt/g16/l1.exe PID=     16413.
  
 Copyright (c) 1988,1990,1992,1993,1995,1998,2003,2009,2016,
            Gaussian, Inc.  All Rights Reserved.
  
 This is part of the Gaussian(R) 16 program.  It is based on
 the Gaussian(R) 09 system (copyright 2009, Gaussian, Inc.),
 the Gaussian(R) 03 system (copyright 2003, Gaussian, Inc.),
 the Gaussian(R) 98 system (copyright 1998, Gaussian, Inc.),
 the Gaussian(R) 94 system (copyright 1995, Gaussian, Inc.),
 the Gaussian 92(TM) system (copyright 1992, Gaussian, Inc.),
 the Gaussian 90(TM) system (copyright 1990, Gaussian, Inc.),
 the Gaussian 88(TM) system (copyright 1988, Gaussian, Inc.),
 the Gaussian 86(TM) system (copyright 1986, Carnegie Mellon
 University), and the Gaussian 82(TM) system (copyright 1983,
 Carnegie Mellon University). Gaussian is a federally registered
 trademark of Gaussian, Inc.
  
 This software contains proprietary and confidential information,
 including trade secrets, belonging to Gaussian, Inc.
  
 This software is provided under written license and may be
 used, copied, transmitted, or stored only in accord with that
 written license.
  
 The following legend is applicable only to US Government
 contracts under FAR:
  
                    RESTRICTED RIGHTS LEGEND
  
 Use, reproduction and disclosure by the US Government is
 subject to restrictions as set forth in subparagraphs (a)
 and (c) of the Commercial Computer Software - Restricted
 Rights clause in FAR 52.227-19.
  
 Gaussian, Inc.
 340 Quinnipiac St., Bldg. 40, Wallingford CT 06492
  
  
 ---------------------------------------------------------------
 Warning -- This program may not be used in any manner that
 competes with the business of Gaussian, Inc. or will provide
 assistance to any competitor of Gaussian, Inc.  The licensee
 of this program is prohibited from giving any competitor of
 Gaussian, Inc. access to this program.  By using this program,
 the user acknowledges that Gaussian, Inc. is engaged in the
 business of creating and licensing software in the field of
 computational chemistry and represents and warrants to the
 licensee that it is not a competitor of Gaussian, Inc. and that
 it will not use this program in any manner prohibited above.
 ---------------------------------------------------------------
  

 Cite this work as:
 Gaussian 16, Revision A.03,
 M. J. Frisch, G. W. Trucks, H. B. Schlegel, G. E. Scuseria, 
 M. A. Robb, J. R. Cheeseman, G. Scalmani, V. Barone, 
 G. A. Petersson, H. Nakatsuji, X. Li, M. Caricato, A. V. Marenich, 
 J. Bloino, B. G. Janesko, R. Gomperts, B. Mennucci, H. P. Hratchian, 
 J. V. Ortiz, A. F. Izmaylov, J. L. Sonnenberg, D. Williams-Young, 
 F. Ding, F. Lipparini, F. Egidi, J. Goings, B. Peng, A. Petrone, 
 T. Henderson, D. Ranasinghe, V. G. Zakrzewski, J. Gao, N. Rega, 
 G. Zheng, W. Liang, M. Hada, M. Ehara, K. Toyota, R. Fukuda, 
 J. Hasegawa, M. Ishida, T. Nakajima, Y. Honda, O. Kitao, H. Nakai, 
 T. Vreven, K. Throssell, J. A. Montgomery, Jr., J. E. Peralta, 
 F. Ogliaro, M. J. Bearpark, J. J. Heyd, E. N. Brothers, K. N. Kudin, 
 V. N. Staroverov, T. A. Keith, R. Kobayashi, J. Normand, 
 K. Raghavachari, A. P. Rendell, J. C. Burant, S. S. Iyengar, 
 J. Tomasi, M. Cossi, J. M. Millam, M. Klene, C. Adamo, R. Cammi, 
 J. W. Ochterski, R. L. Martin, K. Morokuma, O. Farkas, 
 J. B. Foresman, and D. J. Fox, Gaussian, Inc., Wallingford CT, 2016.
 
 ******************************************
 Gaussian 16:  ES64L-G16RevA.03 25-Dec-2016
                23-Jun-2025 
 ******************************************
 %nprocshared=24
 Will use up to   24 processors via shared memory.
 %mem=12GB
 %chk=ethyl_propiolate_ts1.chk
 --------------------------
 # freq 6-311++g(d,p) m062x
 --------------------------
 1/10=4,30=1,38=1/1,3;
 2/12=2,17=6,18=5,40=1/2;
 3/5=4,6=6,7=1111,11=2,25=1,30=1,71=2,74=-55,140=1/1,2,3;
 4//1;
 5/5=2,38=5,98=1/2;
 8/6=4,10=90,11=11/1;
 11/6=1,8=1,9=11,15=111,16=1/1,2,10;
 10/6=1/2;
 6/7=2,8=2,9=2,10=2,28=1/1;
 7/8=1,10=1,25=1/1,2,3,16;
 1/10=4,30=1/3;
 99//99;
 -------------------
 Title Card Required
 -------------------
 Symbolic Z-matrix:
 Charge =  0 Multiplicity = 2
 O                     2.65618   1.7823   -0.24487 
 H                     1.82295   2.22813  -0.01386 
 C                    -3.19079   1.03586   0.40332 
 H                    -4.07062   1.58289   0.6499 
 C                    -2.20217   0.41898   0.12583 
 C                    -1.03295  -0.37128  -0.22701 
 O                    -1.08115  -1.47354  -0.69337 
 O                     0.09659   0.29958   0.03616 
 C                     1.31482  -0.38611  -0.28883 
 C                     1.7675   -1.30151   0.81844 
 H                     2.06763   0.42286  -0.42712 
 H                     1.20642  -0.88546  -1.25188 
 H                     2.75059  -1.70664   0.57341 
 H                     1.84294  -0.75255   1.7581 
 H                     1.06867  -2.13159   0.93764 
 

 GradGradGradGradGradGradGradGradGradGradGradGradGradGradGradGradGradGrad
 Berny optimization.
 Initialization pass.
 Trust Radius=3.00D-01 FncErr=1.00D-07 GrdErr=1.00D-07 EigMax=2.50D+02 EigMin=1.00D-04
 Number of steps in this run=      2 maximum allowed number of steps=      2.
 GradGradGradGradGradGradGradGradGradGradGradGradGradGradGradGradGradGrad

                          Input orientation:                          
 ---------------------------------------------------------------------
 Center     Atomic      Atomic             Coordinates (Angstroms)
 Number     Number       Type             X           Y           Z
 ---------------------------------------------------------------------
      1          8           0        2.656184    1.782296   -0.244867
      2          1           0        1.822947    2.228135   -0.013856
      3          6           0       -3.190786    1.035859    0.403319
      4          1           0       -4.070619    1.582893    0.649895
      5          6           0       -2.202169    0.418984    0.125826
      6          6           0       -1.032954   -0.371278   -0.227009
      7          8           0       -1.081151   -1.473540   -0.693371
      8          8           0        0.096591    0.299576    0.036162
      9          6           0        1.314816   -0.386110   -0.288834
     10          6           0        1.767499   -1.301506    0.818438
     11          1           0        2.067631    0.422862   -0.427118
     12          1           0        1.206418   -0.885463   -1.251875
     13          1           0        2.750594   -1.706643    0.573409
     14          1           0        1.842936   -0.752546    1.758101
     15          1           0        1.068669   -2.131593    0.937635
 ---------------------------------------------------------------------
                    Distance matrix (angstroms):
                    1          2          3          4          5
     1  O    0.000000
     2  H    0.972842   0.000000
     3  C    5.929955   5.170404   0.000000
     4  H    6.788979   5.965821   1.064966   0.000000
     5  C    5.059607   4.415212   1.197873   2.262838   0.000000
     6  C    4.271761   3.867629   2.652091   3.716874   1.454672
     7  O    4.976876   4.753727   3.456931   4.481413   2.347214
     8  O    2.971355   2.588850   3.388770   4.403318   2.303605
     9  C    2.550134   2.677328   4.775094   5.810430   3.631708
    10  C    3.380860   3.626866   5.497289   6.513969   4.381559
    11  H    1.492538   1.868065   5.358763   6.339065   4.305456
    12  H    3.198879   3.406948   5.076076   6.128346   3.901039
    13  H    3.584855   4.085081   6.546010   7.573364   5.408187
    14  H    3.331468   3.467664   5.511096   6.453877   4.516600
    15  H    4.386005   4.525649   5.334904   6.347636   4.226447
                    6          7          8          9         10
     6  C    0.000000
     7  O    1.197831   0.000000
     8  O    1.339842   2.250163   0.000000
     9  C    2.348631   2.662107   1.435221   0.000000
    10  C    3.130626   3.229546   2.442817   1.506294   0.000000
    11  H    3.206919   3.685385   2.028504   1.113682   2.148240
    12  H    2.515854   2.427083   2.072456   1.090207   2.184971
    13  H    4.091345   4.042442   3.370057   2.132775   1.091170
    14  H    3.515220   3.883276   2.668662   2.145490   1.090878
    15  H    2.978577   2.777578   2.769146   2.147446   1.091612
                   11         12         13         14         15
    11  H    0.000000
    12  H    1.770205   0.000000
    13  H    2.449956   2.527939   0.000000
    14  H    2.491436   3.079412   1.771338   0.000000
    15  H    3.063612   2.523048   1.772601   1.781691   0.000000
 Stoichiometry    C5H7O3(2)
 Framework group  C1[X(C5H7O3)]
 Deg. of freedom    39
 Full point group                 C1      NOp   1
 Largest Abelian subgroup         C1      NOp   1
 Largest concise Abelian subgroup C1      NOp   1
                         Standard orientation:                         
 ---------------------------------------------------------------------
 Center     Atomic      Atomic             Coordinates (Angstroms)
 Number     Number       Type             X           Y           Z
 ---------------------------------------------------------------------
      1          8           0        2.656184    1.782296   -0.244867
      2          1           0        1.822947    2.228135   -0.013856
      3          6           0       -3.190786    1.035859    0.403319
      4          1           0       -4.070619    1.582894    0.649895
      5          6           0       -2.202169    0.418984    0.125826
      6          6           0       -1.032954   -0.371278   -0.227009
      7          8           0       -1.081151   -1.473540   -0.693371
      8          8           0        0.096591    0.299576    0.036162
      9          6           0        1.314816   -0.386110   -0.288834
     10          6           0        1.767499   -1.301506    0.818438
     11          1           0        2.067631    0.422862   -0.427118
     12          1           0        1.206418   -0.885463   -1.251875
     13          1           0        2.750594   -1.706643    0.573409
     14          1           0        1.842936   -0.752546    1.758101
     15          1           0        1.068669   -2.131593    0.937635
 ---------------------------------------------------------------------
 Rotational constants (GHZ):           2.9935823           1.1279205           0.8975100
 Standard basis: 6-311++G(d,p) (5D, 7F)
 There are   233 symmetry adapted cartesian basis functions of A   symmetry.
 There are   225 symmetry adapted basis functions of A   symmetry.
   225 basis functions,   351 primitive gaussians,   233 cartesian basis functions
    31 alpha electrons       30 beta electrons
       nuclear repulsion energy       347.9875892059 Hartrees.
 NAtoms=   15 NActive=   15 NUniq=   15 SFac= 1.00D+00 NAtFMM=   60 NAOKFM=F Big=F
 Integral buffers will be    131072 words long.
 Raffenetti 2 integral format.
 Two-electron integral symmetry is turned on.
 One-electron integrals computed using PRISM.
 NBasis=   225 RedAO= T EigKep=  7.74D-06  NBF=   225
 NBsUse=   224 1.00D-06 EigRej=  8.07D-07 NBFU=   224
 ExpMin= 3.60D-02 ExpMax= 8.59D+03 ExpMxC= 1.30D+03 IAcc=3 IRadAn=         5 AccDes= 0.00D+00
 Harris functional with IExCor= 1009 and IRadAn=       5 diagonalized for initial guess.
 HarFok:  IExCor= 1009 AccDes= 0.00D+00 IRadAn=         5 IDoV= 1 UseB2=F ITyADJ=14
 ICtDFT=  3500011 ScaDFX=  1.000000  1.000000  1.000000  1.000000
 FoFCou: FMM=F IPFlag=           0 FMFlag=      100000 FMFlg1=           0
         NFxFlg=           0 DoJE=T BraDBF=F KetDBF=T FulRan=T
         wScrn=  0.000000 ICntrl=       500 IOpCl=  0 I1Cent=   200000004 NGrid=           0
         NMat0=    1 NMatS0=      1 NMatT0=    0 NMatD0=    1 NMtDS0=    0 NMtDT0=    0
 Petite list used in FoFCou.
 Initial guess <Sx>= 0.0000 <Sy>= 0.0000 <Sz>= 0.5000 <S**2>= 0.7500 S= 0.5000
 Requested convergence on RMS density matrix=1.00D-08 within 128 cycles.
 Requested convergence on MAX density matrix=1.00D-06.
 Requested convergence on             energy=1.00D-06.
 No special actions if energy rises.
 Restarting incremental Fock formation.
 SCF Done:  E(UM062X) =  -420.200128364     A.U. after   21 cycles
            NFock= 21  Conv=0.40D-08     -V/T= 2.0031
 <Sx>= 0.0000 <Sy>= 0.0000 <Sz>= 0.5000 <S**2>= 0.7562 S= 0.5031
 <L.S>=  0.00000000000    
 Annihilation of the first spin contaminant:
 S**2 before annihilation     0.7562,   after     0.7500
 DoSCS=F DFT=T ScalE2(SS,OS)=  1.000000  1.000000
 Range of M.O.s used for correlation:     1   224
 NBasis=   225 NAE=    31 NBE=    30 NFC=     0 NFV=     0
 NROrb=    224 NOA=    31 NOB=    30 NVA=   193 NVB=   194

 **** Warning!!: The largest alpha MO coefficient is  0.11176108D+03


 **** Warning!!: The largest beta MO coefficient is  0.10364816D+03

 Symmetrizing basis deriv contribution to polar:
 IMax=3 JMax=2 DiffMx= 0.00D+00
 G2DrvN: will do    16 centers at a time, making    1 passes.
 Calling FoFCou, ICntrl=  3107 FMM=F I1Cent=   0 AccDes= 0.00D+00.
 End of G2Drv F.D. properties file   721 does not exist.
 End of G2Drv F.D. properties file   722 does not exist.
 End of G2Drv F.D. properties file   788 does not exist.
          IDoAtm=111111111111111
          Differentiating once with respect to electric field.
                with respect to dipole field.
          Differentiating once with respect to nuclear coordinates.
 Keep R1 and R2 ints in memory in canonical form, NReq=671901989.
          There are    48 degrees of freedom in the 1st order CPHF.  IDoFFX=6 NUNeed=     3.
     45 vectors produced by pass  0 Test12= 2.46D-14 2.08D-09 XBig12= 8.86D+01 3.27D+00.
 AX will form    45 AO Fock derivatives at one time.
     45 vectors produced by pass  1 Test12= 2.46D-14 2.08D-09 XBig12= 1.82D+01 7.07D-01.
     45 vectors produced by pass  2 Test12= 2.46D-14 2.08D-09 XBig12= 6.08D-01 1.34D-01.
     45 vectors produced by pass  3 Test12= 2.46D-14 2.08D-09 XBig12= 8.87D-03 1.39D-02.
     45 vectors produced by pass  4 Test12= 2.46D-14 2.08D-09 XBig12= 7.56D-05 9.73D-04.
     45 vectors produced by pass  5 Test12= 2.46D-14 2.08D-09 XBig12= 5.38D-07 1.16D-04.
     42 vectors produced by pass  6 Test12= 2.46D-14 2.08D-09 XBig12= 3.70D-09 6.55D-06.
     20 vectors produced by pass  7 Test12= 2.46D-14 2.08D-09 XBig12= 2.41D-11 5.25D-07.
      3 vectors produced by pass  8 Test12= 2.46D-14 2.08D-09 XBig12= 1.89D-13 4.19D-08.
      2 vectors produced by pass  9 Test12= 2.46D-14 2.08D-09 XBig12= 1.89D-15 4.31D-09.
 InvSVY:  IOpt=1 It=  1 EMax= 1.07D-14
 Solved reduced A of dimension   337 with    48 vectors.
 Isotropic polarizability for W=    0.000000       74.33 Bohr**3.
 End of Minotr F.D. properties file   721 does not exist.
 End of Minotr F.D. properties file   722 does not exist.
 End of Minotr F.D. properties file   788 does not exist.

 **********************************************************************

            Population analysis using the SCF density.

 **********************************************************************

 Orbital symmetries:
 Alpha Orbitals:
       Occupied  (A) (A) (A) (A) (A) (A) (A) (A) (A) (A) (A) (A)
                 (A) (A) (A) (A) (A) (A) (A) (A) (A) (A) (A) (A)
                 (A) (A) (A) (A) (A) (A) (A)
       Virtual   (A) (A) (A) (A) (A) (A) (A) (A) (A) (A) (A) (A)
                 (A) (A) (A) (A) (A) (A) (A) (A) (A) (A) (A) (A)
                 (A) (A) (A) (A) (A) (A) (A) (A) (A) (A) (A) (A)
                 (A) (A) (A) (A) (A) (A) (A) (A) (A) (A) (A) (A)
                 (A) (A) (A) (A) (A) (A) (A) (A) (A) (A) (A) (A)
                 (A) (A) (A) (A) (A) (A) (A) (A) (A) (A) (A) (A)
                 (A) (A) (A) (A) (A) (A) (A) (A) (A) (A) (A) (A)
                 (A) (A) (A) (A) (A) (A) (A) (A) (A) (A) (A) (A)
                 (A) (A) (A) (A) (A) (A) (A) (A) (A) (A) (A) (A)
                 (A) (A) (A) (A) (A) (A) (A) (A) (A) (A) (A) (A)
                 (A) (A) (A) (A) (A) (A) (A) (A) (A) (A) (A) (A)
                 (A) (A) (A) (A) (A) (A) (A) (A) (A) (A) (A) (A)
                 (A) (A) (A) (A) (A) (A) (A) (A) (A) (A) (A) (A)
                 (A) (A) (A) (A) (A) (A) (A) (A) (A) (A) (A) (A)
                 (A) (A) (A) (A) (A) (A) (A) (A) (A) (A) (A) (A)
                 (A) (A) (A) (A) (A) (A) (A) (A) (A) (A) (A) (A)
                 (A)
 Beta  Orbitals:
       Occupied  (A) (A) (A) (A) (A) (A) (A) (A) (A) (A) (A) (A)
                 (A) (A) (A) (A) (A) (A) (A) (A) (A) (A) (A) (A)
                 (A) (A) (A) (A) (A) (A)
       Virtual   (A) (A) (A) (A) (A) (A) (A) (A) (A) (A) (A) (A)
                 (A) (A) (A) (A) (A) (A) (A) (A) (A) (A) (A) (A)
                 (A) (A) (A) (A) (A) (A) (A) (A) (A) (A) (A) (A)
                 (A) (A) (A) (A) (A) (A) (A) (A) (A) (A) (A) (A)
                 (A) (A) (A) (A) (A) (A) (A) (A) (A) (A) (A) (A)
                 (A) (A) (A) (A) (A) (A) (A) (A) (A) (A) (A) (A)
                 (A) (A) (A) (A) (A) (A) (A) (A) (A) (A) (A) (A)
                 (A) (A) (A) (A) (A) (A) (A) (A) (A) (A) (A) (A)
                 (A) (A) (A) (A) (A) (A) (A) (A) (A) (A) (A) (A)
                 (A) (A) (A) (A) (A) (A) (A) (A) (A) (A) (A) (A)
                 (A) (A) (A) (A) (A) (A) (A) (A) (A) (A) (A) (A)
                 (A) (A) (A) (A) (A) (A) (A) (A) (A) (A) (A) (A)
                 (A) (A) (A) (A) (A) (A) (A) (A) (A) (A) (A) (A)
                 (A) (A) (A) (A) (A) (A) (A) (A) (A) (A) (A) (A)
                 (A) (A) (A) (A) (A) (A) (A) (A) (A) (A) (A) (A)
                 (A) (A) (A) (A) (A) (A) (A) (A) (A) (A) (A) (A)
                 (A) (A)
 The electronic state is 2-A.
 Alpha  occ. eigenvalues --  -19.69489 -19.68102 -19.64140 -10.71578 -10.61520
 Alpha  occ. eigenvalues --  -10.57736 -10.57307 -10.54335  -1.26728  -1.17487
 Alpha  occ. eigenvalues --   -1.14352  -0.91309  -0.87771  -0.78873  -0.71598
 Alpha  occ. eigenvalues --   -0.65716  -0.62032  -0.60122  -0.58015  -0.57128
 Alpha  occ. eigenvalues --   -0.55056  -0.50224  -0.50039  -0.47284  -0.45381
 Alpha  occ. eigenvalues --   -0.43369  -0.40804  -0.40250  -0.37913  -0.37876
 Alpha  occ. eigenvalues --   -0.36999
 Alpha virt. eigenvalues --   -0.02320  -0.00575   0.00644   0.01357   0.01947
 Alpha virt. eigenvalues --    0.03338   0.03532   0.04694   0.06018   0.06101
 Alpha virt. eigenvalues --    0.06629   0.07420   0.08159   0.09537   0.10326
 Alpha virt. eigenvalues --    0.11394   0.11863   0.12510   0.12806   0.12985
 Alpha virt. eigenvalues --    0.14060   0.14375   0.15134   0.15886   0.16616
 Alpha virt. eigenvalues --    0.17712   0.18162   0.18561   0.19452   0.20093
 Alpha virt. eigenvalues --    0.21519   0.22290   0.23870   0.24794   0.25606
 Alpha virt. eigenvalues --    0.26511   0.27723   0.27967   0.28699   0.29940
 Alpha virt. eigenvalues --    0.30709   0.31186   0.32188   0.32750   0.33876
 Alpha virt. eigenvalues --    0.34479   0.35397   0.37072   0.37901   0.40921
 Alpha virt. eigenvalues --    0.42790   0.44509   0.46740   0.47938   0.50738
 Alpha virt. eigenvalues --    0.50993   0.53464   0.56269   0.57733   0.60010
 Alpha virt. eigenvalues --    0.60745   0.63132   0.64761   0.67024   0.67803
 Alpha virt. eigenvalues --    0.68314   0.69759   0.71026   0.72575   0.74024
 Alpha virt. eigenvalues --    0.75159   0.76754   0.79816   0.82208   0.84244
 Alpha virt. eigenvalues --    0.88992   0.92946   0.95904   1.00367   1.03789
 Alpha virt. eigenvalues --    1.07149   1.08219   1.10529   1.11768   1.14075
 Alpha virt. eigenvalues --    1.15520   1.17104   1.17709   1.18693   1.21350
 Alpha virt. eigenvalues --    1.23136   1.23898   1.28964   1.29891   1.34359
 Alpha virt. eigenvalues --    1.35804   1.36666   1.38027   1.40786   1.43252
 Alpha virt. eigenvalues --    1.47721   1.49333   1.50338   1.54023   1.58956
 Alpha virt. eigenvalues --    1.60047   1.60946   1.62275   1.63402   1.65495
 Alpha virt. eigenvalues --    1.66816   1.68042   1.70215   1.74295   1.76564
 Alpha virt. eigenvalues --    1.80630   1.83806   1.84927   1.88700   1.90448
 Alpha virt. eigenvalues --    1.95936   2.00493   2.02354   2.05559   2.08370
 Alpha virt. eigenvalues --    2.10052   2.14067   2.20393   2.29172   2.33602
 Alpha virt. eigenvalues --    2.41800   2.46833   2.50474   2.51180   2.53753
 Alpha virt. eigenvalues --    2.57432   2.59935   2.60831   2.63071   2.64616
 Alpha virt. eigenvalues --    2.66144   2.69471   2.71918   2.73267   2.78907
 Alpha virt. eigenvalues --    2.82084   2.82502   2.87106   2.92633   2.94614
 Alpha virt. eigenvalues --    2.98129   3.01484   3.03705   3.05818   3.09437
 Alpha virt. eigenvalues --    3.12999   3.15015   3.16097   3.20755   3.24047
 Alpha virt. eigenvalues --    3.30008   3.33196   3.37675   3.39568   3.43370
 Alpha virt. eigenvalues --    3.56466   3.65905   3.72984   3.81738   3.85628
 Alpha virt. eigenvalues --    3.86287   3.94205   4.05842   4.12629   4.18208
 Alpha virt. eigenvalues --    4.27775   5.05678   5.12981   5.15114   5.17014
 Alpha virt. eigenvalues --    5.31015   5.45737   5.55420   5.72284   5.93960
 Alpha virt. eigenvalues --   23.62086  23.93235  23.93948  24.05256  25.17208
 Alpha virt. eigenvalues --   49.94146  49.98724  50.10328
  Beta  occ. eigenvalues --  -19.69494 -19.66627 -19.64137 -10.71571 -10.61275
  Beta  occ. eigenvalues --  -10.57736 -10.57308 -10.54338  -1.26683  -1.17416
  Beta  occ. eigenvalues --   -1.07728  -0.90992  -0.87473  -0.78746  -0.70892
  Beta  occ. eigenvalues --   -0.65499  -0.61769  -0.59389  -0.57354  -0.55200
  Beta  occ. eigenvalues --   -0.52380  -0.50041  -0.47566  -0.46075  -0.42546
  Beta  occ. eigenvalues --   -0.40297  -0.40076  -0.39410  -0.37894  -0.36987
  Beta virt. eigenvalues --   -0.10917  -0.02300  -0.00407   0.00700   0.01607
  Beta virt. eigenvalues --    0.02032   0.03370   0.03557   0.04868   0.06100
  Beta virt. eigenvalues --    0.06156   0.06701   0.07541   0.08199   0.09719
  Beta virt. eigenvalues --    0.10443   0.11603   0.12101   0.12600   0.13032
  Beta virt. eigenvalues --    0.13109   0.14148   0.14485   0.15193   0.16095
  Beta virt. eigenvalues --    0.16707   0.17813   0.18209   0.18592   0.19755
  Beta virt. eigenvalues --    0.20138   0.21552   0.22421   0.23438   0.24456
  Beta virt. eigenvalues --    0.25632   0.26640   0.27826   0.28236   0.28823
  Beta virt. eigenvalues --    0.30121   0.30922   0.31453   0.32338   0.32827
  Beta virt. eigenvalues --    0.33995   0.34791   0.35503   0.37702   0.38206
  Beta virt. eigenvalues --    0.41605   0.42977   0.44615   0.46789   0.48034
  Beta virt. eigenvalues --    0.50775   0.51073   0.53672   0.56317   0.57970
  Beta virt. eigenvalues --    0.60325   0.60936   0.63209   0.64895   0.67126
  Beta virt. eigenvalues --    0.67875   0.68836   0.70131   0.71238   0.72652
  Beta virt. eigenvalues --    0.74064   0.75219   0.76878   0.80013   0.82402
  Beta virt. eigenvalues --    0.84269   0.89085   0.93082   0.95960   1.00965
  Beta virt. eigenvalues --    1.04296   1.07387   1.09039   1.10582   1.13604
  Beta virt. eigenvalues --    1.14385   1.15822   1.17148   1.18130   1.20219
  Beta virt. eigenvalues --    1.21829   1.23313   1.24109   1.29082   1.30015
  Beta virt. eigenvalues --    1.34580   1.35959   1.36789   1.38517   1.41092
  Beta virt. eigenvalues --    1.43314   1.48061   1.49917   1.50791   1.55564
  Beta virt. eigenvalues --    1.59085   1.60172   1.60998   1.62569   1.63412
  Beta virt. eigenvalues --    1.65644   1.67057   1.68435   1.70427   1.74220
  Beta virt. eigenvalues --    1.76968   1.80695   1.83811   1.84989   1.89447
  Beta virt. eigenvalues --    1.90565   1.96014   2.00591   2.02214   2.05631
  Beta virt. eigenvalues --    2.09107   2.10466   2.14335   2.20568   2.29554
  Beta virt. eigenvalues --    2.33661   2.41807   2.47102   2.50517   2.51269
  Beta virt. eigenvalues --    2.53854   2.57379   2.60232   2.60943   2.63285
  Beta virt. eigenvalues --    2.64742   2.66194   2.69496   2.71902   2.73246
  Beta virt. eigenvalues --    2.78977   2.82191   2.82540   2.89639   2.93291
  Beta virt. eigenvalues --    2.96724   2.98187   3.01631   3.03715   3.05835
  Beta virt. eigenvalues --    3.09550   3.13339   3.17753   3.19145   3.21148
  Beta virt. eigenvalues --    3.24239   3.30389   3.33232   3.37800   3.41882
  Beta virt. eigenvalues --    3.43476   3.56473   3.65941   3.73150   3.83038
  Beta virt. eigenvalues --    3.86159   3.86716   3.95659   4.06216   4.12795
  Beta virt. eigenvalues --    4.18278   4.28122   5.07450   5.13124   5.16414
  Beta virt. eigenvalues --    5.23538   5.31054   5.46003   5.57739   5.72336
  Beta virt. eigenvalues --    5.93974  23.62087  23.93326  23.93968  24.05262
  Beta virt. eigenvalues --   25.17209  49.93656  49.98732  50.10326
          Condensed to atoms (all electrons):
               1          2          3          4          5          6
     1  O    8.001905   0.272231  -0.001015  -0.000036   0.009882  -0.002038
     2  H    0.272231   0.478026  -0.000455  -0.000148  -0.000500  -0.001382
     3  C   -0.001015  -0.000455   5.800018   0.447746  -0.472378   0.949894
     4  H   -0.000036  -0.000148   0.447746   0.426208  -0.076107   0.024479
     5  C    0.009882  -0.000500  -0.472378  -0.076107   8.102650  -2.197933
     6  C   -0.002038  -0.001382   0.949894   0.024479  -2.197933   7.526172
     7  O   -0.000372  -0.000484  -0.095778  -0.003192   0.118173   0.360773
     8  O    0.015457   0.007523  -0.094381  -0.005236  -0.270746   0.050147
     9  C   -0.005396   0.008627   0.047111   0.000734  -0.237227   0.073871
    10  C   -0.014256   0.014974  -0.013400  -0.001266  -0.068857  -0.086360
    11  H   -0.002368  -0.039491   0.005255   0.000442  -0.014930   0.013088
    12  H    0.002082  -0.000741  -0.002449  -0.000087   0.012667   0.001422
    13  H   -0.002077   0.001966  -0.000673  -0.000033  -0.000371  -0.004109
    14  H    0.005609  -0.001579   0.000221   0.000018   0.006753   0.005437
    15  H   -0.003486   0.000201   0.004353   0.000045  -0.030603   0.007846
               7          8          9         10         11         12
     1  O   -0.000372   0.015457  -0.005396  -0.014256  -0.002368   0.002082
     2  H   -0.000484   0.007523   0.008627   0.014974  -0.039491  -0.000741
     3  C   -0.095778  -0.094381   0.047111  -0.013400   0.005255  -0.002449
     4  H   -0.003192  -0.005236   0.000734  -0.001266   0.000442  -0.000087
     5  C    0.118173  -0.270746  -0.237227  -0.068857  -0.014930   0.012667
     6  C    0.360773   0.050147   0.073871  -0.086360   0.013088   0.001422
     7  O    7.984316  -0.145292   0.073618  -0.088448   0.011776  -0.014312
     8  O   -0.145292   8.386522   0.170741   0.010807  -0.091522  -0.021594
     9  C    0.073618   0.170741   5.916722  -0.308356   0.398643   0.429028
    10  C   -0.088448   0.010807  -0.308356   5.882743  -0.120988  -0.065223
    11  H    0.011776  -0.091522   0.398643  -0.120988   0.635856  -0.052232
    12  H   -0.014312  -0.021594   0.429028  -0.065223  -0.052232   0.498754
    13  H   -0.002382   0.020460  -0.052839   0.421172  -0.017180  -0.005685
    14  H    0.000397  -0.008518  -0.028624   0.396683  -0.013643   0.004473
    15  H    0.003403  -0.018964  -0.008602   0.381574   0.018405  -0.006514
              13         14         15
     1  O   -0.002077   0.005609  -0.003486
     2  H    0.001966  -0.001579   0.000201
     3  C   -0.000673   0.000221   0.004353
     4  H   -0.000033   0.000018   0.000045
     5  C   -0.000371   0.006753  -0.030603
     6  C   -0.004109   0.005437   0.007846
     7  O   -0.002382   0.000397   0.003403
     8  O    0.020460  -0.008518  -0.018964
     9  C   -0.052839  -0.028624  -0.008602
    10  C    0.421172   0.396683   0.381574
    11  H   -0.017180  -0.013643   0.018405
    12  H   -0.005685   0.004473  -0.006514
    13  H    0.526577  -0.030888  -0.030599
    14  H   -0.030888   0.534910  -0.048399
    15  H   -0.030599  -0.048399   0.543687
          Atomic-Atomic Spin Densities.
               1          2          3          4          5          6
     1  O    0.928104   0.009048  -0.000353  -0.000008   0.004256   0.000234
     2  H    0.009048  -0.031457   0.000124   0.000001  -0.000924  -0.000301
     3  C   -0.000353   0.000124   0.004342   0.000678  -0.012988   0.007162
     4  H   -0.000008   0.000001   0.000678   0.000074  -0.001939   0.001121
     5  C    0.004256  -0.000924  -0.012988  -0.001939   0.031860  -0.009194
     6  C    0.000234  -0.000301   0.007162   0.001121  -0.009194  -0.002759
     7  O    0.000107  -0.000008  -0.001153  -0.000020   0.006429  -0.003911
     8  O    0.026937  -0.002446   0.001908   0.000006  -0.009712   0.010699
     9  C   -0.086110   0.007489   0.000184  -0.000010  -0.009264  -0.003743
    10  C    0.024465  -0.002710  -0.001518  -0.000020   0.013130  -0.003436
    11  H   -0.066617   0.003425   0.001452   0.000092  -0.007003   0.005780
    12  H    0.003349  -0.000143   0.000175  -0.000009  -0.001043   0.000281
    13  H    0.000008   0.000051   0.000015   0.000001  -0.000075   0.000166
    14  H    0.002368  -0.000353  -0.000045  -0.000013  -0.000025   0.000017
    15  H   -0.001392   0.000151  -0.000034   0.000014   0.000274  -0.000650
               7          8          9         10         11         12
     1  O    0.000107   0.026937  -0.086110   0.024465  -0.066617   0.003349
     2  H   -0.000008  -0.002446   0.007489  -0.002710   0.003425  -0.000143
     3  C   -0.001153   0.001908   0.000184  -0.001518   0.001452   0.000175
     4  H   -0.000020   0.000006  -0.000010  -0.000020   0.000092  -0.000009
     5  C    0.006429  -0.009712  -0.009264   0.013130  -0.007003  -0.001043
     6  C   -0.003911   0.010699  -0.003743  -0.003436   0.005780   0.000281
     7  O    0.001086   0.000832   0.000539  -0.000944  -0.001982   0.000413
     8  O    0.000832   0.013336  -0.039993   0.008291  -0.018281   0.002374
     9  C    0.000539  -0.039993   0.266436  -0.005562   0.084688  -0.014105
    10  C   -0.000944   0.008291  -0.005562  -0.018285  -0.025721   0.006715
    11  H   -0.001982  -0.018281   0.084688  -0.025721  -0.010183   0.002144
    12  H    0.000413   0.002374  -0.014105   0.006715   0.002144   0.001110
    13  H   -0.000029   0.000102  -0.001633   0.002532  -0.001522  -0.000069
    14  H    0.000263   0.001399  -0.009016   0.006670  -0.000510   0.000007
    15  H   -0.000627  -0.000041   0.004670  -0.002613  -0.000214  -0.000845
              13         14         15
     1  O    0.000008   0.002368  -0.001392
     2  H    0.000051  -0.000353   0.000151
     3  C    0.000015  -0.000045  -0.000034
     4  H    0.000001  -0.000013   0.000014
     5  C   -0.000075  -0.000025   0.000274
     6  C    0.000166   0.000017  -0.000650
     7  O   -0.000029   0.000263  -0.000627
     8  O    0.000102   0.001399  -0.000041
     9  C   -0.001633  -0.009016   0.004670
    10  C    0.002532   0.006670  -0.002613
    11  H   -0.001522  -0.000510  -0.000214
    12  H   -0.000069   0.000007  -0.000845
    13  H    0.000580  -0.000275  -0.000185
    14  H   -0.000275   0.002070  -0.001402
    15  H   -0.000185  -0.001402   0.012697
 Mulliken charges and spin densities:
               1          2
     1  O   -0.276121   0.844397
     2  H    0.261232  -0.018053
     3  C   -0.574070  -0.000051
     4  H    0.186434  -0.000032
     5  C    1.119526   0.003781
     6  C   -0.721308   0.001465
     7  O   -0.202195   0.000995
     8  O   -0.005406  -0.004590
     9  C   -0.478053   0.194570
    10  C   -0.340800   0.000994
    11  H    0.268890  -0.034452
    12  H    0.220410   0.000354
    13  H    0.176659  -0.000335
    14  H    0.177148   0.001156
    15  H    0.187654   0.009803
 Sum of Mulliken charges =  -0.00000   1.00000
 Mulliken charges and spin densities with hydrogens summed into heavy atoms:
               1          2
     1  O   -0.014889   0.826344
     3  C   -0.387636  -0.000083
     5  C    1.119526   0.003781
     6  C   -0.721308   0.001465
     7  O   -0.202195   0.000995
     8  O   -0.005406  -0.004590
     9  C    0.011247   0.160472
    10  C    0.200662   0.011617
 APT charges:
               1
     1  O   -0.143400
     2  H    0.312367
     3  C   -0.183170
     4  H    0.236791
     5  C   -0.307764
     6  C    1.533556
     7  O   -0.787440
     8  O   -1.018329
     9  C    0.787160
    10  C   -0.128380
    11  H   -0.331541
    12  H   -0.044533
    13  H    0.022232
    14  H    0.022140
    15  H    0.030311
 Sum of APT charges =   0.00000
 APT charges with hydrogens summed into heavy atoms:
               1
     1  O    0.168967
     3  C    0.053620
     5  C   -0.307764
     6  C    1.533556
     7  O   -0.787440
     8  O   -1.018329
     9  C    0.411086
    10  C   -0.053697
 Electronic spatial extent (au):  <R**2>=           1266.5316
 Charge=              0.0000 electrons
 Dipole moment (field-independent basis, Debye):
    X=             -1.0374    Y=              1.3694    Z=              1.1680  Tot=              2.0775
 Quadrupole moment (field-independent basis, Debye-Ang):
   XX=            -45.1479   YY=            -47.3679   ZZ=            -48.3424
   XY=            -10.5624   XZ=             -1.9939   YZ=             -0.3422
 Traceless Quadrupole moment (field-independent basis, Debye-Ang):
   XX=              1.8049   YY=             -0.4152   ZZ=             -1.3897
   XY=            -10.5624   XZ=             -1.9939   YZ=             -0.3422
 Octapole moment (field-independent basis, Debye-Ang**2):
  XXX=            -48.7199  YYY=             18.3294  ZZZ=             -3.3210  XYY=              2.7657
  XXY=              9.8036  XXZ=             12.0071  XZZ=              4.6302  YZZ=             -0.1249
  YYZ=              6.0326  XYZ=              1.0052
 Hexadecapole moment (field-independent basis, Debye-Ang**3):
 XXXX=          -1017.4167 YYYY=           -372.2490 ZZZZ=           -124.6740 XXXY=           -134.5516
 XXXZ=            -37.7355 YYYX=             12.5541 YYYZ=              2.0525 ZZZX=              3.1732
 ZZZY=              3.7406 XXYY=           -236.8865 XXZZ=           -217.3022 YYZZ=            -92.3703
 XXYZ=             22.6921 YYXZ=             -5.5180 ZZXY=              0.8659
 N-N= 3.479875892059D+02 E-N=-1.680332895808D+03  KE= 4.188886063509D+02
  Exact polarizability:  92.278  -3.562  79.451  -4.202   3.974  51.267
 Approx polarizability:  94.322  -9.054  90.242  -6.614  10.453  60.483
                          Isotropic Fermi Contact Couplings
        Atom                 a.u.       MegaHertz       Gauss      10(-4) cm-1
     1  O(17)              0.12678     -76.85569     -27.42402     -25.63630
     2  H(1)              -0.01423     -63.61112     -22.69803     -21.21839
     3  C(13)              0.00008       0.09288       0.03314       0.03098
     4  H(1)              -0.00000      -0.01637      -0.00584      -0.00546
     5  C(13)             -0.00033      -0.37495      -0.13379      -0.12507
     6  C(13)              0.00531       5.96528       2.12856       1.98980
     7  O(17)              0.00127      -0.77259      -0.27568      -0.25771
     8  O(17)              0.00156      -0.94846      -0.33843      -0.31637
     9  C(13)              0.10043     112.90733      40.28814      37.66183
    10  C(13)             -0.00252      -2.83173      -1.01043      -0.94456
    11  H(1)              -0.00566     -25.31891      -9.03442      -8.44548
    12  H(1)               0.00115       5.16139       1.84171       1.72165
    13  H(1)               0.00039       1.73670       0.61970       0.57930
    14  H(1)               0.00079       3.52215       1.25679       1.17486
    15  H(1)               0.00533      23.84340       8.50792       7.95330
 --------------------------------------------------------
       Center         ----  Spin Dipole Couplings  ----
                      3XX-RR        3YY-RR        3ZZ-RR
 --------------------------------------------------------
     1   Atom       -0.507846      2.156585     -1.648739
     2   Atom        0.099068      0.002340     -0.101408
     3   Atom        0.001349     -0.000834     -0.000516
     4   Atom        0.000960     -0.000468     -0.000491
     5   Atom        0.002567     -0.000994     -0.001573
     6   Atom        0.008343     -0.003444     -0.004899
     7   Atom        0.002685     -0.003562      0.000877
     8   Atom        0.001494      0.002735     -0.004229
     9   Atom        0.016616      0.125978     -0.142593
    10   Atom       -0.009055      0.010233     -0.001179
    11   Atom       -0.016679      0.100778     -0.084099
    12   Atom       -0.012136      0.000205      0.011930
    13   Atom       -0.001817      0.005424     -0.003606
    14   Atom       -0.004737      0.000309      0.004428
    15   Atom       -0.001822      0.003337     -0.001515
 --------------------------------------------------------
                        XY            XZ            YZ
 --------------------------------------------------------
     1   Atom        2.122139      0.173669      0.310606
     2   Atom       -0.076354     -0.052811      0.035318
     3   Atom        0.000057     -0.000080      0.000399
     4   Atom       -0.000113     -0.000207      0.000036
     5   Atom        0.000198     -0.000423     -0.000125
     6   Atom        0.003842      0.002018      0.001086
     7   Atom        0.003853     -0.005454     -0.000749
     8   Atom        0.023405     -0.001993     -0.011221
     9   Atom        0.210748     -0.016549     -0.021496
    10   Atom        0.003935     -0.001603     -0.013069
    11   Atom        0.107370     -0.000806      0.008846
    12   Atom        0.009426      0.001872      0.013585
    13   Atom       -0.003103      0.001857     -0.003666
    14   Atom        0.001741     -0.000183     -0.005600
    15   Atom        0.002753     -0.000151     -0.003251
 --------------------------------------------------------


 ---------------------------------------------------------------------------------
              Anisotropic Spin Dipole Couplings in Principal Axis System
 ---------------------------------------------------------------------------------

       Atom             a.u.   MegaHertz   Gauss  10(-4) cm-1        Axes

              Baa    -1.6816   121.683    43.419    40.589  0.8620 -0.4592 -0.2148
     1 O(17)  Bbb    -1.6737   121.106    43.214    40.397  0.1549 -0.1648  0.9741
              Bcc     3.3553  -242.789   -86.633   -80.986  0.4827  0.8729  0.0709
 
              Baa    -0.1173   -62.586   -22.332   -20.876  0.1750 -0.1744  0.9690
     2 H(1)   Bbb    -0.0393   -20.980    -7.486    -6.998  0.5009  0.8631  0.0649
              Bcc     0.1566    83.566    29.819    27.875  0.8476 -0.4741 -0.2384
 
              Baa    -0.0011    -0.149    -0.053    -0.050 -0.0375  0.8264 -0.5619
     3 C(13)  Bbb    -0.0002    -0.033    -0.012    -0.011  0.0212  0.5628  0.8263
              Bcc     0.0014     0.182     0.065     0.061  0.9991  0.0191 -0.0387
 
              Baa    -0.0005    -0.282    -0.101    -0.094  0.1015 -0.3627  0.9263
     4 H(1)   Bbb    -0.0005    -0.251    -0.089    -0.084  0.1241  0.9285  0.3500
              Bcc     0.0010     0.532     0.190     0.178  0.9871 -0.0794 -0.1393
 
              Baa    -0.0016    -0.219    -0.078    -0.073  0.0913  0.1639  0.9822
     5 C(13)  Bbb    -0.0010    -0.133    -0.047    -0.044 -0.0736  0.9848 -0.1575
              Bcc     0.0026     0.352     0.126     0.117  0.9931  0.0579 -0.1020
 
              Baa    -0.0055    -0.735    -0.262    -0.245  0.0043 -0.4771  0.8788
     6 C(13)  Bbb    -0.0043    -0.583    -0.208    -0.195 -0.3235  0.8309  0.4527
              Bcc     0.0098     1.319     0.471     0.440  0.9462  0.2863  0.1508
 
              Baa    -0.0060     0.437     0.156     0.146 -0.5542  0.7528 -0.3552
     7 O(17)  Bbb    -0.0023     0.165     0.059     0.055  0.3400  0.5942  0.7290
              Bcc     0.0083    -0.602    -0.215    -0.201  0.7598  0.2832 -0.5852
 
              Baa    -0.0236     1.710     0.610     0.570 -0.6261  0.7011  0.3412
     8 O(17)  Bbb    -0.0047     0.340     0.121     0.113  0.4425 -0.0408  0.8958
              Bcc     0.0283    -2.050    -0.731    -0.684  0.6420  0.7119 -0.2847
 
              Baa    -0.1464   -19.650    -7.012    -6.554  0.7894 -0.6131 -0.0298
     9 C(13)  Bbb    -0.1443   -19.362    -6.909    -6.459  0.0618  0.0311  0.9976
              Bcc     0.2907    39.012    13.920    13.013  0.6107  0.7894 -0.0625
 
              Baa    -0.0105    -1.410    -0.503    -0.470  0.6853 -0.4769 -0.5504
    10 C(13)  Bbb    -0.0089    -1.193    -0.426    -0.398  0.7136  0.2891  0.6381
              Bcc     0.0194     2.603     0.929     0.868  0.1451  0.8301 -0.5385
 
              Baa    -0.0879   -46.893   -16.733   -15.642  0.4758 -0.3094  0.8233
    11 H(1)   Bbb    -0.0768   -40.950   -14.612   -13.660  0.7171 -0.4055 -0.5668
              Bcc     0.1646    87.844    31.345    29.302  0.5092  0.8602  0.0289
 
              Baa    -0.0182    -9.727    -3.471    -3.245  0.8035 -0.5598  0.2023
    12 H(1)   Bbb    -0.0040    -2.142    -0.764    -0.715  0.5604  0.5968 -0.5742
              Bcc     0.0222    11.870     4.235     3.959  0.2008  0.5748  0.7933
 
              Baa    -0.0051    -2.738    -0.977    -0.913 -0.3002  0.2330  0.9250
    13 H(1)   Bbb    -0.0029    -1.535    -0.548    -0.512  0.8910  0.4147  0.1847
              Bcc     0.0080     4.273     1.525     1.425 -0.3405  0.8796 -0.3321
 
              Baa    -0.0057    -3.028    -1.080    -1.010  0.8413 -0.4791 -0.2503
    14 H(1)   Bbb    -0.0028    -1.474    -0.526    -0.492  0.5334  0.6607  0.5282
              Bcc     0.0084     4.501     1.606     1.501 -0.0877 -0.5779  0.8114
 
              Baa    -0.0040    -2.124    -0.758    -0.709 -0.5968  0.5024  0.6256
    15 H(1)   Bbb    -0.0018    -0.981    -0.350    -0.327  0.7362  0.0329  0.6759
              Bcc     0.0058     3.105     1.108     1.036  0.3190  0.8640 -0.3895
 

 ---------------------------------------------------------------------------------

 Calling FoFJK, ICntrl=    100127 FMM=F ISym2X=0 I1Cent= 0 IOpClX= 1 NMat=1 NMatS=1 NMatT=0.
 Full mass-weighted force constant matrix:
 Low frequencies --- -346.7221  -98.6408  -53.7373  -37.8193   -9.4976   -0.0005
 Low frequencies ---   -0.0004    0.0005   25.2835
 ******    3 imaginary frequencies (negative Signs) ****** 
 Diagonal vibrational polarizability:
       79.2343771     277.1150038     104.3875037
 Harmonic frequencies (cm**-1), IR intensities (KM/Mole), Raman scattering
 activities (A**4/AMU), depolarization ratios for plane and unpolarized
 incident light, reduced masses (AMU), force constants (mDyne/A),
 and normal coordinates:
                      1                      2                      3
                      A                      A                      A
 Frequencies --   -346.7201               -95.2863               -31.6248
 Red. masses --      2.4605                 3.6644                 5.5620
 Frc consts  --      0.1743                 0.0196                 0.0033
 IR Inten    --    105.2747                 0.6892                 9.9277
  Atom  AN      X      Y      Z        X      Y      Z        X      Y      Z
     1   8     0.07   0.23   0.05     0.10  -0.17   0.19     0.44   0.04  -0.12
     2   1    -0.08  -0.05   0.07     0.17  -0.10   0.29     0.60   0.33  -0.12
     3   6     0.00   0.01   0.00    -0.03  -0.00  -0.01    -0.15  -0.17   0.04
     4   1    -0.00  -0.00  -0.00    -0.03   0.01  -0.01    -0.19  -0.24   0.06
     5   6     0.01   0.01   0.01    -0.04  -0.01   0.00    -0.10  -0.08   0.02
     6   6     0.00   0.01   0.01    -0.05  -0.02   0.00    -0.05   0.00  -0.00
     7   8    -0.03   0.00   0.02    -0.05  -0.06   0.08     0.00   0.03  -0.07
     8   8     0.02  -0.02  -0.04    -0.04   0.01  -0.10    -0.09   0.04   0.06
     9   6    -0.03  -0.18  -0.08    -0.06   0.02  -0.15    -0.06   0.08   0.07
    10   6    -0.02  -0.04   0.04     0.13   0.24  -0.05    -0.10   0.01   0.03
    11   1    -0.06  -0.51  -0.46    -0.12   0.06  -0.41    -0.08   0.05   0.13
    12   1    -0.32  -0.47   0.11    -0.16  -0.15  -0.05    -0.03   0.11   0.05
    13   1    -0.04  -0.09   0.04     0.13   0.25  -0.10    -0.08   0.05   0.05
    14   1     0.05   0.08  -0.04     0.22   0.40  -0.15    -0.15  -0.05   0.07
    15   1    -0.02  -0.01   0.20     0.19   0.22   0.17    -0.09  -0.01  -0.05
                      4                      5                      6
                      A                      A                      A
 Frequencies --     59.4800                91.3851               149.8708
 Red. masses --      4.3929                 4.3759                 3.5848
 Frc consts  --      0.0092                 0.0215                 0.0474
 IR Inten    --      4.5662                 2.5871                10.4429
  Atom  AN      X      Y      Z        X      Y      Z        X      Y      Z
     1   8     0.06   0.09   0.09     0.01   0.05  -0.07     0.05   0.12   0.03
     2   1     0.06   0.12   0.03     0.09   0.06   0.19     0.09   0.24  -0.08
     3   6    -0.04   0.03  -0.17    -0.04   0.10  -0.19     0.21   0.22   0.09
     4   1    -0.06   0.05  -0.29    -0.04   0.18  -0.34     0.39   0.46   0.19
     5   6    -0.01   0.01  -0.02    -0.05   0.02  -0.01    -0.03  -0.10  -0.04
     6   6     0.01  -0.02   0.11    -0.05  -0.03   0.08    -0.06  -0.15  -0.05
     7   8     0.04  -0.10   0.30    -0.07   0.03  -0.07    -0.02  -0.16  -0.05
     8   8    -0.00   0.06  -0.03    -0.04  -0.13   0.29    -0.11  -0.08  -0.04
     9   6    -0.00   0.08  -0.07    -0.04  -0.01   0.04    -0.03   0.06   0.03
    10   6    -0.07  -0.16  -0.23     0.26  -0.02  -0.09    -0.02   0.04   0.02
    11   1     0.02   0.08   0.14    -0.14   0.04  -0.08    -0.09   0.14   0.15
    12   1     0.04   0.27  -0.18    -0.18  -0.00   0.05     0.12   0.10  -0.01
    13   1    -0.05  -0.09  -0.26     0.25   0.08  -0.31     0.10   0.26   0.14
    14   1    -0.13  -0.36  -0.11     0.40  -0.06  -0.07    -0.28  -0.02   0.08
    15   1    -0.07  -0.19  -0.46     0.36  -0.09   0.02     0.12  -0.10  -0.17
                      7                      8                      9
                      A                      A                      A
 Frequencies --    213.9264               224.3811               269.4636
 Red. masses --      1.0939                 1.2374                 4.0588
 Frc consts  --      0.0295                 0.0367                 0.1736
 IR Inten    --    106.5337                 1.3280                 3.4806
  Atom  AN      X      Y      Z        X      Y      Z        X      Y      Z
     1   8    -0.01   0.01  -0.06    -0.00   0.00  -0.00    -0.01  -0.04  -0.01
     2   1     0.16  -0.19   0.95     0.03   0.00   0.09    -0.05  -0.06  -0.11
     3   6     0.01   0.00   0.00     0.04   0.03  -0.00     0.02   0.06  -0.17
     4   1     0.02   0.01   0.01     0.08   0.10  -0.01     0.02   0.24  -0.58
     5   6     0.00  -0.01  -0.01    -0.01  -0.06   0.00     0.03  -0.17   0.38
     6   6     0.01  -0.00  -0.00     0.00  -0.03   0.00     0.03  -0.04   0.12
     7   8     0.02  -0.00   0.01     0.07  -0.02  -0.02     0.06   0.06  -0.11
     8   8     0.00   0.01  -0.00    -0.02   0.02   0.03     0.02   0.03  -0.01
     9   6    -0.00   0.00   0.00    -0.03   0.03   0.00    -0.02  -0.00  -0.08
    10   6    -0.03   0.00   0.01    -0.05   0.01  -0.01    -0.11   0.06  -0.00
    11   1    -0.01   0.01  -0.03    -0.02   0.02  -0.00     0.01  -0.06  -0.15
    12   1     0.00   0.00   0.00    -0.04   0.04  -0.00    -0.09  -0.05  -0.05
    13   1     0.01   0.06   0.07    -0.30  -0.45  -0.27    -0.00   0.18   0.24
    14   1    -0.13  -0.03   0.03     0.48   0.10  -0.11    -0.40   0.10   0.00
    15   1     0.00  -0.04  -0.06    -0.36   0.32   0.31    -0.03  -0.03  -0.13
                     10                     11                     12
                      A                      A                      A
 Frequencies --    309.9358               419.1354               559.7505
 Red. masses --      3.3905                 3.7426                 4.0554
 Frc consts  --      0.1919                 0.3874                 0.7486
 IR Inten    --     10.9956                 2.6639                 2.1130
  Atom  AN      X      Y      Z        X      Y      Z        X      Y      Z
     1   8    -0.02  -0.08  -0.01    -0.00   0.01   0.00    -0.02  -0.01  -0.00
     2   1    -0.11  -0.14  -0.23     0.03   0.09  -0.06     0.10   0.19   0.02
     3   6     0.04   0.03   0.06     0.08  -0.09  -0.01     0.16  -0.12  -0.06
     4   1     0.11   0.08   0.21    -0.00  -0.24   0.04     0.01  -0.33  -0.16
     5   6    -0.08  -0.05  -0.15     0.17   0.11  -0.09     0.31   0.11   0.07
     6   6     0.02   0.04   0.00     0.05  -0.05   0.04     0.02  -0.03  -0.05
     7   8     0.26   0.03   0.02    -0.08  -0.03   0.00    -0.04  -0.05  -0.02
     8   8    -0.04   0.09   0.15     0.05  -0.14   0.21    -0.12   0.11  -0.04
     9   6    -0.15  -0.05  -0.04     0.01   0.06  -0.15    -0.24   0.03   0.13
    10   6    -0.04   0.00  -0.04    -0.18   0.14  -0.06    -0.01  -0.02   0.00
    11   1    -0.11  -0.22  -0.33    -0.03   0.12  -0.17    -0.21  -0.07  -0.03
    12   1    -0.45  -0.18   0.07    -0.10   0.10  -0.16    -0.31  -0.08   0.20
    13   1     0.10   0.29   0.05    -0.17  -0.04   0.31    -0.00   0.22  -0.38
    14   1    -0.29  -0.01  -0.02    -0.42   0.30  -0.13     0.21  -0.19   0.09
    15   1     0.17  -0.19  -0.14    -0.36   0.28  -0.12     0.21  -0.20   0.04
                     13                     14                     15
                      A                      A                      A
 Frequencies --    601.5991               662.9091               742.2843
 Red. masses --      4.9054                 1.3149                 1.3137
 Frc consts  --      1.0460                 0.3404                 0.4265
 IR Inten    --      6.3355               165.5081                36.3629
  Atom  AN      X      Y      Z        X      Y      Z        X      Y      Z
     1   8    -0.03   0.01   0.01    -0.06  -0.02   0.01     0.00   0.00   0.00
     2   1     0.27   0.53   0.07     0.44   0.85   0.09    -0.01  -0.01  -0.00
     3   6    -0.18   0.10   0.04     0.03  -0.02  -0.01    -0.08  -0.12  -0.03
     4   1    -0.37  -0.16  -0.05     0.08   0.05   0.02     0.55   0.79   0.21
     5   6     0.03   0.32   0.14    -0.02  -0.07  -0.03     0.04   0.06   0.02
     6   6    -0.06  -0.06  -0.02     0.03   0.05   0.02    -0.00  -0.00  -0.00
     7   8     0.28  -0.08  -0.04    -0.02   0.05   0.02     0.01  -0.00  -0.00
     8   8    -0.06  -0.17  -0.07     0.03   0.00  -0.01    -0.00  -0.00  -0.00
     9   6    -0.03  -0.08  -0.05    -0.02  -0.06  -0.03    -0.01  -0.00   0.00
    10   6    -0.00  -0.01   0.01     0.00  -0.02   0.01    -0.00   0.00  -0.00
    11   1    -0.16   0.12   0.19    -0.10   0.05   0.03    -0.00  -0.00   0.02
    12   1     0.17   0.02  -0.12    -0.02  -0.04  -0.04     0.00   0.01  -0.00
    13   1     0.01  -0.01   0.06     0.02  -0.01   0.05    -0.00   0.01  -0.01
    14   1    -0.01   0.13  -0.07    -0.02   0.06  -0.03     0.00   0.01  -0.00
    15   1     0.02  -0.00   0.14     0.02  -0.03   0.08     0.01  -0.01   0.01
                     16                     17                     18
                      A                      A                      A
 Frequencies --    761.4738               773.1651               785.4716
 Red. masses --      1.2693                 1.4246                 5.7524
 Frc consts  --      0.4336                 0.5018                 2.0910
 IR Inten    --     21.3093                23.3479                38.6005
  Atom  AN      X      Y      Z        X      Y      Z        X      Y      Z
     1   8     0.02   0.02   0.00     0.00   0.00   0.00    -0.01  -0.01  -0.00
     2   1    -0.10  -0.21   0.02    -0.01  -0.02   0.00     0.02   0.03   0.01
     3   6     0.04  -0.02   0.00    -0.01   0.05  -0.15    -0.02   0.02  -0.06
     4   1     0.02  -0.02  -0.05     0.08  -0.30   0.93     0.03  -0.23   0.68
     5   6     0.01  -0.02  -0.03     0.01  -0.03   0.08    -0.00   0.08  -0.16
     6   6    -0.00   0.02   0.05    -0.00   0.03  -0.06     0.01  -0.24   0.52
     7   8     0.00   0.04   0.01     0.00  -0.00   0.02    -0.00   0.05  -0.16
     8   8    -0.01  -0.01  -0.01     0.00  -0.01   0.02    -0.00   0.07  -0.13
     9   6    -0.08  -0.07  -0.04    -0.01  -0.01  -0.00     0.01   0.02   0.01
    10   6    -0.02  -0.01  -0.02    -0.00  -0.00  -0.00     0.00  -0.00   0.02
    11   1     0.04  -0.05   0.53     0.00  -0.00   0.05     0.01  -0.01  -0.10
    12   1     0.16   0.33  -0.27     0.01   0.04  -0.03     0.02  -0.10   0.07
    13   1     0.07   0.19   0.01     0.01   0.01   0.01    -0.02  -0.01  -0.07
    14   1     0.03   0.35  -0.23    -0.01   0.04  -0.03     0.06  -0.13   0.09
    15   1     0.18  -0.12   0.40     0.01  -0.01   0.04     0.01  -0.02  -0.08
                     19                     20                     21
                      A                      A                      A
 Frequencies --    894.7611               938.1991              1090.3382
 Red. masses --      3.1698                 2.7919                 3.6606
 Frc consts  --      1.4952                 1.4479                 2.5640
 IR Inten    --     13.8617                 9.0748                62.0063
  Atom  AN      X      Y      Z        X      Y      Z        X      Y      Z
     1   8    -0.01  -0.01  -0.00    -0.01  -0.01  -0.00    -0.01  -0.01  -0.00
     2   1     0.08   0.15   0.02     0.08   0.15   0.03     0.06   0.11   0.03
     3   6    -0.05   0.02   0.01    -0.10   0.06   0.03     0.05  -0.04  -0.02
     4   1    -0.06   0.01   0.00    -0.11   0.07   0.03     0.05  -0.05  -0.02
     5   6     0.01   0.06   0.03    -0.07   0.03   0.01     0.04   0.01   0.00
     6   6    -0.00  -0.11  -0.05     0.12  -0.08  -0.04    -0.12   0.02   0.01
     7   8    -0.05  -0.15  -0.06    -0.05  -0.11  -0.04     0.02   0.01   0.00
     8   8    -0.03   0.25   0.09     0.19   0.04   0.04    -0.19   0.09   0.06
     9   6     0.08   0.01  -0.10    -0.02  -0.02   0.09     0.28  -0.20   0.05
    10   6     0.08  -0.13   0.03    -0.14   0.09  -0.07    -0.07   0.11  -0.12
    11   1     0.20  -0.12  -0.01     0.22  -0.27   0.15     0.28  -0.27   0.24
    12   1    -0.21   0.26  -0.19    -0.04  -0.08   0.13     0.38  -0.39   0.15
    13   1     0.17  -0.21   0.52    -0.09   0.47  -0.54    -0.06   0.21  -0.29
    14   1    -0.15   0.29  -0.19     0.18   0.06  -0.08     0.03   0.14  -0.15
    15   1     0.01  -0.02   0.33     0.21  -0.18   0.09    -0.01   0.06  -0.21
                     22                     23                     24
                      A                      A                      A
 Frequencies --   1129.1445              1169.5386              1276.0216
 Red. masses --      2.0829                 1.8848                 3.9640
 Frc consts  --      1.5646                 1.5190                 3.8028
 IR Inten    --     42.2113                58.2426               579.7326
  Atom  AN      X      Y      Z        X      Y      Z        X      Y      Z
     1   8     0.00   0.01   0.00    -0.01  -0.01  -0.00     0.01   0.00  -0.00
     2   1    -0.01  -0.02   0.01     0.03   0.06  -0.01    -0.09  -0.16  -0.03
     3   6    -0.01   0.01   0.00     0.01  -0.01  -0.00    -0.07   0.05   0.02
     4   1    -0.01   0.01   0.00     0.01  -0.01  -0.00    -0.07   0.08   0.03
     5   6    -0.01  -0.00   0.00     0.00  -0.01  -0.00    -0.02   0.00   0.00
     6   6     0.02  -0.01   0.00    -0.02   0.01   0.01     0.43   0.01  -0.00
     7   8    -0.00  -0.01  -0.01     0.02   0.04   0.01    -0.05   0.00  -0.00
     8   8     0.05   0.01  -0.04    -0.03  -0.08  -0.04    -0.20  -0.00  -0.01
     9   6    -0.09  -0.08   0.20     0.09   0.15   0.11     0.06  -0.09   0.03
    10   6     0.10   0.04  -0.16    -0.07  -0.11  -0.08    -0.02  -0.03  -0.01
    11   1    -0.11  -0.05   0.20     0.16  -0.08  -0.42    -0.60   0.48  -0.21
    12   1    -0.12  -0.05   0.19    -0.23  -0.03   0.24     0.14   0.04  -0.04
    13   1     0.08  -0.27   0.35     0.13   0.23   0.14     0.01   0.07  -0.03
    14   1    -0.39   0.28  -0.26     0.00   0.38  -0.35     0.01   0.14  -0.11
    15   1    -0.33   0.39  -0.19     0.10  -0.15   0.46    -0.01  -0.03   0.03
                     25                     26                     27
                      A                      A                      A
 Frequencies --   1305.9922              1379.4612              1415.7710
 Red. masses --      1.3572                 1.2260                 1.3231
 Frc consts  --      1.3639                 1.3745                 1.5626
 IR Inten    --    263.0626                 2.3759                14.9095
  Atom  AN      X      Y      Z        X      Y      Z        X      Y      Z
     1   8    -0.01  -0.01  -0.00     0.00   0.00   0.00     0.00   0.00  -0.00
     2   1     0.04   0.07   0.03     0.01   0.02  -0.00    -0.01  -0.02   0.01
     3   6    -0.01   0.01   0.00     0.01  -0.00  -0.00    -0.00   0.00   0.00
     4   1    -0.01   0.02   0.01     0.01  -0.01  -0.00    -0.00   0.00   0.00
     5   6    -0.01  -0.00  -0.00     0.00  -0.00   0.00    -0.00   0.00  -0.00
     6   6     0.10   0.01   0.00    -0.04   0.01   0.00     0.00   0.00   0.00
     7   8    -0.00   0.02   0.01     0.01  -0.00  -0.00    -0.00  -0.00  -0.00
     8   8    -0.08  -0.06  -0.03     0.01  -0.01  -0.02     0.01   0.00   0.01
     9   6     0.01   0.05  -0.03     0.05  -0.08   0.06    -0.02   0.06  -0.06
    10   6     0.03   0.04   0.01     0.00  -0.01   0.07     0.04  -0.11   0.09
    11   1     0.52  -0.47   0.38    -0.08   0.01  -0.27     0.02   0.10   0.26
    12   1    -0.52   0.09   0.02    -0.39   0.63  -0.26     0.02  -0.40   0.17
    13   1    -0.00  -0.07   0.04    -0.03   0.14  -0.31     0.07   0.28  -0.40
    14   1     0.01  -0.10   0.10    -0.02   0.20  -0.06    -0.16   0.42  -0.21
    15   1    -0.03   0.07  -0.12    -0.14   0.07  -0.31    -0.33   0.17  -0.27
                     28                     29                     30
                      A                      A                      A
 Frequencies --   1449.6476              1487.9454              1500.9661
 Red. masses --      1.1263                 1.0395                 1.0534
 Frc consts  --      1.3946                 1.3559                 1.3982
 IR Inten    --     51.1168                12.6464                 9.7166
  Atom  AN      X      Y      Z        X      Y      Z        X      Y      Z
     1   8    -0.01  -0.00   0.00    -0.00  -0.00   0.00     0.00   0.00   0.00
     2   1     0.04   0.07   0.00     0.01   0.01  -0.00    -0.01  -0.01  -0.00
     3   6    -0.01   0.00   0.00    -0.00   0.00   0.00     0.00  -0.00  -0.00
     4   1    -0.01   0.01   0.00    -0.00   0.00   0.00     0.00  -0.00  -0.00
     5   6    -0.00  -0.00  -0.00    -0.00   0.00   0.00     0.00   0.00   0.00
     6   6     0.04  -0.01  -0.00     0.00   0.00   0.00    -0.01   0.00   0.00
     7   8    -0.00   0.01   0.01    -0.00  -0.00  -0.00     0.00  -0.00  -0.00
     8   8    -0.03  -0.01   0.01     0.00   0.00   0.00     0.00   0.00  -0.00
     9   6    -0.07   0.02   0.02    -0.02  -0.02  -0.00     0.04  -0.02  -0.01
    10   6     0.04  -0.01   0.01    -0.03  -0.03  -0.02     0.03  -0.01  -0.04
    11   1     0.26  -0.45  -0.39     0.02  -0.08  -0.03    -0.06   0.12   0.06
    12   1     0.62   0.17  -0.15     0.09   0.05  -0.05    -0.17   0.02  -0.01
    13   1    -0.00   0.02  -0.18     0.29   0.48   0.39     0.09   0.30  -0.23
    14   1    -0.24   0.01   0.02     0.53  -0.15   0.02    -0.37  -0.39   0.23
    15   1    -0.12   0.12   0.05    -0.35   0.24  -0.14    -0.25   0.30   0.55
                     31                     32                     33
                      A                      A                      A
 Frequencies --   1846.1287              2269.3403              2318.5980
 Red. masses --     12.4069                 5.6602                 1.1149
 Frc consts  --     24.9136                17.1744                 3.5314
 IR Inten    --    360.2443                79.2766              1074.5290
  Atom  AN      X      Y      Z        X      Y      Z        X      Y      Z
     1   8    -0.00  -0.00  -0.00     0.00   0.00   0.00     0.01   0.02   0.00
     2   1    -0.00  -0.01  -0.00     0.00   0.00  -0.00     0.01  -0.01  -0.00
     3   6     0.06  -0.04  -0.02    -0.31   0.19   0.09     0.01  -0.00  -0.00
     4   1     0.11  -0.04  -0.02    -0.62   0.38   0.17     0.01  -0.01  -0.00
     5   6    -0.04   0.01   0.00     0.43  -0.27  -0.12    -0.01   0.01   0.00
     6   6     0.00   0.74   0.31    -0.07   0.06   0.03     0.01   0.00   0.00
     7   8    -0.01  -0.49  -0.21     0.00  -0.01  -0.00    -0.00  -0.00  -0.00
     8   8    -0.02  -0.05  -0.02    -0.01  -0.00  -0.00    -0.01   0.00   0.00
     9   6    -0.02   0.03   0.01    -0.00  -0.01   0.00    -0.06  -0.07   0.01
    10   6     0.01  -0.00  -0.01    -0.00  -0.00  -0.00    -0.00  -0.00  -0.00
    11   1     0.06  -0.12  -0.07     0.10   0.08  -0.03     0.75   0.62  -0.19
    12   1     0.14   0.03   0.02    -0.00  -0.01  -0.00    -0.03  -0.07  -0.02
    13   1    -0.01  -0.06   0.03    -0.00  -0.00   0.00    -0.00   0.00   0.01
    14   1    -0.03   0.01  -0.01     0.00  -0.00  -0.00     0.01  -0.00  -0.01
    15   1     0.04  -0.02   0.04     0.00  -0.00   0.00    -0.01  -0.03   0.01
                     34                     35                     36
                      A                      A                      A
 Frequencies --   3071.8581              3131.0577              3152.2564
 Red. masses --      1.0346                 1.0863                 1.1029
 Frc consts  --      5.7520                 6.2745                 6.4567
 IR Inten    --      5.9032                 4.3846                 5.8993
  Atom  AN      X      Y      Z        X      Y      Z        X      Y      Z
     1   8     0.00   0.00   0.00     0.00   0.00   0.00    -0.00   0.00   0.00
     2   1    -0.00  -0.00  -0.00     0.00   0.00  -0.00     0.00  -0.00  -0.00
     3   6     0.00  -0.00  -0.00    -0.00   0.00   0.00     0.00  -0.00  -0.00
     4   1    -0.00   0.00   0.00    -0.00  -0.00   0.00    -0.00   0.00   0.00
     5   6    -0.00   0.00   0.00     0.00   0.00  -0.00    -0.00   0.00   0.00
     6   6     0.00   0.00   0.00    -0.00  -0.00  -0.00     0.00  -0.00  -0.00
     7   8     0.00  -0.00   0.00    -0.00   0.00   0.00    -0.00   0.00  -0.00
     8   8    -0.00  -0.00  -0.00     0.00  -0.00   0.00     0.00  -0.00   0.00
     9   6     0.00  -0.00   0.00    -0.01  -0.04  -0.07    -0.00  -0.00  -0.00
    10   6    -0.01   0.03  -0.04    -0.00   0.02   0.02    -0.09  -0.03   0.01
    11   1    -0.01  -0.01   0.00     0.01   0.01  -0.02     0.01   0.02  -0.01
    12   1    -0.00  -0.00  -0.01     0.10   0.44   0.83     0.01   0.03   0.06
    13   1     0.49  -0.20  -0.13     0.11  -0.04  -0.03     0.59  -0.25  -0.15
    14   1     0.04   0.29   0.49    -0.02  -0.13  -0.22    -0.01   0.07   0.13
    15   1    -0.40  -0.46   0.06    -0.09  -0.10   0.02     0.46   0.56  -0.08
                     37                     38                     39
                      A                      A                      A
 Frequencies --   3158.6684              3489.8103              3778.4863
 Red. masses --      1.1020                 1.1711                 1.0670
 Frc consts  --      6.4779                 8.4036                 8.9749
 IR Inten    --     10.6165                62.2314                35.4825
  Atom  AN      X      Y      Z        X      Y      Z        X      Y      Z
     1   8     0.00   0.00   0.00     0.00  -0.00  -0.00    -0.05   0.03   0.01
     2   1     0.00   0.00  -0.00    -0.00  -0.00  -0.00     0.85  -0.46  -0.24
     3   6    -0.00   0.00   0.00    -0.10   0.06   0.03    -0.00   0.00   0.00
     4   1    -0.00  -0.00  -0.00     0.82  -0.51  -0.23    -0.00  -0.00  -0.00
     5   6     0.00   0.00  -0.00     0.03  -0.02  -0.01    -0.00   0.00  -0.00
     6   6    -0.00  -0.00  -0.00    -0.00   0.00   0.00     0.00  -0.00  -0.00
     7   8    -0.00   0.00   0.00     0.00   0.00   0.00    -0.00   0.00   0.00
     8   8     0.00   0.00   0.00     0.00  -0.00  -0.00    -0.00   0.00   0.00
     9   6    -0.00  -0.01  -0.02    -0.00  -0.00   0.00     0.00   0.00  -0.00
    10   6     0.02  -0.06  -0.06     0.00  -0.00  -0.00    -0.00  -0.00  -0.00
    11   1     0.01   0.01  -0.01     0.00   0.00  -0.00    -0.01  -0.01   0.00
    12   1     0.04   0.14   0.28     0.00  -0.00  -0.00    -0.00  -0.00   0.00
    13   1    -0.45   0.18   0.10     0.00  -0.00   0.00    -0.00   0.00  -0.00
    14   1     0.06   0.38   0.66    -0.00   0.00   0.00     0.00   0.00   0.00
    15   1     0.17   0.19  -0.04    -0.00   0.00  -0.00     0.00  -0.00   0.00

 -------------------
 - Thermochemistry -
 -------------------
 Temperature   298.150 Kelvin.  Pressure   1.00000 Atm.
 Atom     1 has atomic number  8 and mass  15.99491
 Atom     2 has atomic number  1 and mass   1.00783
 Atom     3 has atomic number  6 and mass  12.00000
 Atom     4 has atomic number  1 and mass   1.00783
 Atom     5 has atomic number  6 and mass  12.00000
 Atom     6 has atomic number  6 and mass  12.00000
 Atom     7 has atomic number  8 and mass  15.99491
 Atom     8 has atomic number  8 and mass  15.99491
 Atom     9 has atomic number  6 and mass  12.00000
 Atom    10 has atomic number  6 and mass  12.00000
 Atom    11 has atomic number  1 and mass   1.00783
 Atom    12 has atomic number  1 and mass   1.00783
 Atom    13 has atomic number  1 and mass   1.00783
 Atom    14 has atomic number  1 and mass   1.00783
 Atom    15 has atomic number  1 and mass   1.00783
 Molecular mass:   115.03952 amu.
 Principal axes and moments of inertia in atomic units:
                           1         2         3
     Eigenvalues --   602.870081600.060652010.83128
           X            0.99924  -0.03895   0.00280
           Y            0.03900   0.99902  -0.02087
           Z           -0.00198   0.02096   0.99978
 This molecule is an asymmetric top.
 Rotational symmetry number  1.
 Warning -- assumption of classical behavior for rotation
           may cause significant error
 Rotational temperatures (Kelvin)      0.14367     0.05413     0.04307
 Rotational constants (GHZ):           2.99358     1.12792     0.89751
    3 imaginary frequencies ignored.
 Zero-point vibrational energy     286375.4 (Joules/Mol)
                                   68.44535 (Kcal/Mol)
 Warning -- explicit consideration of  10 degrees of freedom as
           vibrations may cause significant error
 Vibrational temperatures:     85.58   131.48   215.63   307.79   322.83
          (Kelvin)            387.70   445.93   603.04   805.36   865.57
                              953.78  1067.98  1095.59  1112.41  1130.12
                             1287.36  1349.86  1568.75  1624.59  1682.71
                             1835.91  1879.03  1984.74  2036.98  2085.72
                             2140.82  2159.56  2656.17  3265.07  3335.95
                             4419.72  4504.89  4535.39  4544.62  5021.06
                             5436.40
 
 Zero-point correction=                           0.109075 (Hartree/Particle)
 Thermal correction to Energy=                    0.117391
 Thermal correction to Enthalpy=                  0.118335
 Thermal correction to Gibbs Free Energy=         0.074635
 Sum of electronic and zero-point Energies=           -420.091054
 Sum of electronic and thermal Energies=              -420.082738
 Sum of electronic and thermal Enthalpies=            -420.081793
 Sum of electronic and thermal Free Energies=         -420.125493
 
                     E (Thermal)             CV                S
                      KCal/Mol        Cal/Mol-Kelvin    Cal/Mol-Kelvin
 Total                   73.664             28.634             91.974
 Electronic               0.000              0.000              1.377
 Translational            0.889              2.981             40.136
 Rotational               0.889              2.981             29.052
 Vibrational             71.886             22.672             21.409
 Vibration     1          0.597              1.974              4.474
 Vibration     2          0.602              1.955              3.630
 Vibration     3          0.618              1.903              2.674
 Vibration     4          0.644              1.820              2.010
 Vibration     5          0.649              1.804              1.923
 Vibration     6          0.674              1.729              1.600
 Vibration     7          0.699              1.655              1.363
 Vibration     8          0.782              1.429              0.895
 Vibration     9          0.915              1.118              0.524
 Vibration    10          0.960              1.028              0.447
                       Q            Log10(Q)             Ln(Q)
 Total Bot       0.467960D-34        -34.329792        -79.047266
 Total V=0       0.693433D+16         15.841005         36.475261
 Vib (Bot)       0.967699D-48        -48.014260       -110.556918
 Vib (Bot)    1  0.347201D+01          0.540580          1.244732
 Vib (Bot)    2  0.224933D+01          0.352053          0.810631
 Vib (Bot)    3  0.135301D+01          0.131300          0.302330
 Vib (Bot)    4  0.926959D+00         -0.032940         -0.075846
 Vib (Bot)    5  0.879919D+00         -0.055557         -0.127926
 Vib (Bot)    6  0.717403D+00         -0.144237         -0.332117
 Vib (Bot)    7  0.610125D+00         -0.214581         -0.494091
 Vib (Bot)    8  0.419208D+00         -0.377570         -0.869387
 Vib (Bot)    9  0.277731D+00         -0.556376         -1.281103
 Vib (Bot)   10  0.247796D+00         -0.605906         -1.395150
 Vib (V=0)       0.143396D+03          2.156537          4.965609
 Vib (V=0)    1  0.400782D+01          0.602909          1.388248
 Vib (V=0)    2  0.280423D+01          0.447814          1.031129
 Vib (V=0)    3  0.194244D+01          0.288347          0.663944
 Vib (V=0)    4  0.155321D+01          0.191230          0.440324
 Vib (V=0)    5  0.151206D+01          0.179568          0.413470
 Vib (V=0)    6  0.137445D+01          0.138130          0.318056
 Vib (V=0)    7  0.128883D+01          0.110196          0.253735
 Vib (V=0)    8  0.115248D+01          0.061635          0.141920
 Vib (V=0)    9  0.107196D+01          0.030177          0.069486
 Vib (V=0)   10  0.105803D+01          0.024500          0.056413
 Electronic      0.200000D+01          0.301030          0.693147
 Translational   0.484981D+08          7.685724         17.697035
 Rotational      0.498555D+06          5.697714         13.119470
 ***** Axes restored to original set *****
 -------------------------------------------------------------------
 Center     Atomic                   Forces (Hartrees/Bohr)
 Number     Number              X              Y              Z
 -------------------------------------------------------------------
      1        8           0.004367064    0.011008970    0.001433466
      2        1          -0.000132969   -0.000113422    0.000078430
      3        6          -0.000107919    0.000054233    0.000017575
      4        1          -0.000014124   -0.000002935   -0.000005647
      5        6          -0.000074948    0.000040400    0.000119403
      6        6           0.000155938    0.000211387    0.000312435
      7        8          -0.000582408    0.000193315    0.000298911
      8        8           0.000379620   -0.000050487   -0.000618172
      9        6          -0.001622119   -0.006048170   -0.002268825
     10        6          -0.001184396   -0.002080137    0.001118731
     11        1          -0.000098570   -0.001578931   -0.001382680
     12        1          -0.001069521   -0.001368938    0.000437235
     13        1          -0.000083706   -0.000155770    0.000088283
     14        1           0.000049390    0.000086742   -0.000069729
     15        1           0.000018667   -0.000196258    0.000440583
 -------------------------------------------------------------------
 Cartesian Forces:  Max     0.011008970 RMS     0.002122939

 GradGradGradGradGradGradGradGradGradGradGradGradGradGradGradGradGradGrad
 Berny optimization.
 Search for a local minimum.
 Step number   1 out of a maximum of    2
 All quantities printed in internal units (Hartrees-Bohrs-Radians)
 Second derivative matrix not updated -- analytic derivatives used.
 ITU=  0
     Eigenvalues ---   -0.02316  -0.00199  -0.00026   0.00090   0.00160
     Eigenvalues ---    0.00197   0.00261   0.00459   0.01465   0.02053
     Eigenvalues ---    0.02732   0.03191   0.03831   0.05353   0.06257
     Eigenvalues ---    0.07549   0.07982   0.09040   0.09359   0.10007
     Eigenvalues ---    0.10928   0.13434   0.15828   0.17107   0.19414
     Eigenvalues ---    0.28664   0.29471   0.42927   0.49202   0.58141
     Eigenvalues ---    0.70982   0.73004   0.78239   0.82197   0.86963
     Eigenvalues ---    0.89796   0.95374   1.74045   2.73785
 Eigenvalue     1 is  -2.32D-02 should be greater than     0.000000 Eigenvector:
                          Y1        Y11       Y12       Z11       X1
   1                    0.61870  -0.49545  -0.30946  -0.23350   0.20889
                          X12       Y9        Y2        Y10       Y13
   1                   -0.15984  -0.15123   0.13632  -0.12070  -0.11634
 Eigenvalue     2 is  -1.99D-03 should be greater than     0.000000 Eigenvector:
                          Z1        Z11       Y14       Y1        Y13
   1                    0.40417  -0.38624   0.34429  -0.23812   0.21964
                          X2        Y10       X1        Y15       Z9
   1                    0.21463   0.20489   0.19634   0.18437  -0.18039
 Eigenvalue     3 is  -2.58D-04 should be greater than     0.000000 Eigenvector:
                          X2        X1        Y2        Y4        X4
   1                    0.62259   0.45992   0.30880  -0.22952  -0.18402
                          Z1        Y3        X3        X14       Z2
   1                   -0.15881  -0.15806  -0.14408  -0.13298  -0.11458
 Quadratic step=4.778D+00 exceeds max=3.000D-01 adjusted using Lamda=-1.711D-02.
 Angle between NR and scaled steps=  69.85 degrees.
 Angle between quadratic step and forces=  31.64 degrees.
 Linear search not attempted -- first point.
 B after Tr=     0.004135    0.010071   -0.000027
         Rot=    0.999999   -0.000829    0.000200   -0.000892 Ang=  -0.14 deg.
 Variable       Old X    -DE/DX   Delta X   Delta X   Delta X     New X
                                 (Linear)    (Quad)   (Total)
    X1        5.01946   0.00437   0.00000   0.11715   0.11508   5.13454
    Y1        3.36805   0.01101   0.00000   0.20993   0.22991   3.59796
    Z1       -0.46273   0.00143   0.00000   0.00269   0.01067  -0.45206
    X2        3.44487  -0.00013   0.00000   0.01754   0.01412   3.45900
    Y2        4.21056  -0.00011   0.00000   0.02464   0.04092   4.25149
    Z2       -0.02618   0.00008   0.00000  -0.00046   0.00792  -0.01826
    X3       -6.02971  -0.00011   0.00000  -0.00745  -0.00710  -6.03681
    Y3        1.95749   0.00005   0.00000   0.00247   0.00050   1.95799
    Z3        0.76216   0.00002   0.00000  -0.00137  -0.00058   0.76158
    X4       -7.69236  -0.00001   0.00000  -0.00556  -0.00725  -7.69960
    Y4        2.99123  -0.00000   0.00000   0.00566  -0.00005   2.99119
    Z4        1.22812  -0.00001   0.00000  -0.00249  -0.00065   1.22747
    X5       -4.16150  -0.00007   0.00000  -0.00915  -0.00651  -4.16800
    Y5        0.79177   0.00004   0.00000  -0.00323  -0.00100   0.79076
    Z5        0.23778   0.00012   0.00000   0.00407   0.00367   0.24145
    X6       -1.95200   0.00016   0.00000  -0.01274  -0.00715  -1.95915
    Y6       -0.70161   0.00021   0.00000  -0.01370  -0.00643  -0.70804
    Z6       -0.42898   0.00031   0.00000   0.00474   0.00274  -0.42625
    X7       -2.04308  -0.00058   0.00000  -0.03442  -0.02477  -2.06785
    Y7       -2.78459   0.00019   0.00000  -0.01542  -0.00689  -2.79148
    Z7       -1.31028   0.00030   0.00000   0.00922   0.00372  -1.30657
    X8        0.18253   0.00038   0.00000  -0.00663  -0.00348   0.17905
    Y8        0.56612  -0.00005   0.00000  -0.02399  -0.01370   0.55242
    Z8        0.06834  -0.00062   0.00000  -0.01197  -0.01103   0.05730
    X9        2.48464  -0.00162   0.00000   0.00001   0.00575   2.49039
    Y9       -0.72964  -0.00605   0.00000  -0.04657  -0.03114  -0.76078
    Z9       -0.54582  -0.00227   0.00000  -0.01456  -0.01488  -0.56069
   X10        3.34009  -0.00118   0.00000  -0.02194  -0.01396   3.32613
   Y10       -2.45949  -0.00208   0.00000  -0.04291  -0.02949  -2.48898
   Z10        1.54662   0.00112   0.00000   0.00667   0.00383   1.55046
   X11        3.90726  -0.00010   0.00000  -0.03507  -0.03182   3.87544
   Y11        0.79909  -0.00158   0.00000  -0.11952  -0.10117   0.69792
   Z11       -0.80714  -0.00138   0.00000  -0.02054  -0.01788  -0.82502
   X12        2.27980  -0.00107   0.00000  -0.03086  -0.02269   2.25711
   Y12       -1.67328  -0.00137   0.00000  -0.05800  -0.03999  -1.71327
   Z12       -2.36570   0.00044   0.00000   0.00076  -0.00123  -2.36693
   X13        5.19787  -0.00008   0.00000  -0.01213  -0.00264   5.19523
   Y13       -3.22509  -0.00016   0.00000  -0.02331  -0.00579  -3.23088
   Z13        1.08359   0.00009   0.00000   0.00832   0.00499   1.08858
   X14        3.48264   0.00005   0.00000  -0.01092  -0.00555   3.47710
   Y14       -1.42211   0.00009   0.00000  -0.01798  -0.00721  -1.42931
   Z14        3.32233  -0.00007   0.00000  -0.00597  -0.00699   3.31534
   X15        2.01949   0.00002   0.00000  -0.01270  -0.00203   2.01746
   Y15       -4.02813  -0.00020   0.00000  -0.03917  -0.02848  -4.05661
   Z15        1.77187   0.00044   0.00000   0.02166   0.01569   1.78757
         Item               Value     Threshold  Converged?
 Maximum Force            0.011009     0.000450     NO 
 RMS     Force            0.002123     0.000300     NO 
 Maximum Displacement     0.229912     0.001800     NO 
 RMS     Displacement     0.043883     0.001200     NO 
 Predicted change in Energy=-4.374888D-03
 GradGradGradGradGradGradGradGradGradGradGradGradGradGradGradGradGradGrad


 ----------------------------------------------------------------------

 Electric dipole moment (input orientation):
 (Debye = 10**-18 statcoulomb cm , SI units = C m)
                  (au)            (Debye)         (10**-30 SI)
   Tot        0.817339D+00      0.207747D+01      0.692969D+01
   x         -0.408148D+00     -0.103741D+01     -0.346042D+01
   y          0.538781D+00      0.136944D+01      0.456797D+01
   z          0.459537D+00      0.116803D+01      0.389612D+01

 Dipole polarizability, Alpha (input orientation).
 (esu units = cm**3 , SI units = C**2 m**2 J**-1)
 Alpha(0;0):
               (au)            (10**-24 esu)      (10**-40 SI)
   iso        0.743323D+02      0.110149D+02      0.122557D+02
   aniso      0.381941D+02      0.565978D+01      0.629735D+01
   xx         0.922782D+02      0.136742D+02      0.152146D+02
   yx        -0.356217D+01     -0.527859D+00     -0.587322D+00
   yy         0.794512D+02      0.117735D+02      0.130997D+02
   zx        -0.420212D+01     -0.622690D+00     -0.692836D+00
   zy         0.397409D+01      0.588899D+00      0.655239D+00
   zz         0.512675D+02      0.759705D+01      0.845286D+01

 ----------------------------------------------------------------------

 Dipole orientation:
     8          4.69686179          3.79390179         -0.54650738
     1          3.76912375          3.78253016          1.04059960
     6         -4.27420786         -0.35988651          4.72987416
     1         -5.22096299         -0.27115999          6.50354627
     6         -3.21167799         -0.46205537          2.73369901
     6         -2.00247785         -0.63497999          0.27106704
     8         -2.95800046         -1.57683307         -1.55201988
     8          0.30680424          0.40206742          0.32044997
     6          1.66174699          0.35663163         -2.02858361
     6          3.06104243         -2.09113068         -2.41961191
     1          3.04890766          1.93216802         -1.87817985
     1          0.38199045          0.83194586         -3.57153341
     1          4.22974705         -1.94710506         -4.11232510
     1          4.28614551         -2.48277837         -0.80860197
     1          1.73319576         -3.65019815         -2.66754098

 Electric dipole moment (dipole orientation):
 (Debye = 10**-18 statcoulomb cm , SI units = C m)
                  (au)            (Debye)         (10**-30 SI)
   Tot        0.817339D+00      0.207747D+01      0.692969D+01
   x          0.000000D+00      0.000000D+00      0.000000D+00
   y          0.000000D+00      0.000000D+00      0.000000D+00
   z          0.817339D+00      0.207747D+01      0.692969D+01

 Dipole polarizability, Alpha (dipole orientation).
 (esu units = cm**3 , SI units = C**2 m**2 J**-1)
 Alpha(0;0):
               (au)            (10**-24 esu)      (10**-40 SI)
   iso        0.743323D+02      0.110149D+02      0.122557D+02
   aniso      0.381941D+02      0.565978D+01      0.629735D+01
   xx         0.775301D+02      0.114888D+02      0.127830D+02
   yx         0.119958D+02      0.177760D+01      0.197784D+01
   yy         0.640757D+02      0.949503D+01      0.105647D+02
   zx        -0.140529D+02     -0.208243D+01     -0.231701D+01
   zy         0.789005D+01      0.116919D+01      0.130089D+01
   zz         0.813911D+02      0.120609D+02      0.134196D+02

 ----------------------------------------------------------------------
 1\1\GINC-AJ\Freq\UM062X\6-311++G(d,p)\C5H7O3(2)\AAYUSH\23-Jun-2025\0\\
 # freq 6-311++g(d,p) m062x\\Title Card Required\\0,2\O,2.656184,1.7822
 96,-0.244867\H,1.822947,2.228135,-0.013856\C,-3.190786,1.035859,0.4033
 19\H,-4.070619,1.582893,0.649895\C,-2.202169,0.418984,0.125826\C,-1.03
 2954,-0.371278,-0.227009\O,-1.081151,-1.47354,-0.693371\O,0.096591,0.2
 99576,0.036162\C,1.314816,-0.38611,-0.288834\C,1.767499,-1.301506,0.81
 8438\H,2.067631,0.422862,-0.427118\H,1.206418,-0.885463,-1.251875\H,2.
 750594,-1.706643,0.573409\H,1.842936,-0.752546,1.758101\H,1.068669,-2.
 131593,0.937635\\Version=ES64L-G16RevA.03\State=2-A\HF=-420.2001284\S2
 =0.756234\S2-1=0.\S2A=0.750025\RMSD=3.982e-09\RMSF=2.123e-03\ZeroPoint
 =0.1090746\Thermal=0.1173908\Dipole=-0.4081477,0.5387808,0.4595373\Dip
 oleDeriv=-0.1416842,0.2032156,-0.0406457,0.1942328,0.1090773,0.0083181
 ,0.0024431,0.0821553,-0.397592,0.2010913,0.0251343,0.0385142,0.1731169
 ,0.4194166,-0.0267655,0.0530431,0.0065752,0.3165918,-0.2324099,0.02747
 27,0.0109077,0.0452823,-0.1696208,-0.0110339,0.0165696,-0.0113585,-0.1
 474799,0.2634476,-0.0159274,-0.006812,-0.0245978,0.2341403,0.0111924,-
 0.0106758,0.0117287,0.212784,-0.5485708,0.2024618,0.0898858,0.227739,-
 0.2501836,-0.068015,0.1085521,-0.072555,-0.1245367,2.4866163,-0.056229
 5,-0.0055319,0.2559362,1.5084031,0.5188657,0.1373344,0.5117345,0.60564
 88,-0.8197818,0.075358,0.0257473,-0.1266448,-1.0580448,-0.3270373,-0.0
 738856,-0.314374,-0.484494,-2.0629213,-0.2345282,-0.120125,-0.1398615,
 -0.6244041,-0.1127271,-0.0744423,-0.0965796,-0.3676603,1.2998373,0.453
 4067,-0.0034497,-0.0815576,0.7550015,-0.079588,-0.2246823,-0.2796097,0
 .3066409,-0.1677571,-0.1473331,0.0077398,-0.0217855,-0.1791064,0.07662
 1,-0.0127106,0.0891458,-0.038276,-0.3181357,-0.5122791,0.0349097,-0.51
 92006,-0.7840134,0.0790364,-0.0016048,-0.0042795,0.107526,-0.044493,-0
 .0666473,-0.0664787,0.0194276,-0.0421111,-0.0275129,0.0527009,0.054971
 9,-0.0469955,-0.063503,0.0737565,0.0252783,0.0710875,0.0745653,0.00371
 72,0.0271394,-0.0111946,0.0556333,0.0945539,0.0199702,-0.0004125,0.001
 201,0.0188818,-0.080303,-0.0231594,-0.0270387,-0.0470159,0.0537105,-0.
 0478311,0.0104727,-0.0743754,-0.0120016,0.0352318,0.023378,0.0606782,0
 .0492254\Polar=92.2781643,-3.5621671,79.4511804,-4.2021228,3.97409,51.
 2674657\Quadrupole=1.3418657,-0.3086643,-1.0332015,-7.8529111,-1.48242
 81,-0.2543928\PG=C01 [X(C5H7O3)]\NImag=3\\0.38823813,-0.19173533,0.112
 91012,-0.10511401,0.05442515,0.02756652,-0.38037797,0.20077240,0.10448
 828,0.37812123,0.18669661,-0.11668210,-0.05455629,-0.19521266,0.121773
 64,0.10159337,-0.05709403,-0.03053580,-0.10291038,0.05705274,0.0305538
 3,0.00006515,0.00014309,0.00003855,0.00002246,0.00028373,0.00002717,1.
 08751982,-0.00011118,-0.00010439,-0.00003190,0.00009518,-0.00021514,-0
 .00002126,-0.64364493,0.45836880,-0.00001311,-0.00005773,0.00004539,-0
 .00000299,-0.00007093,-0.00008525,-0.28989967,0.17963836,0.14149201,0.
 00002065,-0.00003280,-0.00001385,-0.00005968,-0.00005259,0.00000373,-0
 .29774512,0.16855198,0.07587626,0.28807196,0.00002356,0.00002700,0.000
 01158,-0.00000057,0.00008385,0.00000591,0.16830367,-0.13192313,-0.0463
 6352,-0.16882526,0.12165850,-0.00000626,0.00001454,-0.00002977,0.00001
 551,0.00001085,0.00004125,0.07576813,-0.04635703,-0.05077143,-0.076045
 27,0.04702550,0.03916735,0.00014124,0.00039911,0.00007649,0.00003463,0
 .00054471,0.00008305,-0.79089223,0.47196160,0.21268098,0.00811207,-0.0
 0226559,-0.00093818,1.04891058,-0.00002497,-0.00010768,-0.00004582,-0.
 00006260,-0.00025014,-0.00001720,0.47382842,-0.32959668,-0.13313957,-0
 .00217818,0.00646550,-0.00046154,-0.58814398,0.47252212,-0.00001703,0.
 00001568,-0.00000854,-0.00001190,-0.00002490,0.00000815,0.21344287,-0.
 13311464,-0.09389826,-0.00091047,-0.00044759,0.00750758,-0.26566510,0.
 18364582,0.14356334,0.00036108,-0.00191137,-0.00077200,-0.00165412,-0.
 00441659,-0.00025656,0.00734788,-0.00131186,-0.00059614,0.00068849,0.0
 0351485,0.00155342,-0.20696124,0.09348461,0.04164414,0.60556515,0.0007
 4406,-0.00011341,-0.00008367,-0.00119844,-0.00105240,-0.00013977,-0.00
 054623,0.00262242,-0.00013028,0.00257140,0.00375982,-0.00093369,0.0827
 8132,-0.11433944,-0.01799824,-0.02306760,0.90171863,-0.00002006,-0.001
 07578,-0.00047682,-0.00042105,-0.00099657,-0.00001734,-0.00023183,-0.0
 0010598,0.00260424,0.00117048,-0.00092128,0.00546724,0.03714597,-0.018
 77735,-0.08200314,-0.01793111,0.29420965,0.33499827,0.00010436,0.00034
 208,0.00020270,0.00014080,0.00114526,0.00001404,-0.00336539,0.00183777
 ,0.00081756,-0.00026515,-0.00126531,-0.00055572,0.00638802,0.03296984,
 0.01444389,-0.10855889,-0.00315705,-0.00041403,0.11165471,-0.00074378,
 -0.00014714,0.00021786,0.00099518,0.00127050,-0.00009371,0.00051017,0.
 00130600,0.00045600,0.00024637,0.00068862,0.00071338,0.02655506,-0.048
 45372,-0.03026043,-0.01097397,-0.66448520,-0.24704109,0.03781034,0.772
 18039,-0.00027300,0.00009328,0.00025208,0.00045188,0.00064563,-0.00004
 157,0.00027299,0.00046182,0.00040247,0.00009265,0.00072884,-0.00070800
 ,0.01161558,-0.03038228,0.00895224,-0.00440365,-0.24888227,-0.18589609
 ,0.01334100,0.31213514,0.16621425,0.00125143,0.00619456,0.00164944,0.0
 0025522,0.00503128,0.00048304,-0.00342708,0.00272326,0.00119873,0.0013
 0307,0.00028697,0.00007907,-0.06448396,-0.00683238,-0.00139924,-0.2358
 5231,-0.07181816,-0.02949596,-0.00829957,-0.06321992,-0.02404046,0.531
 20969,-0.00251483,-0.00197140,-0.00032212,0.00159928,0.00094946,0.0003
 0255,0.00216750,-0.00151114,-0.00083378,-0.00050483,-0.00069965,-0.000
 11164,0.01271373,0.01357718,0.00050475,-0.05306345,-0.14483418,-0.0342
 3439,-0.06161889,-0.05669829,-0.03572564,0.03337667,0.31752964,-0.0002
 1779,-0.00048091,0.00064584,0.00004230,0.00012387,-0.00083440,0.000946
 84,-0.00087524,0.00010412,-0.00024391,-0.00013969,-0.00044694,0.006598
 81,0.00128692,0.01138457,-0.01956041,-0.03310319,-0.07971794,-0.024487
 23,-0.03554094,0.01565724,0.00588222,0.10343773,0.12906630,-0.02542179
 ,-0.05052975,-0.00560680,0.00625077,-0.00154517,-0.00169996,0.00141944
 ,-0.00085501,-0.00033265,-0.00035915,0.00032540,0.00016636,0.00193403,
 -0.00247577,-0.00169060,-0.07344888,-0.00445807,0.00078496,0.00589302,
 0.01545912,0.00709607,-0.14103157,0.03325016,0.02115357,0.46101545,-0.
 02354909,-0.04795925,-0.00529955,0.00047236,-0.00343311,-0.00076349,-0
 .00068170,0.00080651,0.00040603,0.00016255,0.00011155,0.00013715,-0.00
 494414,-0.00062989,-0.00226197,-0.00537809,0.02457843,0.01001939,-0.00
 403900,-0.00966101,-0.00146374,0.06360115,-0.11847816,-0.02924646,0.05
 044997,0.51653136,0.00602702,0.01192310,0.00229991,-0.00183173,0.00072
 795,0.00024816,-0.00052361,0.00052736,0.00005035,0.00010775,0.00008605
 ,-0.00024397,-0.00197547,-0.00241446,0.00512965,0.00473463,0.01396890,
 0.00668997,-0.00016545,-0.00347519,-0.00675782,0.02784487,-0.02889409,
 -0.08326323,0.02577970,0.03823472,0.57172312,0.00289899,0.00524360,0.0
 0067270,-0.00110460,0.00054519,0.00077104,-0.00033070,0.00023566,0.000
 12051,0.00009746,-0.00000319,-0.00008979,-0.00111087,-0.00061917,0.001
 14591,0.00533350,0.00756099,0.00095331,-0.00016759,-0.00260451,-0.0015
 8608,-0.03040648,0.02957244,-0.02432841,-0.07450450,0.01686907,-0.0219
 3177,0.57347427,0.00350131,0.00684445,0.00045522,-0.00077110,0.0002126
 5,0.00071921,-0.00001611,0.00001391,0.00004445,-0.00001099,-0.00002525
 ,0.00001866,0.00033327,0.00019702,-0.00061435,-0.00104544,0.00017762,-
 0.00000074,0.00085746,-0.00027137,0.00161482,0.01431094,-0.01257474,0.
 00929386,0.02484405,-0.12433283,0.06268843,0.01390915,0.54916849,-0.00
 041613,-0.00121596,-0.00001863,0.00013929,0.00007629,0.00018528,0.0001
 8106,-0.00018272,0.00004121,-0.00002709,0.00000726,0.00003038,0.000125
 00,0.00054791,-0.00081000,-0.00199423,-0.00398482,-0.00065200,-0.00015
 431,0.00204518,0.00073704,0.00576097,-0.00532048,0.01202443,-0.0316859
 0,0.06705446,-0.17048183,-0.02353223,0.04020971,0.54055126,0.01232545,
 0.02997239,0.00404516,-0.00127296,0.00668580,0.00217615,-0.00055898,0.
 00050095,0.00015750,0.00011235,-0.00007647,0.00000965,-0.00186207,-0.0
 0010129,-0.00036355,0.00299515,0.00453993,0.00498933,-0.00049431,-0.00
 110567,-0.00072987,-0.04136402,-0.01379762,0.00315623,-0.10460296,-0.0
 8147391,0.00905590,0.00244473,0.00090519,-0.00092644,0.13276380,0.0266
 3684,0.04406770,0.00479471,-0.00648980,-0.00362069,0.00001791,-0.00035
 793,0.00021317,0.00003168,0.00008086,-0.00013427,-0.00005088,-0.000448
 08,0.00058815,0.00057445,0.00824462,-0.00239120,0.00020940,-0.00264569
 ,0.00114625,0.00027611,0.00507198,0.01429999,-0.00250916,-0.06053104,-
 0.12014847,0.00115294,-0.02003421,-0.02504510,0.00423183,0.05851411,0.
 10481333,0.00070499,-0.00198605,-0.00044818,-0.00055939,-0.00275812,0.
 00128192,0.00003144,-0.00001221,-0.00005330,-0.00000413,-0.00000669,-0
 .00001390,0.00029810,-0.00004823,0.00036109,-0.00034563,-0.00299161,-0
 .00140327,-0.00154143,0.00107569,0.00077216,0.00917042,0.00497361,-0.0
 0088668,0.01987310,0.01927026,-0.04358508,0.01252682,0.01863673,-0.004
 45705,-0.02284508,-0.01939478,0.04637517,0.00136559,0.00268861,0.00080
 107,-0.00063940,0.00049162,-0.00009859,-0.00007432,0.00002876,0.000027
 98,0.00004453,-0.00002896,0.00004230,-0.00028359,0.00019389,-0.0008597
 2,0.00444598,0.00620918,0.00386381,-0.00211021,-0.00340396,-0.00093550
 ,-0.01262201,0.02034613,0.03180238,-0.05071804,-0.01711435,-0.04102414
 ,0.00065315,-0.00575717,-0.00701930,-0.00297616,-0.01306621,-0.0164729
 2,0.06237107,0.00155556,0.00318046,0.00096485,-0.00035071,0.00066533,-
 0.00014485,0.00004430,-0.00000654,0.00004822,-0.00000995,0.00000551,0.
 00000715,0.00028123,-0.00016349,-0.00026646,-0.00309084,-0.00092225,-0
 .00069685,-0.00146119,0.00047851,0.00114393,0.00794779,-0.01063756,-0.
 01428385,-0.00890811,-0.10391694,-0.11267483,0.00180898,0.01194614,0.0
 2073800,-0.00599141,-0.01431557,-0.01854570,0.00733496,0.11507883,-0.0
 0178708,-0.00318104,0.00002759,0.00050416,-0.00009013,-0.00013493,-0.0
 0000671,0.00000146,0.00006941,-0.00001675,-0.00000288,-0.00000099,0.00
 026483,0.00019403,-0.00027332,-0.00305022,-0.00355264,-0.00042640,-0.0
 0165437,0.00173587,0.00107464,0.00749632,-0.00543324,-0.00382386,-0.02
 883755,-0.10950722,-0.26064738,-0.00380840,-0.01070493,-0.01807584,0.0
 0186571,0.00611353,0.00336831,0.03050254,0.12146497,0.27969673,0.00002
 064,0.00003502,-0.00007816,-0.00006017,-0.00007322,-0.00001188,-0.0000
 5796,0.00003857,-0.00002555,0.00002222,-0.00001414,-0.00000584,-0.0001
 1615,0.00000615,0.00026268,0.00134884,0.00024888,0.00034044,-0.0002195
 7,-0.00005657,-0.00048630,0.00002721,0.00086243,-0.00214514,-0.0092290
 5,0.00159713,0.00392840,-0.26913510,0.09231480,0.05580249,0.00039145,0
 .00032175,-0.00004604,0.00011697,-0.00013818,-0.00042584,0.29009094,-0
 .00043622,-0.00013351,-0.00004642,0.00012484,0.00012633,-0.00010956,0.
 00006497,-0.00003405,-0.00003438,-0.00002102,0.00000031,0.00001328,0.0
 0027721,0.00011184,-0.00010600,-0.00171304,-0.00275252,-0.00043009,-0.
 00012073,0.00130171,0.00010428,0.00493313,-0.00209136,0.00429758,0.016
 28391,-0.00744932,-0.00804399,0.09053102,-0.08296758,-0.02167290,0.000
 10380,0.00051130,-0.00044593,-0.00017126,0.00059788,0.00018592,-0.1015
 7256,0.08811625,0.00011990,0.00010525,0.00000203,-0.00007096,-0.000010
 39,-0.00003655,-0.00010252,0.00009595,0.00001108,0.00001792,0.00000512
 ,-0.00001759,-0.00027839,-0.00026874,0.00033835,0.00132387,0.00197147,
 0.00024700,-0.00011760,-0.00079815,-0.00047049,-0.00518299,0.00455517,
 -0.00360179,-0.02118473,0.00642527,0.00806120,0.05752691,-0.02299372,-
 0.06199952,0.00013720,-0.00032687,0.00082191,0.00032048,-0.00114923,0.
 00020130,-0.06069607,0.02286039,0.06321855,-0.00024324,-0.00011615,-0.
 00016912,0.00012596,-0.00001337,-0.00006744,0.00000748,0.00000755,0.00
 002895,-0.00002021,0.00000630,-0.00000792,0.00005219,0.00001198,0.0000
 0973,-0.00096330,-0.00123533,-0.00063174,-0.00017331,0.00086455,0.0001
 1404,0.00172058,-0.00099908,0.00051811,-0.00273160,-0.00469773,-0.0092
 5352,-0.04824759,-0.01035469,-0.01513352,0.00029629,0.00063482,0.00068
 815,0.00026604,0.00142177,-0.00155651,0.00360184,0.01419005,0.02588077
 ,0.04733160,-0.00000552,0.00019563,-0.00050697,0.00013325,-0.00011405,
 0.00020362,-0.00003431,-0.00000410,-0.00000626,0.00000615,0.00000481,-
 0.00000833,-0.00003507,0.00003320,0.00015027,0.00036768,0.00006773,-0.
 00023304,-0.00018793,0.00017350,-0.00025030,-0.00205052,0.00125368,-0.
 00113135,0.00173683,0.01128138,0.02191834,-0.00997905,-0.12011215,-0.1
 2200706,-0.00009780,0.00132435,-0.00040422,0.00178601,-0.00274816,0.00
 322275,-0.00199743,-0.00649044,-0.00893462,0.00961851,0.12640339,0.000
 05961,-0.00013331,0.00056136,-0.00006511,0.00010393,-0.00031556,-0.000
 03370,0.00003589,0.00001952,-0.00000148,-0.00000646,-0.00000271,-0.000
 03154,0.00002371,-0.00002823,-0.00031929,-0.00053070,-0.00030932,0.000
 02494,0.00033316,0.00024506,0.00102963,-0.00039213,0.00269172,-0.00125
 089,-0.01312358,-0.02462284,-0.01590083,-0.11888665,-0.24698571,0.0000
 9905,-0.00028447,0.00044102,-0.00131240,0.00395400,-0.00188603,-0.0005
 6083,-0.00217764,-0.00479747,0.01839335,0.12836406,0.27034696,-0.00074
 971,-0.00146548,-0.00022044,0.00021781,-0.00011059,-0.00010679,0.00006
 954,-0.00005829,-0.00003837,-0.00002350,0.00001874,0.00001454,0.000137
 34,-0.00005654,-0.00003161,-0.00064734,0.00082510,-0.00010250,-0.00052
 693,-0.00033241,-0.00052935,0.00171979,-0.00138964,0.00088243,0.005534
 82,0.00872576,-0.00077256,-0.15989469,-0.13302065,0.01888032,0.0018022
 4,0.00406800,-0.00147838,0.00016040,-0.00044421,0.00050988,-0.01680211
 ,-0.02247411,0.00230621,-0.00102273,0.00073920,-0.00013052,0.17002507,
 -0.00003702,-0.00000647,0.00002336,-0.00010661,0.00028587,0.00008193,-
 0.00006464,0.00006438,0.00001171,0.00001632,-0.00002319,-0.00001739,-0
 .00001038,0.00004603,0.00020361,0.00036049,-0.00203405,0.00007473,-0.0
 0046696,0.00117125,-0.00049963,0.00044325,0.00188653,-0.00112917,-0.01
 304653,-0.01730023,0.00427477,-0.13303598,-0.20323126,0.01947330,0.001
 42199,-0.00130893,0.00263726,0.00046274,0.00075784,-0.00044644,0.00842
 737,0.01115318,-0.00153690,-0.00933917,-0.01126877,0.00272017,0.144975
 11,0.21980784,-0.00064042,-0.00135219,0.00011701,0.00023208,-0.0002339
 5,-0.00031720,0.00008899,-0.00005988,-0.00003158,-0.00000583,0.0000178
 5,0.00002150,-0.00000012,-0.00014319,-0.00022346,-0.00002681,0.0021808
 7,0.00089561,0.00024603,-0.00150277,-0.00043321,-0.00047607,-0.0025063
 0,0.00100061,0.01743534,0.02011873,-0.00460022,0.01746029,0.01951931,-
 0.05008901,-0.00082693,0.00516361,-0.00257413,0.00036200,-0.00055938,0
 .00083077,0.00414764,0.00560546,-0.00197801,-0.01881331,-0.02037687,0.
 00464222,-0.01918287,-0.02587130,0.05273912\\-0.00436706,-0.01100897,-
 0.00143347,0.00013297,0.00011342,-0.00007843,0.00010792,-0.00005423,-0
 .00001757,0.00001412,0.00000293,0.00000565,0.00007495,-0.00004040,-0.0
 0011940,-0.00015594,-0.00021139,-0.00031243,0.00058241,-0.00019331,-0.
 00029891,-0.00037962,0.00005049,0.00061817,0.00162212,0.00604817,0.002
 26883,0.00118440,0.00208014,-0.00111873,0.00009857,0.00157893,0.001382
 68,0.00106952,0.00136894,-0.00043723,0.00008371,0.00015577,-0.00008828
 ,-0.00004939,-0.00008674,0.00006973,-0.00001867,0.00019626,-0.00044058
 \\\@


 The juvenile sea squirt wanders through the sea searching
 for a suitable rock or hunk of coral to cling to and make
 its home for life.  For this task it has a rudimentary
 nervous system.  When it finds its spot and takes root, it
 doesn't need its brain any more so it eats it.
 It's rather like getting tenure.

                               -- source unknown
 Job cpu time:       0 days  0 hours 57 minutes 11.9 seconds.
 Elapsed time:       0 days  0 hours  2 minutes 23.1 seconds.
 File lengths (MBytes):  RWF=    153 Int=      0 D2E=      0 Chk=      8 Scr=      1
 Normal termination of Gaussian 16 at Mon Jun 23 01:16:33 2025.
