 Entering Gaussian System, Link 0=g16
 Initial command:
 /opt/g16/l1.exe "/home/aayush/scratches/g16/Gau-12838.inp" -scrdir="/home/aayush/scratches/g16/"
 Entering Link 1 = /opt/g16/l1.exe PID=     12841.
  
 Copyright (c) 1988,1990,1992,1993,1995,1998,2003,2009,2016,
            Gaussian, Inc.  All Rights Reserved.
  
 This is part of the Gaussian(R) 16 program.  It is based on
 the Gaussian(R) 09 system (copyright 2009, Gaussian, Inc.),
 the Gaussian(R) 03 system (copyright 2003, Gaussian, Inc.),
 the Gaussian(R) 98 system (copyright 1998, Gaussian, Inc.),
 the Gaussian(R) 94 system (copyright 1995, Gaussian, Inc.),
 the Gaussian 92(TM) system (copyright 1992, Gaussian, Inc.),
 the Gaussian 90(TM) system (copyright 1990, Gaussian, Inc.),
 the Gaussian 88(TM) system (copyright 1988, Gaussian, Inc.),
 the Gaussian 86(TM) system (copyright 1986, Carnegie Mellon
 University), and the Gaussian 82(TM) system (copyright 1983,
 Carnegie Mellon University). Gaussian is a federally registered
 trademark of Gaussian, Inc.
  
 This software contains proprietary and confidential information,
 including trade secrets, belonging to Gaussian, Inc.
  
 This software is provided under written license and may be
 used, copied, transmitted, or stored only in accord with that
 written license.
  
 The following legend is applicable only to US Government
 contracts under FAR:
  
                    RESTRICTED RIGHTS LEGEND
  
 Use, reproduction and disclosure by the US Government is
 subject to restrictions as set forth in subparagraphs (a)
 and (c) of the Commercial Computer Software - Restricted
 Rights clause in FAR 52.227-19.
  
 Gaussian, Inc.
 340 Quinnipiac St., Bldg. 40, Wallingford CT 06492
  
  
 ---------------------------------------------------------------
 Warning -- This program may not be used in any manner that
 competes with the business of Gaussian, Inc. or will provide
 assistance to any competitor of Gaussian, Inc.  The licensee
 of this program is prohibited from giving any competitor of
 Gaussian, Inc. access to this program.  By using this program,
 the user acknowledges that Gaussian, Inc. is engaged in the
 business of creating and licensing software in the field of
 computational chemistry and represents and warrants to the
 licensee that it is not a competitor of Gaussian, Inc. and that
 it will not use this program in any manner prohibited above.
 ---------------------------------------------------------------
  

 Cite this work as:
 Gaussian 16, Revision A.03,
 M. J. Frisch, G. W. Trucks, H. B. Schlegel, G. E. Scuseria, 
 M. A. Robb, J. R. Cheeseman, G. Scalmani, V. Barone, 
 G. A. Petersson, H. Nakatsuji, X. Li, M. Caricato, A. V. Marenich, 
 J. Bloino, B. G. Janesko, R. Gomperts, B. Mennucci, H. P. Hratchian, 
 J. V. Ortiz, A. F. Izmaylov, J. L. Sonnenberg, D. Williams-Young, 
 F. Ding, F. Lipparini, F. Egidi, J. Goings, B. Peng, A. Petrone, 
 T. Henderson, D. Ranasinghe, V. G. Zakrzewski, J. Gao, N. Rega, 
 G. Zheng, W. Liang, M. Hada, M. Ehara, K. Toyota, R. Fukuda, 
 J. Hasegawa, M. Ishida, T. Nakajima, Y. Honda, O. Kitao, H. Nakai, 
 T. Vreven, K. Throssell, J. A. Montgomery, Jr., J. E. Peralta, 
 F. Ogliaro, M. J. Bearpark, J. J. Heyd, E. N. Brothers, K. N. Kudin, 
 V. N. Staroverov, T. A. Keith, R. Kobayashi, J. Normand, 
 K. Raghavachari, A. P. Rendell, J. C. Burant, S. S. Iyengar, 
 J. Tomasi, M. Cossi, J. M. Millam, M. Klene, C. Adamo, R. Cammi, 
 J. W. Ochterski, R. L. Martin, K. Morokuma, O. Farkas, 
 J. B. Foresman, and D. J. Fox, Gaussian, Inc., Wallingford CT, 2016.
 
 ******************************************
 Gaussian 16:  ES64L-G16RevA.03 25-Dec-2016
                19-Aug-2025 
 ******************************************
 %nprocshared=24
 Will use up to   24 processors via shared memory.
 %mem=12GB
 %chk=ethyl_propiolate.chk
 --------------------------
 # ccsd(t)/6-311++g(d,p) sp
 --------------------------
 1/38=1,172=1/1;
 2/12=2,17=6,18=5,40=1/2;
 3/5=4,6=6,7=1111,11=9,25=1,30=1/1,2,3;
 4//1;
 5/5=2,38=5/2;
 8/6=4,9=120000,10=2/1,4;
 9/5=7,14=2/13;
 6/7=2,8=2,9=2,10=2/1;
 99/5=1,9=1/99;
 -------------------
 Title Card Required
 -------------------
 Symbolic Z-matrix:
 Charge =  0 Multiplicity = 2
 O                     2.69757   1.74389  -0.22932 
 H                     1.88763   2.22433   0.0018 
 C                    -3.13428   1.01996   0.42242 
 H                    -4.01484   1.566     0.66921 
 C                    -2.14462   0.4049    0.1447 
 C                    -0.97632  -0.38408  -0.20931 
 O                    -1.01988  -1.48613  -0.6746 
 O                     0.15572   0.28817   0.05624 
 C                     1.37393  -0.3789   -0.26186 
 C                     1.83251  -1.30091   0.83416 
 H                     2.17394   0.58225  -0.34636 
 H                     1.31853  -0.8261   -1.25463 
 H                     2.81379  -1.70899   0.58996 
 H                     1.89939  -0.76298   1.78047 
 H                     1.12561  -2.12945   0.93803 
 
                          Input orientation:                          
 ---------------------------------------------------------------------
 Center     Atomic      Atomic             Coordinates (Angstroms)
 Number     Number       Type             X           Y           Z
 ---------------------------------------------------------------------
      1          8           0        2.697565    1.743886   -0.229319
      2          1           0        1.887626    2.224335    0.001796
      3          6           0       -3.134276    1.019964    0.422422
      4          1           0       -4.014841    1.565997    0.669213
      5          6           0       -2.144617    0.404898    0.144699
      6          6           0       -0.976324   -0.384078   -0.209306
      7          8           0       -1.019877   -1.486128   -0.674597
      8          8           0        0.155717    0.288168    0.056241
      9          6           0        1.373930   -0.378901   -0.261857
     10          6           0        1.832508   -1.300913    0.834160
     11          1           0        2.173935    0.582245   -0.346363
     12          1           0        1.318526   -0.826096   -1.254629
     13          1           0        2.813785   -1.708986    0.589960
     14          1           0        1.899388   -0.762976    1.780468
     15          1           0        1.125610   -2.129453    0.938025
 ---------------------------------------------------------------------
                    Distance matrix (angstroms):
                    1          2          3          4          5
     1  O    0.000000
     2  H    0.969663   0.000000
     3  C    5.912630   5.181403   0.000000
     4  H    6.774614   5.976451   1.065107   0.000000
     5  C    5.037808   4.426032   1.197857   2.262963   0.000000
     6  C    4.245715   3.879509   2.650881   3.715801   1.453517
     7  O    4.944759   4.762207   3.457547   4.482310   2.347821
     8  O    2.943068   2.598310   3.390231   4.404786   2.304992
     9  C    2.501858   2.666502   4.769589   5.804169   3.627644
    10  C    3.339178   3.622601   5.497721   6.514436   4.382085
    11  H    1.279569   1.702835   5.381425   6.348237   4.349998
    12  H    3.091572   3.347777   5.103713   6.153705   3.932788
    13  H    3.550641   4.083469   6.546348   7.573766   5.408559
    14  H    3.310693   3.476757   5.510076   6.452682   4.515932
    15  H    4.340102   4.518038   5.322716   6.336627   4.212682
                    6          7          8          9         10
     6  C    0.000000
     7  O    1.197041   0.000000
     8  O    1.343111   2.250394   0.000000
     9  C    2.350847   2.669573   1.424854   0.000000
    10  C    3.133520   3.232144   2.437615   1.503879   0.000000
    11  H    3.297984   3.819207   2.078888   1.253376   2.248664
    12  H    2.560159   2.498041   2.076557   1.090252   2.202877
    13  H    4.093792   4.042986   3.367314   2.137265   1.090441
    14  H    3.517454   3.882319   2.668005   2.143528   1.090572
    15  H    2.963246   2.759988   2.750114   2.136776   1.094062
                   11         12         13         14         15
    11  H    0.000000
    12  H    1.881514   0.000000
    13  H    2.556531   2.533338   0.000000
    14  H    2.531483   3.090825   1.774364   0.000000
    15  H    3.178356   2.558063   1.774226   1.782050   0.000000
 Stoichiometry    C5H7O3(2)
 Framework group  C1[X(C5H7O3)]
 Deg. of freedom    39
 Full point group                 C1      NOp   1
 Largest Abelian subgroup         C1      NOp   1
 Largest concise Abelian subgroup C1      NOp   1
                         Standard orientation:                         
 ---------------------------------------------------------------------
 Center     Atomic      Atomic             Coordinates (Angstroms)
 Number     Number       Type             X           Y           Z
 ---------------------------------------------------------------------
      1          8           0        2.639062    1.752253   -0.248203
      2          1           0        1.829163    2.232726   -0.016998
      3          6           0       -3.192855    1.028719    0.403284
      4          1           0       -4.073375    1.574778    0.650179
      5          6           0       -2.203247    0.413623    0.125444
      6          6           0       -1.035020   -0.375382   -0.228712
      7          8           0       -1.078665   -1.477327   -0.694243
      8          8           0        0.097078    0.296704    0.036999
      9          6           0        1.315236   -0.370407   -0.281223
     10          6           0        1.773712   -1.292698    0.814602
     11          1           0        2.115329    0.590685   -0.365508
     12          1           0        1.259808   -0.817382   -1.274093
     13          1           0        2.754956   -1.700807    0.570330
     14          1           0        1.840625   -0.754972    1.761027
     15          1           0        1.066737   -2.121196    0.918275
 ---------------------------------------------------------------------
 Rotational constants (GHZ):           3.0334632           1.1298113           0.9019520
 Standard basis: 6-311++G(d,p) (5D, 7F)
 There are   233 symmetry adapted cartesian basis functions of A   symmetry.
 There are   225 symmetry adapted basis functions of A   symmetry.
   225 basis functions,   351 primitive gaussians,   233 cartesian basis functions
    31 alpha electrons       30 beta electrons
       nuclear repulsion energy       348.5660852935 Hartrees.
 NAtoms=   15 NActive=   15 NUniq=   15 SFac= 1.00D+00 NAtFMM=   60 NAOKFM=F Big=F
 Integral buffers will be    131072 words long.
 Raffenetti 2 integral format.
 Two-electron integral symmetry is turned on.
 One-electron integrals computed using PRISM.
 NBasis=   225 RedAO= T EigKep=  7.83D-06  NBF=   225
 NBsUse=   224 1.00D-06 EigRej=  8.26D-07 NBFU=   224
 ExpMin= 3.60D-02 ExpMax= 8.59D+03 ExpMxC= 1.30D+03 IAcc=3 IRadAn=         5 AccDes= 0.00D+00
 Harris functional with IExCor=  205 and IRadAn=       5 diagonalized for initial guess.
 HarFok:  IExCor=  205 AccDes= 0.00D+00 IRadAn=         5 IDoV= 1 UseB2=F ITyADJ=14
 ICtDFT=  3500011 ScaDFX=  1.000000  1.000000  1.000000  1.000000
 FoFCou: FMM=F IPFlag=           0 FMFlag=      100000 FMFlg1=           0
         NFxFlg=           0 DoJE=T BraDBF=F KetDBF=T FulRan=T
         wScrn=  0.000000 ICntrl=       500 IOpCl=  0 I1Cent=   200000004 NGrid=           0
         NMat0=    1 NMatS0=      1 NMatT0=    0 NMatD0=    1 NMtDS0=    0 NMtDT0=    0
 Petite list used in FoFCou.
 Initial guess <Sx>= 0.0000 <Sy>= 0.0000 <Sz>= 0.5000 <S**2>= 0.7500 S= 0.5000
 Requested convergence on RMS density matrix=1.00D-08 within 128 cycles.
 Requested convergence on MAX density matrix=1.00D-06.
 Requested convergence on             energy=1.00D-06.
 No special actions if energy rises.
 Initial convergence to 1.0D-05 achieved.  Increase integral accuracy.
 SCF Done:  E(UHF) =  -417.961209360     A.U. after   30 cycles
            NFock= 30  Conv=0.76D-08     -V/T= 2.0009
 <Sx>= 0.0000 <Sy>= 0.0000 <Sz>= 0.5000 <S**2>= 0.7921 S= 0.5208
 <L.S>=  0.00000000000    
 Annihilation of the first spin contaminant:
 S**2 before annihilation     0.7921,   after     0.7506
 ExpMin= 3.60D-02 ExpMax= 8.59D+03 ExpMxC= 1.30D+03 IAcc=3 IRadAn=         5 AccDes= 0.00D+00
 HarFok:  IExCor=  205 AccDes= 0.00D+00 IRadAn=         5 IDoV=-2 UseB2=F ITyADJ=14
 ICtDFT= 12500011 ScaDFX=  1.000000  1.000000  1.000000  1.000000
 Range of M.O.s used for correlation:     9   224
 NBasis=   225 NAE=    31 NBE=    30 NFC=     8 NFV=     0
 NROrb=    216 NOA=    23 NOB=    22 NVA=   193 NVB=   194

 **** Warning!!: The largest alpha MO coefficient is  0.96660300D+02


 **** Warning!!: The largest beta MO coefficient is  0.10711967D+03

 Semi-Direct transformation.
 ModeAB=           4 MOrb=            23 LenV=    1609186732
 LASXX=    107793295 LTotXX=   107793295 LenRXX=   218294035
 LTotAB=   110500740 MaxLAS=   126480312 LenRXY=           0
 NonZer=   326087330 LenScr=   491049984 LnRSAI=   126480312
 LnScr1=   190480896 LExtra=           0 Total=   1026305227
 MaxDsk=          -1 SrtSym=           T ITran=            4
 JobTyp=1 Pass  1:  I=   1 to  23.
 (rs|ai) integrals will be sorted in core.
 ModeAB=           4 MOrb=            22 LenV=    1609186732
 LASXX=    103454307 LTotXX=   103454307 LenRXX=   188091948
 LTotAB=    84637641 MaxLAS=   120981168 LenRXY=           0
 NonZer=   291546255 LenScr=   439034880 LnRSAI=   120981168
 LnScr1=   182231040 LExtra=           0 Total=    930339036
 MaxDsk=          -1 SrtSym=           T ITran=            4
 JobTyp=2 Pass  1:  I=   1 to  22.
 (rs|ai) integrals will be sorted in core.
 SymMOI:  orbitals are not symmetric.
 Spin components of T(2) and E(2):
     alpha-alpha T2 =       0.5349964396D-01 E2=     -0.1724271379D+00
     alpha-beta  T2 =       0.2946511108D+00 E2=     -0.9506943176D+00
     beta-beta   T2 =       0.5303197739D-01 E2=     -0.1622783796D+00
 ANorm=    0.1183715647D+01
 E2 =    -0.1285399835D+01 EUMP2 =    -0.41924660919517D+03
 (S**2,0)=  0.79208D+00           (S**2,1)=  0.76534D+00
 E(PUHF)=      -0.41797072302D+03        E(PMP2)=      -0.41925312352D+03
 Keep R2 and R3 ints in memory in canonical form, NReq=652883968.
 CIDS: In Core Option IDoMem=           1.
 Iterations=  50 Convergence= 0.100D-06
 Produce multiple copies of IABC intergrals
 Iteration Nr.   1
 **********************
 DD1Dir will call FoFMem   1 times, MxPair=      1496
 NAB=   506 NAA=   253 NBB=   231.
 E(PMP3)=      -0.41927153064D+03
 MP4(R+Q)=  0.25937066D-01
 E3=       -0.21154990D-01        EUMP3=      -0.41926776419D+03
 E4(DQ)=   -0.59225668D-02        UMP4(DQ)=   -0.41927368675D+03
 E4(SDQ)=  -0.26477496D-01        UMP4(SDQ)=  -0.41929424168D+03
 DE(Corr)=  -1.2799828     E(Corr)=     -419.24119214    
 NORM(A)=   0.11885989D+01
 Iteration Nr.   2
 **********************
 DD1Dir will call FoFMem   1 times, MxPair=      1496
 NAB=   506 NAA=   253 NBB=   231.
 DE(Corr)=  -1.3241543     E(CORR)=     -419.28536361     Delta=-4.42D-02
 NORM(A)=   0.12075952D+01
 Iteration Nr.   3
 **********************
 DD1Dir will call FoFMem   1 times, MxPair=      1496
 NAB=   506 NAA=   253 NBB=   231.
 DE(Corr)=  -1.3258786     E(CORR)=     -419.28708796     Delta=-1.72D-03
 NORM(A)=   0.12146797D+01
 Iteration Nr.   4
 **********************
 DD1Dir will call FoFMem   1 times, MxPair=      1496
 NAB=   506 NAA=   253 NBB=   231.
 DE(Corr)=  -1.3312734     E(CORR)=     -419.29248281     Delta=-5.39D-03
 NORM(A)=   0.12176508D+01
 Iteration Nr.   5
 **********************
 DD1Dir will call FoFMem   1 times, MxPair=      1496
 NAB=   506 NAA=   253 NBB=   231.
 DE(Corr)=  -1.3322320     E(CORR)=     -419.29344135     Delta=-9.59D-04
 NORM(A)=   0.12192406D+01
 Iteration Nr.   6
 **********************
 DD1Dir will call FoFMem   1 times, MxPair=      1496
 NAB=   506 NAA=   253 NBB=   231.
 DE(Corr)=  -1.3324978     E(CORR)=     -419.29370718     Delta=-2.66D-04
 NORM(A)=   0.12196383D+01
 Iteration Nr.   7
 **********************
 DD1Dir will call FoFMem   1 times, MxPair=      1496
 NAB=   506 NAA=   253 NBB=   231.
 DE(Corr)=  -1.3325597     E(CORR)=     -419.29376903     Delta=-6.18D-05
 NORM(A)=   0.12197783D+01
 Iteration Nr.   8
 **********************
 DD1Dir will call FoFMem   1 times, MxPair=      1496
 NAB=   506 NAA=   253 NBB=   231.
 DE(Corr)=  -1.3325441     E(CORR)=     -419.29375350     Delta= 1.55D-05
 NORM(A)=   0.12198430D+01
 Iteration Nr.   9
 **********************
 DD1Dir will call FoFMem   1 times, MxPair=      1496
 NAB=   506 NAA=   253 NBB=   231.
 DE(Corr)=  -1.3325613     E(CORR)=     -419.29377066     Delta=-1.72D-05
 NORM(A)=   0.12198605D+01
 Iteration Nr.  10
 **********************
 DD1Dir will call FoFMem   1 times, MxPair=      1496
 NAB=   506 NAA=   253 NBB=   231.
 DE(Corr)=  -1.3325627     E(CORR)=     -419.29377210     Delta=-1.43D-06
 NORM(A)=   0.12198748D+01
 Iteration Nr.  11
 **********************
 DD1Dir will call FoFMem   1 times, MxPair=      1496
 NAB=   506 NAA=   253 NBB=   231.
 DE(Corr)=  -1.3325732     E(CORR)=     -419.29378255     Delta=-1.05D-05
 NORM(A)=   0.12198859D+01
 Iteration Nr.  12
 **********************
 DD1Dir will call FoFMem   1 times, MxPair=      1496
 NAB=   506 NAA=   253 NBB=   231.
 DE(Corr)=  -1.3325751     E(CORR)=     -419.29378449     Delta=-1.94D-06
 NORM(A)=   0.12198935D+01
 Iteration Nr.  13
 **********************
 DD1Dir will call FoFMem   1 times, MxPair=      1496
 NAB=   506 NAA=   253 NBB=   231.
 DE(Corr)=  -1.3325778     E(CORR)=     -419.29378721     Delta=-2.71D-06
 NORM(A)=   0.12198984D+01
 Iteration Nr.  14
 **********************
 DD1Dir will call FoFMem   1 times, MxPair=      1496
 NAB=   506 NAA=   253 NBB=   231.
 DE(Corr)=  -1.3325789     E(CORR)=     -419.29378825     Delta=-1.04D-06
 NORM(A)=   0.12199020D+01
 Iteration Nr.  15
 **********************
 DD1Dir will call FoFMem   1 times, MxPair=      1496
 NAB=   506 NAA=   253 NBB=   231.
 DE(Corr)=  -1.3325792     E(CORR)=     -419.29378861     Delta=-3.56D-07
 NORM(A)=   0.12199051D+01
 Iteration Nr.  16
 **********************
 DD1Dir will call FoFMem   1 times, MxPair=      1496
 NAB=   506 NAA=   253 NBB=   231.
 DE(Corr)=  -1.3325800     E(CORR)=     -419.29378938     Delta=-7.73D-07
 NORM(A)=   0.12199071D+01
 Iteration Nr.  17
 **********************
 DD1Dir will call FoFMem   1 times, MxPair=      1496
 NAB=   506 NAA=   253 NBB=   231.
 DE(Corr)=  -1.3325801     E(CORR)=     -419.29378942     Delta=-3.79D-08
 NORM(A)=   0.12199077D+01
 Wavefunction amplitudes converged. E(Corr)=     -419.29378942    
 Largest amplitude= 4.64D-02
 Time for triples=    37278.87 seconds.
 T4(CCSD)= -0.58669578D-01
 T5(CCSD)=  0.38128849D-02
 CCSD(T)= -0.41934864611D+03

 S**2, projected HF & approx projected MPn energies after annihilation of
 unwanted spin states (see manual for definitions):

 spins       (S**2,0) (S**2,1)    PUHF        PMP2        PMP3        PMP4
 annihilated
 s+1         0.74967  0.75012 -417.970723 -419.253124 -419.271531
 s+1,s+2     0.75000  0.75000 -417.970652 -419.253061 -419.271478
 s+1 to s+3  0.75000  0.75000 -417.970652 -419.253061 -419.271478
 s+1 to s+4  0.75000  0.75000 -417.970652 -419.253061 -419.271478
 s+1 to s+5  0.75000  0.75000 -417.970652
 s+1 to s+6  0.75000  0.75000 -417.970652

 Discarding MO integrals.

 **********************************************************************

            Population analysis using the SCF density.

 **********************************************************************

 Orbital symmetries:
 Alpha Orbitals:
       Occupied  (A) (A) (A) (A) (A) (A) (A) (A) (A) (A) (A) (A)
                 (A) (A) (A) (A) (A) (A) (A) (A) (A) (A) (A) (A)
                 (A) (A) (A) (A) (A) (A) (A)
       Virtual   (A) (A) (A) (A) (A) (A) (A) (A) (A) (A) (A) (A)
                 (A) (A) (A) (A) (A) (A) (A) (A) (A) (A) (A) (A)
                 (A) (A) (A) (A) (A) (A) (A) (A) (A) (A) (A) (A)
                 (A) (A) (A) (A) (A) (A) (A) (A) (A) (A) (A) (A)
                 (A) (A) (A) (A) (A) (A) (A) (A) (A) (A) (A) (A)
                 (A) (A) (A) (A) (A) (A) (A) (A) (A) (A) (A) (A)
                 (A) (A) (A) (A) (A) (A) (A) (A) (A) (A) (A) (A)
                 (A) (A) (A) (A) (A) (A) (A) (A) (A) (A) (A) (A)
                 (A) (A) (A) (A) (A) (A) (A) (A) (A) (A) (A) (A)
                 (A) (A) (A) (A) (A) (A) (A) (A) (A) (A) (A) (A)
                 (A) (A) (A) (A) (A) (A) (A) (A) (A) (A) (A) (A)
                 (A) (A) (A) (A) (A) (A) (A) (A) (A) (A) (A) (A)
                 (A) (A) (A) (A) (A) (A) (A) (A) (A) (A) (A) (A)
                 (A) (A) (A) (A) (A) (A) (A) (A) (A) (A) (A) (A)
                 (A) (A) (A) (A) (A) (A) (A) (A) (A) (A) (A) (A)
                 (A) (A) (A) (A) (A) (A) (A) (A) (A) (A) (A) (A)
                 (A)
 Beta  Orbitals:
       Occupied  (A) (A) (A) (A) (A) (A) (A) (A) (A) (A) (A) (A)
                 (A) (A) (A) (A) (A) (A) (A) (A) (A) (A) (A) (A)
                 (A) (A) (A) (A) (A) (A)
       Virtual   (A) (A) (A) (A) (A) (A) (A) (A) (A) (A) (A) (A)
                 (A) (A) (A) (A) (A) (A) (A) (A) (A) (A) (A) (A)
                 (A) (A) (A) (A) (A) (A) (A) (A) (A) (A) (A) (A)
                 (A) (A) (A) (A) (A) (A) (A) (A) (A) (A) (A) (A)
                 (A) (A) (A) (A) (A) (A) (A) (A) (A) (A) (A) (A)
                 (A) (A) (A) (A) (A) (A) (A) (A) (A) (A) (A) (A)
                 (A) (A) (A) (A) (A) (A) (A) (A) (A) (A) (A) (A)
                 (A) (A) (A) (A) (A) (A) (A) (A) (A) (A) (A) (A)
                 (A) (A) (A) (A) (A) (A) (A) (A) (A) (A) (A) (A)
                 (A) (A) (A) (A) (A) (A) (A) (A) (A) (A) (A) (A)
                 (A) (A) (A) (A) (A) (A) (A) (A) (A) (A) (A) (A)
                 (A) (A) (A) (A) (A) (A) (A) (A) (A) (A) (A) (A)
                 (A) (A) (A) (A) (A) (A) (A) (A) (A) (A) (A) (A)
                 (A) (A) (A) (A) (A) (A) (A) (A) (A) (A) (A) (A)
                 (A) (A) (A) (A) (A) (A) (A) (A) (A) (A) (A) (A)
                 (A) (A) (A) (A) (A) (A) (A) (A) (A) (A) (A) (A)
                 (A) (A)
 The electronic state is 2-A.
 Alpha  occ. eigenvalues --  -20.62887 -20.61954 -20.57482 -11.42924 -11.32126
 Alpha  occ. eigenvalues --  -11.27653 -11.26864 -11.23334  -1.49777  -1.39871
 Alpha  occ. eigenvalues --   -1.38404  -1.09092  -1.05259  -0.93805  -0.85244
 Alpha  occ. eigenvalues --   -0.78110  -0.74397  -0.72666  -0.70210  -0.68005
 Alpha  occ. eigenvalues --   -0.65945  -0.60877  -0.59508  -0.56293  -0.54834
 Alpha  occ. eigenvalues --   -0.54351  -0.50062  -0.48938  -0.43860  -0.43574
 Alpha  occ. eigenvalues --   -0.43424
 Alpha virt. eigenvalues --    0.03435   0.04779   0.06026   0.06258   0.07588
 Alpha virt. eigenvalues --    0.08014   0.08852   0.09956   0.11106   0.11741
 Alpha virt. eigenvalues --    0.11972   0.13697   0.14462   0.15486   0.16381
 Alpha virt. eigenvalues --    0.17147   0.17931   0.18727   0.19069   0.19495
 Alpha virt. eigenvalues --    0.19906   0.21239   0.21719   0.22346   0.23742
 Alpha virt. eigenvalues --    0.24713   0.25711   0.27349   0.28411   0.29714
 Alpha virt. eigenvalues --    0.30345   0.31358   0.31946   0.33794   0.34359
 Alpha virt. eigenvalues --    0.36042   0.36244   0.37098   0.37264   0.39681
 Alpha virt. eigenvalues --    0.40237   0.40916   0.41865   0.43266   0.43987
 Alpha virt. eigenvalues --    0.44626   0.45762   0.47898   0.48338   0.51114
 Alpha virt. eigenvalues --    0.55337   0.57397   0.57702   0.60048   0.62676
 Alpha virt. eigenvalues --    0.63600   0.66799   0.70160   0.71799   0.73832
 Alpha virt. eigenvalues --    0.75512   0.78375   0.79977   0.82976   0.83178
 Alpha virt. eigenvalues --    0.83781   0.86036   0.86677   0.88006   0.88951
 Alpha virt. eigenvalues --    0.90656   0.92317   0.95434   0.98610   1.00171
 Alpha virt. eigenvalues --    1.05948   1.09838   1.12873   1.18514   1.22958
 Alpha virt. eigenvalues --    1.26349   1.27863   1.28731   1.28932   1.31800
 Alpha virt. eigenvalues --    1.34790   1.36145   1.36353   1.38026   1.40192
 Alpha virt. eigenvalues --    1.42266   1.43156   1.48806   1.49127   1.53870
 Alpha virt. eigenvalues --    1.54922   1.56878   1.58538   1.61263   1.63402
 Alpha virt. eigenvalues --    1.67434   1.70053   1.72736   1.77691   1.81176
 Alpha virt. eigenvalues --    1.82475   1.83603   1.84401   1.84676   1.87962
 Alpha virt. eigenvalues --    1.89138   1.91133   1.93421   1.96691   1.99183
 Alpha virt. eigenvalues --    2.03620   2.08182   2.08622   2.11243   2.15570
 Alpha virt. eigenvalues --    2.19845   2.24871   2.27644   2.32393   2.35246
 Alpha virt. eigenvalues --    2.36974   2.41410   2.44374   2.52399   2.60331
 Alpha virt. eigenvalues --    2.70676   2.72364   2.80806   2.81596   2.83350
 Alpha virt. eigenvalues --    2.87904   2.90828   2.91199   2.92333   2.93796
 Alpha virt. eigenvalues --    2.95272   3.00284   3.03127   3.04536   3.11530
 Alpha virt. eigenvalues --    3.13269   3.16161   3.22290   3.24350   3.29535
 Alpha virt. eigenvalues --    3.29823   3.34001   3.36292   3.38736   3.42343
 Alpha virt. eigenvalues --    3.46076   3.48387   3.50089   3.53939   3.57651
 Alpha virt. eigenvalues --    3.64613   3.67694   3.72489   3.78046   3.81948
 Alpha virt. eigenvalues --    3.92726   4.01329   4.09084   4.17089   4.21563
 Alpha virt. eigenvalues --    4.22535   4.34552   4.43237   4.49633   4.55914
 Alpha virt. eigenvalues --    4.65549   5.49991   5.57716   5.61714   5.75276
 Alpha virt. eigenvalues --    5.77388   5.91061   6.06273   6.20461   6.41927
 Alpha virt. eigenvalues --   24.68344  24.94887  25.00216  25.13187  26.28671
 Alpha virt. eigenvalues --   51.52871  51.58333  51.70267
  Beta  occ. eigenvalues --  -20.62938 -20.58552 -20.57481 -11.42873 -11.30633
  Beta  occ. eigenvalues --  -11.27648 -11.26869 -11.23416  -1.49637  -1.39614
  Beta  occ. eigenvalues --   -1.26689  -1.08535  -1.03791  -0.93476  -0.83063
  Beta  occ. eigenvalues --   -0.77459  -0.73710  -0.70740  -0.67651  -0.65631
  Beta  occ. eigenvalues --   -0.61367  -0.59118  -0.56029  -0.54754  -0.50767
  Beta  occ. eigenvalues --   -0.50563  -0.49131  -0.47055  -0.43565  -0.43510
  Beta virt. eigenvalues --    0.03409   0.04409   0.05189   0.06209   0.06926
  Beta virt. eigenvalues --    0.07653   0.08035   0.09087   0.10083   0.11406
  Beta virt. eigenvalues --    0.11946   0.12027   0.13733   0.14488   0.15548
  Beta virt. eigenvalues --    0.16470   0.17159   0.17977   0.18851   0.19195
  Beta virt. eigenvalues --    0.19635   0.19979   0.21369   0.21784   0.22498
  Beta virt. eigenvalues --    0.23825   0.24765   0.25809   0.27536   0.28639
  Beta virt. eigenvalues --    0.29893   0.30466   0.31782   0.32861   0.34196
  Beta virt. eigenvalues --    0.34666   0.36150   0.36928   0.37344   0.37375
  Beta virt. eigenvalues --    0.40162   0.40475   0.41316   0.42068   0.43658
  Beta virt. eigenvalues --    0.44300   0.44912   0.46321   0.48354   0.49263
  Beta virt. eigenvalues --    0.54406   0.55998   0.57576   0.57959   0.60143
  Beta virt. eigenvalues --    0.62807   0.63697   0.66898   0.70210   0.71862
  Beta virt. eigenvalues --    0.74542   0.76025   0.78505   0.80063   0.83216
  Beta virt. eigenvalues --    0.83407   0.85751   0.86173   0.87353   0.88735
  Beta virt. eigenvalues --    0.89152   0.91129   0.92585   0.95917   0.99148
  Beta virt. eigenvalues --    1.00253   1.06305   1.10154   1.12952   1.19546
  Beta virt. eigenvalues --    1.23812   1.27258   1.28147   1.29070   1.32096
  Beta virt. eigenvalues --    1.33326   1.35454   1.36426   1.37551   1.39437
  Beta virt. eigenvalues --    1.41317   1.42567   1.43507   1.49092   1.49418
  Beta virt. eigenvalues --    1.53938   1.55180   1.57042   1.59023   1.61412
  Beta virt. eigenvalues --    1.63634   1.68328   1.70819   1.73355   1.79960
  Beta virt. eigenvalues --    1.81724   1.82858   1.83742   1.84736   1.85563
  Beta virt. eigenvalues --    1.88550   1.89411   1.91904   1.94051   1.97313
  Beta virt. eigenvalues --    1.99462   2.03869   2.08306   2.08852   2.12139
  Beta virt. eigenvalues --    2.15723   2.19982   2.25114   2.27970   2.32622
  Beta virt. eigenvalues --    2.36102   2.37554   2.42395   2.44662   2.54849
  Beta virt. eigenvalues --    2.60632   2.70724   2.74125   2.80926   2.81435
  Beta virt. eigenvalues --    2.83392   2.87948   2.91089   2.91419   2.92791
  Beta virt. eigenvalues --    2.93948   2.95582   3.00449   3.03238   3.04737
  Beta virt. eigenvalues --    3.11121   3.13428   3.15975   3.23323   3.25219
  Beta virt. eigenvalues --    3.29774   3.34231   3.36090   3.36328   3.38795
  Beta virt. eigenvalues --    3.42499   3.46408   3.49930   3.53621   3.57007
  Beta virt. eigenvalues --    3.58894   3.64992   3.67765   3.72744   3.78091
  Beta virt. eigenvalues --    3.86761   3.92761   4.01499   4.09840   4.18301
  Beta virt. eigenvalues --    4.21804   4.22710   4.37121   4.45116   4.50223
  Beta virt. eigenvalues --    4.56163   4.66047   5.51948   5.57866   5.61740
  Beta virt. eigenvalues --    5.75397   5.85004   5.91731   6.09045   6.20622
  Beta virt. eigenvalues --    6.41955  24.68350  24.95968  25.00255  25.13141
  Beta virt. eigenvalues --   26.28672  51.54818  51.58319  51.70267
          Condensed to atoms (all electrons):
               1          2          3          4          5          6
     1  O    8.045269   0.296447  -0.001687  -0.000047   0.014732  -0.000578
     2  H    0.296447   0.452754  -0.000680  -0.000151   0.001169  -0.002609
     3  C   -0.001687  -0.000680   5.956791   0.464591  -0.841441   1.185674
     4  H   -0.000047  -0.000151   0.464591   0.399818  -0.106366   0.038205
     5  C    0.014732   0.001169  -0.841441  -0.106366   9.005381  -2.910123
     6  C   -0.000578  -0.002609   1.185674   0.038205  -2.910123   7.946818
     7  O   -0.000348  -0.000328  -0.096997  -0.003622   0.129407   0.385382
     8  O    0.018690   0.002763  -0.104005  -0.005412  -0.185303   0.044913
     9  C   -0.018791   0.016935   0.061757   0.000555  -0.313953   0.128174
    10  C   -0.013388   0.008867  -0.020989  -0.001310  -0.014936  -0.092954
    11  H   -0.018457  -0.041194   0.007088   0.000443  -0.029737   0.011091
    12  H    0.000985  -0.000035  -0.000805  -0.000117  -0.002404   0.003746
    13  H   -0.002226   0.001565  -0.000616  -0.000042  -0.001267  -0.006350
    14  H    0.006945  -0.001335  -0.000201   0.000028   0.006749   0.001351
    15  H   -0.004478   0.000042   0.005206   0.000059  -0.031887   0.012454
               7          8          9         10         11         12
     1  O   -0.000348   0.018690  -0.018791  -0.013388  -0.018457   0.000985
     2  H   -0.000328   0.002763   0.016935   0.008867  -0.041194  -0.000035
     3  C   -0.096997  -0.104005   0.061757  -0.020989   0.007088  -0.000805
     4  H   -0.003622  -0.005412   0.000555  -0.001310   0.000443  -0.000117
     5  C    0.129407  -0.185303  -0.313953  -0.014936  -0.029737  -0.002404
     6  C    0.385382   0.044913   0.128174  -0.092954   0.011091   0.003746
     7  O    8.008669  -0.115302   0.059711  -0.077200   0.007251  -0.016534
     8  O   -0.115302   8.379506   0.152433  -0.036054  -0.071765  -0.018145
     9  C    0.059711   0.152433   6.042358  -0.377529   0.318197   0.436073
    10  C   -0.077200  -0.036054  -0.377529   5.851737  -0.093345  -0.061088
    11  H    0.007251  -0.071765   0.318197  -0.093345   0.704096  -0.041117
    12  H   -0.016534  -0.018145   0.436073  -0.061088  -0.041117   0.496498
    13  H   -0.001931   0.018967  -0.056425   0.428785  -0.010688  -0.005128
    14  H    0.002115  -0.004480  -0.035278   0.406687  -0.014236  -0.000752
    15  H   -0.002253  -0.018083  -0.025623   0.396800   0.015600   0.001729
              13         14         15
     1  O   -0.002226   0.006945  -0.004478
     2  H    0.001565  -0.001335   0.000042
     3  C   -0.000616  -0.000201   0.005206
     4  H   -0.000042   0.000028   0.000059
     5  C   -0.001267   0.006749  -0.031887
     6  C   -0.006350   0.001351   0.012454
     7  O   -0.001931   0.002115  -0.002253
     8  O    0.018967  -0.004480  -0.018083
     9  C   -0.056425  -0.035278  -0.025623
    10  C    0.428785   0.406687   0.396800
    11  H   -0.010688  -0.014236   0.015600
    12  H   -0.005128  -0.000752   0.001729
    13  H    0.545459  -0.029083  -0.032283
    14  H   -0.029083   0.549488  -0.048434
    15  H   -0.032283  -0.048434   0.554476
          Atomic-Atomic Spin Densities.
               1          2          3          4          5          6
     1  O    0.807321   0.000996  -0.000511  -0.000013   0.005891   0.001711
     2  H    0.000996  -0.032048   0.000052  -0.000006  -0.001071  -0.000680
     3  C   -0.000511   0.000052   0.025385   0.002328  -0.052046   0.027029
     4  H   -0.000013  -0.000006   0.002328   0.000344  -0.005459   0.002729
     5  C    0.005891  -0.001071  -0.052046  -0.005459   0.137790  -0.070176
     6  C    0.001711  -0.000680   0.027029   0.002729  -0.070176   0.041688
     7  O    0.000079   0.000029  -0.000603   0.000019   0.003696  -0.003280
     8  O    0.032902  -0.003842  -0.003284  -0.000263   0.008961   0.007561
     9  C   -0.116456   0.007272   0.002814   0.000024  -0.031158  -0.008435
    10  C    0.024325  -0.000161  -0.000864   0.000025   0.010622  -0.002140
    11  H   -0.014042   0.003793   0.002580   0.000144  -0.011215   0.009988
    12  H    0.003242  -0.000191  -0.000321  -0.000032   0.001194   0.000557
    13  H    0.000069   0.000109   0.000096   0.000005  -0.000462   0.000549
    14  H    0.003363  -0.000384  -0.000229  -0.000020   0.001891   0.001041
    15  H   -0.001367   0.000219   0.000231   0.000020  -0.002049  -0.001474
               7          8          9         10         11         12
     1  O    0.000079   0.032902  -0.116456   0.024325  -0.014042   0.003242
     2  H    0.000029  -0.003842   0.007272  -0.000161   0.003793  -0.000191
     3  C   -0.000603  -0.003284   0.002814  -0.000864   0.002580  -0.000321
     4  H    0.000019  -0.000263   0.000024   0.000025   0.000144  -0.000032
     5  C    0.003696   0.008961  -0.031158   0.010622  -0.011215   0.001194
     6  C   -0.003280   0.007561  -0.008435  -0.002140   0.009988   0.000557
     7  O   -0.001008   0.002467   0.002523  -0.002064  -0.002135   0.000457
     8  O    0.002467   0.030224  -0.117613   0.019844  -0.020461   0.006064
     9  C    0.002523  -0.117613   0.762053  -0.051666   0.127151  -0.037539
    10  C   -0.002064   0.019844  -0.051666  -0.036247  -0.032191   0.011009
    11  H   -0.002135  -0.020461   0.127151  -0.032191  -0.253940   0.012335
    12  H    0.000457   0.006064  -0.037539   0.011009   0.012335  -0.019027
    13  H   -0.000008  -0.000144   0.000484   0.002424  -0.002498   0.000026
    14  H    0.000180   0.003656  -0.018310   0.008154   0.001874   0.000684
    15  H   -0.000381  -0.002140   0.008549  -0.000878  -0.002504  -0.001489
              13         14         15
     1  O    0.000069   0.003363  -0.001367
     2  H    0.000109  -0.000384   0.000219
     3  C    0.000096  -0.000229   0.000231
     4  H    0.000005  -0.000020   0.000020
     5  C   -0.000462   0.001891  -0.002049
     6  C    0.000549   0.001041  -0.001474
     7  O   -0.000008   0.000180  -0.000381
     8  O   -0.000144   0.003656  -0.002140
     9  C    0.000484  -0.018310   0.008549
    10  C    0.002424   0.008154  -0.000878
    11  H   -0.002498   0.001874  -0.002504
    12  H    0.000026   0.000684  -0.001489
    13  H    0.002359  -0.000019  -0.000795
    14  H   -0.000019   0.009685  -0.005041
    15  H   -0.000795  -0.005041   0.033574
 Mulliken charges and spin densities:
               1          2
     1  O   -0.323067   0.747509
     2  H    0.265790  -0.025913
     3  C   -0.613689   0.002657
     4  H    0.213367  -0.000155
     5  C    1.279977  -0.003591
     6  C   -0.745194   0.006669
     7  O   -0.278021  -0.000032
     8  O   -0.058725  -0.036068
     9  C   -0.388596   0.529691
    10  C   -0.304083  -0.049807
    11  H    0.256773  -0.181122
    12  H    0.207095  -0.023033
    13  H    0.151262   0.002194
    14  H    0.160436   0.006525
    15  H    0.176675   0.024475
 Sum of Mulliken charges =  -0.00000   1.00000
 Mulliken charges and spin densities with hydrogens summed into heavy atoms:
               1          2
     1  O   -0.057277   0.721596
     3  C   -0.400322   0.002502
     5  C    1.279977  -0.003591
     6  C   -0.745194   0.006669
     7  O   -0.278021  -0.000032
     8  O   -0.058725  -0.036068
     9  C    0.075272   0.325537
    10  C    0.184289  -0.016613
 Electronic spatial extent (au):  <R**2>=           1262.7097
 Charge=             -0.0000 electrons
 Dipole moment (field-independent basis, Debye):
    X=             -1.3920    Y=              1.4777    Z=              1.2723  Tot=              2.3958
 Quadrupole moment (field-independent basis, Debye-Ang):
   XX=            -45.3227   YY=            -48.0616   ZZ=            -48.3664
   XY=            -11.6311   XZ=             -2.1872   YZ=             -0.4133
 Traceless Quadrupole moment (field-independent basis, Debye-Ang):
   XX=              1.9276   YY=             -0.8114   ZZ=             -1.1162
   XY=            -11.6311   XZ=             -2.1872   YZ=             -0.4133
 Octapole moment (field-independent basis, Debye-Ang**2):
  XXX=            -53.4799  YYY=             19.2630  ZZZ=             -3.5292  XYY=              2.2668
  XXY=              9.9828  XXZ=             13.1104  XZZ=              5.3516  YZZ=              0.1983
  YYZ=              6.3915  XYZ=              1.3334
 Hexadecapole moment (field-independent basis, Debye-Ang**3):
 XXXX=          -1013.0307 YYYY=           -366.2421 ZZZZ=           -122.9856 XXXY=           -146.7699
 XXXZ=            -39.8559 YYYX=             10.4222 YYYZ=              1.9932 ZZZX=              2.7122
 ZZZY=              3.4468 XXYY=           -238.1196 XXZZ=           -216.7341 YYZZ=            -91.0176
 XXYZ=             24.3872 YYXZ=             -5.9563 ZZXY=              0.8892
 N-N= 3.485660852935D+02 E-N=-1.679573623723D+03  KE= 4.175989966439D+02
 1\1\GINC-AJ\SP\UCCSD(T)-FC\6-311++G(d,p)\C5H7O3(2)\AAYUSH\19-Aug-2025\
 0\\# ccsd(t)/6-311++g(d,p) sp\\Title Card Required\\0,2\O,0,2.697565,1
 .743886,-0.229319\H,0,1.887626,2.224335,0.001796\C,0,-3.134276,1.01996
 4,0.422422\H,0,-4.014841,1.565997,0.669213\C,0,-2.144617,0.404898,0.14
 4699\C,0,-0.976324,-0.384078,-0.209306\O,0,-1.019877,-1.486128,-0.6745
 97\O,0,0.155717,0.288168,0.056241\C,0,1.37393,-0.378901,-0.261857\C,0,
 1.832508,-1.300913,0.83416\H,0,2.173935,0.582245,-0.346363\H,0,1.31852
 6,-0.826096,-1.254629\H,0,2.813785,-1.708986,0.58996\H,0,1.899388,-0.7
 62976,1.780468\H,0,1.12561,-2.129453,0.938025\\Version=ES64L-G16RevA.0
 3\State=2-A\HF=-417.9612094\MP2=-419.2466092\MP3=-419.2677642\MP4D=-41
 9.2996238\MP4DQ=-419.2736868\PUHF=-417.970723\PMP2-0=-419.2531235\PMP3
 -0=-419.2715306\MP4SDQ=-419.2942417\CCSD=-419.2937894\CCSD(T)=-419.348
 6461\S2=0.792085\S2-1=0.765341\S2A=0.750551\RMSD=7.623e-09\PG=C01 [X(C
 5H7O3)]\\@


 SUCCESS-- IF YOU HAVE TRIED TO DO SOMETHING AND FAILED
           YOU ARE BETTER OFF THAN IF YOU HAD TRIED TO DO
           NOTHING AND SUCCEEDED.

                   -- FROM THE BACK OF A SUGAR PACKET
 Job cpu time:       0 days 16 hours 41 minutes 25.2 seconds.
 Elapsed time:       0 days  0 hours 42 minutes  3.7 seconds.
 File lengths (MBytes):  RWF=  44258 Int=      0 D2E=      0 Chk=      7 Scr=      1
 Normal termination of Gaussian 16 at Tue Aug 19 16:15:50 2025.
