 Entering Gaussian System, Link 0=g16
 Initial command:
 /opt/g16/l1.exe "/home/aayush/scratches/g16/Gau-15897.inp" -scrdir="/home/aayush/scratches/g16/"
 Entering Link 1 = /opt/g16/l1.exe PID=     15900.
  
 Copyright (c) 1988,1990,1992,1993,1995,1998,2003,2009,2016,
            Gaussian, Inc.  All Rights Reserved.
  
 This is part of the Gaussian(R) 16 program.  It is based on
 the Gaussian(R) 09 system (copyright 2009, Gaussian, Inc.),
 the Gaussian(R) 03 system (copyright 2003, Gaussian, Inc.),
 the Gaussian(R) 98 system (copyright 1998, Gaussian, Inc.),
 the Gaussian(R) 94 system (copyright 1995, Gaussian, Inc.),
 the Gaussian 92(TM) system (copyright 1992, Gaussian, Inc.),
 the Gaussian 90(TM) system (copyright 1990, Gaussian, Inc.),
 the Gaussian 88(TM) system (copyright 1988, Gaussian, Inc.),
 the Gaussian 86(TM) system (copyright 1986, Carnegie Mellon
 University), and the Gaussian 82(TM) system (copyright 1983,
 Carnegie Mellon University). Gaussian is a federally registered
 trademark of Gaussian, Inc.
  
 This software contains proprietary and confidential information,
 including trade secrets, belonging to Gaussian, Inc.
  
 This software is provided under written license and may be
 used, copied, transmitted, or stored only in accord with that
 written license.
  
 The following legend is applicable only to US Government
 contracts under FAR:
  
                    RESTRICTED RIGHTS LEGEND
  
 Use, reproduction and disclosure by the US Government is
 subject to restrictions as set forth in subparagraphs (a)
 and (c) of the Commercial Computer Software - Restricted
 Rights clause in FAR 52.227-19.
  
 Gaussian, Inc.
 340 Quinnipiac St., Bldg. 40, Wallingford CT 06492
  
  
 ---------------------------------------------------------------
 Warning -- This program may not be used in any manner that
 competes with the business of Gaussian, Inc. or will provide
 assistance to any competitor of Gaussian, Inc.  The licensee
 of this program is prohibited from giving any competitor of
 Gaussian, Inc. access to this program.  By using this program,
 the user acknowledges that Gaussian, Inc. is engaged in the
 business of creating and licensing software in the field of
 computational chemistry and represents and warrants to the
 licensee that it is not a competitor of Gaussian, Inc. and that
 it will not use this program in any manner prohibited above.
 ---------------------------------------------------------------
  

 Cite this work as:
 Gaussian 16, Revision A.03,
 M. J. Frisch, G. W. Trucks, H. B. Schlegel, G. E. Scuseria, 
 M. A. Robb, J. R. Cheeseman, G. Scalmani, V. Barone, 
 G. A. Petersson, H. Nakatsuji, X. Li, M. Caricato, A. V. Marenich, 
 J. Bloino, B. G. Janesko, R. Gomperts, B. Mennucci, H. P. Hratchian, 
 J. V. Ortiz, A. F. Izmaylov, J. L. Sonnenberg, D. Williams-Young, 
 F. Ding, F. Lipparini, F. Egidi, J. Goings, B. Peng, A. Petrone, 
 T. Henderson, D. Ranasinghe, V. G. Zakrzewski, J. Gao, N. Rega, 
 G. Zheng, W. Liang, M. Hada, M. Ehara, K. Toyota, R. Fukuda, 
 J. Hasegawa, M. Ishida, T. Nakajima, Y. Honda, O. Kitao, H. Nakai, 
 T. Vreven, K. Throssell, J. A. Montgomery, Jr., J. E. Peralta, 
 F. Ogliaro, M. J. Bearpark, J. J. Heyd, E. N. Brothers, K. N. Kudin, 
 V. N. Staroverov, T. A. Keith, R. Kobayashi, J. Normand, 
 K. Raghavachari, A. P. Rendell, J. C. Burant, S. S. Iyengar, 
 J. Tomasi, M. Cossi, J. M. Millam, M. Klene, C. Adamo, R. Cammi, 
 J. W. Ochterski, R. L. Martin, K. Morokuma, O. Farkas, 
 J. B. Foresman, and D. J. Fox, Gaussian, Inc., Wallingford CT, 2016.
 
 ******************************************
 Gaussian 16:  ES64L-G16RevA.03 25-Dec-2016
                20-Jun-2025 
 ******************************************
 %nprocshared=24
 Will use up to   24 processors via shared memory.
 %mem=12GB
 %chk=ethyl_propiolate_ts1.chk
 -------------------
 # freq 6-31+g m062x
 -------------------
 1/10=4,30=1,38=1/1,3;
 2/12=2,17=6,18=5,40=1/2;
 3/5=1,6=6,7=10,11=2,25=1,30=1,71=2,74=-55,140=1/1,2,3;
 4//1;
 5/5=2,38=5,98=1/2;
 8/6=4,10=90,11=11/1;
 11/6=1,8=1,9=11,15=111,16=1/1,2,10;
 10/6=1/2;
 6/7=2,8=2,9=2,10=2,28=1/1;
 7/8=1,10=1,25=1/1,2,3,16;
 1/10=4,30=1/3;
 99//99;
 -------------------
 Title Card Required
 -------------------
 Symbolic Z-matrix:
 Charge =  0 Multiplicity = 2
 O                     2.70932   1.7714   -0.22628 
 H                     1.87824   2.22094   0.00475 
 C                    -3.13461   1.02014   0.42247 
 H                    -4.01527   1.56582   0.66909 
 C                    -2.14502   0.40485   0.14492 
 C                    -0.97469  -0.38365  -0.20803 
 O                    -1.02082  -1.48595  -0.67433 
 O                     0.15376   0.2891    0.05556 
 C                     1.37399  -0.39147  -0.26847 
 C                     1.82798  -1.30818   0.837 
 H                     2.12605   0.42695  -0.39911 
 H                     1.27257  -0.88512  -1.2353 
 H                     2.8116   -1.71194   0.59202 
 H                     1.90158  -0.76079   1.7777 
 H                     1.12965  -2.13918   0.95395 
 

 GradGradGradGradGradGradGradGradGradGradGradGradGradGradGradGradGradGrad
 Berny optimization.
 Initialization pass.
 Trust Radius=3.00D-01 FncErr=1.00D-07 GrdErr=1.00D-07 EigMax=2.50D+02 EigMin=1.00D-04
 Number of steps in this run=      2 maximum allowed number of steps=      2.
 GradGradGradGradGradGradGradGradGradGradGradGradGradGradGradGradGradGrad

                          Input orientation:                          
 ---------------------------------------------------------------------
 Center     Atomic      Atomic             Coordinates (Angstroms)
 Number     Number       Type             X           Y           Z
 ---------------------------------------------------------------------
      1          8           0        2.709318    1.771403   -0.226275
      2          1           0        1.878244    2.220938    0.004745
      3          6           0       -3.134605    1.020139    0.422469
      4          1           0       -4.015273    1.565823    0.669086
      5          6           0       -2.145019    0.404845    0.144922
      6          6           0       -0.974694   -0.383652   -0.208025
      7          8           0       -1.020818   -1.485951   -0.674329
      8          8           0        0.153760    0.289103    0.055556
      9          6           0        1.373990   -0.391467   -0.268473
     10          6           0        1.827982   -1.308179    0.836997
     11          1           0        2.126054    0.426950   -0.399109
     12          1           0        1.272567   -0.885118   -1.235301
     13          1           0        2.811595   -1.711941    0.592023
     14          1           0        1.901581   -0.760787    1.777696
     15          1           0        1.129649   -2.139184    0.953952
 ---------------------------------------------------------------------
                    Distance matrix (angstroms):
                    1          2          3          4          5
     1  O    0.000000
     2  H    0.972695   0.000000
     3  C    5.927622   5.171563   0.000000
     4  H    6.787051   5.966914   1.064973   0.000000
     5  C    5.056664   4.416389   1.197873   2.262845   0.000000
     6  C    4.268084   3.868904   2.652050   3.716840   1.454634
     7  O    4.972426   4.754653   3.457101   4.481612   2.347362
     8  O    2.967746   2.590060   3.388567   4.403098   2.303425
     9  C    2.542221   2.674618   4.774669   5.809833   3.631588
    10  C    3.375074   3.626270   5.497287   6.513963   4.381570
    11  H    1.475677   1.855506   5.357368   6.336716   4.305639
    12  H    3.184257   3.398844   5.079505   6.131481   3.904986
    13  H    3.579631   4.084553   6.546014   7.573361   5.408207
    14  H    3.328712   3.469090   5.511035   6.453781   4.516594
    15  H    4.379610   4.524605   5.333635   6.346530   4.224934
                    6          7          8          9         10
     6  C    0.000000
     7  O    1.197760   0.000000
     8  O    1.339956   2.250152   0.000000
     9  C    2.349475   2.664155   1.434270   0.000000
    10  C    3.130785   3.229763   2.442331   1.506165   0.000000
    11  H    3.210643   3.692931   2.028710   1.119139   2.151157
    12  H    2.521299   2.436248   2.072881   1.090291   2.186752
    13  H    4.091505   4.042537   3.369875   2.133263   1.091114
    14  H    3.515434   3.883131   2.668879   2.145124   1.090857
    15  H    2.976633   2.775342   2.766957   2.146751   1.091749
                   11         12         13         14         15
    11  H    0.000000
    12  H    1.774593   0.000000
    13  H    2.455028   2.528113   0.000000
    14  H    2.489897   3.080466   1.771621   0.000000
    15  H    3.067351   2.527041   1.772702   1.781688   0.000000
 Stoichiometry    C5H7O3(2)
 Framework group  C1[X(C5H7O3)]
 Deg. of freedom    39
 Full point group                 C1      NOp   1
 Largest Abelian subgroup         C1      NOp   1
 Largest concise Abelian subgroup C1      NOp   1
                         Standard orientation:                         
 ---------------------------------------------------------------------
 Center     Atomic      Atomic             Coordinates (Angstroms)
 Number     Number       Type             X           Y           Z
 ---------------------------------------------------------------------
      1          8           0        2.653641    1.778614   -0.245456
      2          1           0        1.823115    2.229160   -0.014436
      3          6           0       -3.191192    1.034461    0.403288
      4          1           0       -4.071195    1.581217    0.649905
      5          6           0       -2.202355    0.417964    0.125741
      6          6           0       -1.032990   -0.371957   -0.227206
      7          8           0       -1.080456   -1.474199   -0.693510
      8          8           0        0.096281    0.299425    0.036375
      9          6           0        1.315682   -0.382629   -0.287654
     10          6           0        1.768559   -1.299893    0.817816
     11          1           0        2.068742    0.434872   -0.418290
     12          1           0        1.213659   -0.876157   -1.254482
     13          1           0        2.751680   -1.704852    0.572842
     14          1           0        1.842824   -0.752591    1.758515
     15          1           0        1.069215   -2.130048    0.934771
 ---------------------------------------------------------------------
 Rotational constants (GHZ):           2.9995241           1.1282103           0.8981699
 Standard basis: 6-31+G (6D, 7F)
 There are   118 symmetry adapted cartesian basis functions of A   symmetry.
 There are   118 symmetry adapted basis functions of A   symmetry.
   118 basis functions,   236 primitive gaussians,   118 cartesian basis functions
    31 alpha electrons       30 beta electrons
       nuclear repulsion energy       348.0815803474 Hartrees.
 NAtoms=   15 NActive=   15 NUniq=   15 SFac= 1.00D+00 NAtFMM=   60 NAOKFM=F Big=F
 Integral buffers will be    131072 words long.
 Raffenetti 2 integral format.
 Two-electron integral symmetry is turned on.
 One-electron integrals computed using PRISM.
 NBasis=   118 RedAO= T EigKep=  1.61D-06  NBF=   118
 NBsUse=   118 1.00D-06 EigRej= -1.00D+00 NBFU=   118
 ExpMin= 4.38D-02 ExpMax= 5.48D+03 ExpMxC= 8.25D+02 IAcc=3 IRadAn=         5 AccDes= 0.00D+00
 Harris functional with IExCor= 1009 and IRadAn=       5 diagonalized for initial guess.
 HarFok:  IExCor= 1009 AccDes= 0.00D+00 IRadAn=         5 IDoV= 1 UseB2=F ITyADJ=14
 ICtDFT=  3500011 ScaDFX=  1.000000  1.000000  1.000000  1.000000
 FoFCou: FMM=F IPFlag=           0 FMFlag=      100000 FMFlg1=           0
         NFxFlg=           0 DoJE=T BraDBF=F KetDBF=T FulRan=T
         wScrn=  0.000000 ICntrl=       500 IOpCl=  0 I1Cent=   200000004 NGrid=           0
         NMat0=    1 NMatS0=      1 NMatT0=    0 NMatD0=    1 NMtDS0=    0 NMtDT0=    0
 Petite list used in FoFCou.
 Initial guess <Sx>= 0.0000 <Sy>= 0.0000 <Sz>= 0.5000 <S**2>= 0.7500 S= 0.5000
 Requested convergence on RMS density matrix=1.00D-08 within 128 cycles.
 Requested convergence on MAX density matrix=1.00D-06.
 Requested convergence on             energy=1.00D-06.
 No special actions if energy rises.
 Restarting incremental Fock formation.
 SCF Done:  E(UM062X) =  -419.953435272     A.U. after   22 cycles
            NFock= 22  Conv=0.51D-08     -V/T= 2.0049
 <Sx>= 0.0000 <Sy>= 0.0000 <Sz>= 0.5000 <S**2>= 0.7564 S= 0.5032
 <L.S>=  0.00000000000    
 Annihilation of the first spin contaminant:
 S**2 before annihilation     0.7564,   after     0.7500
 DoSCS=F DFT=T ScalE2(SS,OS)=  1.000000  1.000000
 Range of M.O.s used for correlation:     1   118
 NBasis=   118 NAE=    31 NBE=    30 NFC=     0 NFV=     0
 NROrb=    118 NOA=    31 NOB=    30 NVA=    87 NVB=    88

 **** Warning!!: The largest alpha MO coefficient is  0.21824664D+03


 **** Warning!!: The largest beta MO coefficient is  0.20897418D+03

 Symmetrizing basis deriv contribution to polar:
 IMax=3 JMax=2 DiffMx= 0.00D+00
 G2DrvN: will do    16 centers at a time, making    1 passes.
 Calling FoFCou, ICntrl=  3107 FMM=F I1Cent=   0 AccDes= 0.00D+00.
 End of G2Drv F.D. properties file   721 does not exist.
 End of G2Drv F.D. properties file   722 does not exist.
 End of G2Drv F.D. properties file   788 does not exist.
          IDoAtm=111111111111111
          Differentiating once with respect to electric field.
                with respect to dipole field.
          Differentiating once with respect to nuclear coordinates.
 Keep R1 and R2 ints in memory in canonical form, NReq=71861349.
          There are    48 degrees of freedom in the 1st order CPHF.  IDoFFX=6 NUNeed=     3.
     45 vectors produced by pass  0 Test12= 1.11D-14 2.08D-09 XBig12= 8.59D+01 3.25D+00.
 AX will form    45 AO Fock derivatives at one time.
     45 vectors produced by pass  1 Test12= 1.11D-14 2.08D-09 XBig12= 1.74D+01 6.92D-01.
     45 vectors produced by pass  2 Test12= 1.11D-14 2.08D-09 XBig12= 4.74D-01 1.07D-01.
     45 vectors produced by pass  3 Test12= 1.11D-14 2.08D-09 XBig12= 2.62D-03 6.82D-03.
     45 vectors produced by pass  4 Test12= 1.11D-14 2.08D-09 XBig12= 1.38D-05 6.40D-04.
     45 vectors produced by pass  5 Test12= 1.11D-14 2.08D-09 XBig12= 1.04D-07 4.06D-05.
     38 vectors produced by pass  6 Test12= 1.11D-14 2.08D-09 XBig12= 5.48D-10 2.59D-06.
      9 vectors produced by pass  7 Test12= 1.11D-14 2.08D-09 XBig12= 2.36D-12 1.56D-07.
      3 vectors produced by pass  8 Test12= 1.11D-14 2.08D-09 XBig12= 1.64D-14 1.28D-08.
      3 vectors produced by pass  9 Test12= 1.11D-14 2.08D-09 XBig12= 1.49D-15 5.91D-09.
 InvSVY:  IOpt=1 It=  1 EMax= 7.11D-15
 Solved reduced A of dimension   323 with    48 vectors.
 Isotropic polarizability for W=    0.000000       70.63 Bohr**3.
 End of Minotr F.D. properties file   721 does not exist.
 End of Minotr F.D. properties file   722 does not exist.
 End of Minotr F.D. properties file   788 does not exist.

 **********************************************************************

            Population analysis using the SCF density.

 **********************************************************************

 Orbital symmetries:
 Alpha Orbitals:
       Occupied  (A) (A) (A) (A) (A) (A) (A) (A) (A) (A) (A) (A)
                 (A) (A) (A) (A) (A) (A) (A) (A) (A) (A) (A) (A)
                 (A) (A) (A) (A) (A) (A) (A)
       Virtual   (A) (A) (A) (A) (A) (A) (A) (A) (A) (A) (A) (A)
                 (A) (A) (A) (A) (A) (A) (A) (A) (A) (A) (A) (A)
                 (A) (A) (A) (A) (A) (A) (A) (A) (A) (A) (A) (A)
                 (A) (A) (A) (A) (A) (A) (A) (A) (A) (A) (A) (A)
                 (A) (A) (A) (A) (A) (A) (A) (A) (A) (A) (A) (A)
                 (A) (A) (A) (A) (A) (A) (A) (A) (A) (A) (A) (A)
                 (A) (A) (A) (A) (A) (A) (A) (A) (A) (A) (A) (A)
                 (A) (A) (A)
 Beta  Orbitals:
       Occupied  (A) (A) (A) (A) (A) (A) (A) (A) (A) (A) (A) (A)
                 (A) (A) (A) (A) (A) (A) (A) (A) (A) (A) (A) (A)
                 (A) (A) (A) (A) (A) (A)
       Virtual   (A) (A) (A) (A) (A) (A) (A) (A) (A) (A) (A) (A)
                 (A) (A) (A) (A) (A) (A) (A) (A) (A) (A) (A) (A)
                 (A) (A) (A) (A) (A) (A) (A) (A) (A) (A) (A) (A)
                 (A) (A) (A) (A) (A) (A) (A) (A) (A) (A) (A) (A)
                 (A) (A) (A) (A) (A) (A) (A) (A) (A) (A) (A) (A)
                 (A) (A) (A) (A) (A) (A) (A) (A) (A) (A) (A) (A)
                 (A) (A) (A) (A) (A) (A) (A) (A) (A) (A) (A) (A)
                 (A) (A) (A) (A)
 The electronic state is 2-A.
 Alpha  occ. eigenvalues --  -19.71991 -19.70533 -19.67405 -10.74004 -10.62602
 Alpha  occ. eigenvalues --  -10.59381 -10.59059 -10.55171  -1.29178  -1.19882
 Alpha  occ. eigenvalues --   -1.15437  -0.92069  -0.88546  -0.79490  -0.72238
 Alpha  occ. eigenvalues --   -0.66052  -0.62344  -0.60264  -0.58565  -0.57314
 Alpha  occ. eigenvalues --   -0.54706  -0.50563  -0.50045  -0.47479  -0.45427
 Alpha  occ. eigenvalues --   -0.43139  -0.40924  -0.40202  -0.38241  -0.37788
 Alpha  occ. eigenvalues --   -0.37368
 Alpha virt. eigenvalues --   -0.02544   0.01793   0.02306   0.03385   0.03617
 Alpha virt. eigenvalues --    0.04236   0.04895   0.06334   0.07763   0.07974
 Alpha virt. eigenvalues --    0.08329   0.08748   0.09809   0.11168   0.12334
 Alpha virt. eigenvalues --    0.12884   0.14353   0.15616   0.16246   0.16946
 Alpha virt. eigenvalues --    0.18068   0.18852   0.19447   0.19923   0.21120
 Alpha virt. eigenvalues --    0.21598   0.22204   0.24275   0.25140   0.26710
 Alpha virt. eigenvalues --    0.27358   0.27752   0.29735   0.30726   0.31299
 Alpha virt. eigenvalues --    0.32156   0.33454   0.33538   0.35139   0.36409
 Alpha virt. eigenvalues --    0.37740   0.38470   0.40071   0.41934   0.43556
 Alpha virt. eigenvalues --    0.46092   0.57756   0.60633   0.68836   0.69759
 Alpha virt. eigenvalues --    0.71959   0.73144   0.74452   0.75554   0.76424
 Alpha virt. eigenvalues --    0.78025   0.80941   0.84736   0.86211   0.91208
 Alpha virt. eigenvalues --    0.94839   0.97206   1.02442   1.07657   1.10175
 Alpha virt. eigenvalues --    1.11414   1.13073   1.15675   1.19352   1.20858
 Alpha virt. eigenvalues --    1.22669   1.24362   1.27208   1.28908   1.30773
 Alpha virt. eigenvalues --    1.31914   1.36645   1.38131   1.43088   1.46516
 Alpha virt. eigenvalues --    1.50142   1.61656   1.70581   1.78183   1.80479
 Alpha virt. eigenvalues --    1.99263   2.03491
  Beta  occ. eigenvalues --  -19.71997 -19.69005 -19.67402 -10.73996 -10.62326
  Beta  occ. eigenvalues --  -10.59381 -10.59059 -10.55177  -1.29138  -1.19815
  Beta  occ. eigenvalues --   -1.09116  -0.91760  -0.88226  -0.79364  -0.71587
  Beta  occ. eigenvalues --   -0.65792  -0.62139  -0.59473  -0.57855  -0.55566
  Beta  occ. eigenvalues --   -0.52006  -0.50344  -0.47774  -0.46198  -0.42642
  Beta  occ. eigenvalues --   -0.40338  -0.39796  -0.39310  -0.38228  -0.37403
  Beta virt. eigenvalues --   -0.11059  -0.02522   0.01858   0.02419   0.03471
  Beta virt. eigenvalues --    0.03675   0.04383   0.04967   0.06374   0.07837
  Beta virt. eigenvalues --    0.08083   0.08400   0.08811   0.10078   0.11205
  Beta virt. eigenvalues --    0.12469   0.12967   0.14447   0.15698   0.16276
  Beta virt. eigenvalues --    0.16953   0.18103   0.18792   0.19342   0.19982
  Beta virt. eigenvalues --    0.21608   0.21921   0.22518   0.24308   0.25379
  Beta virt. eigenvalues --    0.26807   0.27477   0.27858   0.29829   0.30928
  Beta virt. eigenvalues --    0.31761   0.32386   0.33533   0.33727   0.35182
  Beta virt. eigenvalues --    0.36625   0.37800   0.38684   0.40455   0.42321
  Beta virt. eigenvalues --    0.44238   0.46217   0.57770   0.60729   0.68930
  Beta virt. eigenvalues --    0.69884   0.72032   0.73209   0.74761   0.75658
  Beta virt. eigenvalues --    0.76474   0.78449   0.81406   0.84858   0.86304
  Beta virt. eigenvalues --    0.91417   0.94930   0.97546   1.02545   1.07986
  Beta virt. eigenvalues --    1.10284   1.12612   1.13377   1.16269   1.19732
  Beta virt. eigenvalues --    1.21647   1.22683   1.24732   1.28837   1.29636
  Beta virt. eigenvalues --    1.31454   1.34458   1.37156   1.38285   1.43167
  Beta virt. eigenvalues --    1.46540   1.50235   1.61658   1.71035   1.79694
  Beta virt. eigenvalues --    1.82296   1.99271   2.03505
          Condensed to atoms (all electrons):
               1          2          3          4          5          6
     1  O    8.273400   0.168917   0.007519   0.000001   0.017803  -0.017107
     2  H    0.168917   0.414872   0.004690  -0.000000   0.006200  -0.014833
     3  C    0.007519   0.004690  23.574759   0.744256  -4.306643 -12.955573
     4  H    0.000001  -0.000000   0.744256   0.333080  -0.317622  -0.106618
     5  C    0.017803   0.006200  -4.306643  -0.317622  16.711103  -4.260367
     6  C   -0.017107  -0.014833 -12.955573  -0.106618  -4.260367  21.617755
     7  O   -0.000214   0.000197  -0.034658  -0.000328   0.220556  -0.033589
     8  O    0.031038   0.004388  -0.908947  -0.000958  -1.468369   1.607590
     9  C   -0.062700   0.028088  -0.264186  -0.000456  -0.432429   0.451565
    10  C   -0.001772  -0.008715  -0.116540  -0.000178  -0.347457   0.204532
    11  H   -0.005283  -0.015379   0.009268   0.000000   0.024382  -0.010046
    12  H    0.003277  -0.000148   0.000557  -0.000000   0.004798  -0.006386
    13  H    0.000749  -0.000003   0.000009   0.000000   0.000409   0.004698
    14  H    0.001532  -0.000059   0.002813  -0.000000   0.007554  -0.004809
    15  H   -0.000522   0.000008   0.003043   0.000000   0.004207  -0.006987
               7          8          9         10         11         12
     1  O   -0.000214   0.031038  -0.062700  -0.001772  -0.005283   0.003277
     2  H    0.000197   0.004388   0.028088  -0.008715  -0.015379  -0.000148
     3  C   -0.034658  -0.908947  -0.264186  -0.116540   0.009268   0.000557
     4  H   -0.000328  -0.000958  -0.000456  -0.000178   0.000000  -0.000000
     5  C    0.220556  -1.468369  -0.432429  -0.347457   0.024382   0.004798
     6  C   -0.033589   1.607590   0.451565   0.204532  -0.010046  -0.006386
     7  O    8.471083  -0.243539   0.004353  -0.054939   0.000033   0.000237
     8  O   -0.243539   9.248454  -0.006100   0.105382  -0.057639  -0.041580
     9  C    0.004353  -0.006100   6.527485  -0.479046   0.301198   0.440314
    10  C   -0.054939   0.105382  -0.479046   6.098752  -0.017774  -0.085689
    11  H    0.000033  -0.057639   0.301198  -0.017774   0.563397  -0.033441
    12  H    0.000237  -0.041580   0.440314  -0.085689  -0.033441   0.473786
    13  H   -0.000135   0.006945  -0.079983   0.410898  -0.002381  -0.000639
    14  H   -0.000472  -0.001411  -0.050552   0.390465  -0.005976   0.003455
    15  H    0.002057  -0.006693  -0.064486   0.410592   0.004591  -0.004095
              13         14         15
     1  O    0.000749   0.001532  -0.000522
     2  H   -0.000003  -0.000059   0.000008
     3  C    0.000009   0.002813   0.003043
     4  H    0.000000  -0.000000   0.000000
     5  C    0.000409   0.007554   0.004207
     6  C    0.004698  -0.004809  -0.006987
     7  O   -0.000135  -0.000472   0.002057
     8  O    0.006945  -0.001411  -0.006693
     9  C   -0.079983  -0.050552  -0.064486
    10  C    0.410898   0.390465   0.410592
    11  H   -0.002381  -0.005976   0.004591
    12  H   -0.000639   0.003455  -0.004095
    13  H    0.485494  -0.023369  -0.023059
    14  H   -0.023369   0.481104  -0.026932
    15  H   -0.023059  -0.026932   0.474763
          Atomic-Atomic Spin Densities.
               1          2          3          4          5          6
     1  O    0.944086   0.002711   0.001633   0.000000   0.003314  -0.006008
     2  H    0.002711  -0.032920  -0.001508   0.000000  -0.002876   0.004116
     3  C    0.001633  -0.001508   0.021630  -0.001404   0.000939  -0.026966
     4  H    0.000000   0.000000  -0.001404  -0.000126   0.000897   0.000638
     5  C    0.003314  -0.002876   0.000939   0.000897   0.052520  -0.062275
     6  C   -0.006008   0.004116  -0.026966   0.000638  -0.062275   0.103665
     7  O    0.000516  -0.000034   0.007660   0.000004   0.001478  -0.008746
     8  O    0.036320  -0.002485   0.007910  -0.000014   0.013206  -0.020482
     9  C   -0.130825   0.004545  -0.004686  -0.000018  -0.002149   0.023036
    10  C    0.042145  -0.001865   0.002146   0.000009  -0.001729  -0.011947
    11  H   -0.040235   0.001054  -0.002843   0.000000  -0.006061   0.005628
    12  H    0.002925  -0.000059   0.001975   0.000000   0.006295  -0.008966
    13  H    0.000250   0.000000  -0.000020  -0.000000  -0.000109   0.000227
    14  H    0.000906  -0.000021   0.000486  -0.000000   0.001186  -0.002086
    15  H   -0.000427   0.000004  -0.001276   0.000000  -0.003616   0.005030
               7          8          9         10         11         12
     1  O    0.000516   0.036320  -0.130825   0.042145  -0.040235   0.002925
     2  H   -0.000034  -0.002485   0.004545  -0.001865   0.001054  -0.000059
     3  C    0.007660   0.007910  -0.004686   0.002146  -0.002843   0.001975
     4  H    0.000004  -0.000014  -0.000018   0.000009   0.000000   0.000000
     5  C    0.001478   0.013206  -0.002149  -0.001729  -0.006061   0.006295
     6  C   -0.008746  -0.020482   0.023036  -0.011947   0.005628  -0.008966
     7  O    0.000899   0.000814  -0.002341   0.002318  -0.000878   0.001453
     8  O    0.000814   0.036617  -0.101457   0.034091  -0.017213   0.006104
     9  C   -0.002341  -0.101457   0.446649  -0.086331   0.115279  -0.028559
    10  C    0.002318   0.034091  -0.086331   0.031471  -0.038932   0.015085
    11  H   -0.000878  -0.017213   0.115279  -0.038932  -0.073876   0.000271
    12  H    0.001453   0.006104  -0.028559   0.015085   0.000271   0.001720
    13  H    0.000026   0.000268  -0.003784   0.003521   0.000012   0.000080
    14  H    0.000146   0.001336  -0.008706   0.007321  -0.000102   0.000085
    15  H   -0.001077  -0.001238   0.013341  -0.010434  -0.000153  -0.000685
              13         14         15
     1  O    0.000250   0.000906  -0.000427
     2  H    0.000000  -0.000021   0.000004
     3  C   -0.000020   0.000486  -0.001276
     4  H   -0.000000  -0.000000   0.000000
     5  C   -0.000109   0.001186  -0.003616
     6  C    0.000227  -0.002086   0.005030
     7  O    0.000026   0.000146  -0.001077
     8  O    0.000268   0.001336  -0.001238
     9  C   -0.003784  -0.008706   0.013341
    10  C    0.003521   0.007321  -0.010434
    11  H    0.000012  -0.000102  -0.000153
    12  H    0.000080   0.000085  -0.000685
    13  H    0.000419   0.000098  -0.000387
    14  H    0.000098   0.002462  -0.001266
    15  H   -0.000387  -0.001266   0.013671
 Mulliken charges and spin densities:
               1          2
     1  O   -0.416639   0.857310
     2  H    0.411777  -0.029339
     3  C    0.239631   0.005675
     4  H    0.348823  -0.000014
     5  C    0.135876   0.001020
     6  C   -0.469824  -0.005135
     7  O   -0.330644   0.002238
     8  O   -0.268562  -0.006224
     9  C   -0.313065   0.233995
    10  C   -0.508512  -0.013131
    11  H    0.245049  -0.058050
    12  H    0.245553  -0.002277
    13  H    0.220367   0.000600
    14  H    0.226657   0.001844
    15  H    0.233513   0.011488
 Sum of Mulliken charges =  -0.00000   1.00000
 Mulliken charges and spin densities with hydrogens summed into heavy atoms:
               1          2
     1  O   -0.004863   0.827971
     3  C    0.588455   0.005660
     5  C    0.135876   0.001020
     6  C   -0.469824  -0.005135
     7  O   -0.330644   0.002238
     8  O   -0.268562  -0.006224
     9  C    0.177538   0.173667
    10  C    0.172024   0.000802
 APT charges:
               1
     1  O   -0.154822
     2  H    0.322649
     3  C   -0.221404
     4  H    0.262118
     5  C   -0.295664
     6  C    1.497702
     7  O   -0.755720
     8  O   -1.005248
     9  C    0.750320
    10  C   -0.145481
    11  H   -0.320854
    12  H   -0.035421
    13  H    0.031255
    14  H    0.032493
    15  H    0.038076
 Sum of APT charges =   0.00000
 APT charges with hydrogens summed into heavy atoms:
               1
     1  O    0.167827
     3  C    0.040714
     5  C   -0.295664
     6  C    1.497702
     7  O   -0.755720
     8  O   -1.005248
     9  C    0.394045
    10  C   -0.043656
 Electronic spatial extent (au):  <R**2>=           1267.4839
 Charge=             -0.0000 electrons
 Dipole moment (field-independent basis, Debye):
    X=             -1.3614    Y=              1.3953    Z=              1.1944  Tot=              2.2862
 Quadrupole moment (field-independent basis, Debye-Ang):
   XX=            -46.4956   YY=            -47.9217   ZZ=            -48.7351
   XY=            -11.0474   XZ=             -1.8494   YZ=             -0.5691
 Traceless Quadrupole moment (field-independent basis, Debye-Ang):
   XX=              1.2219   YY=             -0.2043   ZZ=             -1.0176
   XY=            -11.0474   XZ=             -1.8494   YZ=             -0.5691
 Octapole moment (field-independent basis, Debye-Ang**2):
  XXX=            -54.6997  YYY=             20.6951  ZZZ=             -3.0455  XYY=              3.4308
  XXY=              7.7696  XXZ=             12.7893  XZZ=              4.3617  YZZ=             -0.0042
  YYZ=              6.7904  XYZ=              1.6298
 Hexadecapole moment (field-independent basis, Debye-Ang**3):
 XXXX=          -1043.5794 YYYY=           -372.5261 ZZZZ=           -125.7261 XXXY=           -142.5458
 XXXZ=            -34.8724 YYYX=             11.8977 YYYZ=              1.1705 ZZZX=              3.0787
 ZZZY=              3.4566 XXYY=           -240.7361 XXZZ=           -218.4648 YYZZ=            -93.1509
 XXYZ=             23.2796 YYXZ=             -5.2049 ZZXY=             -0.2023
 N-N= 3.480815803474D+02 E-N=-1.678482933947D+03  KE= 4.179176182591D+02
  Exact polarizability:  88.305  -2.788  76.270  -4.411   4.964  47.304
 Approx polarizability:  88.220  -8.956  84.560  -6.873  12.316  51.455
                          Isotropic Fermi Contact Couplings
        Atom                 a.u.       MegaHertz       Gauss      10(-4) cm-1
     1  O(17)              0.11907     -72.17797     -25.75489     -24.07598
     2  H(1)              -0.01480     -66.14113     -23.60080     -22.06230
     3  C(13)              0.00007       0.07313       0.02610       0.02440
     4  H(1)              -0.00000      -0.01940      -0.00692      -0.00647
     5  C(13)             -0.00024      -0.27440      -0.09791      -0.09153
     6  C(13)              0.00471       5.28990       1.88757       1.76452
     7  O(17)              0.00100      -0.60405      -0.21554      -0.20149
     8  O(17)              0.00318      -1.92923      -0.68840      -0.64352
     9  C(13)              0.09502     106.82123      38.11647      35.63173
    10  C(13)             -0.00333      -3.74388      -1.33591      -1.24882
    11  H(1)              -0.00952     -42.55285     -15.18391     -14.19410
    12  H(1)               0.00039       1.75583       0.62652       0.58568
    13  H(1)               0.00048       2.13237       0.76088       0.71128
    14  H(1)               0.00099       4.41170       1.57420       1.47158
    15  H(1)               0.00581      25.95396       9.26102       8.65731
 --------------------------------------------------------
       Center         ----  Spin Dipole Couplings  ----
                      3XX-RR        3YY-RR        3ZZ-RR
 --------------------------------------------------------
     1   Atom       -0.427957      1.941061     -1.513105
     2   Atom        0.098707     -0.003160     -0.095546
     3   Atom        0.001358     -0.000838     -0.000520
     4   Atom        0.000955     -0.000465     -0.000490
     5   Atom        0.002520     -0.000976     -0.001544
     6   Atom        0.008990     -0.003702     -0.005288
     7   Atom        0.001785     -0.003478      0.001693
     8   Atom        0.000506      0.003404     -0.003910
     9   Atom        0.012729      0.125105     -0.137834
    10   Atom       -0.008178      0.009985     -0.001807
    11   Atom       -0.014878      0.095626     -0.080749
    12   Atom       -0.012679     -0.000356      0.013035
    13   Atom       -0.001895      0.005556     -0.003661
    14   Atom       -0.004666      0.000109      0.004557
    15   Atom       -0.002360      0.003529     -0.001169
 --------------------------------------------------------
                        XY            XZ            YZ
 --------------------------------------------------------
     1   Atom        1.970824      0.154359      0.268831
     2   Atom       -0.078912     -0.051982      0.033449
     3   Atom        0.000040     -0.000099      0.000378
     4   Atom       -0.000119     -0.000207      0.000035
     5   Atom        0.000171     -0.000428     -0.000108
     6   Atom        0.004215      0.002337      0.001247
     7   Atom        0.003759     -0.004216     -0.000706
     8   Atom        0.024047     -0.001375     -0.011624
     9   Atom        0.204402     -0.013737     -0.018589
    10   Atom        0.003819     -0.001435     -0.011775
    11   Atom        0.104011     -0.001019      0.007768
    12   Atom        0.009259      0.001629      0.014171
    13   Atom       -0.003167      0.001984     -0.003648
    14   Atom        0.001757     -0.000103     -0.005803
    15   Atom        0.002247     -0.000362     -0.003569
 --------------------------------------------------------


 ---------------------------------------------------------------------------------
              Anisotropic Spin Dipole Couplings in Principal Axis System
 ---------------------------------------------------------------------------------

       Atom             a.u.   MegaHertz   Gauss  10(-4) cm-1        Axes

              Baa    -1.5433   111.670    39.847    37.249  0.8579 -0.4691 -0.2096
     1 O(17)  Bbb    -1.5336   110.971    39.597    37.016  0.1504 -0.1608  0.9755
              Bcc     3.0769  -222.641   -79.444   -74.265  0.4913  0.8684  0.0674
 
              Baa    -0.1109   -59.174   -21.115   -19.738  0.1755 -0.1724  0.9693
     2 H(1)   Bbb    -0.0459   -24.468    -8.731    -8.162  0.4958  0.8660  0.0643
              Bcc     0.1568    83.642    29.846    27.900  0.8505 -0.4693 -0.2374
 
              Baa    -0.0011    -0.147    -0.052    -0.049 -0.0360  0.8311 -0.5549
     3 C(13)  Bbb    -0.0003    -0.036    -0.013    -0.012  0.0367  0.5560  0.8304
              Bcc     0.0014     0.183     0.065     0.061  0.9987  0.0095 -0.0505
 
              Baa    -0.0005    -0.281    -0.100    -0.094  0.1041 -0.3350  0.9365
     4 H(1)   Bbb    -0.0005    -0.250    -0.089    -0.083  0.1252  0.9385  0.3218
              Bcc     0.0010     0.531     0.189     0.177  0.9867 -0.0837 -0.1396
 
              Baa    -0.0016    -0.215    -0.077    -0.072  0.0962  0.1443  0.9848
     5 C(13)  Bbb    -0.0010    -0.130    -0.047    -0.044 -0.0654  0.9882 -0.1385
              Bcc     0.0026     0.345     0.123     0.115  0.9932  0.0511 -0.1045
 
              Baa    -0.0060    -0.802    -0.286    -0.267 -0.0028 -0.4773  0.8787
     6 C(13)  Bbb    -0.0047    -0.632    -0.226    -0.211 -0.3318  0.8294  0.4494
              Bcc     0.0107     1.434     0.512     0.478  0.9433  0.2903  0.1607
 
              Baa    -0.0057     0.415     0.148     0.139 -0.5333  0.8155 -0.2250
     7 O(17)  Bbb    -0.0012     0.088     0.032     0.030  0.4373  0.4934  0.7518
              Bcc     0.0070    -0.504    -0.180    -0.168  0.7241  0.3025 -0.6198
 
              Baa    -0.0247     1.786     0.637     0.596 -0.6387  0.6887  0.3431
     8 O(17)  Bbb    -0.0041     0.300     0.107     0.100  0.4437 -0.0346  0.8955
              Bcc     0.0288    -2.086    -0.744    -0.696  0.6286  0.7242 -0.2835
 
              Baa    -0.1431   -19.202    -6.852    -6.405  0.7896 -0.6077 -0.0854
     9 C(13)  Bbb    -0.1391   -18.663    -6.659    -6.225  0.1012 -0.0083  0.9948
              Bcc     0.2822    37.865    13.511    12.630  0.6052  0.7941 -0.0549
 
              Baa    -0.0097    -1.305    -0.466    -0.435  0.6326 -0.4838 -0.6047
    10 C(13)  Bbb    -0.0081    -1.093    -0.390    -0.365  0.7594  0.2343  0.6070
              Bcc     0.0179     2.398     0.856     0.800  0.1520  0.8432 -0.5156
 
              Baa    -0.0843   -44.996   -16.056   -15.009  0.4823 -0.3141  0.8178
    11 H(1)   Bbb    -0.0740   -39.469   -14.084   -13.166  0.7089 -0.4084 -0.5750
              Bcc     0.1583    84.465    30.139    28.175  0.5146  0.8571  0.0257
 
              Baa    -0.0188   -10.018    -3.575    -3.342  0.7992 -0.5632  0.2100
    12 H(1)   Bbb    -0.0044    -2.349    -0.838    -0.784  0.5732  0.6089 -0.5484
              Bcc     0.0232    12.367     4.413     4.125  0.1810  0.5586  0.8094
 
              Baa    -0.0052    -2.796    -0.998    -0.933 -0.3462  0.2076  0.9149
    13 H(1)   Bbb    -0.0029    -1.554    -0.555    -0.518  0.8734  0.4272  0.2336
              Bcc     0.0082     4.350     1.552     1.451 -0.3424  0.8800 -0.3292
 
              Baa    -0.0058    -3.079    -1.099    -1.027  0.8040 -0.5218 -0.2852
    14 H(1)   Bbb    -0.0029    -1.529    -0.546    -0.510  0.5890  0.6327  0.5028
              Bcc     0.0086     4.608     1.644     1.537 -0.0819 -0.5722  0.8160
 
              Baa    -0.0037    -1.993    -0.711    -0.665  0.6436 -0.4886 -0.5891
    15 H(1)   Bbb    -0.0023    -1.213    -0.433    -0.405  0.7232  0.1364  0.6770
              Bcc     0.0060     3.206     1.144     1.069  0.2505  0.8618 -0.4411
 

 ---------------------------------------------------------------------------------

 Calling FoFJK, ICntrl=    100127 FMM=F ISym2X=0 I1Cent= 0 IOpClX= 1 NMat=1 NMatS=1 NMatT=0.
 Full mass-weighted force constant matrix:
 Low frequencies --- -453.0165 -315.5818 -140.4038 -122.1810  -80.6504  -55.7923
 Low frequencies ---  -50.9196  -33.1220   -0.0006
 ******    5 imaginary frequencies (negative Signs) ****** 
 Diagonal vibrational polarizability:
      143.9609382     410.0729057     168.7842191
 Harmonic frequencies (cm**-1), IR intensities (KM/Mole), Raman scattering
 activities (A**4/AMU), depolarization ratios for plane and unpolarized
 incident light, reduced masses (AMU), force constants (mDyne/A),
 and normal coordinates:
                      1                      2                      3
                      A                      A                      A
 Frequencies --   -451.8085              -315.3745              -134.3504
 Red. masses --      1.0590                 2.0515                 5.5786
 Frc consts  --      0.1274                 0.1202                 0.0593
 IR Inten    --    139.8574                17.9011                 9.2892
  Atom  AN      X      Y      Z        X      Y      Z        X      Y      Z
     1   8    -0.01   0.02  -0.05    -0.01   0.18   0.07     0.19  -0.13   0.26
     2   1     0.14  -0.22   0.96    -0.39  -0.41  -0.14     0.29   0.09   0.18
     3   6    -0.00   0.00  -0.01     0.01   0.01   0.00    -0.05  -0.02  -0.01
     4   1    -0.00   0.00  -0.02    -0.00  -0.01  -0.00    -0.04  -0.01  -0.00
     5   6     0.00   0.00  -0.01     0.03   0.03   0.01    -0.05  -0.02  -0.02
     6   6     0.00   0.00   0.00     0.02   0.02   0.00    -0.05  -0.03   0.01
     7   8     0.00  -0.00   0.00    -0.03   0.01   0.03    -0.04  -0.12   0.21
     8   8     0.00  -0.00   0.00     0.05  -0.01  -0.05    -0.06   0.05  -0.18
     9   6    -0.00  -0.01  -0.01    -0.00  -0.15  -0.08    -0.07   0.05  -0.20
    10   6     0.00   0.01   0.01    -0.02  -0.04   0.03     0.07   0.21  -0.12
    11   1    -0.02  -0.02  -0.10     0.01  -0.41  -0.37    -0.13   0.07  -0.41
    12   1    -0.03  -0.05   0.01    -0.24  -0.39   0.07    -0.15  -0.10  -0.12
    13   1     0.00   0.00   0.01    -0.04  -0.11   0.04     0.07   0.23  -0.15
    14   1     0.00   0.01   0.01     0.05   0.08  -0.04     0.13   0.34  -0.20
    15   1     0.00   0.01   0.02    -0.05   0.01   0.17     0.12   0.19   0.05
                      4                      5                      6
                      A                      A                      A
 Frequencies --    -89.9728               -48.2179                34.4617
 Red. masses --      3.6186                 4.7236                 4.2534
 Frc consts  --      0.0173                 0.0065                 0.0030
 IR Inten    --     12.3322                14.1434                15.5624
  Atom  AN      X      Y      Z        X      Y      Z        X      Y      Z
     1   8    -0.16   0.03   0.05     0.34   0.14  -0.09    -0.11  -0.14   0.02
     2   1    -0.19  -0.07   0.11     0.40   0.23  -0.02    -0.11  -0.17   0.06
     3   6     0.05   0.03  -0.04    -0.12  -0.18   0.07     0.08  -0.06   0.25
     4   1     0.05   0.03  -0.03    -0.18  -0.31   0.12     0.12  -0.12   0.49
     5   6     0.05   0.04  -0.04    -0.04  -0.04   0.01     0.04  -0.00  -0.03
     6   6     0.05   0.02   0.02    -0.00   0.03  -0.01     0.03   0.03  -0.14
     7   8     0.08  -0.07   0.24     0.03   0.01   0.03     0.04   0.01  -0.09
     8   8     0.05   0.08  -0.11    -0.03   0.08  -0.07     0.03   0.07  -0.22
     9   6     0.05   0.06  -0.01    -0.02   0.02   0.04     0.04  -0.01   0.01
    10   6    -0.13  -0.16  -0.13    -0.23  -0.10   0.04    -0.12   0.12   0.18
    11   1     0.14   0.09   0.28     0.01  -0.09   0.14     0.11   0.00   0.03
    12   1     0.22   0.28  -0.15     0.02   0.04   0.03     0.18  -0.09   0.04
    13   1    -0.08  -0.09  -0.04    -0.23  -0.15   0.14    -0.10   0.06   0.37
    14   1    -0.31  -0.36   0.01    -0.31  -0.18   0.09    -0.24   0.24   0.12
    15   1    -0.13  -0.21  -0.43    -0.30  -0.06  -0.11    -0.17   0.16   0.20
                      7                      8                      9
                      A                      A                      A
 Frequencies --     96.9559               179.2020               247.6265
 Red. masses --      3.9630                 1.1957                 3.6745
 Frc consts  --      0.0219                 0.0226                 0.1328
 IR Inten    --     22.9917                 1.1250                 4.9422
  Atom  AN      X      Y      Z        X      Y      Z        X      Y      Z
     1   8     0.06   0.18   0.02    -0.01   0.00   0.00    -0.00  -0.07  -0.01
     2   1     0.10   0.23   0.05     0.01   0.03   0.01    -0.09  -0.19  -0.06
     3   6     0.21   0.23   0.09     0.04   0.03   0.00     0.03   0.05  -0.11
     4   1     0.42   0.51   0.19     0.07   0.09   0.01     0.06   0.25  -0.47
     5   6    -0.03  -0.11  -0.04    -0.01  -0.04  -0.01     0.00  -0.16   0.26
     6   6    -0.07  -0.15  -0.05     0.00  -0.02   0.00     0.04  -0.05   0.16
     7   8    -0.01  -0.16  -0.05     0.07  -0.02  -0.00     0.15   0.05  -0.09
     8   8    -0.11  -0.09  -0.03    -0.02   0.02   0.02     0.00   0.08   0.00
     9   6    -0.03   0.03   0.03    -0.02   0.03   0.00    -0.06   0.00  -0.10
    10   6    -0.04   0.02   0.02    -0.05  -0.00  -0.02    -0.15   0.06  -0.02
    11   1    -0.12   0.07   0.09    -0.00   0.02   0.02    -0.00  -0.09  -0.22
    12   1     0.06   0.03   0.01    -0.03   0.05  -0.01    -0.18  -0.06  -0.05
    13   1     0.07   0.21   0.14    -0.31  -0.47  -0.28    -0.03   0.21   0.24
    14   1    -0.27  -0.04   0.08     0.48   0.08  -0.11    -0.46   0.10  -0.01
    15   1     0.09  -0.11  -0.14    -0.36   0.31   0.31    -0.06  -0.03  -0.16
                     10                     11                     12
                      A                      A                      A
 Frequencies --    283.0744               417.5665               518.1617
 Red. masses --      3.6676                 3.5352                 1.4034
 Frc consts  --      0.1732                 0.3632                 0.2220
 IR Inten    --     10.2210                 7.9257               180.6356
  Atom  AN      X      Y      Z        X      Y      Z        X      Y      Z
     1   8     0.01  -0.06  -0.03    -0.02   0.01   0.00    -0.07   0.02   0.01
     2   1    -0.14  -0.29  -0.12     0.08   0.21  -0.03     0.40   0.83   0.09
     3   6    -0.00   0.02   0.09     0.09  -0.07  -0.00    -0.00   0.01   0.00
     4   1     0.08   0.02   0.38     0.01  -0.25   0.12    -0.04  -0.03  -0.03
     5   6    -0.10  -0.01  -0.22     0.15   0.09  -0.10     0.02   0.04   0.02
     6   6    -0.01   0.07  -0.06     0.06  -0.03   0.01     0.01   0.02   0.00
     7   8     0.25   0.01   0.05    -0.06  -0.03   0.02     0.06   0.02   0.00
     8   8    -0.06   0.09   0.16     0.05  -0.13   0.21     0.00  -0.01  -0.04
     9   6    -0.14  -0.05   0.00     0.00   0.04  -0.15    -0.05  -0.11  -0.03
    10   6     0.01  -0.02  -0.04    -0.18   0.12  -0.06     0.00  -0.05   0.02
    11   1    -0.10  -0.20  -0.26    -0.04   0.09  -0.20    -0.15  -0.02  -0.08
    12   1    -0.42  -0.16   0.09    -0.14   0.06  -0.14    -0.11  -0.19   0.02
    13   1     0.12   0.24  -0.04    -0.17  -0.04   0.30     0.02  -0.00   0.02
    14   1    -0.13  -0.06  -0.00    -0.41   0.28  -0.13     0.01   0.02  -0.01
    15   1     0.22  -0.20  -0.11    -0.34   0.25  -0.10     0.06  -0.08   0.09
                     13                     14                     15
                      A                      A                      A
 Frequencies --    570.0546               630.4106               779.0587
 Red. masses --      4.1714                 4.6979                 2.1434
 Frc consts  --      0.7987                 1.1000                 0.7665
 IR Inten    --      0.2684                58.3772                69.2846
  Atom  AN      X      Y      Z        X      Y      Z        X      Y      Z
     1   8    -0.00  -0.01  -0.00     0.03   0.02  -0.00     0.01   0.01   0.00
     2   1    -0.04  -0.06  -0.01    -0.18  -0.36  -0.02    -0.03  -0.08   0.04
     3   6     0.20  -0.13  -0.06    -0.12   0.09   0.04     0.03  -0.00  -0.06
     4   1     0.06  -0.32  -0.18    -0.49  -0.41  -0.16     0.07  -0.21   0.56
     5   6     0.29   0.03   0.04     0.10   0.34   0.14     0.01   0.02  -0.10
     6   6     0.03  -0.03  -0.04    -0.09  -0.10  -0.04    -0.00  -0.07   0.25
     7   8    -0.10  -0.04  -0.02     0.23  -0.11  -0.05     0.00   0.06  -0.04
     8   8    -0.11   0.15  -0.02    -0.10  -0.15  -0.05    -0.01   0.01  -0.06
     9   6    -0.22   0.05   0.14    -0.06   0.01   0.01    -0.06  -0.06  -0.03
    10   6    -0.01  -0.01  -0.00    -0.01   0.03  -0.01    -0.02  -0.01  -0.01
    11   1    -0.16  -0.10  -0.09    -0.07   0.07   0.19     0.01  -0.03   0.41
    12   1    -0.36  -0.09   0.22     0.17   0.12  -0.06     0.16   0.25  -0.20
    13   1    -0.01   0.22  -0.38    -0.01   0.06  -0.07     0.05   0.15  -0.02
    14   1     0.20  -0.21   0.10     0.04   0.05  -0.03     0.04   0.24  -0.16
    15   1     0.19  -0.18   0.00     0.03   0.01   0.06     0.15  -0.11   0.30
                     16                     17                     18
                      A                      A                      A
 Frequencies --    784.2665               814.4815               872.3994
 Red. masses --      1.6209                 1.4323                 1.9253
 Frc consts  --      0.5874                 0.5598                 0.8633
 IR Inten    --     10.8672                54.6468                19.4948
  Atom  AN      X      Y      Z        X      Y      Z        X      Y      Z
     1   8     0.01   0.02  -0.00    -0.00  -0.00   0.00     0.00   0.00  -0.00
     2   1    -0.04  -0.09   0.03    -0.00  -0.00  -0.01    -0.00  -0.00  -0.00
     3   6     0.03  -0.05   0.02    -0.10  -0.12  -0.05    -0.00   0.07  -0.17
     4   1     0.12   0.25  -0.32     0.54   0.74   0.32     0.03  -0.35   0.89
     5   6     0.02  -0.04   0.04     0.05   0.09   0.03     0.01  -0.06   0.15
     6   6    -0.01   0.10  -0.13     0.00  -0.01   0.01    -0.00   0.06  -0.13
     7   8     0.01   0.03   0.05     0.02  -0.01  -0.01     0.00  -0.01   0.03
     8   8    -0.01  -0.04   0.03    -0.00  -0.02  -0.01    -0.00  -0.02   0.02
     9   6    -0.08  -0.07  -0.03    -0.01   0.01   0.01    -0.00  -0.00   0.00
    10   6    -0.02  -0.01  -0.02    -0.00   0.01  -0.00     0.00  -0.00   0.00
    11   1     0.00  -0.02   0.48    -0.02   0.01  -0.06    -0.00   0.01   0.01
    12   1     0.15   0.31  -0.25    -0.01  -0.05   0.05    -0.01   0.01  -0.00
    13   1     0.06   0.16   0.02    -0.02   0.00  -0.05     0.00  -0.00   0.02
    14   1     0.00   0.33  -0.21     0.01  -0.06   0.04    -0.01   0.01  -0.01
    15   1     0.15  -0.09   0.36    -0.02   0.01  -0.06    -0.01   0.01   0.01
                     19                     20                     21
                      A                      A                      A
 Frequencies --    897.7436               958.5441              1133.6355
 Red. masses --      3.5862                 2.6283                 3.6979
 Frc consts  --      1.7029                 1.4228                 2.8000
 IR Inten    --     18.9103                14.0250                10.4457
  Atom  AN      X      Y      Z        X      Y      Z        X      Y      Z
     1   8    -0.01  -0.01  -0.00    -0.01  -0.00   0.00     0.00   0.00   0.00
     2   1     0.06   0.11   0.03     0.06   0.10   0.02    -0.05  -0.07  -0.03
     3   6    -0.08   0.03   0.01    -0.09   0.06   0.03    -0.05   0.03   0.02
     4   1    -0.04   0.10   0.05    -0.11   0.04   0.03    -0.06   0.04   0.01
     5   6     0.00   0.09   0.04    -0.07   0.01   0.01    -0.04  -0.01  -0.00
     6   6     0.03  -0.13  -0.06     0.13  -0.06  -0.03     0.14  -0.01  -0.01
     7   8    -0.06  -0.18  -0.07    -0.04  -0.09  -0.03    -0.01  -0.01  -0.00
     8   8    -0.00   0.26   0.10     0.18   0.01   0.02     0.14  -0.10  -0.05
     9   6     0.07  -0.02  -0.09    -0.04  -0.03   0.10    -0.22   0.25  -0.12
    10   6     0.06  -0.12   0.02    -0.15   0.10  -0.07     0.03  -0.14   0.17
    11   1     0.22  -0.14   0.08     0.15  -0.22   0.16    -0.17   0.21  -0.31
    12   1    -0.20   0.28  -0.21    -0.01  -0.11   0.14    -0.37   0.40  -0.20
    13   1     0.16  -0.13   0.44    -0.11   0.49  -0.58     0.05  -0.06   0.13
    14   1    -0.12   0.33  -0.21     0.19   0.03  -0.06     0.10  -0.16   0.19
    15   1     0.06  -0.06   0.36     0.21  -0.17   0.07     0.12  -0.21   0.29
                     22                     23                     24
                      A                      A                      A
 Frequencies --   1159.3559              1199.0527              1321.9778
 Red. masses --      2.1087                 1.8433                 2.2418
 Frc consts  --      1.6699                 1.5615                 2.3083
 IR Inten    --     38.7111                74.5766               352.9746
  Atom  AN      X      Y      Z        X      Y      Z        X      Y      Z
     1   8     0.00   0.01   0.00    -0.01  -0.01  -0.00     0.01  -0.00  -0.00
     2   1    -0.01  -0.03   0.01     0.03   0.06  -0.01    -0.08  -0.13  -0.04
     3   6    -0.02   0.02   0.01     0.01  -0.01  -0.00    -0.04   0.03   0.01
     4   1    -0.02   0.02   0.01     0.02  -0.01  -0.00    -0.05   0.04   0.02
     5   6    -0.02  -0.00   0.00     0.01  -0.00  -0.00    -0.01   0.00   0.00
     6   6     0.06  -0.01  -0.00    -0.04   0.01   0.01     0.27   0.00  -0.00
     7   8    -0.01  -0.01  -0.01     0.01   0.03   0.01    -0.02   0.01   0.00
     8   8     0.07  -0.02  -0.06    -0.04  -0.06  -0.03    -0.14   0.01   0.01
     9   6    -0.13  -0.02   0.19     0.12   0.13   0.09     0.05  -0.07   0.03
    10   6     0.10   0.01  -0.14    -0.07  -0.10  -0.07    -0.03  -0.03  -0.02
    11   1    -0.17   0.01   0.10     0.22  -0.11  -0.38    -0.60   0.46  -0.33
    12   1    -0.24   0.05   0.17    -0.24  -0.08   0.23     0.40  -0.02  -0.04
    13   1     0.09  -0.30   0.45     0.11   0.25   0.09     0.01   0.05   0.00
    14   1    -0.37   0.28  -0.26     0.02   0.38  -0.34     0.02   0.10  -0.10
    15   1    -0.28   0.33  -0.09     0.14  -0.18   0.46     0.03  -0.07   0.10
                     25                     26                     27
                      A                      A                      A
 Frequencies --   1342.5582              1410.3069              1453.1844
 Red. masses --      1.7749                 1.2837                 1.2462
 Frc consts  --      1.8849                 1.5043                 1.5505
 IR Inten    --    459.7879                 1.9843                18.3608
  Atom  AN      X      Y      Z        X      Y      Z        X      Y      Z
     1   8    -0.01  -0.01  -0.00     0.00   0.00   0.00    -0.00  -0.00   0.00
     2   1     0.04   0.05   0.03    -0.00   0.01  -0.01     0.01   0.02  -0.01
     3   6    -0.02   0.02   0.01     0.01  -0.01  -0.00     0.00  -0.00  -0.00
     4   1    -0.03   0.02   0.01     0.01  -0.01  -0.00     0.00  -0.00  -0.00
     5   6    -0.01  -0.00  -0.00     0.00   0.00   0.00    -0.00  -0.00   0.00
     6   6     0.18   0.01   0.00    -0.04   0.00   0.00    -0.00  -0.00  -0.00
     7   8    -0.01   0.02   0.01     0.01  -0.00  -0.00     0.00   0.00   0.00
     8   8    -0.14  -0.06  -0.03     0.02  -0.00  -0.02    -0.00  -0.00  -0.00
     9   6     0.04   0.01  -0.03     0.07  -0.10   0.08     0.00  -0.02   0.02
    10   6     0.03   0.04   0.02    -0.02   0.03   0.03    -0.04   0.09  -0.10
    11   1     0.44  -0.39   0.41    -0.15   0.08  -0.35     0.02  -0.06  -0.09
    12   1    -0.59   0.10   0.01    -0.42   0.71  -0.29     0.01   0.12  -0.05
    13   1    -0.01  -0.04  -0.01    -0.05   0.06  -0.16    -0.04  -0.29   0.49
    14   1     0.02  -0.07   0.08     0.05   0.04   0.02     0.19  -0.48   0.23
    15   1    -0.04   0.07  -0.16    -0.01  -0.00  -0.17     0.35  -0.19   0.37
                     28                     29                     30
                      A                      A                      A
 Frequencies --   1509.7630              1524.4976              1534.1104
 Red. masses --      1.0971                 1.0427                 1.0613
 Frc consts  --      1.4734                 1.4278                 1.4716
 IR Inten    --     48.0056                30.2831                26.1936
  Atom  AN      X      Y      Z        X      Y      Z        X      Y      Z
     1   8    -0.01  -0.00   0.00    -0.00   0.00   0.00     0.00  -0.00  -0.00
     2   1     0.05   0.09  -0.00     0.02   0.03  -0.00    -0.02  -0.03  -0.00
     3   6    -0.00   0.00   0.00    -0.00   0.00   0.00     0.00  -0.00  -0.00
     4   1    -0.00   0.00   0.00    -0.00   0.00   0.00     0.00  -0.00  -0.00
     5   6    -0.00  -0.00  -0.00    -0.00  -0.00   0.00     0.00   0.00  -0.00
     6   6     0.03  -0.01  -0.00     0.01  -0.00   0.00    -0.01   0.00   0.00
     7   8    -0.00   0.01   0.01    -0.00   0.00  -0.00     0.00  -0.00  -0.00
     8   8    -0.03  -0.01   0.01    -0.01   0.00   0.00     0.01   0.00  -0.00
     9   6    -0.05   0.01   0.03    -0.03  -0.02   0.00     0.05  -0.01  -0.02
    10   6     0.05   0.01   0.00    -0.01  -0.04  -0.02     0.03  -0.01  -0.03
    11   1     0.31  -0.44  -0.39     0.09  -0.16  -0.11    -0.13   0.20   0.14
    12   1     0.46   0.22  -0.15     0.16   0.10  -0.08    -0.24  -0.04   0.03
    13   1    -0.07  -0.09  -0.25     0.29   0.51   0.31     0.06   0.24  -0.24
    14   1    -0.39  -0.04   0.07     0.42  -0.19   0.06    -0.40  -0.35   0.21
    15   1    -0.03   0.08   0.16    -0.39   0.30  -0.05    -0.21   0.26   0.54
                     31                     32                     33
                      A                      A                      A
 Frequencies --   1912.6513              2306.5247              2333.4422
 Red. masses --     12.5004                 1.1176                 5.2332
 Frc consts  --     26.9429                 3.5032                16.7886
 IR Inten    --    336.0959              1153.8801                93.1593
  Atom  AN      X      Y      Z        X      Y      Z        X      Y      Z
     1   8    -0.00  -0.00  -0.00     0.01   0.02   0.00    -0.00  -0.00  -0.00
     2   1    -0.00  -0.01  -0.00     0.00  -0.02  -0.01     0.00   0.01   0.00
     3   6     0.07  -0.04  -0.02    -0.02   0.01   0.01    -0.29   0.18   0.08
     4   1     0.11  -0.05  -0.02    -0.04   0.02   0.01    -0.61   0.38   0.17
     5   6    -0.05   0.01   0.00     0.02  -0.02  -0.01     0.41  -0.26  -0.12
     6   6     0.03   0.74   0.31     0.01   0.01   0.00    -0.07   0.06   0.03
     7   8    -0.01  -0.49  -0.21    -0.00  -0.00  -0.00    -0.00  -0.01  -0.00
     8   8    -0.04  -0.04  -0.02    -0.01   0.00  -0.00    -0.00  -0.00  -0.00
     9   6    -0.01   0.02   0.01    -0.06  -0.07   0.01     0.02   0.02  -0.00
    10   6     0.01  -0.00  -0.01    -0.00  -0.00  -0.00     0.00   0.00   0.00
    11   1     0.05  -0.12  -0.06     0.72   0.66  -0.17    -0.19  -0.18   0.04
    12   1     0.13   0.03   0.01    -0.04  -0.07  -0.01     0.01   0.02   0.00
    13   1    -0.01  -0.05   0.02    -0.00   0.00   0.01     0.00  -0.00  -0.00
    14   1    -0.03   0.01  -0.00     0.00  -0.00  -0.01    -0.00  -0.00   0.00
    15   1     0.03  -0.01   0.03    -0.01  -0.03   0.01     0.01   0.01  -0.00
                     34                     35                     36
                      A                      A                      A
 Frequencies --   3103.4141              3163.7569              3189.1678
 Red. masses --      1.0344                 1.0845                 1.1010
 Frc consts  --      5.8696                 6.3957                 6.5975
 IR Inten    --      8.0001                 5.3855                 7.8447
  Atom  AN      X      Y      Z        X      Y      Z        X      Y      Z
     1   8     0.00   0.00   0.00     0.00   0.00   0.00     0.00   0.00   0.00
     2   1    -0.00  -0.00  -0.00     0.00   0.00  -0.00     0.00  -0.00  -0.00
     3   6     0.00  -0.00  -0.00    -0.00  -0.00   0.00     0.00  -0.00  -0.00
     4   1    -0.00   0.00   0.00    -0.00   0.00   0.00    -0.00  -0.00   0.00
     5   6    -0.00   0.00   0.00     0.00   0.00  -0.00    -0.00   0.00   0.00
     6   6     0.00   0.00   0.00    -0.00  -0.00  -0.00     0.00  -0.00  -0.00
     7   8     0.00  -0.00   0.00    -0.00   0.00   0.00    -0.00   0.00  -0.00
     8   8    -0.00  -0.00  -0.00     0.00  -0.00  -0.00     0.00  -0.00  -0.00
     9   6     0.00  -0.00   0.00    -0.01  -0.04  -0.07    -0.00  -0.00  -0.00
    10   6    -0.01   0.03  -0.04    -0.00   0.02   0.02    -0.08  -0.04   0.00
    11   1    -0.01  -0.01   0.00     0.01   0.01  -0.02     0.01   0.02  -0.01
    12   1    -0.00  -0.00  -0.00     0.10   0.44   0.84     0.01   0.03   0.07
    13   1     0.49  -0.20  -0.13     0.10  -0.04  -0.03     0.55  -0.24  -0.14
    14   1     0.04   0.29   0.48    -0.02  -0.12  -0.20    -0.01   0.10   0.19
    15   1    -0.40  -0.47   0.06    -0.08  -0.09   0.02     0.47   0.57  -0.08
                     37                     38                     39
                      A                      A                      A
 Frequencies --   3196.5743              3532.7030              3795.3353
 Red. masses --      1.1004                 1.1793                 1.0664
 Frc consts  --      6.6249                 8.6715                 9.0506
 IR Inten    --     13.1737                54.8159                15.1245
  Atom  AN      X      Y      Z        X      Y      Z        X      Y      Z
     1   8     0.00   0.00   0.00     0.00  -0.00  -0.00    -0.05   0.03   0.01
     2   1     0.00   0.00  -0.00    -0.00  -0.00   0.00     0.85  -0.47  -0.24
     3   6    -0.00   0.00   0.00    -0.10   0.06   0.03    -0.00   0.00   0.00
     4   1    -0.00   0.00  -0.00     0.82  -0.51  -0.23     0.00  -0.00  -0.00
     5   6     0.00   0.00  -0.00     0.03  -0.02  -0.01    -0.00   0.00  -0.00
     6   6    -0.00  -0.00  -0.00    -0.00   0.00   0.00     0.00  -0.00   0.00
     7   8    -0.00   0.00   0.00     0.00   0.00   0.00    -0.00   0.00   0.00
     8   8    -0.00   0.00   0.00    -0.00  -0.00  -0.00    -0.00   0.00   0.00
     9   6    -0.00  -0.01  -0.02    -0.00  -0.00   0.00     0.00   0.00  -0.00
    10   6     0.02  -0.06  -0.06     0.00   0.00  -0.00    -0.00  -0.00   0.00
    11   1     0.01   0.01  -0.01     0.00   0.00  -0.00    -0.02  -0.01   0.00
    12   1     0.03   0.13   0.25     0.00  -0.00   0.00    -0.00  -0.00   0.00
    13   1    -0.50   0.19   0.11     0.00  -0.00   0.00     0.00   0.00  -0.00
    14   1     0.06   0.38   0.65    -0.00   0.00   0.00     0.00   0.00   0.00
    15   1     0.14   0.14  -0.04    -0.00   0.00  -0.00     0.00  -0.00   0.00

 -------------------
 - Thermochemistry -
 -------------------
 Temperature   298.150 Kelvin.  Pressure   1.00000 Atm.
 Atom     1 has atomic number  8 and mass  15.99491
 Atom     2 has atomic number  1 and mass   1.00783
 Atom     3 has atomic number  6 and mass  12.00000
 Atom     4 has atomic number  1 and mass   1.00783
 Atom     5 has atomic number  6 and mass  12.00000
 Atom     6 has atomic number  6 and mass  12.00000
 Atom     7 has atomic number  8 and mass  15.99491
 Atom     8 has atomic number  8 and mass  15.99491
 Atom     9 has atomic number  6 and mass  12.00000
 Atom    10 has atomic number  6 and mass  12.00000
 Atom    11 has atomic number  1 and mass   1.00783
 Atom    12 has atomic number  1 and mass   1.00783
 Atom    13 has atomic number  1 and mass   1.00783
 Atom    14 has atomic number  1 and mass   1.00783
 Atom    15 has atomic number  1 and mass   1.00783
 Molecular mass:   115.03952 amu.
 Principal axes and moments of inertia in atomic units:
                           1         2         3
     Eigenvalues --   601.675861599.649582009.35401
           X            0.99924  -0.03876   0.00281
           Y            0.03881   0.99903  -0.02098
           Z           -0.00199   0.02107   0.99978
 This molecule is an asymmetric top.
 Rotational symmetry number  1.
 Warning -- assumption of classical behavior for rotation
           may cause significant error
 Rotational temperatures (Kelvin)      0.14395     0.05415     0.04311
 Rotational constants (GHZ):           2.99952     1.12821     0.89817
    5 imaginary frequencies ignored.
 Zero-point vibrational energy     288336.0 (Joules/Mol)
                                   68.91397 (Kcal/Mol)
 Warning -- explicit consideration of   8 degrees of freedom as
           vibrations may cause significant error
 Vibrational temperatures:     49.58   139.50   257.83   356.28   407.28
          (Kelvin)            600.79   745.52   820.18   907.02  1120.89
                             1128.38  1171.86  1255.19  1291.65  1379.13
                             1631.05  1668.05  1725.17  1902.03  1931.64
                             2029.12  2090.81  2172.21  2193.41  2207.24
                             2751.88  3318.57  3357.30  4465.12  4551.94
                             4588.50  4599.16  5082.77  5460.64
 
 Zero-point correction=                           0.109821 (Hartree/Particle)
 Thermal correction to Energy=                    0.117118
 Thermal correction to Enthalpy=                  0.118062
 Thermal correction to Gibbs Free Energy=         0.075796
 Sum of electronic and zero-point Energies=           -419.843614
 Sum of electronic and thermal Energies=              -419.836317
 Sum of electronic and thermal Enthalpies=            -419.835373
 Sum of electronic and thermal Free Energies=         -419.877639
 
                     E (Thermal)             CV                S
                      KCal/Mol        Cal/Mol-Kelvin    Cal/Mol-Kelvin
 Total                   73.493             24.777             88.956
 Electronic               0.000              0.000              1.377
 Translational            0.889              2.981             40.136
 Rotational               0.889              2.981             29.049
 Vibrational             71.715             18.815             18.394
 Vibration     1          0.594              1.983              5.554
 Vibration     2          0.603              1.951              3.515
 Vibration     3          0.629              1.868              2.337
 Vibration     4          0.661              1.767              1.747
 Vibration     5          0.682              1.705              1.515
 Vibration     6          0.781              1.432              0.900
 Vibration     7          0.873              1.210              0.614
 Vibration     8          0.926              1.096              0.504
                       Q            Log10(Q)             Ln(Q)
 Total Bot       0.136841D-34        -34.863783        -80.276828
 Total V=0       0.447205D+16         15.650507         36.036624
 Vib (Bot)       0.283397D-48        -48.547605       -111.784992
 Vib (Bot)    1  0.600626D+01          0.778604          1.792802
 Vib (Bot)    2  0.211794D+01          0.325913          0.750442
 Vib (Bot)    3  0.112111D+01          0.049649          0.114322
 Vib (Bot)    4  0.789051D+00         -0.102895         -0.236924
 Vib (Bot)    5  0.678084D+00         -0.168716         -0.388483
 Vib (Bot)    6  0.421287D+00         -0.375422         -0.864442
 Vib (Bot)    7  0.312037D+00         -0.505794         -1.164634
 Vib (Bot)    8  0.269969D+00         -0.568687         -1.309450
 Vib (V=0)       0.926157D+02          1.966685          4.528459
 Vib (V=0)    1  0.652703D+01          0.814716          1.875952
 Vib (V=0)    2  0.267616D+01          0.427511          0.984381
 Vib (V=0)    3  0.172756D+01          0.237432          0.546708
 Vib (V=0)    4  0.143413D+01          0.156589          0.360560
 Vib (V=0)    5  0.134250D+01          0.127913          0.294530
 Vib (V=0)    6  0.115382D+01          0.062139          0.143079
 Vib (V=0)    7  0.108938D+01          0.037179          0.085607
 Vib (V=0)    8  0.106823D+01          0.028664          0.066001
 Electronic      0.200000D+01          0.301030          0.693147
 Translational   0.484981D+08          7.685724         17.697035
 Rotational      0.497815D+06          5.697068         13.117983
 ***** Axes restored to original set *****
 -------------------------------------------------------------------
 Center     Atomic                   Forces (Hartrees/Bohr)
 Number     Number              X              Y              Z
 -------------------------------------------------------------------
      1        8           0.018559039    0.005738006   -0.002198208
      2        1          -0.014262575    0.009742431    0.004630608
      3        6          -0.017579493    0.011365538    0.005083792
      4        1          -0.000823623    0.000270057    0.000137515
      5        6           0.020968356   -0.013283209   -0.005882907
      6        6          -0.030456272    0.041907226    0.018724142
      7        8           0.001196245   -0.046247376   -0.019544728
      8        8           0.007320183    0.012588409    0.004424350
      9        6           0.017826437   -0.007506119   -0.005937247
     10        6          -0.001092802   -0.002360823    0.000929018
     11        1          -0.001322294   -0.007731516   -0.002092462
     12        1          -0.001128328   -0.002410912   -0.000724818
     13        1           0.001121260   -0.000893516    0.000236947
     14        1           0.000172580    0.000510167    0.001136961
     15        1          -0.000498712   -0.001688364    0.001077038
 -------------------------------------------------------------------
 Cartesian Forces:  Max     0.046247376 RMS     0.013419943

 GradGradGradGradGradGradGradGradGradGradGradGradGradGradGradGradGradGrad
 Berny optimization.
 Search for a local minimum.
 Step number   1 out of a maximum of    2
 All quantities printed in internal units (Hartrees-Bohrs-Radians)
 Second derivative matrix not updated -- analytic derivatives used.
 ITU=  0
     Eigenvalues ---   -0.01665  -0.01297  -0.00626  -0.00204  -0.00054
     Eigenvalues ---    0.00025   0.00113   0.00236   0.01115   0.01675
     Eigenvalues ---    0.02259   0.03322   0.03642   0.05676   0.06668
     Eigenvalues ---    0.07674   0.08257   0.09667   0.10344   0.10994
     Eigenvalues ---    0.11657   0.14235   0.16722   0.18450   0.21401
     Eigenvalues ---    0.29212   0.31196   0.42328   0.49429   0.60468
     Eigenvalues ---    0.72474   0.74847   0.79760   0.84564   0.90952
     Eigenvalues ---    0.93311   0.96005   1.86929   2.89309
 Eigenvalue     1 is  -1.66D-02 should be greater than     0.000000 Eigenvector:
                          Y1        Y11       X2        Y12       Z1
   1                    0.52201  -0.39742  -0.32158  -0.28587   0.25639
                          Z11       Z7        Z8        X1        Y2
   1                   -0.24795   0.22412  -0.19792   0.13920  -0.13277
 Eigenvalue     2 is  -1.30D-02 should be greater than     0.000000 Eigenvector:
                          Z2        Z1        Y1        Y2        Z7
   1                    0.72913  -0.44270   0.27338  -0.19247  -0.16167
                          Z8        Y11       Y14       Y13       Z12
   1                    0.13142  -0.12766  -0.09639  -0.09609   0.09372
 Eigenvalue     3 is  -6.26D-03 should be greater than     0.000000 Eigenvector:
                          Z7        Z2        Z8        Y7        X2
   1                    0.51654   0.51588  -0.27707  -0.22550   0.20639
                          Z15       Z1        Z12       Y1        Z9
   1                   -0.18226   0.17581  -0.16471  -0.15479  -0.14473
 Eigenvalue     4 is  -2.04D-03 should be greater than     0.000000 Eigenvector:
                          Z11       Y14       X2        Z15       Y12
   1                    0.37279  -0.34204  -0.31176  -0.27720   0.27144
                          X1        X12       Z7        X14       X11
   1                   -0.25690   0.23954   0.21843  -0.18447   0.17480
 Eigenvalue     5 is  -5.35D-04 should be greater than     0.000000 Eigenvector:
                          X2        X1        Y4        Y2        X15
   1                    0.47080   0.40888  -0.30199   0.29053  -0.23599
                          X14       Y1        Y3        X13       X10
   1                   -0.22782   0.19343  -0.18356  -0.18152  -0.18102
 Quadratic step=1.615D+01 exceeds max=3.000D-01 adjusted using Lamda=-4.893D-02.
 Angle between NR and scaled steps=  60.60 degrees.
 Angle between quadratic step and forces=  66.72 degrees.
 Linear search not attempted -- first point.
 B after Tr=     0.003844    0.009111   -0.000552
         Rot=    0.999999   -0.000916    0.000249   -0.000849 Ang=  -0.15 deg.
 Variable       Old X    -DE/DX   Delta X   Delta X   Delta X     New X
                                 (Linear)    (Quad)   (Total)
    X1        5.11987   0.01856   0.00000   0.11345   0.11149   5.23136
    Y1        3.34747   0.00574   0.00000   0.18844   0.20719   3.55466
    Z1       -0.42760  -0.00220   0.00000   0.00526   0.01380  -0.41380
    X2        3.54937  -0.01426   0.00000  -0.00109  -0.00447   3.54490
    Y2        4.19696   0.00974   0.00000   0.04467   0.05976   4.25673
    Z2        0.00897   0.00463   0.00000   0.00880   0.01779   0.02676
    X3       -5.92354  -0.01758   0.00000  -0.02598  -0.02583  -5.94938
    Y3        1.92778   0.01137   0.00000   0.01687   0.01440   1.94219
    Z3        0.79835   0.00508   0.00000   0.00548   0.00551   0.80386
    X4       -7.58777  -0.00082   0.00000  -0.02295  -0.02478  -7.61255
    Y4        2.95898   0.00027   0.00000   0.02124   0.01509   2.97407
    Z4        1.26439   0.00014   0.00000   0.00378   0.00487   1.26926
    X5       -4.05350   0.02097   0.00000  -0.02329  -0.02086  -4.07435
    Y5        0.76505  -0.01328   0.00000  -0.00967  -0.00799   0.75706
    Z5        0.27386  -0.00588   0.00000   0.00324   0.00203   0.27590
    X6       -1.84190  -0.03046   0.00000  -0.05013  -0.04487  -1.88678
    Y6       -0.72500   0.04191   0.00000   0.00383   0.01043  -0.71456
    Z6       -0.39311   0.01872   0.00000   0.01192   0.00910  -0.38401
    X7       -1.92907   0.00120   0.00000  -0.02231  -0.01298  -1.94204
    Y7       -2.80804  -0.04625   0.00000  -0.04501  -0.03686  -2.84490
    Z7       -1.27430  -0.01954   0.00000  -0.00721  -0.01397  -1.28826
    X8        0.29056   0.00732   0.00000  -0.00079   0.00207   0.29263
    Y8        0.54633   0.01259   0.00000   0.00119   0.01061   0.55694
    Z8        0.10499   0.00442   0.00000  -0.00710  -0.00650   0.09848
    X9        2.59646   0.01783   0.00000   0.03601   0.04145   2.63791
    Y9       -0.73977  -0.00751   0.00000  -0.04876  -0.03421  -0.77397
    Z9       -0.50734  -0.00594   0.00000  -0.02335  -0.02403  -0.53137
   X10        3.45439  -0.00109   0.00000  -0.00918  -0.00186   3.45252
   Y10       -2.47210  -0.00236   0.00000  -0.04328  -0.03123  -2.50333
   Z10        1.58170   0.00093   0.00000   0.00878   0.00534   1.58703
   X11        4.01766  -0.00132   0.00000  -0.01401  -0.01093   4.00673
   Y11        0.80682  -0.00773   0.00000  -0.12417  -0.10682   0.70000
   Z11       -0.75421  -0.00209   0.00000  -0.03683  -0.03413  -0.78833
   X12        2.40480  -0.00113   0.00000  -0.02724  -0.01929   2.38552
   Y12       -1.67263  -0.00241   0.00000  -0.06768  -0.05025  -1.72288
   Z12       -2.33438  -0.00072   0.00000  -0.00331  -0.00586  -2.34024
   X13        5.31314   0.00112   0.00000   0.00186   0.01068   5.32383
   Y13       -3.23510  -0.00089   0.00000  -0.03287  -0.01681  -3.25191
   Z13        1.11876   0.00024   0.00000   0.01929   0.01541   1.13417
   X14        3.59347   0.00017   0.00000  -0.00570  -0.00107   3.59240
   Y14       -1.43768   0.00051   0.00000  -0.01482  -0.00577  -1.44345
   Z14        3.35936   0.00114   0.00000  -0.00179  -0.00321   3.35615
   X15        2.13473  -0.00050   0.00000  -0.00862   0.00124   2.13597
   Y15       -4.04247  -0.00169   0.00000  -0.03696  -0.02757  -4.07004
   Z15        1.80271   0.00108   0.00000   0.02079   0.01383   1.81654
         Item               Value     Threshold  Converged?
 Maximum Force            0.046247     0.000450     NO 
 RMS     Force            0.013420     0.000300     NO 
 Maximum Displacement     0.207192     0.001800     NO 
 RMS     Displacement     0.044107     0.001200     NO 
 Predicted change in Energy=-8.429077D-03
 GradGradGradGradGradGradGradGradGradGradGradGradGradGradGradGradGradGrad


 ----------------------------------------------------------------------

 Electric dipole moment (input orientation):
 (Debye = 10**-18 statcoulomb cm , SI units = C m)
                  (au)            (Debye)         (10**-30 SI)
   Tot        0.899471D+00      0.228623D+01      0.762603D+01
   x         -0.536289D+00     -0.136311D+01     -0.454685D+01
   y          0.548304D+00      0.139365D+01      0.464871D+01
   z          0.469898D+00      0.119436D+01      0.398396D+01

 Dipole polarizability, Alpha (input orientation).
 (esu units = cm**3 , SI units = C**2 m**2 J**-1)
 Alpha(0;0):
               (au)            (10**-24 esu)      (10**-40 SI)
   iso        0.706260D+02      0.104657D+02      0.116447D+02
   aniso      0.385760D+02      0.571637D+01      0.636032D+01
   xx         0.883113D+02      0.130864D+02      0.145606D+02
   yx        -0.277364D+01     -0.411011D+00     -0.457312D+00
   yy         0.762632D+02      0.113010D+02      0.125741D+02
   zx        -0.441674D+01     -0.654494D+00     -0.728222D+00
   zy         0.495907D+01      0.734859D+00      0.817641D+00
   zz         0.473036D+02      0.700966D+01      0.779930D+01

 ----------------------------------------------------------------------

 Dipole orientation:
     8          4.46857475          4.01335171         -1.23542639
     1          3.72788335          4.01444866          0.44686011
     6         -3.60415999         -0.44356278          5.12400040
     1         -4.35573691         -0.34545984          6.98832123
     6         -2.76107143         -0.55633505          3.02623892
     6         -1.81928024         -0.74812854          0.45087993
     8         -2.90876917         -1.80638944         -1.22728997
     8          0.41573831          0.41834720          0.21463552
     6          1.51108780          0.36992726         -2.26407688
     6          3.00065697         -2.00820679         -2.74025168
     1          2.82246329          2.02879103         -2.29762531
     1          0.05214173          0.73273740         -3.67293900
     1          3.96722468         -1.85902717         -4.55545251
     1          4.41410579         -2.27670232         -1.26392836
     1          1.74601584         -3.64505221         -2.79524928

 Electric dipole moment (dipole orientation):
 (Debye = 10**-18 statcoulomb cm , SI units = C m)
                  (au)            (Debye)         (10**-30 SI)
   Tot        0.899471D+00      0.228623D+01      0.762603D+01
   x          0.000000D+00      0.000000D+00      0.000000D+00
   y          0.000000D+00      0.000000D+00      0.000000D+00
   z          0.899471D+00      0.228623D+01      0.762603D+01

 Dipole polarizability, Alpha (dipole orientation).
 (esu units = cm**3 , SI units = C**2 m**2 J**-1)
 Alpha(0;0):
               (au)            (10**-24 esu)      (10**-40 SI)
   iso        0.706260D+02      0.104657D+02      0.116447D+02
   aniso      0.385760D+02      0.571637D+01      0.636032D+01
   xx         0.694066D+02      0.102850D+02      0.114436D+02
   yx         0.139133D+02      0.206174D+01      0.229400D+01
   yy         0.619028D+02      0.917305D+01      0.102064D+02
   zx        -0.132052D+02     -0.195681D+01     -0.217724D+01
   zy         0.631339D+01      0.935548D+00      0.104094D+01
   zz         0.805686D+02      0.119390D+02      0.132840D+02

 ----------------------------------------------------------------------
 1\1\GINC-AJ\Freq\UM062X\6-31+G\C5H7O3(2)\AAYUSH\20-Jun-2025\0\\# freq 
 6-31+g m062x\\Title Card Required\\0,2\O,2.709318,1.771403,-0.226275\H
 ,1.878244,2.220938,0.004745\C,-3.134605,1.020139,0.422469\H,-4.015273,
 1.565823,0.669086\C,-2.145019,0.404845,0.144922\C,-0.974694,-0.383652,
 -0.208025\O,-1.020818,-1.485951,-0.674329\O,0.15376,0.289103,0.055556\
 C,1.37399,-0.391467,-0.268473\C,1.827982,-1.308179,0.836997\H,2.126054
 ,0.42695,-0.399109\H,1.272567,-0.885118,-1.235301\H,2.811595,-1.711941
 ,0.592023\H,1.901581,-0.760787,1.777696\H,1.129649,-2.139184,0.953952\
 \Version=ES64L-G16RevA.03\State=2-A\HF=-419.9534353\S2=0.756357\S2-1=0
 .\S2A=0.750025\RMSD=5.107e-09\RMSF=1.342e-02\ZeroPoint=0.1098214\Therm
 al=0.117118\Dipole=-0.5362892,0.5483037,0.4698981\DipoleDeriv=-0.10851
 09,0.1541157,-0.0594763,0.1531341,0.1037721,0.0287778,-0.0218943,0.103
 3393,-0.4597268,0.1597035,0.079536,0.0633925,0.2321404,0.439482,-0.042
 7014,0.0805997,-0.0121023,0.3687613,-0.2400249,-0.009587,-0.0043965,0.
 0148405,-0.2105113,0.0018494,0.00053,0.001921,-0.2136757,0.268768,0.00
 58641,0.0026113,-0.0008874,0.2630819,0.0047094,0.0000942,0.0054008,0.2
 545038,-0.5552251,0.2070149,0.0951493,0.2509555,-0.2442073,-0.0856694,
 0.1240024,-0.089423,-0.0875602,2.432915,-0.0438389,-0.0040628,0.236504
 1,1.4486962,0.4849566,0.1333222,0.4805149,0.6114949,-0.7907907,0.05760
 98,0.020051,-0.144784,-0.9959386,-0.2962601,-0.0839449,-0.2867722,-0.4
 804293,-1.9822348,-0.2405512,-0.1207029,-0.1606106,-0.6119028,-0.08321
 85,-0.088759,-0.0670194,-0.4216066,1.217901,0.4776021,0.0054616,-0.007
 4423,0.7220691,-0.0801467,-0.208068,-0.2602507,0.3109907,-0.1853935,-0
 .1358923,0.0098472,-0.0150587,-0.1953157,0.0847429,-0.0117915,0.102139
 9,-0.0557325,-0.2932565,-0.5163934,0.0273012,-0.5620433,-0.8074121,0.0
 791539,-0.0123185,-0.0197979,0.1381057,-0.0323152,-0.066126,-0.0756224
 ,0.0195631,-0.0260253,-0.0386041,0.051056,0.0424393,-0.0479235,-0.0679
 012,0.0839865,0.0265379,0.0776737,0.0899671,0.0027607,0.0420797,-0.021
 5151,0.0716994,0.1175646,0.0179764,0.0016785,-0.0051768,0.0326285,-0.0
 973591,-0.0249694,-0.0352516,-0.0527133,0.0588007,-0.0713167,0.0122305
 ,-0.0888084,-0.0083836,0.0370086,0.0200611,0.056377,0.0638122\Polar=88
 .3113061,-2.7736412,76.2631865,-4.4167416,4.9590739,47.3035577\Quadrup
 ole=0.9284291,-0.1718464,-0.7565828,-8.2121734,-1.374492,-0.4247673\PG
 =C01 [X(C5H7O3)]\NImag=5\\0.38211907,-0.19620003,0.11818352,-0.1065277
 7,0.05774212,0.01984913,-0.37561886,0.20931667,0.10665796,0.37449679,0
 .19377836,-0.11215697,-0.05642005,-0.20307146,0.12190906,0.10357600,-0
 .05919656,-0.02315648,-0.10519667,0.06022428,0.02264857,0.00004308,0.0
 0016958,0.00006150,0.00003728,0.00029975,0.00002171,1.14613534,-0.0000
 5004,-0.00010538,-0.00004002,0.00005857,-0.00023774,-0.00001865,-0.672
 65205,0.48551938,-0.00001237,-0.00007128,0.00004972,0.00001517,-0.0000
 7464,-0.00011284,-0.30378463,0.18499221,0.16085715,0.00001115,-0.00002
 420,-0.00001402,-0.00005592,-0.00005353,0.00000603,-0.30716541,0.16984
 265,0.07674705,0.29564261,0.00001661,0.00002671,0.00001382,-0.00000327
 ,0.00009201,0.00000376,0.16975216,-0.13877600,-0.04633469,-0.17146481,
 0.12519937,-0.00000820,0.00001525,-0.00004173,0.00001575,0.00001072,0.
 00006050,0.07667357,-0.04631746,-0.05796045,-0.07751075,0.04758739,0.0
 4196945,0.00009218,0.00038708,0.00008511,0.00005976,0.00058220,0.00009
 167,-0.84449114,0.49845383,0.22507674,0.01097904,-0.00073280,-0.000245
 20,1.11177583,-0.00006446,-0.00016136,-0.00006296,-0.00002671,-0.00024
 407,-0.00002886,0.49992944,-0.35735253,-0.13639298,-0.00051576,0.01121
 385,-0.00125103,-0.61587681,0.51362214,0.00000254,0.00004329,-0.000001
 68,-0.00006414,-0.00004474,0.00002052,0.22563614,-0.13631512,-0.117660
 00,-0.00020012,-0.00124733,0.01372676,-0.27854021,0.18592828,0.1831641
 7,-0.00006386,-0.00233412,-0.00074339,-0.00122769,-0.00440071,-0.00035
 804,0.01183250,0.00173956,0.00085260,-0.00026566,0.00286410,0.00127425
 ,-0.21687423,0.08997691,0.04003101,0.63162545,0.00038587,-0.00001683,0
 .00011269,-0.00101970,-0.00101123,-0.00023809,0.00099357,0.01055845,-0
 .00361026,0.00214217,0.00242857,-0.00058027,0.08408426,-0.13122219,-0.
 01170650,-0.00445361,0.96054324,-0.00018948,-0.00124371,-0.00058562,-0
 .00024556,-0.00086418,0.00014949,0.00061818,-0.00365889,0.01736403,0.0
 0100381,-0.00052115,0.00335729,0.03737861,-0.01252410,-0.11151029,-0.0
 1141926,0.32157734,0.34039318,0.00008728,0.00032122,0.00020497,0.00009
 260,0.00115101,0.00001531,-0.00480602,0.00045105,0.00020130,-0.0002503
 5,-0.00087704,-0.00038944,0.00606343,0.04021118,0.01767892,-0.08888038
 ,-0.00589214,-0.00153617,0.09456075,-0.00042853,-0.00014243,0.00012426
 ,0.00080000,0.00141653,-0.00003770,-0.00024348,0.00091148,0.00122479,0
 .00031736,0.00070238,0.00065517,0.02365043,-0.04781198,-0.03231053,-0.
 01265241,-0.71539265,-0.27602721,0.03661262,0.82226317,-0.00010875,0.0
 0013952,0.00023948,0.00035482,0.00072157,-0.00004641,0.00002571,0.0013
 4420,-0.00156614,0.00011244,0.00062755,-0.00053468,0.01044268,-0.03280
 442,0.01376433,-0.00488588,-0.27770146,-0.18060825,0.01288456,0.342179
 38,0.15786632,0.00069680,0.00617708,0.00170961,0.00079216,0.00508239,0
 .00023418,-0.00232126,0.00281020,0.00123308,0.00115125,0.00024473,0.00
 006024,-0.06740445,-0.01040421,-0.00296799,-0.26795047,-0.09634534,-0.
 03894551,-0.00941565,-0.05613354,-0.02117747,0.59212653,-0.00209911,-0
 .00208337,-0.00053170,0.00156073,0.00114210,0.00046936,0.00269790,-0.0
 0139367,-0.00043363,-0.00041718,-0.00081138,-0.00017891,0.01388561,0.0
 1125296,-0.00148499,-0.06315816,-0.13739435,-0.03375078,-0.06425777,-0
 .05783547,-0.03573618,0.03868266,0.30782373,-0.00004826,-0.00030082,0.
 00095381,-0.00025791,-0.00008085,-0.00140003,0.00103229,-0.00059017,-0
 .00062066,-0.00017551,-0.00018890,-0.00038977,0.00737513,-0.00029538,0
 .01265582,-0.02292603,-0.03226091,-0.07329503,-0.02559218,-0.03578621,
 0.01520737,0.00644537,0.10399157,0.12025299,-0.02461525,-0.05121700,-0
 .00539841,0.00551161,-0.00085856,-0.00135948,0.00150649,-0.00149829,-0
 .00055496,-0.00026192,0.00033195,0.00015887,0.00292611,-0.00224412,-0.
 00185861,-0.07997958,0.00247553,0.00404170,0.00554943,0.01413863,0.006
 50134,-0.16434069,0.03587764,0.02373133,0.48966600,-0.02560095,-0.0503
 7305,-0.00500108,0.00077486,-0.00313346,-0.00086635,-0.00045326,0.0006
 7956,0.00060579,0.00011193,0.00009511,0.00008620,-0.00462524,-0.000530
 61,-0.00296732,-0.01344846,0.01863728,0.00754564,-0.00384672,-0.007458
 08,-0.00075959,0.07892331,-0.11107466,-0.02831635,0.03684173,0.5171002
 7,0.00538059,0.01099010,0.00282326,-0.00160534,0.00051060,0.00019230,-
 0.00037138,0.00085884,-0.00052166,0.00006381,0.00003579,-0.00020644,-0
 .00207123,-0.00325235,0.00678959,0.00247593,0.01164775,0.00640155,-0.0
 0017836,-0.00301024,-0.00610941,0.03443828,-0.02770973,-0.08029449,0.0
 2292482,0.03920829,0.58010761,0.00241895,0.00532829,0.00063128,-0.0008
 7632,0.00041520,0.00083014,-0.00031396,0.00021230,0.00012878,0.0001020
 5,-0.00000101,-0.00010600,-0.00111041,-0.00064636,0.00119937,0.0055323
 2,0.00723887,0.00123584,-0.00020906,-0.00259648,-0.00157625,-0.0303313
 3,0.03133459,-0.02546670,-0.07843443,0.01634487,-0.02097650,0.58639682
 ,0.00341373,0.00716339,0.00036004,-0.00064805,0.00021294,0.00078921,-0
 .00005116,-0.00009083,0.00003324,-0.00000257,-0.00001894,0.00002553,0.
 00044279,0.00037703,-0.00066362,-0.00115182,0.00032803,0.00016354,0.00
 101183,-0.00018787,0.00149328,0.01426747,-0.01260531,0.01030819,0.0248
 5020,-0.12715853,0.06135782,0.01365439,0.56159183,-0.00056657,-0.00141
 263,0.00012305,0.00019564,-0.00007334,0.00011222,0.00019967,-0.0002356
 8,0.00013037,-0.00003640,0.00001246,0.00001662,0.00008838,0.00065587,-
 0.00104780,-0.00201210,-0.00423955,-0.00066281,-0.00025369,0.00188036,
 0.00064477,0.00744369,-0.00504832,0.01170009,-0.03230177,0.06584370,-0
 .17221852,-0.02389540,0.04127329,0.55276789,0.01453861,0.02698379,0.00
 289029,-0.00286663,0.00665203,0.00254326,-0.00053330,0.00056273,0.0001
 3789,0.00009220,-0.00008799,0.00002136,-0.00184135,-0.00019202,-0.0002
 5944,0.00283549,0.00435326,0.00503357,-0.00020753,-0.00086992,-0.00074
 371,-0.04263906,-0.01424898,0.00296927,-0.10055787,-0.07606928,0.00808
 875,0.00260163,0.00122012,-0.00175682,0.12922494,0.02586215,0.03637074
 ,0.00320195,-0.00757565,-0.00886130,-0.00107343,-0.00042494,0.00027494
 ,0.00006656,0.00006207,-0.00013970,-0.00004866,-0.00069604,0.00077142,
 0.00061277,0.01018317,-0.00233649,0.00050225,-0.00280108,0.00077506,-0
 .00000778,0.00646377,0.01273116,-0.00320640,-0.05744262,-0.11584729,0.
 00037050,-0.02056355,-0.02642056,0.00500673,0.05630624,0.11689585,0.00
 025510,-0.00245227,-0.00099602,-0.00028516,-0.00390661,0.00239924,-0.0
 0002036,-0.00002210,-0.00007023,0.00000501,-0.00001264,-0.00000064,0.0
 0030711,0.00002433,0.00042640,0.00000831,-0.00293801,-0.00136383,-0.00
 150276,0.00097711,0.00068404,0.00960264,0.00506434,-0.00068326,0.01757
 308,0.01694215,-0.04533783,0.01223465,0.02051363,-0.00544409,-0.020108
 13,-0.01566810,0.04923771,0.00113382,0.00263662,0.00098328,-0.00057258
 ,0.00055843,-0.00023798,0.00002695,0.00008416,-0.00001429,0.00005351,-
 0.00005091,0.00005010,-0.00024827,-0.00009896,-0.00081741,0.00412716,0
 .00647617,0.00353122,-0.00168397,-0.00326956,-0.00084900,-0.01410943,0
 .02184918,0.03330586,-0.05093063,-0.01671967,-0.03937868,0.00120025,-0
 .00567599,-0.00772356,-0.00284496,-0.01410062,-0.01752215,0.06336648,0
 .00155876,0.00325515,0.00114628,-0.00033600,0.00060055,-0.00027714,0.0
 0007613,-0.00004159,0.00007355,-0.00001056,0.00000302,0.00000265,0.000
 25821,-0.00009595,-0.00035150,-0.00301675,-0.00069057,-0.00070743,-0.0
 0119996,0.00037872,0.00112768,0.00795456,-0.01065359,-0.01492774,-0.00
 838599,-0.10433672,-0.11383576,0.00232507,0.01096814,0.02273070,-0.006
 36696,-0.01498883,-0.02030928,0.00632668,0.11694943,-0.00152683,-0.003
 04649,-0.00000685,0.00040683,0.00003529,-0.00009984,-0.00005665,-0.000
 04935,0.00011673,-0.00001042,0.00000578,-0.00000033,0.00025844,0.00039
 414,-0.00036894,-0.00283021,-0.00349015,-0.00030019,-0.00185804,0.0017
 8907,0.00107179,0.00560866,-0.00584534,-0.00430634,-0.02605678,-0.1107
 2834,-0.26635521,-0.00416154,-0.01113692,-0.01901900,0.00217483,0.0062
 9453,0.00240454,0.02931292,0.12322283,0.28750526,0.00000026,0.00002712
 ,-0.00012076,-0.00004204,-0.00011889,-0.00000399,-0.00006250,0.0000521
 7,-0.00002868,0.00002099,-0.00001459,0.00000043,-0.00016941,-0.0000132
 0,0.00028432,0.00149825,0.00020982,0.00036660,-0.00025104,-0.00007889,
 -0.00051009,0.00012089,0.00071523,-0.00229797,-0.00975566,0.00195431,0
 .00509076,-0.27376783,0.09324735,0.05626660,0.00038877,0.00032323,0.00
 007876,0.00007770,-0.00016963,-0.00051742,0.29755542,-0.00041372,-0.00
 012039,-0.00010718,0.00006882,0.00012796,-0.00008249,0.00007014,-0.000
 02067,-0.00004925,-0.00001928,0.00000150,0.00001485,0.00026196,0.00006
 517,-0.00004926,-0.00152852,-0.00242932,-0.00043220,-0.00013366,0.0011
 4686,0.00007625,0.00430502,-0.00221725,0.00432982,0.01850909,-0.008003
 10,-0.00717115,0.09111249,-0.08493202,-0.02195111,0.00020767,0.0004358
 6,-0.00050158,-0.00021034,0.00067050,0.00004237,-0.10342687,0.09110333
 ,0.00014174,0.00012798,-0.00004691,-0.00006587,0.00001732,-0.00001778,
 -0.00009030,0.00007930,-0.00002743,0.00001346,0.00000823,-0.00001575,-
 0.00024010,-0.00028420,0.00042718,0.00109600,0.00189128,0.00008035,-0.
 00002767,-0.00073947,-0.00045309,-0.00467491,0.00440396,-0.00365264,-0
 .02299135,0.00895638,0.00679046,0.05848819,-0.02361250,-0.06374710,-0.
 00006012,-0.00048002,0.00086637,0.00029380,-0.00119029,0.00023559,-0.0
 6194970,0.02305771,0.06614116,-0.00016942,-0.00010677,-0.00026649,0.00
 008522,0.00001840,-0.00002710,0.00001183,0.00000063,0.00000635,-0.0000
 2304,0.00001081,-0.00000768,0.00007552,0.00000392,0.00004689,-0.001120
 75,-0.00115682,-0.00083586,-0.00013876,0.00084513,0.00012579,0.0015879
 4,-0.00110062,0.00087448,-0.00173281,-0.00429893,-0.01091554,-0.050467
 19,-0.01019044,-0.01466456,0.00014970,0.00048705,0.00082389,0.00020098
 ,0.00141457,-0.00140543,0.00277018,0.01554931,0.02744671,0.04976623,-0
 .00002471,0.00017748,-0.00057241,0.00015381,-0.00017516,0.00025520,-0.
 00006269,-0.00000155,-0.00002067,0.00001170,0.00000611,-0.00000844,-0.
 00003815,0.00004707,0.00024111,0.00054655,0.00019430,-0.00019555,-0.00
 026801,0.00004455,-0.00029090,-0.00258780,0.00131036,-0.00131496,0.003
 09516,0.00994499,0.02467651,-0.00992199,-0.12227637,-0.12376407,0.0000
 4864,0.00152048,-0.00028470,0.00168818,-0.00274931,0.00312587,-0.00229
 195,-0.00636991,-0.01025152,0.00940486,0.13025563,0.00011367,-0.000076
 38,0.00064101,-0.00008535,0.00015857,-0.00041539,-0.00003228,0.0000438
 1,0.00005721,-0.00000547,-0.00000751,-0.00000995,-0.00006324,0.0000453
 7,-0.00011198,-0.00018843,-0.00059282,-0.00026712,-0.00000373,0.000430
 82,0.00022893,0.00118227,-0.00060913,0.00290354,-0.00170418,-0.0134713
 8,-0.02668007,-0.01573145,-0.11996888,-0.25147794,-0.00002221,-0.00040
 561,0.00052103,-0.00124868,0.00385918,-0.00172194,-0.00154992,-0.00303
 520,-0.00541972,0.01841340,0.13058997,0.27775953,-0.00067382,-0.001465
 31,-0.00015315,0.00018462,-0.00003463,-0.00013503,0.00010010,-0.000067
 46,-0.00000403,-0.00003051,0.00001206,0.00001272,0.00016738,-0.0000388
 4,-0.00017129,-0.00108854,0.00050810,-0.00003768,-0.00051072,-0.000091
 38,-0.00059618,0.00203676,-0.00132172,0.00103084,0.00544920,0.01011150
 ,-0.00296589,-0.16274151,-0.13438786,0.01901689,0.00165935,0.00391682,
 -0.00145000,0.00020297,-0.00042813,0.00066163,-0.01838400,-0.02435210,
 0.00262012,-0.00099564,0.00024640,0.00092560,0.17462436,-0.00013391,-0
 .00001721,0.00003425,-0.00005261,0.00031879,0.00007745,-0.00010109,0.0
 0007613,-0.00000876,0.00002003,-0.00002260,-0.00001299,-0.00003733,0.0
 0006905,0.00031546,0.00083428,-0.00219623,0.00013642,-0.00048255,0.001
 18974,-0.00040912,0.00055971,0.00180873,-0.00136089,-0.01447335,-0.018
 54173,0.00532302,-0.13423667,-0.20695095,0.01932158,0.00150066,-0.0011
 8132,0.00257373,0.00050663,0.00073105,-0.00061331,0.00958478,0.0105414
 8,-0.00198416,-0.01088111,-0.01192868,0.00303918,0.14739254,0.22610374
 ,-0.00048140,-0.00125812,0.00015584,0.00015983,-0.00021396,-0.00033407
 ,0.00008683,-0.00007093,-0.00003580,0.00000107,0.00001744,0.00002912,0
 .00005611,-0.00015172,-0.00027407,-0.00037477,0.00212896,0.00084725,0.
 00035698,-0.00134960,-0.00038907,-0.00019213,-0.00260055,0.00096860,0.
 01729440,0.02292225,-0.00538115,0.01716559,0.01906416,-0.05187775,-0.0
 0090878,0.00483471,-0.00264344,0.00031456,-0.00056374,0.00084473,0.004
 89107,0.00585840,-0.00116071,-0.01961485,-0.02218546,0.00399286,-0.018
 75452,-0.02643185,0.05525766\\-0.01855904,-0.00573801,0.00219821,0.014
 26258,-0.00974243,-0.00463061,0.01757949,-0.01136554,-0.00508379,0.000
 82362,-0.00027006,-0.00013751,-0.02096836,0.01328321,0.00588291,0.0304
 5627,-0.04190723,-0.01872414,-0.00119624,0.04624738,0.01954473,-0.0073
 2018,-0.01258841,-0.00442435,-0.01782644,0.00750612,0.00593725,0.00109
 280,0.00236082,-0.00092902,0.00132229,0.00773152,0.00209246,0.00112833
 ,0.00241091,0.00072482,-0.00112126,0.00089352,-0.00023695,-0.00017258,
 -0.00051017,-0.00113696,0.00049871,0.00168836,-0.00107704\\\@


 O WAD SOME POWER THE GIFTIE GIE US       
 TO SEE OURSELS AS OTHERS SEE US.....     
 IT WOULD FRAE MONIE A BLUNDER FREE US,   
                     AND FOOLISH NOTION...
 WHAT AIRS IN DRESS AND GAIT WAD LEA'E US,
                     AND EV'N DEVOTION....
                                          
              (ROBERT BURNS 'TO A LOUSE') 
 Job cpu time:       0 days  0 hours 19 minutes  6.8 seconds.
 Elapsed time:       0 days  0 hours  0 minutes 47.8 seconds.
 File lengths (MBytes):  RWF=     59 Int=      0 D2E=      0 Chk=      8 Scr=      1
 Normal termination of Gaussian 16 at Fri Jun 20 12:32:23 2025.
