 Entering Gaussian System, Link 0=g16
 Initial command:
 /opt/g16/l1.exe "/home/aayush/scratches/g16/Gau-26897.inp" -scrdir="/home/aayush/scratches/g16/"
 Entering Link 1 = /opt/g16/l1.exe PID=     26900.
  
 Copyright (c) 1988,1990,1992,1993,1995,1998,2003,2009,2016,
            Gaussian, Inc.  All Rights Reserved.
  
 This is part of the Gaussian(R) 16 program.  It is based on
 the Gaussian(R) 09 system (copyright 2009, Gaussian, Inc.),
 the Gaussian(R) 03 system (copyright 2003, Gaussian, Inc.),
 the Gaussian(R) 98 system (copyright 1998, Gaussian, Inc.),
 the Gaussian(R) 94 system (copyright 1995, Gaussian, Inc.),
 the Gaussian 92(TM) system (copyright 1992, Gaussian, Inc.),
 the Gaussian 90(TM) system (copyright 1990, Gaussian, Inc.),
 the Gaussian 88(TM) system (copyright 1988, Gaussian, Inc.),
 the Gaussian 86(TM) system (copyright 1986, Carnegie Mellon
 University), and the Gaussian 82(TM) system (copyright 1983,
 Carnegie Mellon University). Gaussian is a federally registered
 trademark of Gaussian, Inc.
  
 This software contains proprietary and confidential information,
 including trade secrets, belonging to Gaussian, Inc.
  
 This software is provided under written license and may be
 used, copied, transmitted, or stored only in accord with that
 written license.
  
 The following legend is applicable only to US Government
 contracts under FAR:
  
                    RESTRICTED RIGHTS LEGEND
  
 Use, reproduction and disclosure by the US Government is
 subject to restrictions as set forth in subparagraphs (a)
 and (c) of the Commercial Computer Software - Restricted
 Rights clause in FAR 52.227-19.
  
 Gaussian, Inc.
 340 Quinnipiac St., Bldg. 40, Wallingford CT 06492
  
  
 ---------------------------------------------------------------
 Warning -- This program may not be used in any manner that
 competes with the business of Gaussian, Inc. or will provide
 assistance to any competitor of Gaussian, Inc.  The licensee
 of this program is prohibited from giving any competitor of
 Gaussian, Inc. access to this program.  By using this program,
 the user acknowledges that Gaussian, Inc. is engaged in the
 business of creating and licensing software in the field of
 computational chemistry and represents and warrants to the
 licensee that it is not a competitor of Gaussian, Inc. and that
 it will not use this program in any manner prohibited above.
 ---------------------------------------------------------------
  

 Cite this work as:
 Gaussian 16, Revision A.03,
 M. J. Frisch, G. W. Trucks, H. B. Schlegel, G. E. Scuseria, 
 M. A. Robb, J. R. Cheeseman, G. Scalmani, V. Barone, 
 G. A. Petersson, H. Nakatsuji, X. Li, M. Caricato, A. V. Marenich, 
 J. Bloino, B. G. Janesko, R. Gomperts, B. Mennucci, H. P. Hratchian, 
 J. V. Ortiz, A. F. Izmaylov, J. L. Sonnenberg, D. Williams-Young, 
 F. Ding, F. Lipparini, F. Egidi, J. Goings, B. Peng, A. Petrone, 
 T. Henderson, D. Ranasinghe, V. G. Zakrzewski, J. Gao, N. Rega, 
 G. Zheng, W. Liang, M. Hada, M. Ehara, K. Toyota, R. Fukuda, 
 J. Hasegawa, M. Ishida, T. Nakajima, Y. Honda, O. Kitao, H. Nakai, 
 T. Vreven, K. Throssell, J. A. Montgomery, Jr., J. E. Peralta, 
 F. Ogliaro, M. J. Bearpark, J. J. Heyd, E. N. Brothers, K. N. Kudin, 
 V. N. Staroverov, T. A. Keith, R. Kobayashi, J. Normand, 
 K. Raghavachari, A. P. Rendell, J. C. Burant, S. S. Iyengar, 
 J. Tomasi, M. Cossi, J. M. Millam, M. Klene, C. Adamo, R. Cammi, 
 J. W. Ochterski, R. L. Martin, K. Morokuma, O. Farkas, 
 J. B. Foresman, and D. J. Fox, Gaussian, Inc., Wallingford CT, 2016.
 
 ******************************************
 Gaussian 16:  ES64L-G16RevA.03 25-Dec-2016
                16-Aug-2025 
 ******************************************
 %nprocshared=24
 Will use up to   24 processors via shared memory.
 %mem=12GB
 %chk=ethyl_propiolate.chk
 --------------------------
 # freq 6-311++g(d,p) m062x
 --------------------------
 1/10=4,30=1,38=1/1,3;
 2/12=2,17=6,18=5,40=1/2;
 3/5=4,6=6,7=1111,11=2,25=1,30=1,71=2,74=-55,140=1/1,2,3;
 4//1;
 5/5=2,38=5,98=1/2;
 8/6=4,10=90,11=11/1;
 11/6=1,8=1,9=11,15=111,16=1/1,2,10;
 10/6=1/2;
 6/7=2,8=2,9=2,10=2,28=1/1;
 7/8=1,10=1,25=1/1,2,3,16;
 1/10=4,30=1/3;
 99//99;
 -------------------
 Title Card Required
 -------------------
 Symbolic Z-matrix:
 Charge =  0 Multiplicity = 2
 O                     2.71821   1.79419  -0.22315 
 H                     1.87275   2.21745   0.0079 
 C                    -3.13491   1.0203    0.42252 
 H                    -4.01578   1.56571   0.66889 
 C                    -2.14517   0.40508   0.14533 
 C                    -0.97441  -0.383    -0.2072 
 O                    -1.02227  -1.48552  -0.67357 
 O                     0.15501   0.28858   0.05398 
 C                     1.3696   -0.40829  -0.27496 
 C                     1.82488  -1.31377   0.84023 
 H                     2.12075   0.37716  -0.4435 
 H                     1.23843  -0.93006  -1.22281 
 H                     2.80858  -1.71796   0.59534 
 H                     1.90334  -0.7573    1.77527 
 H                     1.12955  -2.1449    0.96891 
 

 GradGradGradGradGradGradGradGradGradGradGradGradGradGradGradGradGradGrad
 Berny optimization.
 Initialization pass.
 Trust Radius=3.00D-01 FncErr=1.00D-07 GrdErr=1.00D-07 EigMax=2.50D+02 EigMin=1.00D-04
 Number of steps in this run=      2 maximum allowed number of steps=      2.
 GradGradGradGradGradGradGradGradGradGradGradGradGradGradGradGradGradGrad

                          Input orientation:                          
 ---------------------------------------------------------------------
 Center     Atomic      Atomic             Coordinates (Angstroms)
 Number     Number       Type             X           Y           Z
 ---------------------------------------------------------------------
      1          8           0        2.718205    1.794193   -0.223149
      2          1           0        1.872746    2.217445    0.007901
      3          6           0       -3.134908    1.020297    0.422521
      4          1           0       -4.015782    1.565709    0.668886
      5          6           0       -2.145170    0.405082    0.145326
      6          6           0       -0.974406   -0.382996   -0.207199
      7          8           0       -1.022270   -1.485517   -0.673572
      8          8           0        0.155007    0.288575    0.053981
      9          6           0        1.369596   -0.408289   -0.274964
     10          6           0        1.824878   -1.313768    0.840225
     11          1           0        2.120748    0.377162   -0.443500
     12          1           0        1.238432   -0.930063   -1.222813
     13          1           0        2.808575   -1.717957    0.595342
     14          1           0        1.903338   -0.757299    1.775271
     15          1           0        1.129546   -2.144896    0.968911
 ---------------------------------------------------------------------
                    Distance matrix (angstroms):
                    1          2          3          4          5
     1  O    0.000000
     2  H    0.973307   0.000000
     3  C    5.939254   5.165430   0.000000
     4  H    6.796654   5.961243   1.064946   0.000000
     5  C    5.071274   4.409897   1.197876   2.262821   0.000000
     6  C    4.286698   3.861973   2.652084   3.716846   1.454658
     7  O    4.995051   4.749468   3.455975   4.480322   2.346458
     8  O    2.985577   2.583271   3.390395   4.405072   2.304936
     9  C    2.583091   2.688429   4.776809   5.812901   3.632051
    10  C    3.404147   3.628294   5.497437   6.514143   4.381622
    11  H    1.553540   1.910997   5.365215   6.348783   4.306455
    12  H    3.257396   3.438578   5.063312   6.116712   3.886281
    13  H    3.607394   4.087573   6.546212   7.573620   5.408271
    14  H    3.341826   3.460294   5.511234   6.454180   4.516444
    15  H    4.411493   4.528345   5.338779   6.350827   4.231364
                    6          7          8          9         10
     6  C    0.000000
     7  O    1.198060   0.000000
     8  O    1.339700   2.250048   0.000000
     9  C    2.345118   2.653362   1.438420   0.000000
    10  C    3.130403   3.229138   2.444208   1.506924   0.000000
    11  H    3.195881   3.660747   2.029648   1.099803   2.143533
    12  H    2.495477   2.391855   2.071012   1.089894   2.178824
    13  H    4.091105   4.042220   3.370559   2.131507   1.091328
    14  H    3.514499   3.884111   2.667087   2.147126   1.090928
    15  H    2.985656   2.786188   2.776437   2.149570   1.091247
                   11         12         13         14         15
    11  H    0.000000
    12  H    1.759161   0.000000
    13  H    2.437585   2.528204   0.000000
    14  H    2.501442   3.075785   1.770466   0.000000
    15  H    3.055841   2.508252   1.772278   1.781683   0.000000
 Stoichiometry    C5H7O3(2)
 Framework group  C1[X(C5H7O3)]
 Deg. of freedom    39
 Full point group                 C1      NOp   1
 Largest Abelian subgroup         C1      NOp   1
 Largest concise Abelian subgroup C1      NOp   1
                         Standard orientation:                         
 ---------------------------------------------------------------------
 Center     Atomic      Atomic             Coordinates (Angstroms)
 Number     Number       Type             X           Y           Z
 ---------------------------------------------------------------------
      1          8           0        2.666537    1.796938   -0.242223
      2          1           0        1.822443    2.222907   -0.011173
      3          6           0       -3.189035    1.041868    0.403447
      4          1           0       -4.068150    1.590109    0.649812
      5          6           0       -2.201280    0.423473    0.126252
      6          6           0       -1.033056   -0.368366   -0.226273
      7          8           0       -1.084465   -1.470727   -0.692646
      8          8           0        0.098511    0.299570    0.034907
      9          6           0        1.310852   -0.401196   -0.294038
     10          6           0        1.763220   -1.308134    0.821151
     11          1           0        2.064526    0.381836   -0.462574
     12          1           0        1.178011   -0.922545   -1.241887
     13          1           0        2.745612   -1.715484    0.576268
     14          1           0        1.843469   -0.751920    1.756197
     15          1           0        1.065219   -2.137022    0.949837
 ---------------------------------------------------------------------
 Rotational constants (GHZ):           2.9694294           1.1267195           0.8948182
 Standard basis: 6-311++G(d,p) (5D, 7F)
 There are   233 symmetry adapted cartesian basis functions of A   symmetry.
 There are   225 symmetry adapted basis functions of A   symmetry.
   225 basis functions,   351 primitive gaussians,   233 cartesian basis functions
    31 alpha electrons       30 beta electrons
       nuclear repulsion energy       347.6033548796 Hartrees.
 NAtoms=   15 NActive=   15 NUniq=   15 SFac= 1.00D+00 NAtFMM=   60 NAOKFM=F Big=F
 Integral buffers will be    131072 words long.
 Raffenetti 2 integral format.
 Two-electron integral symmetry is turned on.
 One-electron integrals computed using PRISM.
 NBasis=   225 RedAO= T EigKep=  7.67D-06  NBF=   225
 NBsUse=   224 1.00D-06 EigRej=  7.94D-07 NBFU=   224
 ExpMin= 3.60D-02 ExpMax= 8.59D+03 ExpMxC= 1.30D+03 IAcc=3 IRadAn=         5 AccDes= 0.00D+00
 Harris functional with IExCor= 1009 and IRadAn=       5 diagonalized for initial guess.
 HarFok:  IExCor= 1009 AccDes= 0.00D+00 IRadAn=         5 IDoV= 1 UseB2=F ITyADJ=14
 ICtDFT=  3500011 ScaDFX=  1.000000  1.000000  1.000000  1.000000
 FoFCou: FMM=F IPFlag=           0 FMFlag=      100000 FMFlg1=           0
         NFxFlg=           0 DoJE=T BraDBF=F KetDBF=T FulRan=T
         wScrn=  0.000000 ICntrl=       500 IOpCl=  0 I1Cent=   200000004 NGrid=           0
         NMat0=    1 NMatS0=      1 NMatT0=    0 NMatD0=    1 NMtDS0=    0 NMtDT0=    0
 Petite list used in FoFCou.
 Initial guess <Sx>= 0.0000 <Sy>= 0.0000 <Sz>= 0.5000 <S**2>= 0.7500 S= 0.5000
 Requested convergence on RMS density matrix=1.00D-08 within 128 cycles.
 Requested convergence on MAX density matrix=1.00D-06.
 Requested convergence on             energy=1.00D-06.
 No special actions if energy rises.
 Restarting incremental Fock formation.
 SCF Done:  E(UM062X) =  -420.201253559     A.U. after   21 cycles
            NFock= 21  Conv=0.39D-08     -V/T= 2.0031
 <Sx>= 0.0000 <Sy>= 0.0000 <Sz>= 0.5000 <S**2>= 0.7555 S= 0.5027
 <L.S>=  0.00000000000    
 Annihilation of the first spin contaminant:
 S**2 before annihilation     0.7555,   after     0.7500
 DoSCS=F DFT=T ScalE2(SS,OS)=  1.000000  1.000000
 Range of M.O.s used for correlation:     1   224
 NBasis=   225 NAE=    31 NBE=    30 NFC=     0 NFV=     0
 NROrb=    224 NOA=    31 NOB=    30 NVA=   193 NVB=   194

 **** Warning!!: The largest alpha MO coefficient is  0.11025049D+03


 **** Warning!!: The largest beta MO coefficient is  0.10141259D+03

 Symmetrizing basis deriv contribution to polar:
 IMax=3 JMax=2 DiffMx= 0.00D+00
 G2DrvN: will do    16 centers at a time, making    1 passes.
 Calling FoFCou, ICntrl=  3107 FMM=F I1Cent=   0 AccDes= 0.00D+00.
 End of G2Drv F.D. properties file   721 does not exist.
 End of G2Drv F.D. properties file   722 does not exist.
 End of G2Drv F.D. properties file   788 does not exist.
          IDoAtm=111111111111111
          Differentiating once with respect to electric field.
                with respect to dipole field.
          Differentiating once with respect to nuclear coordinates.
 Keep R1 and R2 ints in memory in canonical form, NReq=671901989.
          There are    48 degrees of freedom in the 1st order CPHF.  IDoFFX=6 NUNeed=     3.
     45 vectors produced by pass  0 Test12= 2.46D-14 2.08D-09 XBig12= 8.73D+01 3.23D+00.
 AX will form    45 AO Fock derivatives at one time.
     45 vectors produced by pass  1 Test12= 2.46D-14 2.08D-09 XBig12= 1.77D+01 7.01D-01.
     45 vectors produced by pass  2 Test12= 2.46D-14 2.08D-09 XBig12= 5.94D-01 1.24D-01.
     45 vectors produced by pass  3 Test12= 2.46D-14 2.08D-09 XBig12= 8.64D-03 1.37D-02.
     45 vectors produced by pass  4 Test12= 2.46D-14 2.08D-09 XBig12= 7.01D-05 9.04D-04.
     45 vectors produced by pass  5 Test12= 2.46D-14 2.08D-09 XBig12= 4.77D-07 1.05D-04.
     42 vectors produced by pass  6 Test12= 2.46D-14 2.08D-09 XBig12= 3.31D-09 6.41D-06.
     18 vectors produced by pass  7 Test12= 2.46D-14 2.08D-09 XBig12= 2.02D-11 5.50D-07.
      3 vectors produced by pass  8 Test12= 2.46D-14 2.08D-09 XBig12= 1.86D-13 3.76D-08.
      2 vectors produced by pass  9 Test12= 2.46D-14 2.08D-09 XBig12= 1.94D-15 4.34D-09.
 InvSVY:  IOpt=1 It=  1 EMax= 7.11D-15
 Solved reduced A of dimension   335 with    48 vectors.
 Isotropic polarizability for W=    0.000000       72.80 Bohr**3.
 End of Minotr F.D. properties file   721 does not exist.
 End of Minotr F.D. properties file   722 does not exist.
 End of Minotr F.D. properties file   788 does not exist.

 **********************************************************************

            Population analysis using the SCF density.

 **********************************************************************

 Orbital symmetries:
 Alpha Orbitals:
       Occupied  (A) (A) (A) (A) (A) (A) (A) (A) (A) (A) (A) (A)
                 (A) (A) (A) (A) (A) (A) (A) (A) (A) (A) (A) (A)
                 (A) (A) (A) (A) (A) (A) (A)
       Virtual   (A) (A) (A) (A) (A) (A) (A) (A) (A) (A) (A) (A)
                 (A) (A) (A) (A) (A) (A) (A) (A) (A) (A) (A) (A)
                 (A) (A) (A) (A) (A) (A) (A) (A) (A) (A) (A) (A)
                 (A) (A) (A) (A) (A) (A) (A) (A) (A) (A) (A) (A)
                 (A) (A) (A) (A) (A) (A) (A) (A) (A) (A) (A) (A)
                 (A) (A) (A) (A) (A) (A) (A) (A) (A) (A) (A) (A)
                 (A) (A) (A) (A) (A) (A) (A) (A) (A) (A) (A) (A)
                 (A) (A) (A) (A) (A) (A) (A) (A) (A) (A) (A) (A)
                 (A) (A) (A) (A) (A) (A) (A) (A) (A) (A) (A) (A)
                 (A) (A) (A) (A) (A) (A) (A) (A) (A) (A) (A) (A)
                 (A) (A) (A) (A) (A) (A) (A) (A) (A) (A) (A) (A)
                 (A) (A) (A) (A) (A) (A) (A) (A) (A) (A) (A) (A)
                 (A) (A) (A) (A) (A) (A) (A) (A) (A) (A) (A) (A)
                 (A) (A) (A) (A) (A) (A) (A) (A) (A) (A) (A) (A)
                 (A) (A) (A) (A) (A) (A) (A) (A) (A) (A) (A) (A)
                 (A) (A) (A) (A) (A) (A) (A) (A) (A) (A) (A) (A)
                 (A)
 Beta  Orbitals:
       Occupied  (A) (A) (A) (A) (A) (A) (A) (A) (A) (A) (A) (A)
                 (A) (A) (A) (A) (A) (A) (A) (A) (A) (A) (A) (A)
                 (A) (A) (A) (A) (A) (A)
       Virtual   (A) (A) (A) (A) (A) (A) (A) (A) (A) (A) (A) (A)
                 (A) (A) (A) (A) (A) (A) (A) (A) (A) (A) (A) (A)
                 (A) (A) (A) (A) (A) (A) (A) (A) (A) (A) (A) (A)
                 (A) (A) (A) (A) (A) (A) (A) (A) (A) (A) (A) (A)
                 (A) (A) (A) (A) (A) (A) (A) (A) (A) (A) (A) (A)
                 (A) (A) (A) (A) (A) (A) (A) (A) (A) (A) (A) (A)
                 (A) (A) (A) (A) (A) (A) (A) (A) (A) (A) (A) (A)
                 (A) (A) (A) (A) (A) (A) (A) (A) (A) (A) (A) (A)
                 (A) (A) (A) (A) (A) (A) (A) (A) (A) (A) (A) (A)
                 (A) (A) (A) (A) (A) (A) (A) (A) (A) (A) (A) (A)
                 (A) (A) (A) (A) (A) (A) (A) (A) (A) (A) (A) (A)
                 (A) (A) (A) (A) (A) (A) (A) (A) (A) (A) (A) (A)
                 (A) (A) (A) (A) (A) (A) (A) (A) (A) (A) (A) (A)
                 (A) (A) (A) (A) (A) (A) (A) (A) (A) (A) (A) (A)
                 (A) (A) (A) (A) (A) (A) (A) (A) (A) (A) (A) (A)
                 (A) (A) (A) (A) (A) (A) (A) (A) (A) (A) (A) (A)
                 (A) (A)
 The electronic state is 2-A.
 Alpha  occ. eigenvalues --  -19.69388 -19.68587 -19.64044 -10.71480 -10.61152
 Alpha  occ. eigenvalues --  -10.57683 -10.57258 -10.54175  -1.26596  -1.17346
 Alpha  occ. eigenvalues --   -1.14664  -0.91168  -0.87660  -0.78700  -0.71453
 Alpha  occ. eigenvalues --   -0.65612  -0.61940  -0.59916  -0.57836  -0.57032
 Alpha  occ. eigenvalues --   -0.55347  -0.50147  -0.49965  -0.47193  -0.45316
 Alpha  occ. eigenvalues --   -0.43765  -0.40843  -0.40207  -0.38387  -0.37845
 Alpha  occ. eigenvalues --   -0.36941
 Alpha virt. eigenvalues --   -0.02253  -0.00595   0.00655   0.01344   0.01967
 Alpha virt. eigenvalues --    0.03366   0.03561   0.04713   0.06010   0.06124
 Alpha virt. eigenvalues --    0.06644   0.07415   0.08187   0.09567   0.10367
 Alpha virt. eigenvalues --    0.11403   0.11860   0.12529   0.12827   0.13028
 Alpha virt. eigenvalues --    0.14117   0.14389   0.15238   0.15870   0.16638
 Alpha virt. eigenvalues --    0.17730   0.18192   0.18599   0.19481   0.20176
 Alpha virt. eigenvalues --    0.21450   0.22302   0.23821   0.24634   0.25616
 Alpha virt. eigenvalues --    0.26437   0.27504   0.27854   0.28757   0.29910
 Alpha virt. eigenvalues --    0.30771   0.31174   0.32168   0.32786   0.33920
 Alpha virt. eigenvalues --    0.34470   0.35465   0.36997   0.37932   0.40778
 Alpha virt. eigenvalues --    0.42895   0.44498   0.46878   0.47991   0.50855
 Alpha virt. eigenvalues --    0.51072   0.53528   0.56326   0.57775   0.59973
 Alpha virt. eigenvalues --    0.60858   0.63190   0.64725   0.67116   0.67789
 Alpha virt. eigenvalues --    0.68356   0.69939   0.71055   0.72669   0.74086
 Alpha virt. eigenvalues --    0.75246   0.77011   0.79956   0.82125   0.84286
 Alpha virt. eigenvalues --    0.88956   0.93166   0.95979   1.00276   1.03562
 Alpha virt. eigenvalues --    1.07021   1.08137   1.10677   1.11551   1.14189
 Alpha virt. eigenvalues --    1.15503   1.17154   1.17811   1.18602   1.21361
 Alpha virt. eigenvalues --    1.23219   1.24042   1.28733   1.30036   1.34450
 Alpha virt. eigenvalues --    1.35777   1.36636   1.38063   1.40689   1.43354
 Alpha virt. eigenvalues --    1.47896   1.49164   1.49902   1.53482   1.59151
 Alpha virt. eigenvalues --    1.60244   1.60991   1.62379   1.63614   1.65681
 Alpha virt. eigenvalues --    1.67019   1.67853   1.69852   1.74414   1.76820
 Alpha virt. eigenvalues --    1.80780   1.83909   1.85201   1.89274   1.90643
 Alpha virt. eigenvalues --    1.96382   2.00705   2.02538   2.05700   2.07931
 Alpha virt. eigenvalues --    2.10204   2.14254   2.21178   2.30047   2.34361
 Alpha virt. eigenvalues --    2.41887   2.48007   2.50794   2.51240   2.53892
 Alpha virt. eigenvalues --    2.57334   2.60299   2.61068   2.63289   2.64682
 Alpha virt. eigenvalues --    2.66191   2.69548   2.71992   2.73128   2.79141
 Alpha virt. eigenvalues --    2.82093   2.82411   2.86134   2.91940   2.93989
 Alpha virt. eigenvalues --    2.98225   3.01427   3.03742   3.05860   3.09413
 Alpha virt. eigenvalues --    3.12412   3.13936   3.15677   3.20799   3.23958
 Alpha virt. eigenvalues --    3.29185   3.33244   3.35076   3.37667   3.43300
 Alpha virt. eigenvalues --    3.56591   3.65973   3.73246   3.81914   3.85723
 Alpha virt. eigenvalues --    3.86341   3.93109   4.05552   4.12672   4.18405
 Alpha virt. eigenvalues --    4.27886   5.05176   5.11404   5.13196   5.16780
 Alpha virt. eigenvalues --    5.31067   5.45925   5.54388   5.72031   5.93956
 Alpha virt. eigenvalues --   23.62149  23.93748  23.94443  24.05514  25.17262
 Alpha virt. eigenvalues --   49.93424  49.98819  50.10406
  Beta  occ. eigenvalues --  -19.69394 -19.67074 -19.64040 -10.71475 -10.60953
  Beta  occ. eigenvalues --  -10.57683 -10.57258 -10.54178  -1.26564  -1.17283
  Beta  occ. eigenvalues --   -1.07570  -0.90918  -0.87414  -0.78604  -0.70861
  Beta  occ. eigenvalues --   -0.65444  -0.61727  -0.59299  -0.57244  -0.55048
  Beta  occ. eigenvalues --   -0.52659  -0.49893  -0.47493  -0.45957  -0.42413
  Beta  occ. eigenvalues --   -0.40412  -0.40189  -0.39364  -0.37841  -0.36930
  Beta virt. eigenvalues --   -0.10699  -0.02238  -0.00412   0.00711   0.01598
  Beta virt. eigenvalues --    0.02050   0.03391   0.03583   0.04887   0.06083
  Beta virt. eigenvalues --    0.06180   0.06702   0.07538   0.08225   0.09751
  Beta virt. eigenvalues --    0.10490   0.11637   0.12101   0.12615   0.13041
  Beta virt. eigenvalues --    0.13162   0.14209   0.14490   0.15289   0.16051
  Beta virt. eigenvalues --    0.16721   0.17828   0.18235   0.18627   0.19788
  Beta virt. eigenvalues --    0.20201   0.21449   0.22406   0.23306   0.24391
  Beta virt. eigenvalues --    0.25600   0.26569   0.27640   0.28049   0.28874
  Beta virt. eigenvalues --    0.30103   0.30939   0.31458   0.32315   0.32832
  Beta virt. eigenvalues --    0.34025   0.34800   0.35572   0.37704   0.38126
  Beta virt. eigenvalues --    0.41304   0.43044   0.44593   0.46919   0.48073
  Beta virt. eigenvalues --    0.50887   0.51147   0.53719   0.56374   0.58015
  Beta virt. eigenvalues --    0.60251   0.61034   0.63237   0.64834   0.67196
  Beta virt. eigenvalues --    0.67863   0.68796   0.70206   0.71247   0.72724
  Beta virt. eigenvalues --    0.74115   0.75290   0.77098   0.80130   0.82276
  Beta virt. eigenvalues --    0.84304   0.89038   0.93283   0.96044   1.00864
  Beta virt. eigenvalues --    1.04001   1.07362   1.08863   1.10721   1.13232
  Beta virt. eigenvalues --    1.14547   1.15824   1.17193   1.18132   1.20301
  Beta virt. eigenvalues --    1.21869   1.23404   1.24256   1.28875   1.30150
  Beta virt. eigenvalues --    1.34719   1.35932   1.36831   1.38543   1.40987
  Beta virt. eigenvalues --    1.43399   1.48331   1.49777   1.50430   1.54737
  Beta virt. eigenvalues --    1.59254   1.60341   1.61030   1.62624   1.63621
  Beta virt. eigenvalues --    1.65813   1.67354   1.68061   1.70018   1.74350
  Beta virt. eigenvalues --    1.77185   1.80863   1.83913   1.85252   1.89880
  Beta virt. eigenvalues --    1.90790   1.96478   2.00828   2.02426   2.05760
  Beta virt. eigenvalues --    2.08991   2.10419   2.14470   2.21327   2.30366
  Beta virt. eigenvalues --    2.34359   2.41892   2.48230   2.50837   2.51308
  Beta virt. eigenvalues --    2.54019   2.57329   2.60511   2.61304   2.63455
  Beta virt. eigenvalues --    2.64838   2.66269   2.69560   2.71995   2.73228
  Beta virt. eigenvalues --    2.79270   2.82152   2.82583   2.89355   2.92888
  Beta virt. eigenvalues --    2.95323   2.98257   3.01555   3.03749   3.05871
  Beta virt. eigenvalues --    3.09531   3.13048   3.17333   3.17999   3.21005
  Beta virt. eigenvalues --    3.24175   3.30065   3.33332   3.36679   3.37865
  Beta virt. eigenvalues --    3.43330   3.56596   3.65988   3.73337   3.83105
  Beta virt. eigenvalues --    3.86214   3.87094   3.94238   4.05766   4.12765
  Beta virt. eigenvalues --    4.18444   4.28158   5.06858   5.13017   5.16448
  Beta virt. eigenvalues --    5.20288   5.31094   5.46155   5.56568   5.72064
  Beta virt. eigenvalues --    5.93962  23.62149  23.93769  23.94495  24.05518
  Beta virt. eigenvalues --   25.17263  49.92953  49.98825  50.10404
          Condensed to atoms (all electrons):
               1          2          3          4          5          6
     1  O    7.987693   0.270908  -0.000953  -0.000034   0.009211  -0.002228
     2  H    0.270908   0.476109  -0.000377  -0.000136  -0.000641  -0.001323
     3  C   -0.000953  -0.000377   5.817933   0.448243  -0.496331   0.962611
     4  H   -0.000034  -0.000136   0.448243   0.426391  -0.076388   0.024681
     5  C    0.009211  -0.000641  -0.496331  -0.076388   8.137851  -2.208361
     6  C   -0.002228  -0.001323   0.962611   0.024681  -2.208361   7.527326
     7  O   -0.000383  -0.000541  -0.096002  -0.003161   0.115894   0.362352
     8  O    0.012408   0.007111  -0.094822  -0.005308  -0.269263   0.049980
     9  C    0.000852   0.007799   0.048786   0.000732  -0.249134   0.069076
    10  C   -0.015509   0.014088  -0.012951  -0.001237  -0.067881  -0.082315
    11  H   -0.004743  -0.036018   0.005189   0.000420  -0.015319   0.011332
    12  H    0.002373  -0.000723  -0.002927  -0.000093   0.015796   0.001825
    13  H   -0.002303   0.001972  -0.000678  -0.000032  -0.000402  -0.004252
    14  H    0.005125  -0.001496   0.000045   0.000009   0.007573   0.005527
    15  H   -0.003105   0.000121   0.004511   0.000052  -0.031313   0.006686
               7          8          9         10         11         12
     1  O   -0.000383   0.012408   0.000852  -0.015509  -0.004743   0.002373
     2  H   -0.000541   0.007111   0.007799   0.014088  -0.036018  -0.000723
     3  C   -0.096002  -0.094822   0.048786  -0.012951   0.005189  -0.002927
     4  H   -0.003161  -0.005308   0.000732  -0.001237   0.000420  -0.000093
     5  C    0.115894  -0.269263  -0.249134  -0.067881  -0.015319   0.015796
     6  C    0.362352   0.049980   0.069076  -0.082315   0.011332   0.001825
     7  O    7.986492  -0.145407   0.073154  -0.090378   0.012983  -0.014291
     8  O   -0.145407   8.385160   0.178239   0.008629  -0.091901  -0.022166
     9  C    0.073154   0.178239   5.904488  -0.308261   0.409200   0.427636
    10  C   -0.090378   0.008629  -0.308261   5.875585  -0.119022  -0.061201
    11  H    0.012983  -0.091901   0.409200  -0.119022   0.639702  -0.053561
    12  H   -0.014291  -0.022166   0.427636  -0.061201  -0.053561   0.497461
    13  H   -0.002481   0.020473  -0.052318   0.421046  -0.016948  -0.005902
    14  H    0.000288  -0.008817  -0.028701   0.396771  -0.013765   0.004773
    15  H    0.003585  -0.018374  -0.006329   0.381044   0.019160  -0.007556
              13         14         15
     1  O   -0.002303   0.005125  -0.003105
     2  H    0.001972  -0.001496   0.000121
     3  C   -0.000678   0.000045   0.004511
     4  H   -0.000032   0.000009   0.000052
     5  C   -0.000402   0.007573  -0.031313
     6  C   -0.004252   0.005527   0.006686
     7  O   -0.002481   0.000288   0.003585
     8  O    0.020473  -0.008817  -0.018374
     9  C   -0.052318  -0.028701  -0.006329
    10  C    0.421046   0.396771   0.381044
    11  H   -0.016948  -0.013765   0.019160
    12  H   -0.005902   0.004773  -0.007556
    13  H    0.528705  -0.031402  -0.030643
    14  H   -0.031402   0.537680  -0.049020
    15  H   -0.030643  -0.049020   0.545142
          Atomic-Atomic Spin Densities.
               1          2          3          4          5          6
     1  O    0.950015   0.009879  -0.000318  -0.000005   0.003869  -0.000528
     2  H    0.009879  -0.031830   0.000215   0.000003  -0.001244   0.000024
     3  C   -0.000318   0.000215   0.005429   0.000722  -0.014800   0.007828
     4  H   -0.000005   0.000003   0.000722   0.000108  -0.001952   0.001052
     5  C    0.003869  -0.001244  -0.014800  -0.001952   0.035886  -0.012645
     6  C   -0.000528   0.000024   0.007828   0.001052  -0.012645   0.000017
     7  O    0.000088  -0.000024  -0.001254  -0.000026   0.006426  -0.003948
     8  O    0.023510  -0.002120   0.002355   0.000037  -0.010758   0.010286
     9  C   -0.070147   0.006685  -0.000076  -0.000015  -0.007145  -0.003499
    10  C    0.023015  -0.002823  -0.001653  -0.000029   0.013001  -0.004047
    11  H   -0.059399   0.003119   0.001295   0.000080  -0.006032   0.005762
    12  H    0.002748  -0.000113   0.000145  -0.000009  -0.000990   0.000072
    13  H   -0.000123   0.000065   0.000032   0.000002  -0.000169   0.000201
    14  H    0.001848  -0.000327  -0.000032  -0.000012  -0.000207  -0.000144
    15  H   -0.001215   0.000154   0.000005   0.000014   0.000240  -0.000186
               7          8          9         10         11         12
     1  O    0.000088   0.023510  -0.070147   0.023015  -0.059399   0.002748
     2  H   -0.000024  -0.002120   0.006685  -0.002823   0.003119  -0.000113
     3  C   -0.001254   0.002355  -0.000076  -0.001653   0.001295   0.000145
     4  H   -0.000026   0.000037  -0.000015  -0.000029   0.000080  -0.000009
     5  C    0.006426  -0.010758  -0.007145   0.013001  -0.006032  -0.000990
     6  C   -0.003948   0.010286  -0.003499  -0.004047   0.005762   0.000072
     7  O    0.001230   0.000531   0.000675  -0.000773  -0.001872   0.000358
     8  O    0.000531   0.009748  -0.031386   0.006523  -0.015003   0.001759
     9  C    0.000675  -0.031386   0.210859  -0.001544   0.067152  -0.011450
    10  C   -0.000773   0.006523  -0.001544  -0.017401  -0.022015   0.005637
    11  H   -0.001872  -0.015003   0.067152  -0.022015  -0.006291   0.002068
    12  H    0.000358   0.001759  -0.011450   0.005637   0.002068   0.001878
    13  H   -0.000040   0.000101  -0.001601   0.002208  -0.001364  -0.000101
    14  H    0.000251   0.000983  -0.007161   0.005764  -0.000084  -0.000148
    15  H   -0.000602   0.000083   0.004326  -0.003202  -0.000360  -0.000588
              13         14         15
     1  O   -0.000123   0.001848  -0.001215
     2  H    0.000065  -0.000327   0.000154
     3  C    0.000032  -0.000032   0.000005
     4  H    0.000002  -0.000012   0.000014
     5  C   -0.000169  -0.000207   0.000240
     6  C    0.000201  -0.000144  -0.000186
     7  O   -0.000040   0.000251  -0.000602
     8  O    0.000101   0.000983   0.000083
     9  C   -0.001601  -0.007161   0.004326
    10  C    0.002208   0.005764  -0.003202
    11  H   -0.001364  -0.000084  -0.000360
    12  H   -0.000101  -0.000148  -0.000588
    13  H    0.000565  -0.000273  -0.000068
    14  H   -0.000273   0.000848  -0.000684
    15  H   -0.000068  -0.000684   0.009218
 Mulliken charges and spin densities:
               1          2
     1  O   -0.259311   0.883237
     2  H    0.263145  -0.018338
     3  C   -0.582277  -0.000106
     4  H    0.185862  -0.000032
     5  C    1.128709   0.003480
     6  C   -0.722917   0.000243
     7  O   -0.202104   0.001021
     8  O   -0.005940  -0.003351
     9  C   -0.475220   0.155672
    10  C   -0.338407   0.002659
    11  H    0.253290  -0.032946
    12  H    0.218557   0.001267
    13  H    0.175165  -0.000564
    14  H    0.175410   0.000623
    15  H    0.186038   0.007136
 Sum of Mulliken charges =  -0.00000   1.00000
 Mulliken charges and spin densities with hydrogens summed into heavy atoms:
               1          2
     1  O    0.003834   0.864899
     3  C   -0.396415  -0.000138
     5  C    1.128709   0.003480
     6  C   -0.722917   0.000243
     7  O   -0.202104   0.001021
     8  O   -0.005940  -0.003351
     9  C   -0.003373   0.123993
    10  C    0.198206   0.009853
 APT charges:
               1
     1  O   -0.189993
     2  H    0.315788
     3  C   -0.184911
     4  H    0.236705
     5  C   -0.305077
     6  C    1.522860
     7  O   -0.785147
     8  O   -1.003949
     9  C    0.705040
    10  C   -0.105106
    11  H   -0.239224
    12  H   -0.034319
    13  H    0.020155
    14  H    0.019506
    15  H    0.027671
 Sum of APT charges =  -0.00000
 APT charges with hydrogens summed into heavy atoms:
               1
     1  O    0.125795
     3  C    0.051794
     5  C   -0.305077
     6  C    1.522860
     7  O   -0.785147
     8  O   -1.003949
     9  C    0.431497
    10  C   -0.037773
 Electronic spatial extent (au):  <R**2>=           1269.4367
 Charge=              0.0000 electrons
 Dipole moment (field-independent basis, Debye):
    X=             -0.9486    Y=              1.4898    Z=              1.1463  Tot=              2.1055
 Quadrupole moment (field-independent basis, Debye-Ang):
   XX=            -44.9985   YY=            -47.1811   ZZ=            -48.3898
   XY=            -10.2434   XZ=             -2.0501   YZ=             -0.3235
 Traceless Quadrupole moment (field-independent basis, Debye-Ang):
   XX=              1.8580   YY=             -0.3246   ZZ=             -1.5333
   XY=            -10.2434   XZ=             -2.0501   YZ=             -0.3235
 Octapole moment (field-independent basis, Debye-Ang**2):
  XXX=            -47.5928  YYY=             18.9014  ZZZ=             -3.3572  XYY=              3.2750
  XXY=             10.7506  XXZ=             11.8241  XZZ=              4.6112  YZZ=             -0.0300
  YYZ=              5.9541  XYZ=              1.0019
 Hexadecapole moment (field-independent basis, Debye-Ang**3):
 XXXX=          -1016.5632 YYYY=           -374.4138 ZZZZ=           -125.2929 XXXY=           -131.6221
 XXXZ=            -38.0674 YYYX=             14.2057 YYYZ=              2.2972 ZZZX=              3.0989
 ZZZY=              3.7801 XXYY=           -235.7686 XXZZ=           -217.4893 YYZZ=            -92.8702
 XXYZ=             22.6433 YYXZ=             -5.6855 ZZXY=              1.1996
 N-N= 3.476033548796D+02 E-N=-1.679602102532D+03  KE= 4.188994542412D+02
  Exact polarizability:  90.860  -5.681  76.336  -3.993   4.275  51.218
 Approx polarizability:  93.604 -10.211  88.134  -6.520  10.606  60.412
                          Isotropic Fermi Contact Couplings
        Atom                 a.u.       MegaHertz       Gauss      10(-4) cm-1
     1  O(17)              0.12462     -75.54635     -26.95681     -25.19955
     2  H(1)              -0.01464     -65.43566     -23.34907     -21.82699
     3  C(13)              0.00005       0.06137       0.02190       0.02047
     4  H(1)              -0.00000      -0.01618      -0.00577      -0.00540
     5  C(13)             -0.00032      -0.35945      -0.12826      -0.11990
     6  C(13)              0.00373       4.19240       1.49595       1.39843
     7  O(17)              0.00121      -0.73306      -0.26157      -0.24452
     8  O(17)             -0.00090       0.54414       0.19416       0.18151
     9  C(13)              0.08288      93.17273      33.24635      31.07908
    10  C(13)             -0.00234      -2.62731      -0.93749      -0.87638
    11  H(1)              -0.00352     -15.73146      -5.61338      -5.24745
    12  H(1)               0.00127       5.68900       2.02998       1.89765
    13  H(1)               0.00034       1.53014       0.54599       0.51040
    14  H(1)               0.00052       2.30589       0.82280       0.76916
    15  H(1)               0.00401      17.91348       6.39198       5.97529
 --------------------------------------------------------
       Center         ----  Spin Dipole Couplings  ----
                      3XX-RR        3YY-RR        3ZZ-RR
 --------------------------------------------------------
     1   Atom       -0.604118      2.306687     -1.702569
     2   Atom        0.106682     -0.001994     -0.104688
     3   Atom        0.001336     -0.000796     -0.000540
     4   Atom        0.000944     -0.000464     -0.000479
     5   Atom        0.002397     -0.000952     -0.001445
     6   Atom        0.006741     -0.002667     -0.004075
     7   Atom        0.003365     -0.003229     -0.000136
     8   Atom        0.003049     -0.000063     -0.002986
     9   Atom        0.017748      0.097421     -0.115169
    10   Atom       -0.007503      0.008421     -0.000918
    11   Atom       -0.015628      0.087681     -0.072053
    12   Atom       -0.009836      0.001167      0.008669
    13   Atom       -0.002115      0.005439     -0.003324
    14   Atom       -0.004378      0.000866      0.003513
    15   Atom       -0.001726      0.003088     -0.001362
 --------------------------------------------------------
                        XY            XZ            YZ
 --------------------------------------------------------
     1   Atom        2.148512      0.202230      0.378394
     2   Atom       -0.076014     -0.054990      0.035936
     3   Atom        0.000117     -0.000082      0.000307
     4   Atom       -0.000080     -0.000201      0.000028
     5   Atom        0.000353     -0.000380     -0.000119
     6   Atom        0.003160      0.001385      0.000794
     7   Atom        0.003670     -0.005225     -0.000727
     8   Atom        0.018351     -0.001624     -0.008504
     9   Atom        0.171996     -0.017378     -0.021846
    10   Atom        0.003547     -0.001528     -0.010878
    11   Atom        0.092121     -0.000781      0.009659
    12   Atom        0.008574      0.002107      0.011636
    13   Atom       -0.002483      0.001548     -0.003369
    14   Atom        0.001855     -0.000508     -0.005550
    15   Atom        0.002476     -0.000238     -0.002853
 --------------------------------------------------------


 ---------------------------------------------------------------------------------
              Anisotropic Spin Dipole Couplings in Principal Axis System
 ---------------------------------------------------------------------------------

       Atom             a.u.   MegaHertz   Gauss  10(-4) cm-1        Axes

              Baa    -1.7441   126.199    45.031    42.096  0.8707 -0.4416 -0.2167
     1 O(17)  Bbb    -1.7378   125.744    44.869    41.944  0.1544 -0.1730  0.9727
              Bcc     3.4818  -251.944   -89.900   -84.039  0.4670  0.8804  0.0825
 
              Baa    -0.1213   -64.695   -23.085   -21.580  0.1731 -0.1814  0.9681
     2 H(1)   Bbb    -0.0406   -21.642    -7.723    -7.219  0.4801  0.8737  0.0779
              Bcc     0.1618    86.337    30.807    28.799  0.8600 -0.4513 -0.2383
 
              Baa    -0.0010    -0.135    -0.048    -0.045 -0.0608  0.8303 -0.5540
     3 C(13)  Bbb    -0.0003    -0.045    -0.016    -0.015  0.0023  0.5552  0.8317
              Bcc     0.0013     0.180     0.064     0.060  0.9982  0.0492 -0.0357
 
              Baa    -0.0005    -0.274    -0.098    -0.091  0.1088 -0.3535  0.9291
     4 H(1)   Bbb    -0.0005    -0.247    -0.088    -0.082  0.1023  0.9337  0.3432
              Bcc     0.0010     0.521     0.186     0.174  0.9888 -0.0578 -0.1377
 
              Baa    -0.0015    -0.201    -0.072    -0.067  0.0813  0.1625  0.9834
     5 C(13)  Bbb    -0.0010    -0.131    -0.047    -0.044 -0.1198  0.9811 -0.1522
              Bcc     0.0025     0.332     0.118     0.111  0.9895  0.1054 -0.0993
 
              Baa    -0.0044    -0.595    -0.212    -0.198  0.0060 -0.4191  0.9079
     6 C(13)  Bbb    -0.0035    -0.466    -0.166    -0.156 -0.3199  0.8594  0.3988
              Bcc     0.0079     1.061     0.379     0.354  0.9474  0.2929  0.1289
 
              Baa    -0.0056     0.404     0.144     0.135 -0.5457  0.7206 -0.4277
     7 O(17)  Bbb    -0.0026     0.187     0.067     0.062  0.2561  0.6294  0.7336
              Bcc     0.0082    -0.590    -0.211    -0.197  0.7979  0.2908 -0.5280
 
              Baa    -0.0188     1.357     0.484     0.453 -0.5921  0.7332  0.3344
     8 O(17)  Bbb    -0.0031     0.228     0.081     0.076  0.4285 -0.0649  0.9012
              Bcc     0.0219    -1.585    -0.566    -0.529  0.6825  0.6769 -0.2758
 
              Baa    -0.1190   -15.964    -5.696    -5.325  0.7832 -0.6218  0.0070
     9 C(13)  Bbb    -0.1174   -15.752    -5.621    -5.254  0.0438  0.0663  0.9968
              Bcc     0.2364    31.716    11.317    10.579  0.6203  0.7804 -0.0792
 
              Baa    -0.0088    -1.177    -0.420    -0.392  0.7055 -0.4772 -0.5239
    10 C(13)  Bbb    -0.0074    -0.997    -0.356    -0.333  0.6907  0.2977  0.6590
              Bcc     0.0162     2.174     0.776     0.725  0.1585  0.8269 -0.5396
 
              Baa    -0.0767   -40.918   -14.600   -13.649  0.5171 -0.3360  0.7872
    11 H(1)   Bbb    -0.0652   -34.813   -12.422   -11.612  0.6917 -0.3778 -0.6155
              Bcc     0.1419    75.730    27.022    25.261  0.5042  0.8628  0.0371
 
              Baa    -0.0153    -8.161    -2.912    -2.722  0.8030 -0.5608  0.2017
    12 H(1)   Bbb    -0.0035    -1.874    -0.669    -0.625 -0.5460 -0.5566  0.6262
              Bcc     0.0188    10.034     3.581     3.347  0.2389  0.6129  0.7532
 
              Baa    -0.0047    -2.511    -0.896    -0.838 -0.3339  0.2225  0.9160
    13 H(1)   Bbb    -0.0027    -1.457    -0.520    -0.486  0.8979  0.3707  0.2372
              Bcc     0.0074     3.969     1.416     1.324 -0.2868  0.9017 -0.3235
 
              Baa    -0.0053    -2.824    -1.008    -0.942  0.8374 -0.4829 -0.2561
    14 H(1)   Bbb    -0.0028    -1.492    -0.532    -0.498  0.5323  0.6139  0.5829
              Bcc     0.0081     4.316     1.540     1.440 -0.1243 -0.6244  0.7711
 
              Baa    -0.0035    -1.852    -0.661    -0.618  0.6239 -0.4976 -0.6026
    15 H(1)   Bbb    -0.0018    -0.958    -0.342    -0.320  0.7131  0.0470  0.6995
              Bcc     0.0053     2.811     1.003     0.937  0.3197  0.8661 -0.3842
 

 ---------------------------------------------------------------------------------

 Calling FoFJK, ICntrl=    100127 FMM=F ISym2X=0 I1Cent= 0 IOpClX= 1 NMat=1 NMatS=1 NMatT=0.
 Full mass-weighted force constant matrix:
 Low frequencies --- -178.4793 -107.1743  -54.9771  -30.2321   -8.3184   -0.0009
 Low frequencies ---   -0.0008    0.0003   58.6488
 ******    2 imaginary frequencies (negative Signs) ****** 
 Diagonal vibrational polarizability:
       55.3315107      89.3890983     102.3472588
 Harmonic frequencies (cm**-1), IR intensities (KM/Mole), Raman scattering
 activities (A**4/AMU), depolarization ratios for plane and unpolarized
 incident light, reduced masses (AMU), force constants (mDyne/A),
 and normal coordinates:
                      1                      2                      3
                      A                      A                      A
 Frequencies --   -178.2618              -104.8034                53.3657
 Red. masses --      2.4154                 4.3619                 4.7200
 Frc consts  --      0.0452                 0.0282                 0.0079
 IR Inten    --      9.5886                 1.0183                 4.3190
  Atom  AN      X      Y      Z        X      Y      Z        X      Y      Z
     1   8     0.03  -0.13  -0.13    -0.21   0.22  -0.13    -0.04   0.04   0.12
     2   1     0.17   0.16  -0.16    -0.36  -0.02  -0.21    -0.05   0.04   0.09
     3   6    -0.03  -0.03  -0.01     0.08   0.04   0.01    -0.01   0.08  -0.19
     4   1    -0.02  -0.03  -0.01     0.08   0.04   0.02    -0.01   0.13  -0.32
     5   6    -0.03  -0.04  -0.01     0.08   0.05  -0.00     0.00   0.02  -0.03
     6   6    -0.00  -0.00   0.01     0.07   0.03  -0.01     0.02  -0.02   0.12
     7   8     0.07   0.02  -0.05     0.04   0.04  -0.04     0.04  -0.11   0.32
     8   8    -0.05   0.03   0.10     0.09  -0.02   0.03     0.01   0.05  -0.03
     9   6     0.01   0.17   0.13     0.07  -0.10   0.10     0.00   0.08  -0.09
    10   6    -0.03  -0.04  -0.03    -0.13  -0.25   0.06    -0.03  -0.14  -0.25
    11   1     0.03   0.34   0.51     0.16  -0.18   0.28     0.03   0.11   0.09
    12   1     0.25   0.45  -0.06     0.12  -0.00   0.04     0.03   0.26  -0.20
    13   1     0.01   0.07  -0.03    -0.15  -0.33   0.12    -0.01  -0.06  -0.30
    14   1    -0.16  -0.23   0.09    -0.17  -0.35   0.12    -0.07  -0.32  -0.14
    15   1     0.00  -0.11  -0.27    -0.23  -0.20  -0.08    -0.01  -0.18  -0.44
                      4                      5                      6
                      A                      A                      A
 Frequencies --     68.0732               102.4495               148.4485
 Red. masses --      5.1367                 5.4252                 3.6553
 Frc consts  --      0.0140                 0.0335                 0.0475
 IR Inten    --      7.9822                11.5641                 9.5257
  Atom  AN      X      Y      Z        X      Y      Z        X      Y      Z
     1   8     0.35   0.19  -0.03     0.19   0.22  -0.10     0.03   0.11   0.04
     2   1     0.35   0.25  -0.14     0.24   0.20   0.16     0.06   0.23  -0.06
     3   6    -0.09  -0.16   0.08    -0.08   0.06  -0.18     0.22   0.22   0.10
     4   1    -0.13  -0.25   0.14    -0.10   0.10  -0.33     0.40   0.47   0.20
     5   6    -0.04  -0.05   0.02    -0.06   0.01   0.01    -0.02  -0.10  -0.04
     6   6    -0.00   0.01  -0.02    -0.07  -0.04   0.08    -0.06  -0.15  -0.06
     7   8     0.01  -0.02   0.06    -0.11   0.03  -0.07    -0.02  -0.16  -0.04
     8   8    -0.02   0.08  -0.13    -0.05  -0.14   0.28    -0.11  -0.08  -0.05
     9   6    -0.02  -0.01  -0.01    -0.05  -0.06   0.05    -0.02   0.06   0.02
    10   6    -0.26  -0.08   0.04     0.18  -0.09  -0.06    -0.02   0.05   0.02
    11   1     0.03  -0.12   0.07    -0.16  -0.07  -0.10    -0.09   0.15   0.14
    12   1     0.01  -0.02  -0.01    -0.23  -0.09   0.09     0.12   0.09  -0.02
    13   1    -0.27  -0.18   0.15     0.15  -0.05  -0.27     0.09   0.26   0.14
    14   1    -0.31  -0.10   0.06     0.36  -0.13  -0.05    -0.28  -0.01   0.07
    15   1    -0.36  -0.00  -0.06     0.24  -0.11   0.05     0.11  -0.09  -0.15
                      7                      8                      9
                      A                      A                      A
 Frequencies --    218.6293               225.7659               270.1799
 Red. masses --      1.0840                 1.2364                 4.1464
 Frc consts  --      0.0305                 0.0371                 0.1783
 IR Inten    --    108.2571                 1.6537                 2.7215
  Atom  AN      X      Y      Z        X      Y      Z        X      Y      Z
     1   8    -0.01   0.01  -0.06    -0.01  -0.00  -0.01    -0.00  -0.02  -0.01
     2   1     0.16  -0.20   0.94     0.03  -0.01   0.12    -0.04  -0.05  -0.09
     3   6     0.01   0.00   0.00     0.04   0.03  -0.01     0.02   0.06  -0.18
     4   1     0.01   0.00   0.01     0.08   0.10  -0.01     0.01   0.23  -0.60
     5   6     0.00  -0.00  -0.01    -0.01  -0.06   0.00     0.03  -0.17   0.39
     6   6     0.00   0.00  -0.00     0.01  -0.03   0.00     0.03  -0.04   0.12
     7   8     0.02  -0.00   0.01     0.07  -0.02  -0.02     0.04   0.06  -0.12
     8   8     0.00   0.01  -0.01    -0.02   0.02   0.03     0.02   0.02  -0.02
     9   6    -0.00   0.00  -0.00    -0.03   0.03   0.00    -0.01  -0.01  -0.08
    10   6    -0.03   0.00   0.01    -0.05   0.01  -0.01    -0.11   0.06   0.00
    11   1    -0.01   0.00  -0.03    -0.01   0.03  -0.00     0.01  -0.05  -0.14
    12   1     0.00  -0.00   0.00    -0.04   0.04  -0.00    -0.07  -0.05  -0.05
    13   1     0.02   0.07   0.08    -0.30  -0.45  -0.27    -0.01   0.16   0.24
    14   1    -0.13  -0.02   0.03     0.48   0.10  -0.11    -0.39   0.10   0.00
    15   1     0.01  -0.04  -0.06    -0.36   0.32   0.31    -0.05  -0.02  -0.12
                     10                     11                     12
                      A                      A                      A
 Frequencies --    329.0248               420.3702               560.1088
 Red. masses --      2.9991                 3.7980                 3.6768
 Frc consts  --      0.1913                 0.3954                 0.6796
 IR Inten    --     11.5317                 2.5969                 5.0035
  Atom  AN      X      Y      Z        X      Y      Z        X      Y      Z
     1   8     0.01  -0.02  -0.01    -0.01  -0.00   0.00    -0.02  -0.01   0.00
     2   1    -0.11  -0.14  -0.21     0.04   0.12  -0.05     0.16   0.33   0.04
     3   6     0.03   0.03   0.04     0.08  -0.09  -0.01     0.15  -0.11  -0.05
     4   1     0.09   0.08   0.16    -0.00  -0.25   0.04    -0.00  -0.31  -0.15
     5   6    -0.07  -0.05  -0.12     0.18   0.12  -0.08     0.29   0.11   0.07
     6   6     0.02   0.04   0.02     0.05  -0.05   0.04     0.02  -0.03  -0.04
     7   8     0.24   0.03   0.01    -0.09  -0.03   0.00    -0.02  -0.04  -0.02
     8   8    -0.03   0.07   0.15     0.05  -0.15   0.20    -0.11   0.10  -0.04
     9   6    -0.15  -0.08  -0.06     0.02   0.07  -0.14    -0.23   0.01   0.11
    10   6    -0.06  -0.00  -0.03    -0.17   0.14  -0.06    -0.01  -0.02   0.01
    11   1    -0.12  -0.25  -0.39    -0.03   0.14  -0.14    -0.22  -0.07  -0.05
    12   1    -0.47  -0.24   0.08    -0.06   0.12  -0.16    -0.31  -0.10   0.19
    13   1     0.07   0.24   0.08    -0.17  -0.04   0.30     0.00   0.20  -0.35
    14   1    -0.30   0.01  -0.02    -0.40   0.29  -0.13     0.19  -0.17   0.08
    15   1     0.12  -0.17  -0.11    -0.36   0.29  -0.12     0.21  -0.20   0.06
                     13                     14                     15
                      A                      A                      A
 Frequencies --    594.7359               625.6611               742.0744
 Red. masses --      2.3619                 1.8188                 1.3117
 Frc consts  --      0.4922                 0.4195                 0.4256
 IR Inten    --     45.5990               152.3159                37.2419
  Atom  AN      X      Y      Z        X      Y      Z        X      Y      Z
     1   8    -0.05  -0.01   0.01    -0.06  -0.03   0.00     0.00   0.00   0.00
     2   1     0.38   0.78   0.10     0.41   0.84   0.10    -0.00  -0.01   0.00
     3   6    -0.11   0.06   0.03     0.07  -0.03  -0.01    -0.08  -0.12  -0.03
     4   1    -0.20  -0.05  -0.01     0.16   0.10   0.04     0.55   0.79   0.21
     5   6    -0.01   0.17   0.07    -0.04  -0.15  -0.06     0.04   0.06   0.01
     6   6    -0.02  -0.02  -0.00     0.05   0.06   0.03    -0.00  -0.00  -0.00
     7   8     0.17  -0.03  -0.02    -0.09   0.07   0.03     0.01   0.00  -0.00
     8   8    -0.02  -0.11  -0.04     0.05   0.05   0.01    -0.00  -0.00  -0.00
     9   6    -0.01  -0.08  -0.05     0.01  -0.04  -0.02    -0.01  -0.00   0.00
    10   6     0.00  -0.01   0.01     0.00  -0.02   0.01    -0.00   0.00  -0.00
    11   1    -0.11   0.08   0.12    -0.04   0.00  -0.06    -0.00  -0.00   0.03
    12   1     0.11  -0.01  -0.10    -0.07  -0.08   0.01     0.01   0.01  -0.01
    13   1     0.01  -0.03   0.08     0.01  -0.03   0.05     0.00   0.02  -0.01
    14   1    -0.02   0.11  -0.06    -0.02   0.01  -0.01     0.00   0.02  -0.01
    15   1     0.00   0.00   0.11     0.00  -0.02   0.02     0.01  -0.01   0.02
                     16                     17                     18
                      A                      A                      A
 Frequencies --    753.6161               772.8855               786.3270
 Red. masses --      1.2753                 1.4062                 6.2610
 Frc consts  --      0.4267                 0.4949                 2.2809
 IR Inten    --     11.1224                23.7525                38.2246
  Atom  AN      X      Y      Z        X      Y      Z        X      Y      Z
     1   8     0.01   0.02   0.00     0.00   0.00   0.00    -0.00  -0.01  -0.00
     2   1    -0.06  -0.14   0.02    -0.00  -0.01   0.00     0.01   0.01   0.01
     3   6     0.04  -0.02  -0.00    -0.01   0.05  -0.15    -0.01   0.02  -0.05
     4   1     0.02  -0.04  -0.03     0.08  -0.29   0.93     0.03  -0.22   0.66
     5   6     0.01  -0.03  -0.03     0.01  -0.03   0.08    -0.00   0.09  -0.17
     6   6     0.00   0.02   0.04    -0.00   0.03  -0.06     0.01  -0.25   0.55
     7   8    -0.00   0.05   0.01     0.00  -0.01   0.02    -0.00   0.05  -0.16
     8   8    -0.00  -0.01  -0.01     0.00  -0.01   0.02    -0.00   0.07  -0.14
     9   6    -0.08  -0.08  -0.04    -0.00  -0.00  -0.00     0.01   0.02   0.01
    10   6    -0.02  -0.01  -0.02    -0.00  -0.00  -0.00     0.00  -0.00   0.02
    11   1     0.03  -0.03   0.55    -0.00   0.00   0.03     0.01  -0.01  -0.09
    12   1     0.16   0.32  -0.28     0.00   0.02  -0.02     0.02  -0.09   0.06
    13   1     0.07   0.19   0.00     0.00   0.01   0.01    -0.02  -0.01  -0.08
    14   1     0.03   0.36  -0.23    -0.01   0.03  -0.02     0.06  -0.13   0.09
    15   1     0.19  -0.11   0.41     0.00  -0.00   0.02     0.02  -0.03  -0.06
                     19                     20                     21
                      A                      A                      A
 Frequencies --    894.0155               935.8488              1088.1832
 Red. masses --      3.2209                 2.7923                 3.6618
 Frc consts  --      1.5167                 1.4409                 2.5548
 IR Inten    --     11.5603                 3.6343                49.1052
  Atom  AN      X      Y      Z        X      Y      Z        X      Y      Z
     1   8    -0.01  -0.01  -0.00    -0.01  -0.00   0.00    -0.01  -0.01  -0.00
     2   1     0.06   0.11   0.02     0.06   0.11   0.03     0.05   0.08   0.03
     3   6    -0.05   0.02   0.01    -0.10   0.06   0.03     0.05  -0.04  -0.02
     4   1    -0.06   0.01   0.00    -0.11   0.07   0.03     0.05  -0.05  -0.02
     5   6     0.01   0.07   0.03    -0.07   0.03   0.01     0.04   0.01   0.00
     6   6    -0.00  -0.11  -0.05     0.12  -0.08  -0.04    -0.12   0.02   0.01
     7   8    -0.05  -0.15  -0.06    -0.05  -0.11  -0.04     0.02   0.01   0.00
     8   8    -0.03   0.25   0.09     0.19   0.04   0.03    -0.19   0.09   0.06
     9   6     0.08   0.00  -0.09    -0.03  -0.01   0.09     0.28  -0.21   0.05
    10   6     0.08  -0.13   0.02    -0.14   0.09  -0.07    -0.08   0.11  -0.11
    11   1     0.22  -0.14  -0.02     0.24  -0.27   0.13     0.30  -0.25   0.22
    12   1    -0.23   0.26  -0.19    -0.05  -0.08   0.13     0.36  -0.39   0.15
    13   1     0.17  -0.20   0.51    -0.10   0.47  -0.55    -0.07   0.24  -0.33
    14   1    -0.14   0.30  -0.20     0.18   0.05  -0.07     0.06   0.11  -0.13
    15   1     0.02  -0.03   0.34     0.21  -0.17   0.08     0.01   0.04  -0.22
                     22                     23                     24
                      A                      A                      A
 Frequencies --   1129.2396              1173.7621              1273.1430
 Red. masses --      2.0878                 1.8542                 3.6066
 Frc consts  --      1.5686                 1.5051                 3.4444
 IR Inten    --     32.0924                33.2155               569.4557
  Atom  AN      X      Y      Z        X      Y      Z        X      Y      Z
     1   8     0.00   0.01   0.00    -0.01  -0.01  -0.00     0.01   0.00  -0.00
     2   1    -0.00  -0.01   0.01     0.02   0.05  -0.00    -0.07  -0.13  -0.03
     3   6    -0.01   0.01   0.00     0.01  -0.01  -0.00    -0.07   0.05   0.02
     4   1    -0.01   0.01   0.00     0.02  -0.01  -0.00    -0.07   0.07   0.03
     5   6    -0.01  -0.00   0.00     0.00  -0.01  -0.00    -0.02   0.00   0.00
     6   6     0.01  -0.01   0.00    -0.03   0.01   0.01     0.41   0.01  -0.00
     7   8    -0.00  -0.01  -0.01     0.02   0.04   0.01    -0.05  -0.00  -0.00
     8   8     0.04   0.01  -0.04    -0.03  -0.07  -0.04    -0.18   0.00  -0.01
     9   6    -0.08  -0.08   0.20     0.10   0.14   0.10     0.07  -0.08   0.03
    10   6     0.10   0.04  -0.17    -0.07  -0.11  -0.07    -0.03  -0.04  -0.01
    11   1    -0.10  -0.06   0.18     0.18  -0.08  -0.42    -0.61   0.50  -0.21
    12   1    -0.10  -0.05   0.21    -0.23  -0.04   0.24     0.14  -0.00  -0.02
    13   1     0.08  -0.25   0.35     0.12   0.24   0.12     0.01   0.09  -0.03
    14   1    -0.39   0.30  -0.28     0.02   0.36  -0.35     0.02   0.15  -0.13
    15   1    -0.33   0.38  -0.18     0.11  -0.16   0.46    -0.00  -0.04   0.05
                     25                     26                     27
                      A                      A                      A
 Frequencies --   1316.5479              1384.2758              1419.3722
 Red. masses --      1.3793                 1.2328                 1.3547
 Frc consts  --      1.4085                 1.3918                 1.6080
 IR Inten    --    217.5534                 4.4575                13.1630
  Atom  AN      X      Y      Z        X      Y      Z        X      Y      Z
     1   8    -0.00  -0.00  -0.00     0.00   0.00  -0.00     0.00   0.00   0.00
     2   1     0.03   0.05   0.02     0.00   0.01  -0.00     0.00   0.01  -0.01
     3   6    -0.02   0.01   0.00     0.01  -0.01  -0.00     0.00  -0.00  -0.00
     4   1    -0.01   0.02   0.01     0.01  -0.01  -0.00     0.00  -0.00  -0.00
     5   6    -0.01  -0.00  -0.00     0.00   0.00   0.00     0.00  -0.00   0.00
     6   6     0.11   0.01   0.00    -0.04   0.01   0.00    -0.01   0.00  -0.00
     7   8    -0.01   0.02   0.01     0.01  -0.00  -0.00     0.00   0.00   0.00
     8   8    -0.09  -0.06  -0.03     0.02  -0.00  -0.02     0.00  -0.00  -0.01
     9   6     0.01   0.03  -0.03     0.05  -0.07   0.05     0.04  -0.07   0.06
    10   6     0.03   0.04   0.01     0.01  -0.01   0.08    -0.05   0.10  -0.09
    11   1     0.54  -0.45   0.33    -0.13   0.06  -0.26    -0.09  -0.00  -0.21
    12   1    -0.54   0.13   0.01    -0.38   0.59  -0.26    -0.15   0.40  -0.17
    13   1    -0.00  -0.07   0.02    -0.03   0.16  -0.34    -0.07  -0.26   0.41
    14   1     0.00  -0.10   0.10    -0.03   0.23  -0.08     0.21  -0.41   0.20
    15   1    -0.04   0.07  -0.13    -0.15   0.07  -0.31     0.34  -0.18   0.25
                     28                     29                     30
                      A                      A                      A
 Frequencies --   1468.0577              1489.2479              1504.2365
 Red. masses --      1.1005                 1.0407                 1.0608
 Frc consts  --      1.3974                 1.3599                 1.4142
 IR Inten    --     20.9637                11.8738                11.7259
  Atom  AN      X      Y      Z        X      Y      Z        X      Y      Z
     1   8    -0.00  -0.00   0.00    -0.00   0.00   0.00     0.00   0.00   0.00
     2   1     0.03   0.05  -0.00     0.01   0.01  -0.00    -0.01  -0.02  -0.00
     3   6    -0.01   0.00   0.00    -0.00   0.00   0.00     0.00  -0.00  -0.00
     4   1    -0.01   0.01   0.00    -0.00   0.00   0.00     0.00  -0.00  -0.00
     5   6    -0.00  -0.00  -0.00    -0.00  -0.00  -0.00     0.00   0.00   0.00
     6   6     0.03  -0.01  -0.00     0.01   0.00   0.00    -0.01   0.00   0.00
     7   8    -0.00   0.01   0.01    -0.00  -0.00  -0.00     0.00  -0.01  -0.00
     8   8    -0.03  -0.01   0.01    -0.00   0.00   0.00     0.01   0.00  -0.00
     9   6    -0.05   0.00   0.03    -0.03  -0.02   0.00     0.04  -0.02  -0.02
    10   6     0.04   0.00  -0.00    -0.02  -0.03  -0.02     0.03  -0.01  -0.03
    11   1     0.24  -0.40  -0.44     0.04  -0.11  -0.07    -0.10   0.16   0.12
    12   1     0.55   0.23  -0.20     0.14   0.08  -0.08    -0.24  -0.01   0.02
    13   1    -0.04  -0.04  -0.20     0.29   0.50   0.35     0.08   0.27  -0.24
    14   1    -0.31  -0.06   0.07     0.48  -0.18   0.04    -0.38  -0.37   0.23
    15   1    -0.05   0.09   0.16    -0.38   0.27  -0.10    -0.22   0.28   0.54
                     31                     32                     33
                      A                      A                      A
 Frequencies --   1845.3655              2269.5083              2656.4346
 Red. masses --     12.2698                 5.7461                 1.0928
 Frc consts  --     24.6180                17.4376                 4.5434
 IR Inten    --    343.1496                74.6522               660.3504
  Atom  AN      X      Y      Z        X      Y      Z        X      Y      Z
     1   8    -0.00  -0.00  -0.00     0.00   0.00   0.00     0.00   0.01   0.00
     2   1    -0.00  -0.01  -0.00     0.00   0.00  -0.00     0.01  -0.01  -0.00
     3   6     0.06  -0.04  -0.02    -0.31   0.19   0.09     0.00  -0.00  -0.00
     4   1     0.11  -0.04  -0.02    -0.62   0.39   0.17     0.00  -0.00  -0.00
     5   6    -0.04   0.01   0.00     0.44  -0.27  -0.12    -0.00   0.00   0.00
     6   6     0.01   0.73   0.31    -0.07   0.06   0.03     0.00   0.00   0.00
     7   8    -0.01  -0.48  -0.21     0.00  -0.01  -0.00    -0.00  -0.00  -0.00
     8   8    -0.02  -0.05  -0.02    -0.01  -0.00  -0.00    -0.00   0.00  -0.00
     9   6    -0.02   0.03   0.01     0.00  -0.00   0.00    -0.06  -0.06   0.02
    10   6     0.01  -0.00  -0.01    -0.00   0.00  -0.00     0.00   0.00  -0.00
    11   1     0.10  -0.12  -0.09     0.01   0.01  -0.01     0.71   0.67  -0.18
    12   1     0.15   0.03   0.01    -0.00   0.00  -0.00    -0.03  -0.06  -0.04
    13   1    -0.01  -0.06   0.03     0.00  -0.00  -0.00    -0.01   0.00   0.01
    14   1    -0.03   0.01  -0.01    -0.00  -0.00   0.00     0.00  -0.00  -0.01
    15   1     0.04  -0.02   0.03     0.00  -0.00   0.00    -0.02  -0.03   0.01
                     34                     35                     36
                      A                      A                      A
 Frequencies --   3072.5680              3132.3861              3153.1537
 Red. masses --      1.0346                 1.0871                 1.1024
 Frc consts  --      5.7548                 6.2844                 6.4575
 IR Inten    --      6.7933                 3.6210                 9.2134
  Atom  AN      X      Y      Z        X      Y      Z        X      Y      Z
     1   8     0.00   0.00   0.00     0.00   0.00   0.00    -0.00   0.00  -0.00
     2   1    -0.00  -0.00  -0.00     0.00   0.00  -0.00     0.00  -0.00  -0.00
     3   6     0.00  -0.00  -0.00    -0.00   0.00   0.00     0.00  -0.00  -0.00
     4   1    -0.00   0.00   0.00    -0.00  -0.00   0.00    -0.00   0.00   0.00
     5   6    -0.00   0.00   0.00     0.00   0.00  -0.00    -0.00   0.00   0.00
     6   6     0.00   0.00   0.00    -0.00  -0.00  -0.00     0.00  -0.00   0.00
     7   8     0.00  -0.00   0.00    -0.00   0.00   0.00    -0.00   0.00  -0.00
     8   8    -0.00  -0.00  -0.00     0.00  -0.00   0.00     0.00  -0.00  -0.00
     9   6     0.00   0.00   0.00    -0.01  -0.04  -0.07    -0.00   0.00   0.00
    10   6    -0.01   0.03  -0.04    -0.00   0.02   0.02    -0.09  -0.01   0.03
    11   1    -0.01  -0.01   0.00     0.02   0.02  -0.02     0.01   0.02  -0.00
    12   1    -0.00  -0.00  -0.01     0.12   0.45   0.81    -0.01  -0.03  -0.05
    13   1     0.51  -0.21  -0.13     0.14  -0.05  -0.03     0.68  -0.29  -0.17
    14   1     0.04   0.30   0.49    -0.02  -0.14  -0.23    -0.02  -0.06  -0.08
    15   1    -0.38  -0.44   0.06    -0.10  -0.11   0.02     0.39   0.48  -0.07
                     37                     38                     39
                      A                      A                      A
 Frequencies --   3158.6054              3489.9532              3773.2498
 Red. masses --      1.1025                 1.1711                 1.0670
 Frc consts  --      6.4806                 8.4040                 8.9504
 IR Inten    --     10.2627                62.1857                34.0263
  Atom  AN      X      Y      Z        X      Y      Z        X      Y      Z
     1   8     0.00   0.00   0.00     0.00   0.00  -0.00    -0.05   0.03   0.01
     2   1     0.00   0.00  -0.00    -0.00  -0.00  -0.00     0.86  -0.44  -0.24
     3   6    -0.00   0.00   0.00    -0.10   0.06   0.03    -0.00   0.00   0.00
     4   1    -0.00   0.00   0.00     0.82  -0.51  -0.23    -0.00  -0.00  -0.00
     5   6     0.00   0.00  -0.00     0.03  -0.02  -0.01    -0.00   0.00  -0.00
     6   6    -0.00  -0.00  -0.00    -0.00   0.00   0.00     0.00  -0.00  -0.00
     7   8    -0.00   0.00   0.00     0.00   0.00   0.00    -0.00   0.00   0.00
     8   8     0.00   0.00   0.00     0.00  -0.00  -0.00    -0.00   0.00   0.00
     9   6    -0.01  -0.02  -0.03    -0.00  -0.00   0.00     0.00   0.00  -0.00
    10   6    -0.01  -0.07  -0.05     0.00  -0.00  -0.00    -0.00  -0.00  -0.00
    11   1     0.02   0.02  -0.01     0.00   0.00  -0.00    -0.01  -0.01   0.00
    12   1     0.05   0.16   0.30     0.00  -0.00   0.00    -0.00  -0.00   0.00
    13   1    -0.25   0.09   0.05     0.00  -0.00   0.00    -0.00   0.00  -0.00
    14   1     0.05   0.38   0.65    -0.00   0.00   0.00     0.00   0.00   0.00
    15   1     0.31   0.36  -0.07    -0.00   0.00  -0.00     0.00  -0.00   0.00

 -------------------
 - Thermochemistry -
 -------------------
 Temperature   298.150 Kelvin.  Pressure   1.00000 Atm.
 Atom     1 has atomic number  8 and mass  15.99491
 Atom     2 has atomic number  1 and mass   1.00783
 Atom     3 has atomic number  6 and mass  12.00000
 Atom     4 has atomic number  1 and mass   1.00783
 Atom     5 has atomic number  6 and mass  12.00000
 Atom     6 has atomic number  6 and mass  12.00000
 Atom     7 has atomic number  8 and mass  15.99491
 Atom     8 has atomic number  8 and mass  15.99491
 Atom     9 has atomic number  6 and mass  12.00000
 Atom    10 has atomic number  6 and mass  12.00000
 Atom    11 has atomic number  1 and mass   1.00783
 Atom    12 has atomic number  1 and mass   1.00783
 Atom    13 has atomic number  1 and mass   1.00783
 Atom    14 has atomic number  1 and mass   1.00783
 Atom    15 has atomic number  1 and mass   1.00783
 Molecular mass:   115.03952 amu.
 Principal axes and moments of inertia in atomic units:
                           1         2         3
     Eigenvalues --   607.773741601.766132016.88019
           X            0.99921  -0.03964   0.00273
           Y            0.03969   0.99900  -0.02045
           Z           -0.00192   0.02055   0.99979
 This molecule is an asymmetric top.
 Rotational symmetry number  1.
 Warning -- assumption of classical behavior for rotation
           may cause significant error
 Rotational temperatures (Kelvin)      0.14251     0.05407     0.04294
 Rotational constants (GHZ):           2.96943     1.12672     0.89482
    2 imaginary frequencies ignored.
 Zero-point vibrational energy     288891.4 (Joules/Mol)
                                   69.04670 (Kcal/Mol)
 Warning -- explicit consideration of  11 degrees of freedom as
           vibrations may cause significant error
 Vibrational temperatures:     76.78    97.94   147.40   213.58   314.56
          (Kelvin)            324.83   388.73   473.39   604.82   805.87
                              855.69   900.19  1067.68  1084.29  1112.01
                             1131.35  1286.29  1346.48  1565.65  1624.72
                             1688.78  1831.77  1894.22  1991.66  2042.16
                             2112.21  2142.70  2164.26  2655.07  3265.32
                             3822.02  4420.74  4506.81  4536.68  4544.53
                             5021.26  5428.86
 
 Zero-point correction=                           0.110033 (Hartree/Particle)
 Thermal correction to Energy=                    0.119130
 Thermal correction to Enthalpy=                  0.120074
 Thermal correction to Gibbs Free Energy=         0.074405
 Sum of electronic and zero-point Energies=           -420.091221
 Sum of electronic and thermal Energies=              -420.082124
 Sum of electronic and thermal Enthalpies=            -420.081180
 Sum of electronic and thermal Free Energies=         -420.126848
 
                     E (Thermal)             CV                S
                      KCal/Mol        Cal/Mol-Kelvin    Cal/Mol-Kelvin
 Total                   74.755             30.639             96.117
 Electronic               0.000              0.000              1.377
 Translational            0.889              2.981             40.136
 Rotational               0.889              2.981             29.064
 Vibrational             72.978             24.678             25.540
 Vibration     1          0.596              1.976              4.689
 Vibration     2          0.598              1.969              4.208
 Vibration     3          0.605              1.947              3.407
 Vibration     4          0.618              1.904              2.692
 Vibration     5          0.646              1.813              1.970
 Vibration     6          0.650              1.802              1.912
 Vibration     7          0.674              1.728              1.595
 Vibration     8          0.712              1.618              1.265
 Vibration     9          0.783              1.426              0.891
 Vibration    10          0.916              1.118              0.524
 Vibration    11          0.952              1.043              0.459
                       Q            Log10(Q)             Ln(Q)
 Total Bot       0.596953D-34        -34.224060        -78.803810
 Total V=0       0.244077D+17         16.387527         37.733676
 Vib (Bot)       0.122696D-47        -47.911170       -110.319547
 Vib (Bot)    1  0.387239D+01          0.587979          1.353873
 Vib (Bot)    2  0.303050D+01          0.481514          1.108728
 Vib (Bot)    3  0.200225D+01          0.301517          0.694269
 Vib (Bot)    4  0.136653D+01          0.135619          0.312273
 Vib (Bot)    5  0.905262D+00         -0.043226         -0.099530
 Vib (Bot)    6  0.874003D+00         -0.058487         -0.134671
 Vib (Bot)    7  0.715240D+00         -0.145548         -0.335137
 Vib (Bot)    8  0.568218D+00         -0.245485         -0.565250
 Vib (Bot)    9  0.417583D+00         -0.379257         -0.873272
 Vib (Bot)   10  0.277456D+00         -0.556806         -1.282092
 Vib (Bot)   11  0.252427D+00         -0.597864         -1.376634
 Vib (V=0)       0.501668D+03          2.700417          6.217939
 Vib (V=0)    1  0.440454D+01          0.643900          1.482636
 Vib (V=0)    2  0.357147D+01          0.552847          1.272977
 Vib (V=0)    3  0.256373D+01          0.408873          0.941464
 Vib (V=0)    4  0.195513D+01          0.291175          0.670456
 Vib (V=0)    5  0.153417D+01          0.185872          0.427987
 Vib (V=0)    6  0.150692D+01          0.178089          0.410066
 Vib (V=0)    7  0.137268D+01          0.137569          0.316764
 Vib (V=0)    8  0.125688D+01          0.099295          0.228635
 Vib (V=0)    9  0.115144D+01          0.061242          0.141014
 Vib (V=0)   10  0.107182D+01          0.030123          0.069361
 Vib (V=0)   11  0.106011D+01          0.025350          0.058369
 Electronic      0.200000D+01          0.301030          0.693147
 Translational   0.484981D+08          7.685724         17.697035
 Rotational      0.501598D+06          5.700356         13.125555
 ***** Axes restored to original set *****
 -------------------------------------------------------------------
 Center     Atomic                   Forces (Hartrees/Bohr)
 Number     Number              X              Y              Z
 -------------------------------------------------------------------
      1        8           0.004676733    0.012549559    0.001899059
      2        1          -0.000165601   -0.000170173    0.000115563
      3        6          -0.000132920    0.000071302    0.000029369
      4        1          -0.000021535   -0.000004476   -0.000009002
      5        6          -0.000010709    0.000181792    0.000216223
      6        6           0.000046371    0.000307644    0.000309858
      7        8          -0.001020319    0.000271137    0.000524071
      8        8           0.001057569   -0.000641317   -0.001131749
      9        6          -0.002189674   -0.007481948   -0.002774586
     10        6          -0.001172152   -0.002174497    0.001396413
     11        1           0.000160360   -0.001121862   -0.001567898
     12        1          -0.001135701   -0.001527502    0.000410745
     13        1          -0.000117773   -0.000255132    0.000139427
     14        1           0.000070151    0.000151729   -0.000098859
     15        1          -0.000044799   -0.000156257    0.000541366
 -------------------------------------------------------------------
 Cartesian Forces:  Max     0.012549559 RMS     0.002458776

 GradGradGradGradGradGradGradGradGradGradGradGradGradGradGradGradGradGrad
 Berny optimization.
 Search for a local minimum.
 Step number   1 out of a maximum of    2
 All quantities printed in internal units (Hartrees-Bohrs-Radians)
 Second derivative matrix not updated -- analytic derivatives used.
 ITU=  0
     Eigenvalues ---   -0.00518  -0.00260   0.00077   0.00106   0.00181
     Eigenvalues ---    0.00248   0.00285   0.00453   0.01476   0.02070
     Eigenvalues ---    0.02742   0.03205   0.03630   0.05334   0.06277
     Eigenvalues ---    0.07513   0.08087   0.09051   0.09403   0.10125
     Eigenvalues ---    0.11101   0.13898   0.16315   0.17182   0.19574
     Eigenvalues ---    0.28948   0.29672   0.43505   0.49337   0.60819
     Eigenvalues ---    0.71077   0.75235   0.78296   0.83244   0.87207
     Eigenvalues ---    0.90182   0.95132   1.73824   2.73782
 Eigenvalue     1 is  -5.18D-03 should be greater than     0.000000 Eigenvector:
                          Z11       Y12       Y1        Y11       Z1
   1                    0.40870   0.37673  -0.37425   0.35259  -0.30444
                          X2        Z8        Z9        Z7        Y9
   1                    0.30312   0.19926   0.16933  -0.16827   0.16107
 Eigenvalue     2 is  -2.60D-03 should be greater than     0.000000 Eigenvector:
                          X2        Z1        Y1        Y14       Z11
   1                    0.36361   0.32545  -0.32286   0.31195  -0.29796
                          X1        Y13       Y10       Y15       X11
   1                    0.28132   0.26139   0.21750   0.17793  -0.14973
 Quadratic step=5.509D+00 exceeds max=3.000D-01 adjusted using Lamda=-3.903D-02.
 Angle between NR and scaled steps=  39.24 degrees.
 Angle between quadratic step and forces=  31.01 degrees.
 Linear search not attempted -- first point.
 B after Tr=     0.004546    0.010490    0.000714
         Rot=    0.999999   -0.001057    0.000276   -0.000877 Ang=  -0.16 deg.
 Variable       Old X    -DE/DX   Delta X   Delta X   Delta X     New X
                                 (Linear)    (Quad)   (Total)
    X1        5.13666   0.00468   0.00000   0.09262   0.09105   5.22771
    Y1        3.39053   0.01255   0.00000   0.21189   0.23239   3.62293
    Z1       -0.42169   0.00190   0.00000   0.01926   0.03048  -0.39121
    X2        3.53898  -0.00017   0.00000  -0.00158  -0.00446   3.53452
    Y2        4.19036  -0.00017   0.00000   0.03085   0.04749   4.23786
    Z2        0.01493   0.00012   0.00000   0.00401   0.01561   0.03054
    X3       -5.92412  -0.00013   0.00000  -0.00231  -0.00159  -5.92571
    Y3        1.92808   0.00007   0.00000   0.00420   0.00260   1.93068
    Z3        0.79845   0.00003   0.00000  -0.00074   0.00077   0.79922
    X4       -7.58873  -0.00002   0.00000  -0.00357  -0.00490  -7.59363
    Y4        2.95876  -0.00000   0.00000   0.00304  -0.00246   2.95630
    Z4        1.26401  -0.00001   0.00000  -0.00322  -0.00046   1.26355
    X5       -4.05378  -0.00001   0.00000   0.00055   0.00359  -4.05019
    Y5        0.76549   0.00018   0.00000   0.00546   0.00825   0.77374
    Z5        0.27463   0.00022   0.00000   0.00572   0.00582   0.28044
    X6       -1.84136   0.00005   0.00000  -0.00771  -0.00166  -1.84302
    Y6       -0.72376   0.00031   0.00000  -0.00911  -0.00104  -0.72480
    Z6       -0.39155   0.00031   0.00000   0.00417   0.00231  -0.38924
    X7       -1.93181  -0.00102   0.00000  -0.03653  -0.02633  -1.95814
    Y7       -2.80722   0.00027   0.00000  -0.01446  -0.00476  -2.81198
    Z7       -1.27287   0.00052   0.00000   0.01851   0.01218  -1.26069
    X8        0.29292   0.00106   0.00000   0.00610   0.00969   0.30261
    Y8        0.54533  -0.00064   0.00000  -0.02507  -0.01422   0.53111
    Z8        0.10201  -0.00113   0.00000  -0.02545  -0.02347   0.07853
    X9        2.58816  -0.00219   0.00000   0.00024   0.00655   2.59471
    Y9       -0.77155  -0.00748   0.00000  -0.06011  -0.04393  -0.81548
    Z9       -0.51961  -0.00277   0.00000  -0.02397  -0.02357  -0.54318
   X10        3.44852  -0.00117   0.00000  -0.02035  -0.01225   3.43627
   Y10       -2.48266  -0.00217   0.00000  -0.04270  -0.02956  -2.51222
   Z10        1.58780   0.00140   0.00000   0.00656   0.00383   1.59162
   X11        4.00763   0.00016   0.00000  -0.01597  -0.01201   3.99562
   Y11        0.71273  -0.00112   0.00000  -0.10303  -0.08368   0.62906
   Z11       -0.83809  -0.00157   0.00000  -0.04425  -0.04004  -0.87813
   X12        2.34030  -0.00114   0.00000  -0.03744  -0.02840   2.31190
   Y12       -1.75756  -0.00153   0.00000  -0.08280  -0.06338  -1.82094
   Z12       -2.31078   0.00041   0.00000  -0.00017  -0.00206  -2.31284
   X13        5.30744  -0.00012   0.00000  -0.01443  -0.00476   5.30268
   Y13       -3.24647  -0.00026   0.00000  -0.03429  -0.01691  -3.26338
   Z13        1.12503   0.00014   0.00000   0.01375   0.01046   1.13549
   X14        3.59679   0.00007   0.00000  -0.01305  -0.00781   3.58897
   Y14       -1.43109   0.00015   0.00000  -0.01500  -0.00529  -1.43637
   Z14        3.35478  -0.00010   0.00000  -0.00857  -0.00894   3.34584
   X15        2.13453  -0.00004   0.00000  -0.01739  -0.00669   2.12784
   Y15       -4.05327  -0.00016   0.00000  -0.03580  -0.02550  -4.07877
   Z15        1.83098   0.00054   0.00000   0.02386   0.01710   1.84808
         Item               Value     Threshold  Converged?
 Maximum Force            0.012550     0.000450     NO 
 RMS     Force            0.002459     0.000300     NO 
 Maximum Displacement     0.232392     0.001800     NO 
 RMS     Displacement     0.043802     0.001200     NO 
 Predicted change in Energy=-4.105942D-03
 GradGradGradGradGradGradGradGradGradGradGradGradGradGradGradGradGradGrad


 ----------------------------------------------------------------------

 Electric dipole moment (input orientation):
 (Debye = 10**-18 statcoulomb cm , SI units = C m)
                  (au)            (Debye)         (10**-30 SI)
   Tot        0.828373D+00      0.210551D+01      0.702324D+01
   x         -0.375085D+00     -0.953371D+00     -0.318010D+01
   y          0.584922D+00      0.148672D+01      0.495918D+01
   z          0.450976D+00      0.114627D+01      0.382353D+01

 Dipole polarizability, Alpha (input orientation).
 (esu units = cm**3 , SI units = C**2 m**2 J**-1)
 Alpha(0;0):
               (au)            (10**-24 esu)      (10**-40 SI)
   iso        0.728045D+02      0.107885D+02      0.120038D+02
   aniso      0.374993D+02      0.555682D+01      0.618279D+01
   xx         0.908965D+02      0.134695D+02      0.149868D+02
   yx        -0.563406D+01     -0.834881D+00     -0.928931D+00
   yy         0.762993D+02      0.113064D+02      0.125801D+02
   zx        -0.400692D+01     -0.593765D+00     -0.660652D+00
   zy         0.426242D+01      0.631626D+00      0.702778D+00
   zz         0.512176D+02      0.758966D+01      0.844464D+01

 ----------------------------------------------------------------------

 Dipole orientation:
     8          4.96572413          3.65710209         -0.16135185
     1          3.94341780          3.55966312          1.36454543
     6         -4.37698545         -0.48457595          4.47854594
     1         -5.39643710         -0.45998258          6.21350708
     6         -3.23280885         -0.51476615          2.52557449
     6         -1.92403920         -0.59482513          0.10954679
     8         -2.83285854         -1.40209072         -1.80045004
     8          0.41311806          0.35788740          0.30796245
     6          1.84957122          0.38023172         -1.99959409
     6          3.19570616         -2.08841457         -2.45009734
     1          3.24367115          1.90408450         -1.76764536
     1          0.61944878          0.92599365         -3.55872938
     1          4.44018639         -1.89404310         -4.08307418
     1          4.34207220         -2.59331353         -0.81274138
     1          1.84111982         -3.59570674         -2.83175567

 Electric dipole moment (dipole orientation):
 (Debye = 10**-18 statcoulomb cm , SI units = C m)
                  (au)            (Debye)         (10**-30 SI)
   Tot        0.828373D+00      0.210551D+01      0.702324D+01
   x          0.000000D+00      0.000000D+00      0.000000D+00
   y          0.000000D+00      0.000000D+00      0.000000D+00
   z          0.828373D+00      0.210551D+01      0.702324D+01

 Dipole polarizability, Alpha (dipole orientation).
 (esu units = cm**3 , SI units = C**2 m**2 J**-1)
 Alpha(0;0):
               (au)            (10**-24 esu)      (10**-40 SI)
   iso        0.728045D+02      0.107885D+02      0.120038D+02
   aniso      0.374993D+02      0.555682D+01      0.618279D+01
   xx         0.777649D+02      0.115236D+02      0.128217D+02
   yx         0.985182D+01      0.145989D+01      0.162434D+01
   yy         0.599351D+02      0.888146D+01      0.988196D+01
   zx        -0.140641D+02     -0.208409D+01     -0.231886D+01
   zy         0.689085D+01      0.102112D+01      0.113615D+01
   zz         0.807136D+02      0.119605D+02      0.133079D+02

 ----------------------------------------------------------------------
 1\1\GINC-AJ\Freq\UM062X\6-311++G(d,p)\C5H7O3(2)\AAYUSH\16-Aug-2025\0\\
 # freq 6-311++g(d,p) m062x\\Title Card Required\\0,2\O,2.718205,1.7941
 93,-0.223149\H,1.872746,2.217445,0.007901\C,-3.134908,1.020297,0.42252
 1\H,-4.015782,1.565709,0.668886\C,-2.14517,0.405082,0.145326\C,-0.9744
 06,-0.382996,-0.207199\O,-1.02227,-1.485517,-0.673572\O,0.155007,0.288
 575,0.053981\C,1.369596,-0.408289,-0.274964\C,1.824878,-1.313768,0.840
 225\H,2.120748,0.377162,-0.4435\H,1.238432,-0.930063,-1.222813\H,2.808
 575,-1.717957,0.595342\H,1.903338,-0.757299,1.775271\H,1.129546,-2.144
 896,0.968911\\Version=ES64L-G16RevA.03\State=2-A\HF=-420.2012536\S2=0.
 755502\S2-1=0.\S2A=0.750021\RMSD=3.879e-09\RMSF=2.459e-03\ZeroPoint=0.
 1100329\Thermal=0.1191297\Dipole=-0.3750851,0.5849222,0.4509759\Dipole
 Deriv=-0.171752,0.1364736,-0.0344582,0.1004716,-0.0178268,0.0192993,-0
 .0051663,0.070737,-0.3803997,0.2103654,0.0337308,0.0375868,0.1683493,0
 .4173894,-0.0261926,0.05116,0.0032752,0.3196088,-0.2329166,0.0306305,0
 .0110937,0.0448812,-0.173223,-0.0110653,0.0163326,-0.0121153,-0.148594
 3,0.2627671,-0.0160578,-0.0066911,-0.0239955,0.2345381,0.011031,-0.010
 5118,0.0116802,0.2128108,-0.5432359,0.2056671,0.0889729,0.2239264,-0.2
 483513,-0.0668709,0.1076889,-0.0717115,-0.1236428,2.4645878,-0.0796772
 ,-0.0050393,0.2547367,1.5005244,0.5164902,0.1255281,0.4999874,0.603466
 7,-0.8167661,0.080235,0.0246409,-0.1250938,-1.0549717,-0.3263177,-0.06
 95643,-0.3108808,-0.4837046,-2.00929,-0.1768509,-0.1232028,-0.1455385,
 -0.6350675,-0.111877,-0.070874,-0.0978136,-0.3674897,1.183844,0.306616
 2,0.0100589,-0.1611892,0.6358435,-0.068164,-0.2092558,-0.2557103,0.295
 4332,-0.1435535,-0.1058592,0.0012677,-0.0009815,-0.1365427,0.0693257,-
 0.0098543,0.0900034,-0.0352205,-0.2446639,-0.3895352,0.024842,-0.36765
 35,-0.572141,0.0649561,0.0098617,0.0170753,0.0991321,-0.0317029,-0.054
 5857,-0.0685694,0.0320903,-0.0261511,-0.0307177,0.0444124,0.0434278,-0
 .0451016,-0.0670367,0.0732459,0.0257229,0.0720203,0.0727847,0.0041017,
 0.0280178,-0.0110827,0.0547178,0.0932581,0.0170237,-0.0004092,-0.00007
 12,0.0147366,-0.081221,-0.0249847,-0.0276536,-0.0494759,0.0460951,-0.0
 610567,0.0141842,-0.0719524,-0.0115417,0.0372223,0.0172098,0.0507814,0
 .0484598\Polar=90.8965448,-5.6340572,76.2993481,-4.0069221,4.2624208,5
 1.2175838\Quadrupole=1.430315,-0.2903247,-1.1399903,-7.6103707,-1.5234
 283,-0.2454193\PG=C01 [X(C5H7O3)]\NImag=2\\0.39521909,-0.18221149,0.10
 777784,-0.10549670,0.05268370,0.02679547,-0.38892292,0.19298495,0.1055
 2026,0.38710541,0.18164265,-0.10380817,-0.05179084,-0.18837947,0.10880
 873,0.10301042,-0.05382192,-0.03044499,-0.10411907,0.05402159,0.030554
 52,0.00002908,0.00005358,0.00003075,0.00002796,0.00028015,0.00002467,1
 .08989991,-0.00007713,-0.00003564,-0.00002456,0.00009132,-0.00021408,-
 0.00002086,-0.64261518,0.45609899,-0.00000418,-0.00003327,0.00004575,-
 0.00000398,-0.00006933,-0.00008623,-0.28992239,0.17893783,0.14128542,0
 .00002651,-0.00001397,-0.00001183,-0.00006144,-0.00005078,0.00000442,-
 0.29841521,0.16828828,0.07590489,0.28875016,0.00001368,0.00000591,0.00
 000959,0.00000084,0.00008288,0.00000546,0.16802114,-0.13129855,-0.0461
 9197,-0.16855324,0.12104696,-0.00000738,0.00001048,-0.00002871,0.00001
 570,0.00001049,0.00004147,0.07579500,-0.04618966,-0.05071168,-0.076074
 40,0.04685728,0.03911600,0.00005486,0.00018787,0.00005303,0.00004855,0
 .00052862,0.00007989,-0.79262697,0.47119503,0.21267271,0.00810746,-0.0
 0224970,-0.00093423,1.05099805,-0.00000710,-0.00004725,-0.00004336,-0.
 00006537,-0.00024274,-0.00001328,0.47306702,-0.32796667,-0.13260143,-0
 .00217758,0.00643904,-0.00046670,-0.58723206,0.47054594,-0.00001106,0.
 00001560,-0.00001128,-0.00001292,-0.00002720,0.00001075,0.21342860,-0.
 13257221,-0.09377328,-0.00090762,-0.00045586,0.00749951,-0.26575561,0.
 18300287,0.14345600,0.00071133,-0.00073907,-0.00062658,-0.00175322,-0.
 00432098,-0.00022383,0.00738883,-0.00131946,-0.00059552,0.00069633,0.0
 0350833,0.00155428,-0.20755176,0.09334471,0.04162053,0.60726732,0.0007
 6365,0.00010034,-0.00004364,-0.00121585,-0.00103128,-0.00013404,-0.000
 55882,0.00264794,-0.00014074,0.00256410,0.00377662,-0.00092606,0.08254
 055,-0.11400966,-0.01787885,-0.02305808,0.90108703,0.00011312,-0.00060
 947,-0.00039884,-0.00044991,-0.00093045,-0.00001383,-0.00024706,-0.000
 10307,0.00263832,0.00117179,-0.00091710,0.00546616,0.03709848,-0.01867
 152,-0.08200282,-0.01839226,0.29364851,0.33519096,0.00001539,0.0000875
 6,0.00017204,0.00015760,0.00113480,0.00001138,-0.00337921,0.00184126,0
 .00081599,-0.00026577,-0.00126572,-0.00055746,0.00631517,0.03301955,0.
 01450527,-0.10843037,-0.00252469,-0.00015826,0.11288458,-0.00072196,-0
 .00028320,0.00018293,0.00101500,0.00124232,-0.00010482,0.00053924,0.00
 129849,0.00045391,0.00024855,0.00068911,0.00071184,0.02663303,-0.04847
 578,-0.03026360,-0.01079135,-0.66343896,-0.24650449,0.03760622,0.77122
 582,-0.00029104,-0.00003755,0.00021943,0.00046761,0.00061822,-0.000049
 06,0.00029519,0.00045471,0.00039425,0.00009263,0.00073095,-0.00070782,
 0.01166339,-0.03042208,0.00895239,-0.00432906,-0.24840187,-0.18585886,
 0.01280845,0.31152501,0.16595312,0.00018763,0.00329723,0.00133224,0.00
 036144,0.00468624,0.00039432,-0.00338118,0.00268296,0.00118764,0.00128
 072,0.00029972,0.00008084,-0.06408227,-0.00688763,-0.00132939,-0.23697
 720,-0.07265274,-0.02984573,-0.00847535,-0.06316643,-0.02385831,0.5285
 8569,-0.00217001,-0.00169807,-0.00031817,0.00155102,0.00088148,0.00031
 047,0.00216183,-0.00151115,-0.00083042,-0.00050793,-0.00070799,-0.0001
 1193,0.01273430,0.01369088,0.00050003,-0.05279114,-0.14556577,-0.03399
 265,-0.06144295,-0.05686661,-0.03572610,0.03425976,0.32014900,-0.00015
 756,-0.00040239,0.00060348,0.00003256,0.00012173,-0.00086950,0.0009474
 2,-0.00087521,0.00010933,-0.00024660,-0.00014022,-0.00044677,0.0066539
 3,0.00131557,0.01135291,-0.01928787,-0.03285628,-0.07992159,-0.0242087
 0,-0.03544579,0.01573985,0.00623559,0.10340108,0.12937419,-0.01886733,
 -0.03710898,-0.00466757,0.00561999,-0.00114597,-0.00148602,0.00129352,
 -0.00075517,-0.00030368,-0.00033159,0.00029391,0.00016070,0.00167422,-
 0.00237285,-0.00166917,-0.07225318,-0.00401209,0.00166104,0.00498146,0
 .01521568,0.00698638,-0.14068631,0.03197281,0.02030459,0.48327005,-0.0
 1735566,-0.03540316,-0.00444192,0.00011197,-0.00292556,-0.00058523,-0.
 00078952,0.00088873,0.00043287,0.00018319,0.00009482,0.00013449,-0.005
 25041,-0.00062965,-0.00225774,-0.00426560,0.02530157,0.01043781,-0.004
 53732,-0.00984892,-0.00164555,0.05932465,-0.11978266,-0.02899678,0.074
 71596,0.53711092,0.00502362,0.00987470,0.00211657,-0.00174476,0.000678
 60,0.00039543,-0.00050585,0.00051111,0.00003377,0.00010481,0.00008777,
 -0.00024222,-0.00192561,-0.00240235,0.00513835,0.00504125,0.01414219,0
 .00683316,0.00007148,-0.00362195,-0.00677503,0.02760405,-0.02874071,-0
 .08288903,0.02242388,0.03251926,0.56922000,0.00204933,0.00359348,0.000
 49642,-0.00096792,0.00047210,0.00069438,-0.00031133,0.00022183,0.00011
 465,0.00009359,0.00000391,-0.00008829,-0.00106866,-0.00065593,0.001146
 08,0.00494014,0.00760279,0.00078464,-0.00006411,-0.00259456,-0.0015298
 7,-0.02980717,0.02894372,-0.02428856,-0.07652421,0.01506222,-0.0223760
 9,0.57354346,0.00257404,0.00494174,0.00034360,-0.00063667,0.00011705,0
 .00063483,0.00000044,-0.00000360,0.00004202,-0.00001391,-0.00002061,0.
 00002034,0.00038310,0.00020483,-0.00063964,-0.00123770,0.00008119,-0.0
 0010602,0.00087268,-0.00025946,0.00170435,0.01505200,-0.01267732,0.009
 58052,0.02181188,-0.12529021,0.06259177,0.01615385,0.55184603,-0.00038
 869,-0.00104425,-0.00012241,0.00015882,0.00007948,0.00019487,0.0001875
 1,-0.00018868,0.00004042,-0.00002779,0.00000848,0.00003248,0.00012473,
 0.00054614,-0.00083263,-0.00209710,-0.00400500,-0.00071589,-0.00010112
 ,0.00204890,0.00079304,0.00590854,-0.00553010,0.01212773,-0.03201140,0
 .06733585,-0.17166498,-0.02395201,0.03892851,0.54115130,0.00924948,0.0
 1910160,0.00289366,-0.00127012,0.00485188,0.00186155,-0.00048695,0.000
 44032,0.00013847,0.00009900,-0.00005656,0.00001318,-0.00170967,-0.0001
 6546,-0.00038727,0.00205543,0.00453023,0.00470669,-0.00031118,-0.00102
 369,-0.00059846,-0.03855319,-0.01413996,0.00353231,-0.12890059,-0.1017
 6766,0.01748673,0.00454960,0.00319245,-0.00131510,0.15592090,0.0169476
 0,0.02635336,0.00311548,-0.00532523,-0.00379427,-0.00032850,-0.0001934
 7,0.00008644,-0.00001553,0.00004565,-0.00009875,-0.00004705,-0.0000116
 9,0.00049415,0.00063076,0.00612166,-0.00325390,-0.00090566,-0.00234569
 ,0.00156700,0.00058395,0.01149994,0.01472777,-0.00320372,-0.09005742,-
 0.14653358,0.01159071,-0.01759599,-0.02182395,0.00415093,0.08930756,0.
 14492775,0.00001517,-0.00296933,0.00058011,-0.00039749,-0.00252467,0.0
 0108119,0.00003959,-0.00001965,-0.00005037,-0.00000670,-0.00000345,-0.
 00001632,0.00034522,-0.00005726,0.00037660,-0.00067301,-0.00327242,-0.
 00159820,-0.00166097,0.00117590,0.00083571,0.00968648,0.00499008,-0.00
 108712,0.02594355,0.02587289,-0.04730334,0.01373001,0.01952083,-0.0047
 9624,-0.02884432,-0.02553449,0.04888731,0.00094210,0.00179337,0.000696
 23,-0.00058241,0.00046456,-0.00008473,-0.00005018,0.00001177,0.0000270
 7,0.00004038,-0.00002435,0.00004177,-0.00022359,0.00016422,-0.00086232
 ,0.00409278,0.00623801,0.00392460,-0.00256587,-0.00344980,-0.00082891,
 -0.01179104,0.02093803,0.03123788,-0.05322040,-0.02182916,-0.04469025,
 0.00035389,-0.00580713,-0.00721131,-0.00265429,-0.01252667,-0.01714530
 ,0.06518910,0.00102944,0.00208810,0.00080552,-0.00027437,0.00061446,-0
 .00012425,0.00006068,-0.00001444,0.00004629,-0.00001224,0.00000812,0.0
 0000827,0.00030150,-0.00018468,-0.00029272,-0.00337357,-0.00099285,-0.
 00076612,-0.00174477,0.00048488,0.00128664,0.00818696,-0.01158249,-0.0
 1458423,-0.01348370,-0.11027684,-0.11496486,0.00219420,0.01226441,0.02
 042671,-0.00564924,-0.01324888,-0.01886019,0.01195821,0.12216379,-0.00
 146970,-0.00259094,-0.00004635,0.00046812,-0.00008311,-0.00013538,-0.0
 0001599,0.00000897,0.00007181,-0.00001565,-0.00000499,-0.00000264,0.00
 025294,0.00019785,-0.00025103,-0.00305643,-0.00377000,-0.00047535,-0.0
 0185104,0.00182385,0.00113090,0.00743976,-0.00559684,-0.00418593,-0.03
 276589,-0.11223783,-0.25356514,-0.00436445,-0.01112829,-0.01863468,0.0
 0147338,0.00576912,0.00449962,0.03538254,0.12471045,0.27249279,0.00003
 190,0.00006391,-0.00007046,-0.00006375,-0.00007039,-0.00000984,-0.0000
 5995,0.00003975,-0.00002489,0.00002265,-0.00001455,-0.00000611,-0.0001
 1677,0.00000680,0.00026376,0.00136837,0.00026131,0.00034302,-0.0002171
 1,-0.00005898,-0.00049028,-0.00001488,0.00086032,-0.00218380,-0.009327
 91,0.00172297,0.00398629,-0.26900558,0.09192614,0.05571370,0.00042110,
 0.00025540,-0.00004780,0.00008428,-0.00015667,-0.00042206,0.28999816,-
 0.00036463,-0.00007135,-0.00004655,0.00011838,0.00010877,-0.00010720,0
 .00006650,-0.00003491,-0.00003466,-0.00002127,0.00000026,0.00001340,0.
 00027727,0.00011138,-0.00010844,-0.00172338,-0.00275197,-0.00042721,-0
 .00011765,0.00130750,0.00010497,0.00495272,-0.00211344,0.00429284,0.01
 612920,-0.00730588,-0.00797252,0.09015155,-0.08278701,-0.02148348,-0.0
 0000575,0.00044091,-0.00046525,-0.00013986,0.00057831,0.00016282,-0.10
 122925,0.08792064,0.00008616,0.00006243,-0.00000052,-0.00006687,-0.000
 00623,-0.00003720,-0.00010320,0.00009765,0.00001040,0.00001769,0.00000
 525,-0.00001766,-0.00027825,-0.00027512,0.00034353,0.00129978,0.001993
 82,0.00023833,-0.00010530,-0.00079933,-0.00047145,-0.00520630,0.004492
 88,-0.00365133,-0.02128495,0.00653839,0.00801064,0.05739223,-0.0228644
 1,-0.06181100,0.00021299,-0.00025743,0.00090734,0.00030422,-0.00116270
 ,0.00020073,-0.06058999,0.02270684,0.06317398,-0.00020520,-0.00005910,
 -0.00015421,0.00012229,-0.00001098,-0.00006888,0.00000755,0.00000829,0
 .00002952,-0.00002031,0.00000582,-0.00000797,0.00005363,0.00001134,0.0
 0000672,-0.00097462,-0.00125340,-0.00063550,-0.00015872,0.00087538,0.0
 0012384,0.00175442,-0.00103827,0.00052840,-0.00282432,-0.00461911,-0.0
 0950760,-0.04825540,-0.01110079,-0.01546638,0.00023764,0.00054515,0.00
 070776,0.00021454,0.00142081,-0.00162803,0.00362886,0.01445294,0.02579
 616,0.04747845,0.00001228,0.00020940,-0.00044929,0.00012675,-0.0001113
 3,0.00020012,-0.00003479,-0.00000317,-0.00000602,0.00000609,0.00000460
 ,-0.00000874,-0.00003609,0.00003110,0.00015317,0.00039006,0.00007575,-
 0.00022165,-0.00016651,0.00017402,-0.00026765,-0.00208544,0.00131299,-
 0.00110856,0.00193830,0.01144920,0.02150070,-0.01069412,-0.12214694,-0
 .12273602,-0.00018195,0.00124130,-0.00055700,0.00176799,-0.00268121,0.
 00324051,-0.00197991,-0.00657195,-0.00888722,0.01021004,0.12845894,0.0
 0002432,-0.00018992,0.00053599,-0.00006590,0.00011206,-0.00033388,-0.0
 0003662,0.00003768,0.00002129,-0.00000100,-0.00000701,-0.00000276,-0.0
 0003446,0.00002693,-0.00003508,-0.00031371,-0.00054707,-0.00031279,0.0
 0001328,0.00033993,0.00026290,0.00104852,-0.00041691,0.00274405,-0.001
 42470,-0.01360602,-0.02448168,-0.01638492,-0.11969006,-0.24490460,0.00
 018184,-0.00016839,0.00051537,-0.00125116,0.00400392,-0.00199111,-0.00
 057212,-0.00224346,-0.00484657,0.01896557,0.12945100,0.26795872,-0.000
 52127,-0.00103094,-0.00016726,0.00017854,-0.00008244,-0.00008867,0.000
 06413,-0.00005386,-0.00003628,-0.00002247,0.00001676,0.00001436,0.0001
 2775,-0.00004964,-0.00003560,-0.00058018,0.00077503,-0.00007465,-0.000
 48653,-0.00032631,-0.00051156,0.00159868,-0.00133154,0.00090040,0.0060
 9658,0.00929348,-0.00099195,-0.15952563,-0.13317040,0.02047760,0.00135
 283,0.00333319,-0.00169220,0.00017071,-0.00045723,0.00057251,-0.016749
 39,-0.02254677,0.00252563,-0.00105881,0.00072730,-0.00014892,0.1693550
 3,-0.00007535,-0.00012984,0.00001751,-0.00010326,0.00027174,0.00006761
 ,-0.00005880,0.00006163,0.00001044,0.00001506,-0.00002242,-0.00001645,
 -0.00000131,0.00003909,0.00019383,0.00025556,-0.00202605,0.00006910,-0
 .00041675,0.00118381,-0.00050798,0.00055006,0.00174339,-0.00109855,-0.
 01314157,-0.01684879,0.00420558,-0.13285906,-0.20444615,0.02146251,0.0
 0156623,-0.00108535,0.00270402,0.00044081,0.00077932,-0.00050156,0.008
 37314,0.01116873,-0.00164483,-0.00944812,-0.01144269,0.00289732,0.1449
 0336,0.22075358,-0.00044649,-0.00094788,0.00015631,0.00019783,-0.00021
 033,-0.00030814,0.00008239,-0.00005407,-0.00002920,-0.00000464,0.00001
 584,0.00002096,-0.00001617,-0.00013625,-0.00022392,0.00007954,0.002191
 44,0.00093123,0.00024497,-0.00152230,-0.00041939,-0.00067824,-0.002430
 70,0.00099972,0.01813323,0.02049952,-0.00482649,0.01862578,0.02106166,
 -0.05085738,-0.00135564,0.00461981,-0.00283164,0.00045966,-0.00053273,
 0.00089175,0.00411059,0.00560789,-0.00204920,-0.01868940,-0.02030336,0
 .00487015,-0.02074341,-0.02785854,0.05367526\\-0.00467673,-0.01254956,
 -0.00189906,0.00016560,0.00017017,-0.00011556,0.00013292,-0.00007130,-
 0.00002937,0.00002154,0.00000448,0.00000900,0.00001071,-0.00018179,-0.
 00021622,-0.00004637,-0.00030764,-0.00030986,0.00102032,-0.00027114,-0
 .00052407,-0.00105757,0.00064132,0.00113175,0.00218967,0.00748195,0.00
 277459,0.00117215,0.00217450,-0.00139641,-0.00016036,0.00112186,0.0015
 6790,0.00113570,0.00152750,-0.00041075,0.00011777,0.00025513,-0.000139
 43,-0.00007015,-0.00015173,0.00009886,0.00004480,0.00015626,-0.0005413
 7\\\@


 GROWING OLD ISN'T SO BAD -- WHEN YOU CONSIDER THE ALTERNATIVE.

                     -- MAURICE CHEVALIER
 Job cpu time:       0 days  0 hours 53 minutes 38.2 seconds.
 Elapsed time:       0 days  0 hours  2 minutes 14.1 seconds.
 File lengths (MBytes):  RWF=    153 Int=      0 D2E=      0 Chk=      5 Scr=      1
 Normal termination of Gaussian 16 at Sat Aug 16 15:26:16 2025.
