 Entering Gaussian System, Link 0=g16
 Initial command:
 /opt/g16/l1.exe "/home/aayush/scratches/g16/Gau-21809.inp" -scrdir="/home/aayush/scratches/g16/"
 Entering Link 1 = /opt/g16/l1.exe PID=     21812.
  
 Copyright (c) 1988,1990,1992,1993,1995,1998,2003,2009,2016,
            Gaussian, Inc.  All Rights Reserved.
  
 This is part of the Gaussian(R) 16 program.  It is based on
 the Gaussian(R) 09 system (copyright 2009, Gaussian, Inc.),
 the Gaussian(R) 03 system (copyright 2003, Gaussian, Inc.),
 the Gaussian(R) 98 system (copyright 1998, Gaussian, Inc.),
 the Gaussian(R) 94 system (copyright 1995, Gaussian, Inc.),
 the Gaussian 92(TM) system (copyright 1992, Gaussian, Inc.),
 the Gaussian 90(TM) system (copyright 1990, Gaussian, Inc.),
 the Gaussian 88(TM) system (copyright 1988, Gaussian, Inc.),
 the Gaussian 86(TM) system (copyright 1986, Carnegie Mellon
 University), and the Gaussian 82(TM) system (copyright 1983,
 Carnegie Mellon University). Gaussian is a federally registered
 trademark of Gaussian, Inc.
  
 This software contains proprietary and confidential information,
 including trade secrets, belonging to Gaussian, Inc.
  
 This software is provided under written license and may be
 used, copied, transmitted, or stored only in accord with that
 written license.
  
 The following legend is applicable only to US Government
 contracts under FAR:
  
                    RESTRICTED RIGHTS LEGEND
  
 Use, reproduction and disclosure by the US Government is
 subject to restrictions as set forth in subparagraphs (a)
 and (c) of the Commercial Computer Software - Restricted
 Rights clause in FAR 52.227-19.
  
 Gaussian, Inc.
 340 Quinnipiac St., Bldg. 40, Wallingford CT 06492
  
  
 ---------------------------------------------------------------
 Warning -- This program may not be used in any manner that
 competes with the business of Gaussian, Inc. or will provide
 assistance to any competitor of Gaussian, Inc.  The licensee
 of this program is prohibited from giving any competitor of
 Gaussian, Inc. access to this program.  By using this program,
 the user acknowledges that Gaussian, Inc. is engaged in the
 business of creating and licensing software in the field of
 computational chemistry and represents and warrants to the
 licensee that it is not a competitor of Gaussian, Inc. and that
 it will not use this program in any manner prohibited above.
 ---------------------------------------------------------------
  

 Cite this work as:
 Gaussian 16, Revision A.03,
 M. J. Frisch, G. W. Trucks, H. B. Schlegel, G. E. Scuseria, 
 M. A. Robb, J. R. Cheeseman, G. Scalmani, V. Barone, 
 G. A. Petersson, H. Nakatsuji, X. Li, M. Caricato, A. V. Marenich, 
 J. Bloino, B. G. Janesko, R. Gomperts, B. Mennucci, H. P. Hratchian, 
 J. V. Ortiz, A. F. Izmaylov, J. L. Sonnenberg, D. Williams-Young, 
 F. Ding, F. Lipparini, F. Egidi, J. Goings, B. Peng, A. Petrone, 
 T. Henderson, D. Ranasinghe, V. G. Zakrzewski, J. Gao, N. Rega, 
 G. Zheng, W. Liang, M. Hada, M. Ehara, K. Toyota, R. Fukuda, 
 J. Hasegawa, M. Ishida, T. Nakajima, Y. Honda, O. Kitao, H. Nakai, 
 T. Vreven, K. Throssell, J. A. Montgomery, Jr., J. E. Peralta, 
 F. Ogliaro, M. J. Bearpark, J. J. Heyd, E. N. Brothers, K. N. Kudin, 
 V. N. Staroverov, T. A. Keith, R. Kobayashi, J. Normand, 
 K. Raghavachari, A. P. Rendell, J. C. Burant, S. S. Iyengar, 
 J. Tomasi, M. Cossi, J. M. Millam, M. Klene, C. Adamo, R. Cammi, 
 J. W. Ochterski, R. L. Martin, K. Morokuma, O. Farkas, 
 J. B. Foresman, and D. J. Fox, Gaussian, Inc., Wallingford CT, 2016.
 
 ******************************************
 Gaussian 16:  ES64L-G16RevA.03 25-Dec-2016
                23-Jun-2025 
 ******************************************
 %nprocshared=24
 Will use up to   24 processors via shared memory.
 %mem=12GB
 %chk=ethyl_propiolate_ts1.chk
 --------------------------
 # freq 6-311++g(d,p) m062x
 --------------------------
 1/10=4,30=1,38=1/1,3;
 2/12=2,17=6,18=5,40=1/2;
 3/5=4,6=6,7=1111,11=2,25=1,30=1,71=2,74=-55,140=1/1,2,3;
 4//1;
 5/5=2,38=5,98=1/2;
 8/6=4,10=90,11=11/1;
 11/6=1,8=1,9=11,15=111,16=1/1,2,10;
 10/6=1/2;
 6/7=2,8=2,9=2,10=2,28=1/1;
 7/8=1,10=1,25=1/1,2,3,16;
 1/10=4,30=1/3;
 99//99;
 -------------------
 Title Card Required
 -------------------
 Symbolic Z-matrix:
 Charge =  0 Multiplicity = 2
 O                     2.66392   1.79326  -0.24292 
 H                     1.82252   2.2243   -0.01188 
 C                    -3.18949   1.04032   0.40342 
 H                    -4.06879   1.58825   0.64984 
 C                    -2.20152   0.4223    0.12613 
 C                    -1.03301  -0.36911  -0.22645 
 O                    -1.08356  -1.47144  -0.69286 
 O                     0.09795   0.29967   0.03529 
 C                     1.31181  -0.39736  -0.29265 
 C                     1.76429  -1.30646   0.82045 
 H                     2.06589   0.39204  -0.45407 
 H                     1.18477  -0.9136   -1.24428 
 H                     2.74693  -1.71307   0.57548 
 H                     1.84332  -0.75215   1.75671 
 H                     1.06626  -2.13582   0.94674 
 

 GradGradGradGradGradGradGradGradGradGradGradGradGradGradGradGradGradGrad
 Berny optimization.
 Initialization pass.
 Trust Radius=3.00D-01 FncErr=1.00D-07 GrdErr=1.00D-07 EigMax=2.50D+02 EigMin=1.00D-04
 Number of steps in this run=      2 maximum allowed number of steps=      2.
 GradGradGradGradGradGradGradGradGradGradGradGradGradGradGradGradGradGrad

                          Input orientation:                          
 ---------------------------------------------------------------------
 Center     Atomic      Atomic             Coordinates (Angstroms)
 Number     Number       Type             X           Y           Z
 ---------------------------------------------------------------------
      1          8           0        2.663924    1.793259   -0.242922
      2          1           0        1.822515    2.224295   -0.011876
      3          6           0       -3.189487    1.040319    0.403417
      4          1           0       -4.068786    1.588250    0.649843
      5          6           0       -2.201524    0.422299    0.126133
      6          6           0       -1.033008   -0.369110   -0.226452
      7          8           0       -1.083556   -1.471440   -0.692857
      8          8           0        0.097954    0.299669    0.035289
      9          6           0        1.311813   -0.397357   -0.292652
     10          6           0        1.764293   -1.306459    0.820448
     11          1           0        2.065889    0.392036   -0.454074
     12          1           0        1.184772   -0.913603   -1.244276
     13          1           0        2.746931   -1.713066    0.575476
     14          1           0        1.843317   -0.752147    1.756714
     15          1           0        1.066259   -2.135820    0.946741
 ---------------------------------------------------------------------
                    Distance matrix (angstroms):
                    1          2          3          4          5
     1  O    0.000000
     2  H    0.973213   0.000000
     3  C    5.936926   5.166665   0.000000
     4  H    6.794736   5.962370   1.064951   0.000000
     5  C    5.068364   4.411250   1.197876   2.262826   0.000000
     6  C    4.282922   3.863393   2.652099   3.716867   1.454673
     7  O    4.990422   4.750520   3.456255   4.480641   2.346667
     8  O    2.982015   2.584670   3.389889   4.404525   2.304537
     9  C    2.574777   2.685649   4.776309   5.812209   3.631908
    10  C    3.398285   3.627999   5.497383   6.514081   4.381596
    11  H    1.538069   1.900511   5.364190   6.346952   4.306782
    12  H    3.243101   3.431025   5.066246   6.119381   3.889686
    13  H    3.601525   4.086850   6.546128   7.573521   5.408225
    14  H    3.339316   3.462304   5.511213   6.454114   4.516509
    15  H    4.405167   4.527855   5.338018   6.350239   4.230340
                    6          7          8          9         10
     6  C    0.000000
     7  O    1.198007   0.000000
     8  O    1.339720   2.250109   0.000000
     9  C    2.345925   2.655487   1.437652   0.000000
    10  C    3.130418   3.229172   2.443933   1.506717   0.000000
    11  H    3.199112   3.667228   2.029969   1.103553   2.144820
    12  H    2.500197   2.400116   2.071350   1.090063   2.180199
    13  H    4.091118   4.042237   3.370457   2.131736   1.091292
    14  H    3.514671   3.883860   2.667567   2.146689   1.090917
    15  H    2.984052   2.784131   2.774881   2.149103   1.091348
                   11         12         13         14         15
    11  H    0.000000
    12  H    1.762237   0.000000
    13  H    2.440337   2.528039   0.000000
    14  H    2.499255   3.076636   1.770652   0.000000
    15  H    3.058038   2.511656   1.772348   1.781692   0.000000
 Stoichiometry    C5H7O3(2)
 Framework group  C1[X(C5H7O3)]
 Deg. of freedom    39
 Full point group                 C1      NOp   1
 Largest Abelian subgroup         C1      NOp   1
 Largest concise Abelian subgroup C1      NOp   1
                         Standard orientation:                         
 ---------------------------------------------------------------------
 Center     Atomic      Atomic             Coordinates (Angstroms)
 Number     Number       Type             X           Y           Z
 ---------------------------------------------------------------------
      1          8           0        2.663924    1.793259   -0.242922
      2          1           0        1.822515    2.224295   -0.011876
      3          6           0       -3.189487    1.040319    0.403417
      4          1           0       -4.068786    1.588250    0.649843
      5          6           0       -2.201524    0.422299    0.126133
      6          6           0       -1.033008   -0.369110   -0.226452
      7          8           0       -1.083556   -1.471440   -0.692857
      8          8           0        0.097954    0.299669    0.035289
      9          6           0        1.311813   -0.397357   -0.292652
     10          6           0        1.764293   -1.306459    0.820448
     11          1           0        2.065889    0.392036   -0.454074
     12          1           0        1.184772   -0.913603   -1.244276
     13          1           0        2.746931   -1.713066    0.575476
     14          1           0        1.843317   -0.752147    1.756714
     15          1           0        1.066259   -2.135820    0.946741
 ---------------------------------------------------------------------
 Rotational constants (GHZ):           2.9755026           1.1270272           0.8954996
 Standard basis: 6-311++G(d,p) (5D, 7F)
 There are   233 symmetry adapted cartesian basis functions of A   symmetry.
 There are   225 symmetry adapted basis functions of A   symmetry.
   225 basis functions,   351 primitive gaussians,   233 cartesian basis functions
    31 alpha electrons       30 beta electrons
       nuclear repulsion energy       347.6975489338 Hartrees.
 NAtoms=   15 NActive=   15 NUniq=   15 SFac= 1.00D+00 NAtFMM=   60 NAOKFM=F Big=F
 Integral buffers will be    131072 words long.
 Raffenetti 2 integral format.
 Two-electron integral symmetry is turned on.
 One-electron integrals computed using PRISM.
 NBasis=   225 RedAO= T EigKep=  7.69D-06  NBF=   225
 NBsUse=   224 1.00D-06 EigRej=  7.97D-07 NBFU=   224
 ExpMin= 3.60D-02 ExpMax= 8.59D+03 ExpMxC= 1.30D+03 IAcc=3 IRadAn=         5 AccDes= 0.00D+00
 Harris functional with IExCor= 1009 and IRadAn=       5 diagonalized for initial guess.
 HarFok:  IExCor= 1009 AccDes= 0.00D+00 IRadAn=         5 IDoV= 1 UseB2=F ITyADJ=14
 ICtDFT=  3500011 ScaDFX=  1.000000  1.000000  1.000000  1.000000
 FoFCou: FMM=F IPFlag=           0 FMFlag=      100000 FMFlg1=           0
         NFxFlg=           0 DoJE=T BraDBF=F KetDBF=T FulRan=T
         wScrn=  0.000000 ICntrl=       500 IOpCl=  0 I1Cent=   200000004 NGrid=           0
         NMat0=    1 NMatS0=      1 NMatT0=    0 NMatD0=    1 NMtDS0=    0 NMtDT0=    0
 Petite list used in FoFCou.
 Initial guess <Sx>= 0.0000 <Sy>= 0.0000 <Sz>= 0.5000 <S**2>= 0.7500 S= 0.5000
 Requested convergence on RMS density matrix=1.00D-08 within 128 cycles.
 Requested convergence on MAX density matrix=1.00D-06.
 Requested convergence on             energy=1.00D-06.
 No special actions if energy rises.
 Restarting incremental Fock formation.
 SCF Done:  E(UM062X) =  -420.200963877     A.U. after   21 cycles
            NFock= 21  Conv=0.38D-08     -V/T= 2.0031
 <Sx>= 0.0000 <Sy>= 0.0000 <Sz>= 0.5000 <S**2>= 0.7557 S= 0.5028
 <L.S>=  0.00000000000    
 Annihilation of the first spin contaminant:
 S**2 before annihilation     0.7557,   after     0.7500
 DoSCS=F DFT=T ScalE2(SS,OS)=  1.000000  1.000000
 Range of M.O.s used for correlation:     1   224
 NBasis=   225 NAE=    31 NBE=    30 NFC=     0 NFV=     0
 NROrb=    224 NOA=    31 NOB=    30 NVA=   193 NVB=   194

 **** Warning!!: The largest alpha MO coefficient is  0.11055778D+03


 **** Warning!!: The largest beta MO coefficient is  0.10186822D+03

 Symmetrizing basis deriv contribution to polar:
 IMax=3 JMax=2 DiffMx= 0.00D+00
 G2DrvN: will do    16 centers at a time, making    1 passes.
 Calling FoFCou, ICntrl=  3107 FMM=F I1Cent=   0 AccDes= 0.00D+00.
 End of G2Drv F.D. properties file   721 does not exist.
 End of G2Drv F.D. properties file   722 does not exist.
 End of G2Drv F.D. properties file   788 does not exist.
          IDoAtm=111111111111111
          Differentiating once with respect to electric field.
                with respect to dipole field.
          Differentiating once with respect to nuclear coordinates.
 Keep R1 and R2 ints in memory in canonical form, NReq=671901989.
          There are    48 degrees of freedom in the 1st order CPHF.  IDoFFX=6 NUNeed=     3.
     45 vectors produced by pass  0 Test12= 2.46D-14 2.08D-09 XBig12= 8.76D+01 3.23D+00.
 AX will form    45 AO Fock derivatives at one time.
     45 vectors produced by pass  1 Test12= 2.46D-14 2.08D-09 XBig12= 1.78D+01 7.00D-01.
     45 vectors produced by pass  2 Test12= 2.46D-14 2.08D-09 XBig12= 5.97D-01 1.24D-01.
     45 vectors produced by pass  3 Test12= 2.46D-14 2.08D-09 XBig12= 8.69D-03 1.34D-02.
     45 vectors produced by pass  4 Test12= 2.46D-14 2.08D-09 XBig12= 7.14D-05 9.32D-04.
     45 vectors produced by pass  5 Test12= 2.46D-14 2.08D-09 XBig12= 4.93D-07 1.09D-04.
     42 vectors produced by pass  6 Test12= 2.46D-14 2.08D-09 XBig12= 3.41D-09 6.53D-06.
     18 vectors produced by pass  7 Test12= 2.46D-14 2.08D-09 XBig12= 2.11D-11 5.53D-07.
      3 vectors produced by pass  8 Test12= 2.46D-14 2.08D-09 XBig12= 1.90D-13 3.65D-08.
      2 vectors produced by pass  9 Test12= 2.46D-14 2.08D-09 XBig12= 1.97D-15 4.13D-09.
 InvSVY:  IOpt=1 It=  1 EMax= 5.33D-15
 Solved reduced A of dimension   335 with    48 vectors.
 Isotropic polarizability for W=    0.000000       73.18 Bohr**3.
 End of Minotr F.D. properties file   721 does not exist.
 End of Minotr F.D. properties file   722 does not exist.
 End of Minotr F.D. properties file   788 does not exist.

 **********************************************************************

            Population analysis using the SCF density.

 **********************************************************************

 Orbital symmetries:
 Alpha Orbitals:
       Occupied  (A) (A) (A) (A) (A) (A) (A) (A) (A) (A) (A) (A)
                 (A) (A) (A) (A) (A) (A) (A) (A) (A) (A) (A) (A)
                 (A) (A) (A) (A) (A) (A) (A)
       Virtual   (A) (A) (A) (A) (A) (A) (A) (A) (A) (A) (A) (A)
                 (A) (A) (A) (A) (A) (A) (A) (A) (A) (A) (A) (A)
                 (A) (A) (A) (A) (A) (A) (A) (A) (A) (A) (A) (A)
                 (A) (A) (A) (A) (A) (A) (A) (A) (A) (A) (A) (A)
                 (A) (A) (A) (A) (A) (A) (A) (A) (A) (A) (A) (A)
                 (A) (A) (A) (A) (A) (A) (A) (A) (A) (A) (A) (A)
                 (A) (A) (A) (A) (A) (A) (A) (A) (A) (A) (A) (A)
                 (A) (A) (A) (A) (A) (A) (A) (A) (A) (A) (A) (A)
                 (A) (A) (A) (A) (A) (A) (A) (A) (A) (A) (A) (A)
                 (A) (A) (A) (A) (A) (A) (A) (A) (A) (A) (A) (A)
                 (A) (A) (A) (A) (A) (A) (A) (A) (A) (A) (A) (A)
                 (A) (A) (A) (A) (A) (A) (A) (A) (A) (A) (A) (A)
                 (A) (A) (A) (A) (A) (A) (A) (A) (A) (A) (A) (A)
                 (A) (A) (A) (A) (A) (A) (A) (A) (A) (A) (A) (A)
                 (A) (A) (A) (A) (A) (A) (A) (A) (A) (A) (A) (A)
                 (A) (A) (A) (A) (A) (A) (A) (A) (A) (A) (A) (A)
                 (A)
 Beta  Orbitals:
       Occupied  (A) (A) (A) (A) (A) (A) (A) (A) (A) (A) (A) (A)
                 (A) (A) (A) (A) (A) (A) (A) (A) (A) (A) (A) (A)
                 (A) (A) (A) (A) (A) (A)
       Virtual   (A) (A) (A) (A) (A) (A) (A) (A) (A) (A) (A) (A)
                 (A) (A) (A) (A) (A) (A) (A) (A) (A) (A) (A) (A)
                 (A) (A) (A) (A) (A) (A) (A) (A) (A) (A) (A) (A)
                 (A) (A) (A) (A) (A) (A) (A) (A) (A) (A) (A) (A)
                 (A) (A) (A) (A) (A) (A) (A) (A) (A) (A) (A) (A)
                 (A) (A) (A) (A) (A) (A) (A) (A) (A) (A) (A) (A)
                 (A) (A) (A) (A) (A) (A) (A) (A) (A) (A) (A) (A)
                 (A) (A) (A) (A) (A) (A) (A) (A) (A) (A) (A) (A)
                 (A) (A) (A) (A) (A) (A) (A) (A) (A) (A) (A) (A)
                 (A) (A) (A) (A) (A) (A) (A) (A) (A) (A) (A) (A)
                 (A) (A) (A) (A) (A) (A) (A) (A) (A) (A) (A) (A)
                 (A) (A) (A) (A) (A) (A) (A) (A) (A) (A) (A) (A)
                 (A) (A) (A) (A) (A) (A) (A) (A) (A) (A) (A) (A)
                 (A) (A) (A) (A) (A) (A) (A) (A) (A) (A) (A) (A)
                 (A) (A) (A) (A) (A) (A) (A) (A) (A) (A) (A) (A)
                 (A) (A) (A) (A) (A) (A) (A) (A) (A) (A) (A) (A)
                 (A) (A)
 The electronic state is 2-A.
 Alpha  occ. eigenvalues --  -19.69410 -19.68480 -19.64065 -10.71502 -10.61240
 Alpha  occ. eigenvalues --  -10.57694 -10.57268 -10.54210  -1.26625  -1.17378
 Alpha  occ. eigenvalues --   -1.14596  -0.91198  -0.87683  -0.78739  -0.71482
 Alpha  occ. eigenvalues --   -0.65633  -0.61960  -0.59965  -0.57879  -0.57053
 Alpha  occ. eigenvalues --   -0.55286  -0.50150  -0.49995  -0.47211  -0.45326
 Alpha  occ. eigenvalues --   -0.43678  -0.40823  -0.40215  -0.38274  -0.37857
 Alpha  occ. eigenvalues --   -0.36954
 Alpha virt. eigenvalues --   -0.02267  -0.00591   0.00653   0.01347   0.01963
 Alpha virt. eigenvalues --    0.03360   0.03555   0.04709   0.06012   0.06119
 Alpha virt. eigenvalues --    0.06640   0.07417   0.08181   0.09561   0.10357
 Alpha virt. eigenvalues --    0.11401   0.11861   0.12526   0.12822   0.13018
 Alpha virt. eigenvalues --    0.14104   0.14386   0.15213   0.15874   0.16634
 Alpha virt. eigenvalues --    0.17727   0.18186   0.18590   0.19471   0.20158
 Alpha virt. eigenvalues --    0.21467   0.22300   0.23836   0.24669   0.25616
 Alpha virt. eigenvalues --    0.26456   0.27560   0.27877   0.28744   0.29918
 Alpha virt. eigenvalues --    0.30758   0.31176   0.32175   0.32776   0.33908
 Alpha virt. eigenvalues --    0.34470   0.35451   0.37015   0.37923   0.40807
 Alpha virt. eigenvalues --    0.42871   0.44503   0.46847   0.47976   0.50828
 Alpha virt. eigenvalues --    0.51053   0.53510   0.56313   0.57764   0.59982
 Alpha virt. eigenvalues --    0.60833   0.63172   0.64738   0.67098   0.67796
 Alpha virt. eigenvalues --    0.68341   0.69892   0.71050   0.72649   0.74072
 Alpha virt. eigenvalues --    0.75230   0.76948   0.79922   0.82142   0.84274
 Alpha virt. eigenvalues --    0.88964   0.93118   0.95963   1.00294   1.03611
 Alpha virt. eigenvalues --    1.07055   1.08148   1.10643   1.11602   1.14165
 Alpha virt. eigenvalues --    1.15508   1.17144   1.17790   1.18626   1.21360
 Alpha virt. eigenvalues --    1.23201   1.24008   1.28797   1.30000   1.34429
 Alpha virt. eigenvalues --    1.35787   1.36649   1.38049   1.40708   1.43332
 Alpha virt. eigenvalues --    1.47874   1.49227   1.49986   1.53590   1.59108
 Alpha virt. eigenvalues --    1.60201   1.60981   1.62355   1.63565   1.65638
 Alpha virt. eigenvalues --    1.66985   1.67893   1.69924   1.74389   1.76762
 Alpha virt. eigenvalues --    1.80740   1.83885   1.85136   1.89149   1.90594
 Alpha virt. eigenvalues --    1.96275   2.00652   2.02488   2.05666   2.08035
 Alpha virt. eigenvalues --    2.10158   2.14211   2.20973   2.29813   2.34166
 Alpha virt. eigenvalues --    2.41868   2.47722   2.50672   2.51226   2.53841
 Alpha virt. eigenvalues --    2.57364   2.60190   2.60998   2.63238   2.64659
 Alpha virt. eigenvalues --    2.66178   2.69528   2.71979   2.73168   2.79080
 Alpha virt. eigenvalues --    2.82098   2.82427   2.86362   2.92118   2.94114
 Alpha virt. eigenvalues --    2.98204   3.01444   3.03735   3.05851   3.09424
 Alpha virt. eigenvalues --    3.12599   3.14159   3.15770   3.20789   3.23991
 Alpha virt. eigenvalues --    3.29517   3.33257   3.36008   3.37713   3.43316
 Alpha virt. eigenvalues --    3.56563   3.65954   3.73167   3.81840   3.85708
 Alpha virt. eigenvalues --    3.86327   3.93309   4.05603   4.12654   4.18358
 Alpha virt. eigenvalues --    4.27851   5.05298   5.12074   5.13296   5.16779
 Alpha virt. eigenvalues --    5.31053   5.45877   5.54611   5.72090   5.93954
 Alpha virt. eigenvalues --   23.62135  23.93666  23.94244  24.05447  25.17250
 Alpha virt. eigenvalues --   49.93597  49.98798  50.10388
  Beta  occ. eigenvalues --  -19.69417 -19.66976 -19.64062 -10.71496 -10.61030
  Beta  occ. eigenvalues --  -10.57694 -10.57269 -10.54213  -1.26590  -1.17313
  Beta  occ. eigenvalues --   -1.07609  -0.90933  -0.87425  -0.78636  -0.70862
  Beta  occ. eigenvalues --   -0.65454  -0.61735  -0.59318  -0.57269  -0.55087
  Beta  occ. eigenvalues --   -0.52591  -0.49927  -0.47508  -0.45982  -0.42437
  Beta  occ. eigenvalues --   -0.40361  -0.40189  -0.39375  -0.37852  -0.36942
  Beta virt. eigenvalues --   -0.10751  -0.02251  -0.00411   0.00709   0.01600
  Beta virt. eigenvalues --    0.02046   0.03387   0.03578   0.04882   0.06088
  Beta virt. eigenvalues --    0.06175   0.06701   0.07539   0.08220   0.09744
  Beta virt. eigenvalues --    0.10479   0.11630   0.12101   0.12613   0.13039
  Beta virt. eigenvalues --    0.13149   0.14195   0.14489   0.15266   0.16061
  Beta virt. eigenvalues --    0.16719   0.17826   0.18231   0.18619   0.19777
  Beta virt. eigenvalues --    0.20187   0.21474   0.22410   0.23336   0.24405
  Beta virt. eigenvalues --    0.25611   0.26587   0.27690   0.28088   0.28863
  Beta virt. eigenvalues --    0.30109   0.30936   0.31458   0.32324   0.32829
  Beta virt. eigenvalues --    0.34016   0.34796   0.35557   0.37709   0.38141
  Beta virt. eigenvalues --    0.41370   0.43027   0.44601   0.46889   0.48062
  Beta virt. eigenvalues --    0.50860   0.51129   0.53706   0.56361   0.58004
  Beta virt. eigenvalues --    0.60267   0.61014   0.63226   0.64853   0.67183
  Beta virt. eigenvalues --    0.67869   0.68803   0.70182   0.71247   0.72708
  Beta virt. eigenvalues --    0.74104   0.75277   0.77045   0.80103   0.82303
  Beta virt. eigenvalues --    0.84294   0.89048   0.93240   0.96025   1.00887
  Beta virt. eigenvalues --    1.04065   1.07372   1.08897   1.10689   1.13326
  Beta virt. eigenvalues --    1.14511   1.15825   1.17183   1.18136   1.20283
  Beta virt. eigenvalues --    1.21860   1.23384   1.24221   1.28932   1.30116
  Beta virt. eigenvalues --    1.34687   1.35942   1.36825   1.38533   1.41010
  Beta virt. eigenvalues --    1.43381   1.48272   1.49850   1.50493   1.54917
  Beta virt. eigenvalues --    1.59217   1.60304   1.61022   1.62611   1.63572
  Beta virt. eigenvalues --    1.65773   1.67287   1.68157   1.70099   1.74322
  Beta virt. eigenvalues --    1.77139   1.80821   1.83889   1.85189   1.89795
  Beta virt. eigenvalues --    1.90734   1.96369   2.00772   2.02367   2.05730
  Beta virt. eigenvalues --    2.09026   2.10411   2.14440   2.21131   2.30144
  Beta virt. eigenvalues --    2.34177   2.41873   2.47957   2.50718   2.51300
  Beta virt. eigenvalues --    2.53959   2.57350   2.60434   2.61188   2.63415
  Beta virt. eigenvalues --    2.64808   2.66248   2.69544   2.71979   2.73244
  Beta virt. eigenvalues --    2.79206   2.82166   2.82574   2.89433   2.92997
  Beta virt. eigenvalues --    2.95620   2.98239   3.01576   3.03743   3.05863
  Beta virt. eigenvalues --    3.09540   3.13130   3.17429   3.18277   3.21023
  Beta virt. eigenvalues --    3.24192   3.30205   3.33316   3.37485   3.38299
  Beta virt. eigenvalues --    3.43352   3.56569   3.65973   3.73276   3.83059
  Beta virt. eigenvalues --    3.86204   3.86988   3.94528   4.05855   4.12762
  Beta virt. eigenvalues --    4.18404   4.28141   5.06997   5.13042   5.16446
  Beta virt. eigenvalues --    5.20943   5.31082   5.46115   5.56818   5.72127
  Beta virt. eigenvalues --    5.93962  23.62136  23.93701  23.94291  24.05451
  Beta virt. eigenvalues --   25.17251  49.93122  49.98805  50.10387
          Condensed to atoms (all electrons):
               1          2          3          4          5          6
     1  O    7.991158   0.271176  -0.000968  -0.000034   0.009386  -0.002175
     2  H    0.271176   0.476534  -0.000393  -0.000139  -0.000621  -0.001336
     3  C   -0.000968  -0.000393   5.813666   0.448136  -0.490909   0.959863
     4  H   -0.000034  -0.000139   0.448136   0.426351  -0.076355   0.024658
     5  C    0.009386  -0.000621  -0.490909  -0.076355   8.130277  -2.206580
     6  C   -0.002175  -0.001336   0.959863   0.024658  -2.206580   7.527551
     7  O   -0.000381  -0.000527  -0.095966  -0.003169   0.116581   0.361846
     8  O    0.013108   0.007188  -0.094741  -0.005291  -0.269557   0.049996
     9  C   -0.000570   0.008011   0.048373   0.000732  -0.246161   0.070178
    10  C   -0.015263   0.014301  -0.013065  -0.001244  -0.068092  -0.083296
    11  H   -0.004511  -0.036764   0.005213   0.000425  -0.015256   0.011771
    12  H    0.002312  -0.000727  -0.002807  -0.000092   0.015019   0.001757
    13  H   -0.002255   0.001973  -0.000677  -0.000032  -0.000394  -0.004214
    14  H    0.005245  -0.001517   0.000088   0.000011   0.007373   0.005507
    15  H   -0.003197   0.000141   0.004476   0.000050  -0.031147   0.006971
               7          8          9         10         11         12
     1  O   -0.000381   0.013108  -0.000570  -0.015263  -0.004511   0.002312
     2  H   -0.000527   0.007188   0.008011   0.014301  -0.036764  -0.000727
     3  C   -0.095966  -0.094741   0.048373  -0.013065   0.005213  -0.002807
     4  H   -0.003169  -0.005291   0.000732  -0.001244   0.000425  -0.000092
     5  C    0.116581  -0.269557  -0.246161  -0.068092  -0.015256   0.015019
     6  C    0.361846   0.049996   0.070178  -0.083296   0.011771   0.001757
     7  O    7.985979  -0.145372   0.073289  -0.089895   0.012671  -0.014316
     8  O   -0.145372   8.385474   0.176408   0.009100  -0.091781  -0.022028
     9  C    0.073289   0.176408   5.907525  -0.308186   0.406895   0.427913
    10  C   -0.089895   0.009100  -0.308186   5.877060  -0.119377  -0.062149
    11  H    0.012671  -0.091781   0.406895  -0.119377   0.638606  -0.053221
    12  H   -0.014316  -0.022028   0.427913  -0.062149  -0.053221   0.497785
    13  H   -0.002458   0.020465  -0.052421   0.421052  -0.017010  -0.005849
    14  H    0.000311  -0.008743  -0.028722   0.396760  -0.013738   0.004711
    15  H    0.003540  -0.018509  -0.006877   0.381205   0.018957  -0.007313
              13         14         15
     1  O   -0.002255   0.005245  -0.003197
     2  H    0.001973  -0.001517   0.000141
     3  C   -0.000677   0.000088   0.004476
     4  H   -0.000032   0.000011   0.000050
     5  C   -0.000394   0.007373  -0.031147
     6  C   -0.004214   0.005507   0.006971
     7  O   -0.002458   0.000311   0.003540
     8  O    0.020465  -0.008743  -0.018509
     9  C   -0.052421  -0.028722  -0.006877
    10  C    0.421052   0.396760   0.381205
    11  H   -0.017010  -0.013738   0.018957
    12  H   -0.005849   0.004711  -0.007313
    13  H    0.528240  -0.031289  -0.030637
    14  H   -0.031289   0.537075  -0.048883
    15  H   -0.030637  -0.048883   0.544824
          Atomic-Atomic Spin Densities.
               1          2          3          4          5          6
     1  O    0.945402   0.009683  -0.000329  -0.000006   0.003980  -0.000362
     2  H    0.009683  -0.031757   0.000191   0.000003  -0.001160  -0.000061
     3  C   -0.000329   0.000191   0.005274   0.000722  -0.014651   0.007822
     4  H   -0.000006   0.000003   0.000722   0.000102  -0.001975   0.001081
     5  C    0.003980  -0.001160  -0.014651  -0.001975   0.035799  -0.012329
     6  C   -0.000362  -0.000061   0.007822   0.001081  -0.012329  -0.000363
     7  O    0.000092  -0.000020  -0.001237  -0.000025   0.006457  -0.003954
     8  O    0.024318  -0.002192   0.002263   0.000030  -0.010567   0.010413
     9  C   -0.073771   0.006878  -0.000020  -0.000014  -0.007604  -0.003576
    10  C    0.023364  -0.002792  -0.001630  -0.000028   0.013068  -0.003931
    11  H   -0.061445   0.003182   0.001353   0.000083  -0.006358   0.005847
    12  H    0.002880  -0.000119   0.000154  -0.000009  -0.001014   0.000127
    13  H   -0.000088   0.000061   0.000028   0.000002  -0.000147   0.000191
    14  H    0.001969  -0.000332  -0.000036  -0.000012  -0.000164  -0.000111
    15  H   -0.001259   0.000152  -0.000002   0.000014   0.000241  -0.000285
               7          8          9         10         11         12
     1  O    0.000092   0.024318  -0.073771   0.023364  -0.061445   0.002880
     2  H   -0.000020  -0.002192   0.006878  -0.002792   0.003182  -0.000119
     3  C   -0.001237   0.002263  -0.000020  -0.001630   0.001353   0.000154
     4  H   -0.000025   0.000030  -0.000014  -0.000028   0.000083  -0.000009
     5  C    0.006457  -0.010567  -0.007604   0.013068  -0.006358  -0.001014
     6  C   -0.003954   0.010413  -0.003576  -0.003931   0.005847   0.000127
     7  O    0.001197   0.000602   0.000642  -0.000813  -0.001904   0.000369
     8  O    0.000602   0.010512  -0.033320   0.006933  -0.015778   0.001893
     9  C    0.000642  -0.033320   0.223693  -0.002420   0.071138  -0.012044
    10  C   -0.000813   0.006933  -0.002420  -0.017622  -0.022918   0.005868
    11  H   -0.001904  -0.015778   0.071138  -0.022918  -0.006951   0.002097
    12  H    0.000369   0.001893  -0.012044   0.005868   0.002097   0.001710
    13  H   -0.000037   0.000103  -0.001625   0.002299  -0.001402  -0.000091
    14  H    0.000254   0.001074  -0.007577   0.005969  -0.000181  -0.000115
    15  H   -0.000608   0.000057   0.004395  -0.003070  -0.000316  -0.000645
              13         14         15
     1  O   -0.000088   0.001969  -0.001259
     2  H    0.000061  -0.000332   0.000152
     3  C    0.000028  -0.000036  -0.000002
     4  H    0.000002  -0.000012   0.000014
     5  C   -0.000147  -0.000164   0.000241
     6  C    0.000191  -0.000111  -0.000285
     7  O   -0.000037   0.000254  -0.000608
     8  O    0.000103   0.001074   0.000057
     9  C   -0.001625  -0.007577   0.004395
    10  C    0.002299   0.005969  -0.003070
    11  H   -0.001402  -0.000181  -0.000316
    12  H   -0.000091  -0.000115  -0.000645
    13  H    0.000570  -0.000272  -0.000099
    14  H   -0.000272   0.001115  -0.000843
    15  H   -0.000099  -0.000843   0.010012
 Mulliken charges and spin densities:
               1          2
     1  O   -0.263030   0.874429
     2  H    0.262700  -0.018282
     3  C   -0.580288  -0.000098
     4  H    0.185991  -0.000032
     5  C    1.126436   0.003576
     6  C   -0.722498   0.000509
     7  O   -0.202134   0.001015
     8  O   -0.005716  -0.003658
     9  C   -0.476388   0.164776
    10  C   -0.338911   0.002280
    11  H    0.257120  -0.033553
    12  H    0.219004   0.001062
    13  H    0.175506  -0.000508
    14  H    0.175810   0.000739
    15  H    0.186398   0.007744
 Sum of Mulliken charges =  -0.00000   1.00000
 Mulliken charges and spin densities with hydrogens summed into heavy atoms:
               1          2
     1  O   -0.000330   0.856147
     3  C   -0.394297  -0.000130
     5  C    1.126436   0.003576
     6  C   -0.722498   0.000509
     7  O   -0.202134   0.001015
     8  O   -0.005716  -0.003658
     9  C   -0.000264   0.132285
    10  C    0.198802   0.010255
 APT charges:
               1
     1  O   -0.177697
     2  H    0.314821
     3  C   -0.184535
     4  H    0.236719
     5  C   -0.305689
     6  C    1.525322
     7  O   -0.785648
     8  O   -1.007226
     9  C    0.724375
    10  C   -0.110778
    11  H   -0.261756
    12  H   -0.036915
    13  H    0.020653
    14  H    0.020097
    15  H    0.028258
 Sum of APT charges =  -0.00000
 APT charges with hydrogens summed into heavy atoms:
               1
     1  O    0.137124
     3  C    0.052184
     5  C   -0.305689
     6  C    1.525322
     7  O   -0.785648
     8  O   -1.007226
     9  C    0.425704
    10  C   -0.041770
 Electronic spatial extent (au):  <R**2>=           1268.6930
 Charge=              0.0000 electrons
 Dipole moment (field-independent basis, Debye):
    X=             -0.9674    Y=              1.4641    Z=              1.1512  Tot=              2.0988
 Quadrupole moment (field-independent basis, Debye-Ang):
   XX=            -45.0273   YY=            -47.2216   ZZ=            -48.3804
   XY=            -10.3097   XZ=             -2.0375   YZ=             -0.3291
 Traceless Quadrupole moment (field-independent basis, Debye-Ang):
   XX=              1.8492   YY=             -0.3452   ZZ=             -1.5040
   XY=            -10.3097   XZ=             -2.0375   YZ=             -0.3291
 Octapole moment (field-independent basis, Debye-Ang**2):
  XXX=            -47.8277  YYY=             18.7833  ZZZ=             -3.3478  XYY=              3.1705
  XXY=             10.5473  XXZ=             11.8639  XZZ=              4.6141  YZZ=             -0.0503
  YYZ=              5.9695  XYZ=              1.0003
 Hexadecapole moment (field-independent basis, Debye-Ang**3):
 XXXX=          -1016.6715 YYYY=           -373.8223 ZZZZ=           -125.1466 XXXY=           -132.2304
 XXXZ=            -37.9985 YYYX=             13.8596 YYYZ=              2.2319 ZZZX=              3.1196
 ZZZY=              3.7709 XXYY=           -235.9907 XXZZ=           -217.4476 YYZZ=            -92.7428
 XXYZ=             22.6457 YYXZ=             -5.6522 ZZXY=              1.1240
 N-N= 3.476975489338D+02 E-N=-1.679781622369D+03  KE= 4.188962597792D+02
  Exact polarizability:  91.207  -5.158  77.111  -4.044   4.204  51.232
 Approx polarizability:  93.779  -9.930  88.650  -6.542  10.574  60.432
                          Isotropic Fermi Contact Couplings
        Atom                 a.u.       MegaHertz       Gauss      10(-4) cm-1
     1  O(17)              0.12507     -75.81622     -27.05311     -25.28957
     2  H(1)              -0.01455     -65.03656     -23.20666     -21.69386
     3  C(13)              0.00006       0.06828       0.02436       0.02277
     4  H(1)              -0.00000      -0.01636      -0.00584      -0.00546
     5  C(13)             -0.00033      -0.36543      -0.13040      -0.12190
     6  C(13)              0.00408       4.58594       1.63638       1.52971
     7  O(17)              0.00123      -0.74368      -0.26536      -0.24807
     8  O(17)             -0.00040       0.24340       0.08685       0.08119
     9  C(13)              0.08703      97.84362      34.91304      32.63712
    10  C(13)             -0.00238      -2.68008      -0.95632      -0.89398
    11  H(1)              -0.00405     -18.11299      -6.46317      -6.04184
    12  H(1)               0.00125       5.59970       1.99811       1.86786
    13  H(1)               0.00036       1.58835       0.56676       0.52982
    14  H(1)               0.00057       2.57002       0.91705       0.85726
    15  H(1)               0.00431      19.27058       6.87622       6.42797
 --------------------------------------------------------
       Center         ----  Spin Dipole Couplings  ----
                      3XX-RR        3YY-RR        3ZZ-RR
 --------------------------------------------------------
     1   Atom       -0.579295      2.270406     -1.691111
     2   Atom        0.104841     -0.000888     -0.103953
     3   Atom        0.001339     -0.000805     -0.000534
     4   Atom        0.000947     -0.000465     -0.000482
     5   Atom        0.002435     -0.000961     -0.001474
     6   Atom        0.007101     -0.002843     -0.004259
     7   Atom        0.003211     -0.003307      0.000096
     8   Atom        0.002701      0.000517     -0.003217
     9   Atom        0.017647      0.103871     -0.121518
    10   Atom       -0.007856      0.008817     -0.000961
    11   Atom       -0.015908      0.090840     -0.074932
    12   Atom       -0.010366      0.000955      0.009411
    13   Atom       -0.002048      0.005437     -0.003389
    14   Atom       -0.004461      0.000739      0.003722
    15   Atom       -0.001751      0.003147     -0.001396
 --------------------------------------------------------
                        XY            XZ            YZ
 --------------------------------------------------------
     1   Atom        2.145269      0.195003      0.360682
     2   Atom       -0.076211     -0.054489      0.035811
     3   Atom        0.000103     -0.000081      0.000328
     4   Atom       -0.000088     -0.000203      0.000030
     5   Atom        0.000318     -0.000390     -0.000121
     6   Atom        0.003305      0.001527      0.000860
     7   Atom        0.003720     -0.005313     -0.000741
     8   Atom        0.019466     -0.001717     -0.009135
     9   Atom        0.181034     -0.017336     -0.021960
    10   Atom        0.003635     -0.001548     -0.011388
    11   Atom        0.095723     -0.000805      0.009514
    12   Atom        0.008779      0.002067      0.012099
    13   Atom       -0.002629      0.001621     -0.003439
    14   Atom        0.001828     -0.000433     -0.005562
    15   Atom        0.002539     -0.000218     -0.002945
 --------------------------------------------------------


 ---------------------------------------------------------------------------------
              Anisotropic Spin Dipole Couplings in Principal Axis System
 ---------------------------------------------------------------------------------

       Atom             a.u.   MegaHertz   Gauss  10(-4) cm-1        Axes

              Baa    -1.7301   125.188    44.670    41.758  0.8688 -0.4467 -0.2135
     1 O(17)  Bbb    -1.7235   124.710    44.500    41.599  0.1521 -0.1696  0.9737
              Bcc     3.4536  -249.898   -89.170   -83.357  0.4711  0.8785  0.0794
 
              Baa    -0.1204   -64.217   -22.914   -21.421  0.1735 -0.1796  0.9683
     2 H(1)   Bbb    -0.0403   -21.498    -7.671    -7.171  0.4854  0.8711  0.0745
              Bcc     0.1606    85.715    30.585    28.591  0.8569 -0.4571 -0.2383
 
              Baa    -0.0010    -0.138    -0.049    -0.046 -0.0552  0.8295 -0.5557
     3 C(13)  Bbb    -0.0003    -0.042    -0.015    -0.014  0.0058  0.5568  0.8306
              Bcc     0.0013     0.181     0.064     0.060  0.9985  0.0426 -0.0355
 
              Baa    -0.0005    -0.276    -0.098    -0.092  0.1071 -0.3557  0.9284
     4 H(1)   Bbb    -0.0005    -0.248    -0.088    -0.083  0.1075  0.9325  0.3449
              Bcc     0.0010     0.524     0.187     0.175  0.9884 -0.0629 -0.1381
 
              Baa    -0.0015    -0.205    -0.073    -0.068  0.0837  0.1632  0.9830
     5 C(13)  Bbb    -0.0010    -0.131    -0.047    -0.044 -0.1091  0.9821 -0.1537
              Bcc     0.0025     0.336     0.120     0.112  0.9905  0.0944 -0.1000
 
              Baa    -0.0047    -0.626    -0.223    -0.209  0.0051 -0.4344  0.9007
     6 C(13)  Bbb    -0.0037    -0.492    -0.176    -0.164 -0.3202  0.8526  0.4130
              Bcc     0.0083     1.118     0.399     0.373  0.9473  0.2906  0.1347
 
              Baa    -0.0057     0.412     0.147     0.137 -0.5490  0.7280 -0.4106
     7 O(17)  Bbb    -0.0025     0.183     0.065     0.061  0.2758  0.6216  0.7332
              Bcc     0.0082    -0.595    -0.212    -0.199  0.7890  0.2893 -0.5420
 
              Baa    -0.0198     1.436     0.512     0.479 -0.6006  0.7253  0.3365
     8 O(17)  Bbb    -0.0035     0.250     0.089     0.083  0.4338 -0.0579  0.8992
              Bcc     0.0233    -1.686    -0.602    -0.562  0.6716  0.6860 -0.2798
 
              Baa    -0.1253   -16.819    -6.001    -5.610  0.7846 -0.6200 -0.0040
     9 C(13)  Bbb    -0.1236   -16.590    -5.920    -5.534  0.0498  0.0566  0.9972
              Bcc     0.2490    33.409    11.921    11.144  0.6181  0.7825 -0.0753
 
              Baa    -0.0092    -1.230    -0.439    -0.410  0.6991 -0.4781 -0.5318
    10 C(13)  Bbb    -0.0078    -1.042    -0.372    -0.348  0.6981  0.2950  0.6524
              Bcc     0.0169     2.272     0.811     0.758  0.1550  0.8273 -0.5400
 
              Baa    -0.0794   -42.358   -15.114   -14.129  0.5075 -0.3299  0.7960
    11 H(1)   Bbb    -0.0679   -36.254   -12.936   -12.093  0.6978 -0.3845 -0.6043
              Bcc     0.1473    78.612    28.051    26.222  0.5054  0.8622  0.0351
 
              Baa    -0.0160    -8.524    -3.042    -2.843  0.8031 -0.5606  0.2018
    12 H(1)   Bbb    -0.0036    -1.932    -0.690    -0.645 -0.5499 -0.5668  0.6135
              Bcc     0.0196    10.456     3.731     3.488  0.2295  0.6036  0.7635
 
              Baa    -0.0048    -2.564    -0.915    -0.855 -0.3256  0.2248  0.9184
    13 H(1)   Bbb    -0.0028    -1.473    -0.526    -0.491  0.8966  0.3817  0.2245
              Bcc     0.0076     4.037     1.441     1.347 -0.3000  0.8965 -0.3258
 
              Baa    -0.0054    -2.871    -1.024    -0.958  0.8384 -0.4819 -0.2546
    14 H(1)   Bbb    -0.0028    -1.482    -0.529    -0.494  0.5326  0.6252  0.5704
              Bcc     0.0082     4.353     1.553     1.452 -0.1157 -0.6139  0.7809
 
              Baa    -0.0036    -1.915    -0.683    -0.639  0.6173 -0.4987 -0.6085
    15 H(1)   Bbb    -0.0018    -0.964    -0.344    -0.322  0.7190  0.0437  0.6936
              Bcc     0.0054     2.879     1.027     0.960  0.3193  0.8656 -0.3856
 

 ---------------------------------------------------------------------------------

 Calling FoFJK, ICntrl=    100127 FMM=F ISym2X=0 I1Cent= 0 IOpClX= 1 NMat=1 NMatS=1 NMatT=0.
 Full mass-weighted force constant matrix:
 Low frequencies --- -216.0610 -107.5441  -54.2339  -34.1712   -8.7451    0.0005
 Low frequencies ---    0.0006    0.0009   47.1169
 ******    2 imaginary frequencies (negative Signs) ****** 
 Diagonal vibrational polarizability:
       95.5327343     229.2382592     104.5328432
 Harmonic frequencies (cm**-1), IR intensities (KM/Mole), Raman scattering
 activities (A**4/AMU), depolarization ratios for plane and unpolarized
 incident light, reduced masses (AMU), force constants (mDyne/A),
 and normal coordinates:
                      1                      2                      3
                      A                      A                      A
 Frequencies --   -215.9882              -104.7981                37.0973
 Red. masses --      2.4932                 4.0323                 5.7247
 Frc consts  --      0.0685                 0.0261                 0.0046
 IR Inten    --     23.5624                 0.7409                12.0991
  Atom  AN      X      Y      Z        X      Y      Z        X      Y      Z
     1   8     0.01   0.19   0.10     0.16  -0.21   0.16     0.43   0.14  -0.12
     2   1    -0.14  -0.12   0.13     0.27  -0.04   0.25     0.50   0.30  -0.14
     3   6     0.02   0.02   0.01    -0.06  -0.02  -0.01    -0.12  -0.18   0.09
     4   1     0.01   0.01   0.00    -0.06  -0.01  -0.02    -0.16  -0.27   0.15
     5   6     0.03   0.03   0.01    -0.06  -0.03   0.00    -0.08  -0.07   0.03
     6   6     0.00   0.00  -0.00    -0.06  -0.03   0.01    -0.04   0.01  -0.03
     7   8    -0.06  -0.01   0.03    -0.04  -0.05   0.06    -0.01   0.03  -0.10
     8   8     0.04  -0.03  -0.08    -0.07   0.02  -0.06    -0.06   0.02   0.00
     9   6    -0.02  -0.18  -0.11    -0.07   0.07  -0.12    -0.05   0.00   0.06
    10   6     0.01  -0.00   0.04     0.14   0.25  -0.06    -0.16  -0.02   0.10
    11   1    -0.03  -0.40  -0.49    -0.15   0.13  -0.35    -0.05  -0.08   0.07
    12   1    -0.27  -0.47   0.08    -0.14  -0.07  -0.04    -0.04  -0.04   0.09
    13   1    -0.04  -0.10   0.04     0.15   0.30  -0.11    -0.16  -0.07   0.16
    14   1     0.12   0.17  -0.07     0.20   0.38  -0.14    -0.18  -0.02   0.10
    15   1    -0.03   0.06   0.25     0.22   0.21   0.12    -0.20   0.02   0.07
                      4                      5                      6
                      A                      A                      A
 Frequencies --     56.4313                95.3119               148.9627
 Red. masses --      4.6590                 4.6925                 3.6504
 Frc consts  --      0.0087                 0.0251                 0.0477
 IR Inten    --      4.8927                 5.3060                 9.7906
  Atom  AN      X      Y      Z        X      Y      Z        X      Y      Z
     1   8     0.10   0.11   0.09     0.07   0.11  -0.08     0.04   0.11   0.04
     2   1     0.11   0.15   0.04     0.13   0.11   0.17     0.07   0.23  -0.06
     3   6    -0.05   0.02  -0.16    -0.05   0.10  -0.19     0.22   0.22   0.10
     4   1    -0.07   0.03  -0.28    -0.05   0.17  -0.35     0.40   0.47   0.20
     5   6    -0.02  -0.00  -0.02    -0.05   0.01  -0.00    -0.02  -0.10  -0.04
     6   6     0.01  -0.02   0.11    -0.06  -0.04   0.08    -0.06  -0.15  -0.06
     7   8     0.04  -0.10   0.30    -0.09   0.03  -0.07    -0.02  -0.16  -0.04
     8   8    -0.01   0.07  -0.04    -0.05  -0.14   0.29    -0.11  -0.08  -0.05
     9   6    -0.01   0.08  -0.08    -0.04  -0.03   0.05    -0.02   0.06   0.02
    10   6    -0.10  -0.16  -0.23     0.24  -0.05  -0.08    -0.02   0.05   0.02
    11   1     0.02   0.07   0.12    -0.15   0.01  -0.08    -0.09   0.15   0.14
    12   1     0.03   0.25  -0.18    -0.19  -0.03   0.07     0.12   0.10  -0.02
    13   1    -0.08  -0.11  -0.25     0.22   0.04  -0.30     0.09   0.26   0.14
    14   1    -0.15  -0.35  -0.11     0.39  -0.10  -0.06    -0.28  -0.01   0.07
    15   1    -0.11  -0.18  -0.44     0.33  -0.11   0.02     0.11  -0.10  -0.16
                      7                      8                      9
                      A                      A                      A
 Frequencies --    218.1799               225.5449               269.9936
 Red. masses --      1.0854                 1.2315                 4.1301
 Frc consts  --      0.0304                 0.0369                 0.1774
 IR Inten    --    107.7954                 1.6260                 2.8866
  Atom  AN      X      Y      Z        X      Y      Z        X      Y      Z
     1   8    -0.01   0.01  -0.06    -0.01  -0.00  -0.01    -0.00  -0.03  -0.01
     2   1     0.16  -0.20   0.94     0.03  -0.01   0.12    -0.04  -0.05  -0.09
     3   6     0.01   0.00   0.00     0.04   0.03  -0.01     0.02   0.06  -0.18
     4   1     0.01   0.00   0.01     0.08   0.10  -0.01     0.01   0.24  -0.60
     5   6     0.00  -0.00  -0.01    -0.01  -0.06   0.00     0.03  -0.17   0.39
     6   6     0.00   0.00  -0.00     0.01  -0.03   0.00     0.03  -0.04   0.12
     7   8     0.02  -0.00   0.01     0.07  -0.02  -0.02     0.05   0.06  -0.12
     8   8     0.00   0.01  -0.01    -0.02   0.02   0.03     0.02   0.03  -0.02
     9   6    -0.00   0.00  -0.00    -0.03   0.03   0.00    -0.01  -0.00  -0.08
    10   6    -0.03   0.00   0.01    -0.05   0.01  -0.01    -0.11   0.06   0.00
    11   1    -0.01   0.00  -0.03    -0.01   0.03  -0.00     0.01  -0.05  -0.14
    12   1     0.00  -0.00   0.00    -0.04   0.04  -0.00    -0.07  -0.05  -0.05
    13   1     0.02   0.07   0.08    -0.30  -0.45  -0.27    -0.01   0.16   0.24
    14   1    -0.13  -0.02   0.03     0.48   0.10  -0.11    -0.39   0.10   0.00
    15   1     0.01  -0.04  -0.06    -0.36   0.32   0.31    -0.05  -0.02  -0.12
                     10                     11                     12
                      A                      A                      A
 Frequencies --    323.6023               420.0021               560.2404
 Red. masses --      3.1155                 3.7842                 3.8265
 Frc consts  --      0.1922                 0.3933                 0.7076
 IR Inten    --     11.4522                 2.5680                 3.4593
  Atom  AN      X      Y      Z        X      Y      Z        X      Y      Z
     1   8    -0.00  -0.04  -0.01    -0.01   0.00   0.00    -0.02  -0.01   0.00
     2   1    -0.11  -0.14  -0.21     0.03   0.11  -0.05     0.13   0.27   0.04
     3   6     0.03   0.03   0.05     0.08  -0.09  -0.01     0.15  -0.11  -0.06
     4   1     0.10   0.08   0.18    -0.00  -0.25   0.04     0.00  -0.32  -0.15
     5   6    -0.07  -0.05  -0.13     0.18   0.11  -0.08     0.29   0.11   0.07
     6   6     0.02   0.04   0.01     0.05  -0.05   0.04     0.02  -0.03  -0.05
     7   8     0.24   0.03   0.01    -0.09  -0.03   0.00    -0.02  -0.04  -0.02
     8   8    -0.03   0.08   0.15     0.05  -0.15   0.20    -0.12   0.10  -0.04
     9   6    -0.15  -0.07  -0.05     0.02   0.06  -0.14    -0.24   0.02   0.12
    10   6    -0.06  -0.00  -0.04    -0.18   0.14  -0.06    -0.01  -0.02   0.01
    11   1    -0.12  -0.24  -0.38    -0.03   0.13  -0.15    -0.22  -0.07  -0.05
    12   1    -0.47  -0.22   0.08    -0.07   0.11  -0.16    -0.31  -0.10   0.19
    13   1     0.08   0.26   0.08    -0.17  -0.04   0.30     0.00   0.21  -0.36
    14   1    -0.30   0.01  -0.02    -0.41   0.29  -0.13     0.19  -0.18   0.08
    15   1     0.14  -0.18  -0.12    -0.36   0.28  -0.12     0.21  -0.20   0.05
                     13                     14                     15
                      A                      A                      A
 Frequencies --    597.7872               633.6906               742.1239
 Red. masses --      3.0561                 1.5397                 1.3123
 Frc consts  --      0.6434                 0.3643                 0.4258
 IR Inten    --     24.2126               169.5127                37.1119
  Atom  AN      X      Y      Z        X      Y      Z        X      Y      Z
     1   8    -0.04  -0.01   0.01    -0.06  -0.03   0.00     0.00   0.00   0.00
     2   1     0.36   0.71   0.09     0.42   0.85   0.10    -0.00  -0.01   0.00
     3   6    -0.13   0.08   0.03     0.05  -0.02  -0.01    -0.08  -0.12  -0.03
     4   1    -0.26  -0.09  -0.03     0.13   0.08   0.03     0.55   0.79   0.21
     5   6     0.00   0.22   0.09    -0.03  -0.12  -0.05     0.04   0.06   0.02
     6   6    -0.04  -0.03  -0.01     0.04   0.05   0.02    -0.00  -0.00  -0.00
     7   8     0.21  -0.04  -0.02    -0.06   0.06   0.02     0.01   0.00  -0.00
     8   8    -0.03  -0.13  -0.05     0.04   0.03   0.00    -0.00  -0.00  -0.00
     9   6    -0.02  -0.08  -0.05     0.00  -0.05  -0.03    -0.01  -0.00   0.00
    10   6     0.00  -0.01   0.01     0.00  -0.02   0.01    -0.00   0.00  -0.00
    11   1    -0.13   0.10   0.14    -0.06   0.02  -0.03    -0.00  -0.00   0.02
    12   1     0.13  -0.00  -0.11    -0.05  -0.07  -0.01     0.00   0.01  -0.01
    13   1     0.01  -0.02   0.07     0.01  -0.02   0.05     0.00   0.01  -0.01
    14   1    -0.02   0.12  -0.07    -0.02   0.03  -0.02     0.00   0.01  -0.01
    15   1     0.01   0.00   0.12     0.01  -0.02   0.04     0.01  -0.01   0.02
                     16                     17                     18
                      A                      A                      A
 Frequencies --    756.2585               772.9517               786.1332
 Red. masses --      1.2743                 1.4102                 6.1443
 Frc consts  --      0.4294                 0.4964                 2.2373
 IR Inten    --     13.1094                23.6329                38.2746
  Atom  AN      X      Y      Z        X      Y      Z        X      Y      Z
     1   8     0.02   0.02   0.00     0.00   0.00   0.00    -0.00  -0.01  -0.00
     2   1    -0.07  -0.15   0.02    -0.00  -0.01   0.00     0.01   0.01   0.01
     3   6     0.04  -0.02  -0.00    -0.01   0.05  -0.15    -0.02   0.02  -0.05
     4   1     0.02  -0.03  -0.04     0.08  -0.30   0.93     0.03  -0.22   0.66
     5   6     0.01  -0.03  -0.03     0.01  -0.03   0.08    -0.00   0.09  -0.17
     6   6    -0.00   0.02   0.04    -0.00   0.03  -0.06     0.01  -0.24   0.54
     7   8     0.00   0.05   0.01     0.00  -0.00   0.02    -0.00   0.05  -0.16
     8   8    -0.00  -0.01  -0.01     0.00  -0.01   0.02    -0.00   0.07  -0.14
     9   6    -0.08  -0.08  -0.04    -0.00  -0.01  -0.00     0.01   0.02   0.01
    10   6    -0.02  -0.01  -0.02    -0.00  -0.00  -0.00     0.00  -0.00   0.02
    11   1     0.03  -0.03   0.55    -0.00   0.00   0.03     0.01  -0.01  -0.09
    12   1     0.16   0.32  -0.28     0.00   0.02  -0.02     0.02  -0.09   0.06
    13   1     0.07   0.19   0.00     0.01   0.01   0.01    -0.02  -0.01  -0.08
    14   1     0.03   0.36  -0.23    -0.01   0.03  -0.02     0.06  -0.13   0.09
    15   1     0.19  -0.12   0.41     0.01  -0.00   0.02     0.02  -0.03  -0.07
                     19                     20                     21
                      A                      A                      A
 Frequencies --    894.2205               936.5219              1088.8497
 Red. masses --      3.2073                 2.7944                 3.6637
 Frc consts  --      1.5111                 1.4440                 2.5592
 IR Inten    --     11.9492                 4.5677                51.5113
  Atom  AN      X      Y      Z        X      Y      Z        X      Y      Z
     1   8    -0.01  -0.01  -0.00    -0.01  -0.00   0.00    -0.01  -0.01  -0.00
     2   1     0.06   0.12   0.02     0.06   0.12   0.03     0.05   0.09   0.03
     3   6    -0.05   0.02   0.01    -0.10   0.06   0.03     0.05  -0.04  -0.02
     4   1    -0.06   0.01   0.00    -0.11   0.07   0.03     0.05  -0.05  -0.02
     5   6     0.01   0.07   0.03    -0.07   0.03   0.01     0.04   0.01   0.00
     6   6    -0.00  -0.11  -0.05     0.12  -0.08  -0.04    -0.12   0.02   0.01
     7   8    -0.05  -0.15  -0.06    -0.05  -0.11  -0.04     0.02   0.01   0.00
     8   8    -0.03   0.25   0.09     0.19   0.04   0.04    -0.19   0.09   0.06
     9   6     0.08   0.00  -0.10    -0.02  -0.02   0.09     0.28  -0.21   0.05
    10   6     0.08  -0.13   0.03    -0.14   0.09  -0.07    -0.08   0.11  -0.11
    11   1     0.22  -0.13  -0.02     0.23  -0.27   0.14     0.30  -0.25   0.22
    12   1    -0.22   0.26  -0.19    -0.05  -0.08   0.13     0.36  -0.39   0.15
    13   1     0.17  -0.20   0.51    -0.10   0.47  -0.55    -0.07   0.23  -0.33
    14   1    -0.15   0.30  -0.20     0.18   0.05  -0.07     0.05   0.12  -0.14
    15   1     0.02  -0.03   0.34     0.21  -0.18   0.08     0.00   0.04  -0.21
                     22                     23                     24
                      A                      A                      A
 Frequencies --   1129.2522              1173.1703              1274.1558
 Red. masses --      2.0858                 1.8595                 3.7797
 Frc consts  --      1.5671                 1.5079                 3.6153
 IR Inten    --     34.0887                38.0820               579.0472
  Atom  AN      X      Y      Z        X      Y      Z        X      Y      Z
     1   8     0.00   0.01   0.00    -0.01  -0.01  -0.00     0.01   0.00  -0.00
     2   1    -0.00  -0.01   0.01     0.02   0.05  -0.00    -0.08  -0.14  -0.03
     3   6    -0.01   0.01   0.00     0.01  -0.01  -0.00    -0.07   0.05   0.02
     4   1    -0.01   0.01   0.00     0.02  -0.01  -0.00    -0.07   0.08   0.03
     5   6    -0.01  -0.00   0.00     0.00  -0.01  -0.00    -0.02   0.00   0.00
     6   6     0.01  -0.01   0.00    -0.03   0.01   0.01     0.42   0.01  -0.00
     7   8    -0.00  -0.01  -0.01     0.02   0.04   0.01    -0.05  -0.00  -0.00
     8   8     0.04   0.01  -0.04    -0.03  -0.07  -0.04    -0.19  -0.00  -0.01
     9   6    -0.08  -0.08   0.20     0.10   0.14   0.10     0.07  -0.08   0.03
    10   6     0.10   0.04  -0.17    -0.07  -0.11  -0.07    -0.03  -0.03  -0.01
    11   1    -0.11  -0.06   0.19     0.17  -0.08  -0.42    -0.60   0.50  -0.21
    12   1    -0.11  -0.05   0.20    -0.23  -0.04   0.24     0.13   0.01  -0.02
    13   1     0.08  -0.25   0.35     0.13   0.24   0.13     0.01   0.08  -0.03
    14   1    -0.39   0.29  -0.27     0.01   0.37  -0.35     0.02   0.15  -0.13
    15   1    -0.33   0.39  -0.19     0.11  -0.16   0.46    -0.00  -0.04   0.05
                     25                     26                     27
                      A                      A                      A
 Frequencies --   1315.3285              1383.4974              1418.8748
 Red. masses --      1.3592                 1.2310                 1.3509
 Frc consts  --      1.3855                 1.3882                 1.6024
 IR Inten    --    218.7048                 4.0173                13.2574
  Atom  AN      X      Y      Z        X      Y      Z        X      Y      Z
     1   8    -0.01  -0.01  -0.00     0.00   0.00   0.00    -0.00  -0.00  -0.00
     2   1     0.03   0.05   0.03     0.00   0.01  -0.00    -0.00  -0.01   0.01
     3   6    -0.01   0.01   0.00     0.01  -0.01  -0.00    -0.00   0.00   0.00
     4   1    -0.01   0.02   0.01     0.01  -0.01  -0.00    -0.00   0.00   0.00
     5   6    -0.01  -0.00  -0.00     0.00   0.00   0.00    -0.00   0.00  -0.00
     6   6     0.11   0.01   0.00    -0.04   0.01   0.00     0.01   0.00   0.00
     7   8    -0.00   0.02   0.01     0.01  -0.00  -0.00    -0.00  -0.00  -0.00
     8   8    -0.08  -0.06  -0.03     0.02  -0.00  -0.02    -0.00   0.00   0.01
     9   6     0.01   0.03  -0.03     0.05  -0.07   0.06    -0.03   0.07  -0.06
    10   6     0.03   0.04   0.01     0.00  -0.01   0.08     0.05  -0.10   0.09
    11   1     0.54  -0.46   0.34    -0.12   0.05  -0.26     0.08   0.02   0.22
    12   1    -0.54   0.13   0.01    -0.38   0.60  -0.26     0.13  -0.41   0.17
    13   1    -0.00  -0.07   0.03    -0.03   0.16  -0.34     0.07   0.26  -0.41
    14   1     0.00  -0.10   0.10    -0.03   0.23  -0.07    -0.20   0.41  -0.20
    15   1    -0.03   0.07  -0.13    -0.15   0.07  -0.31    -0.34   0.18  -0.25
                     28                     29                     30
                      A                      A                      A
 Frequencies --   1464.5762              1488.9309              1503.5374
 Red. masses --      1.1047                 1.0402                 1.0591
 Frc consts  --      1.3961                 1.3587                 1.4106
 IR Inten    --     25.6860                12.1638                11.2613
  Atom  AN      X      Y      Z        X      Y      Z        X      Y      Z
     1   8    -0.00  -0.00   0.00    -0.00   0.00   0.00     0.00   0.00   0.00
     2   1     0.03   0.06   0.00     0.01   0.01  -0.00    -0.01  -0.02  -0.00
     3   6    -0.01   0.00   0.00    -0.00   0.00   0.00     0.00  -0.00  -0.00
     4   1    -0.01   0.01   0.00    -0.00   0.00   0.00     0.00  -0.00  -0.00
     5   6    -0.00  -0.00  -0.00    -0.00  -0.00   0.00     0.00   0.00   0.00
     6   6     0.03  -0.01  -0.00     0.00   0.00   0.00    -0.01   0.00   0.00
     7   8    -0.00   0.01   0.01    -0.00  -0.00  -0.00     0.00  -0.00  -0.00
     8   8    -0.03  -0.01   0.01    -0.00   0.00   0.00     0.01   0.00  -0.00
     9   6    -0.06   0.01   0.03    -0.03  -0.02  -0.00     0.04  -0.02  -0.02
    10   6     0.04   0.00   0.00    -0.02  -0.03  -0.02     0.03  -0.01  -0.03
    11   1     0.25  -0.42  -0.43     0.04  -0.10  -0.06    -0.09   0.15   0.10
    12   1     0.57   0.22  -0.19     0.13   0.07  -0.07    -0.22  -0.00   0.01
    13   1    -0.03  -0.03  -0.19     0.29   0.50   0.36     0.08   0.27  -0.24
    14   1    -0.29  -0.05   0.06     0.49  -0.17   0.04    -0.38  -0.37   0.23
    15   1    -0.06   0.10   0.14    -0.37   0.26  -0.11    -0.23   0.29   0.55
                     31                     32                     33
                      A                      A                      A
 Frequencies --   1845.5516              2269.4947              2572.7681
 Red. masses --     12.3002                 5.7449                 1.0967
 Frc consts  --     24.6840                17.4339                 4.2771
 IR Inten    --    346.2868                74.8789               762.0466
  Atom  AN      X      Y      Z        X      Y      Z        X      Y      Z
     1   8    -0.00  -0.00  -0.00     0.00   0.00   0.00     0.00   0.01   0.00
     2   1    -0.00  -0.01  -0.00     0.00   0.00  -0.00     0.01  -0.01  -0.00
     3   6     0.06  -0.04  -0.02    -0.31   0.19   0.09     0.00  -0.00  -0.00
     4   1     0.11  -0.04  -0.02    -0.62   0.39   0.17     0.00  -0.00  -0.00
     5   6    -0.04   0.01   0.00     0.44  -0.27  -0.12    -0.00   0.00   0.00
     6   6     0.01   0.73   0.31    -0.07   0.06   0.03     0.01   0.00   0.00
     7   8    -0.01  -0.49  -0.21     0.00  -0.01  -0.00    -0.00  -0.00  -0.00
     8   8    -0.02  -0.05  -0.02    -0.01  -0.00  -0.00    -0.01   0.00   0.00
     9   6    -0.02   0.03   0.01     0.00  -0.00   0.00    -0.06  -0.06   0.02
    10   6     0.01  -0.00  -0.01    -0.00   0.00  -0.00     0.00  -0.00  -0.00
    11   1     0.09  -0.12  -0.08     0.02   0.01  -0.01     0.72   0.66  -0.18
    12   1     0.15   0.03   0.01    -0.00   0.00  -0.00    -0.03  -0.06  -0.03
    13   1    -0.01  -0.06   0.03     0.00  -0.00  -0.00    -0.00   0.00   0.01
    14   1    -0.03   0.01  -0.01    -0.00  -0.00   0.00     0.00  -0.00  -0.01
    15   1     0.04  -0.02   0.03     0.00  -0.00   0.00    -0.02  -0.03   0.01
                     34                     35                     36
                      A                      A                      A
 Frequencies --   3072.3599              3131.2590              3152.9509
 Red. masses --      1.0346                 1.0867                 1.1026
 Frc consts  --      5.7540                 6.2777                 6.4579
 IR Inten    --      6.5827                 3.9438                 8.2624
  Atom  AN      X      Y      Z        X      Y      Z        X      Y      Z
     1   8     0.00   0.00   0.00     0.00   0.00   0.00    -0.00   0.00   0.00
     2   1    -0.00  -0.00  -0.00     0.00   0.00  -0.00     0.00  -0.00  -0.00
     3   6     0.00  -0.00  -0.00    -0.00   0.00   0.00     0.00  -0.00  -0.00
     4   1    -0.00   0.00   0.00    -0.00  -0.00   0.00    -0.00   0.00   0.00
     5   6    -0.00   0.00   0.00     0.00   0.00  -0.00    -0.00   0.00   0.00
     6   6     0.00   0.00   0.00    -0.00  -0.00  -0.00     0.00  -0.00   0.00
     7   8     0.00  -0.00   0.00    -0.00   0.00   0.00    -0.00   0.00  -0.00
     8   8    -0.00  -0.00  -0.00     0.00  -0.00   0.00     0.00  -0.00  -0.00
     9   6     0.00   0.00   0.00    -0.01  -0.04  -0.07    -0.00  -0.00   0.00
    10   6    -0.01   0.03  -0.04    -0.00   0.02   0.02    -0.09  -0.02   0.02
    11   1    -0.01  -0.01   0.00     0.02   0.02  -0.02     0.01   0.02  -0.01
    12   1    -0.00  -0.00  -0.01     0.12   0.45   0.82    -0.00  -0.01  -0.02
    13   1     0.50  -0.21  -0.13     0.13  -0.05  -0.03     0.66  -0.28  -0.17
    14   1     0.04   0.30   0.49    -0.02  -0.14  -0.22    -0.02  -0.02  -0.02
    15   1    -0.39  -0.45   0.06    -0.09  -0.10   0.02     0.42   0.51  -0.07
                     37                     38                     39
                      A                      A                      A
 Frequencies --   3158.3458              3489.9111              3774.2298
 Red. masses --      1.1024                 1.1711                 1.0670
 Frc consts  --      6.4789                 8.4039                 8.9550
 IR Inten    --     10.2829                62.1930                34.3855
  Atom  AN      X      Y      Z        X      Y      Z        X      Y      Z
     1   8     0.00   0.00   0.00     0.00   0.00  -0.00    -0.05   0.03   0.01
     2   1     0.00   0.00  -0.00    -0.00  -0.00  -0.00     0.86  -0.44  -0.24
     3   6    -0.00   0.00   0.00    -0.10   0.06   0.03    -0.00   0.00   0.00
     4   1    -0.00   0.00   0.00     0.82  -0.51  -0.23    -0.00  -0.00  -0.00
     5   6     0.00   0.00  -0.00     0.03  -0.02  -0.01    -0.00   0.00  -0.00
     6   6    -0.00  -0.00  -0.00    -0.00   0.00   0.00     0.00  -0.00  -0.00
     7   8    -0.00   0.00   0.00     0.00   0.00   0.00    -0.00   0.00   0.00
     8   8     0.00   0.00   0.00     0.00  -0.00  -0.00    -0.00   0.00   0.00
     9   6    -0.00  -0.02  -0.02    -0.00  -0.00   0.00     0.00   0.00  -0.00
    10   6    -0.00  -0.07  -0.06     0.00  -0.00  -0.00    -0.00  -0.00  -0.00
    11   1     0.02   0.02  -0.01     0.00   0.00  -0.00    -0.01  -0.01   0.00
    12   1     0.04   0.16   0.29     0.00  -0.00   0.00    -0.00  -0.00   0.00
    13   1    -0.31   0.12   0.07     0.00  -0.00   0.00    -0.00   0.00  -0.00
    14   1     0.06   0.39   0.66    -0.00   0.00   0.00     0.00   0.00   0.00
    15   1     0.27   0.31  -0.06    -0.00   0.00  -0.00     0.00  -0.00   0.00

 -------------------
 - Thermochemistry -
 -------------------
 Temperature   298.150 Kelvin.  Pressure   1.00000 Atm.
 Atom     1 has atomic number  8 and mass  15.99491
 Atom     2 has atomic number  1 and mass   1.00783
 Atom     3 has atomic number  6 and mass  12.00000
 Atom     4 has atomic number  1 and mass   1.00783
 Atom     5 has atomic number  6 and mass  12.00000
 Atom     6 has atomic number  6 and mass  12.00000
 Atom     7 has atomic number  8 and mass  15.99491
 Atom     8 has atomic number  8 and mass  15.99491
 Atom     9 has atomic number  6 and mass  12.00000
 Atom    10 has atomic number  6 and mass  12.00000
 Atom    11 has atomic number  1 and mass   1.00783
 Atom    12 has atomic number  1 and mass   1.00783
 Atom    13 has atomic number  1 and mass   1.00783
 Atom    14 has atomic number  1 and mass   1.00783
 Atom    15 has atomic number  1 and mass   1.00783
 Molecular mass:   115.03952 amu.
 Principal axes and moments of inertia in atomic units:
                           1         2         3
     Eigenvalues --   606.533241601.328932015.34554
           X            0.99922  -0.03947   0.00275
           Y            0.03952   0.99901  -0.02055
           Z           -0.00194   0.02065   0.99978
 This molecule is an asymmetric top.
 Rotational symmetry number  1.
 Warning -- assumption of classical behavior for rotation
           may cause significant error
 Rotational temperatures (Kelvin)      0.14280     0.05409     0.04298
 Rotational constants (GHZ):           2.97550     1.12703     0.89550
    2 imaginary frequencies ignored.
 Zero-point vibrational energy     288192.9 (Joules/Mol)
                                   68.87977 (Kcal/Mol)
 Warning -- explicit consideration of  11 degrees of freedom as
           vibrations may cause significant error
 Vibrational temperatures:     53.37    81.19   137.13   214.32   313.91
          (Kelvin)            324.51   388.46   465.59   604.29   806.06
                              860.08   911.74  1067.75  1088.09  1112.11
                             1131.07  1286.58  1347.45  1566.61  1624.74
                             1687.93  1833.23  1892.46  1990.54  2041.44
                             2107.20  2142.24  2163.25  2655.34  3265.30
                             3701.64  4420.44  4505.18  4536.39  4544.16
                             5021.20  5430.27
 
 Zero-point correction=                           0.109767 (Hartree/Particle)
 Thermal correction to Energy=                    0.118936
 Thermal correction to Enthalpy=                  0.119880
 Thermal correction to Gibbs Free Energy=         0.073625
 Sum of electronic and zero-point Energies=           -420.091197
 Sum of electronic and thermal Energies=              -420.082028
 Sum of electronic and thermal Enthalpies=            -420.081084
 Sum of electronic and thermal Free Energies=         -420.127339
 
                     E (Thermal)             CV                S
                      KCal/Mol        Cal/Mol-Kelvin    Cal/Mol-Kelvin
 Total                   74.633             30.641             97.353
 Electronic               0.000              0.000              1.377
 Translational            0.889              2.981             40.136
 Rotational               0.889              2.981             29.061
 Vibrational             72.856             24.679             26.779
 Vibration     1          0.594              1.982              5.408
 Vibration     2          0.596              1.975              4.578
 Vibration     3          0.603              1.953              3.548
 Vibration     4          0.618              1.904              2.685
 Vibration     5          0.646              1.813              1.974
 Vibration     6          0.650              1.802              1.914
 Vibration     7          0.674              1.728              1.596
 Vibration     8          0.708              1.628              1.292
 Vibration     9          0.783              1.427              0.892
 Vibration    10          0.916              1.117              0.523
 Vibration    11          0.956              1.036              0.453
                       Q            Log10(Q)             Ln(Q)
 Total Bot       0.136461D-33        -33.864992        -77.977026
 Total V=0       0.420950D+17         16.624230         38.278705
 Vib (Bot)       0.280909D-47        -47.551435       -109.491225
 Vib (Bot)    1  0.557853D+01          0.746520          1.718925
 Vib (Bot)    2  0.366084D+01          0.563580          1.297692
 Vib (Bot)    3  0.215513D+01          0.333473          0.767850
 Vib (Bot)    4  0.136161D+01          0.134053          0.308669
 Vib (Bot)    5  0.907296D+00         -0.042251         -0.097286
 Vib (Bot)    6  0.874942D+00         -0.058021         -0.133597
 Vib (Bot)    7  0.715802D+00         -0.145207         -0.334352
 Vib (Bot)    8  0.579649D+00         -0.236835         -0.545332
 Vib (Bot)    9  0.418067D+00         -0.378755         -0.872115
 Vib (Bot)   10  0.277356D+00         -0.556963         -1.282455
 Vib (Bot)   11  0.250355D+00         -0.601443         -1.384874
 Vib (V=0)       0.866538D+03          2.937788          6.764506
 Vib (V=0)    1  0.610089D+01          0.785393          1.808435
 Vib (V=0)    2  0.419482D+01          0.622714          1.433851
 Vib (V=0)    3  0.271237D+01          0.433349          0.997822
 Vib (V=0)    4  0.195051D+01          0.290149          0.668092
 Vib (V=0)    5  0.153595D+01          0.186376          0.429147
 Vib (V=0)    6  0.150773D+01          0.178324          0.410607
 Vib (V=0)    7  0.137314D+01          0.137715          0.317100
 Vib (V=0)    8  0.126550D+01          0.102263          0.235469
 Vib (V=0)    9  0.115175D+01          0.061359          0.141284
 Vib (V=0)   10  0.107177D+01          0.030103          0.069316
 Vib (V=0)   11  0.105918D+01          0.024968          0.057491
 Electronic      0.200000D+01          0.301030          0.693147
 Translational   0.484981D+08          7.685724         17.697035
 Rotational      0.500827D+06          5.699688         13.124016
 ***** Axes restored to original set *****
 -------------------------------------------------------------------
 Center     Atomic                   Forces (Hartrees/Bohr)
 Number     Number              X              Y              Z
 -------------------------------------------------------------------
      1        8           0.004670214    0.012284669    0.001796370
      2        1          -0.000146324   -0.000163118    0.000104177
      3        6          -0.000129283    0.000067577    0.000026429
      4        1          -0.000018832   -0.000004280   -0.000008354
      5        6          -0.000030350    0.000141059    0.000190463
      6        6           0.000060394    0.000295247    0.000315596
      7        8          -0.000904651    0.000261637    0.000472507
      8        8           0.000923051   -0.000497251   -0.000998879
      9        6          -0.001780724   -0.006899172   -0.002819093
     10        6          -0.001193455   -0.002180175    0.001369972
     11        1          -0.000266526   -0.001600236   -0.001461823
     12        1          -0.001113292   -0.001453718    0.000461204
     13        1          -0.000110302   -0.000230652    0.000125218
     14        1           0.000065758    0.000135447   -0.000089773
     15        1          -0.000025678   -0.000157034    0.000515985
 -------------------------------------------------------------------
 Cartesian Forces:  Max     0.012284669 RMS     0.002380455

 GradGradGradGradGradGradGradGradGradGradGradGradGradGradGradGradGradGrad
 Berny optimization.
 Search for a local minimum.
 Step number   1 out of a maximum of    2
 All quantities printed in internal units (Hartrees-Bohrs-Radians)
 Second derivative matrix not updated -- analytic derivatives used.
 ITU=  0
     Eigenvalues ---   -0.00830  -0.00253   0.00031   0.00088   0.00173
     Eigenvalues ---    0.00211   0.00265   0.00454   0.01474   0.02073
     Eigenvalues ---    0.02719   0.03201   0.03671   0.05338   0.06273
     Eigenvalues ---    0.07522   0.08065   0.09048   0.09394   0.10100
     Eigenvalues ---    0.11062   0.13798   0.16184   0.17165   0.19534
     Eigenvalues ---    0.28886   0.29615   0.43379   0.49311   0.60193
     Eigenvalues ---    0.71094   0.74595   0.78278   0.82925   0.87130
     Eigenvalues ---    0.90015   0.95173   1.73875   2.73782
 Eigenvalue     1 is  -8.30D-03 should be greater than     0.000000 Eigenvector:
                          Y1        Y11       Y12       Z11       X2
   1                    0.52318  -0.41809  -0.37401  -0.34248  -0.21367
                          Z1        Y9        X12       Z8        Y13
   1                    0.20747  -0.17311  -0.15770  -0.15497  -0.13618
 Eigenvalue     2 is  -2.53D-03 should be greater than     0.000000 Eigenvector:
                          Z1        Z11       Y14       Y1        X2
   1                    0.37653  -0.35269   0.33208  -0.28947   0.28174
                          Y13       X1        Y10       Y15       Z9
   1                    0.24460   0.23568   0.21524   0.18467  -0.15679
 Quadratic step=1.300D+01 exceeds max=3.000D-01 adjusted using Lamda=-3.614D-02.
 Angle between NR and scaled steps=  60.89 degrees.
 Angle between quadratic step and forces=  29.71 degrees.
 Linear search not attempted -- first point.
 B after Tr=     0.004546    0.010551    0.000525
         Rot=    0.999999   -0.001007    0.000266   -0.000885 Ang=  -0.16 deg.
 Variable       Old X    -DE/DX   Delta X   Delta X   Delta X     New X
                                 (Linear)    (Quad)   (Total)
    X1        5.03409   0.00467   0.00000   0.10141   0.09980   5.13389
    Y1        3.38877   0.01228   0.00000   0.21249   0.23302   3.62178
    Z1       -0.45906   0.00180   0.00000   0.01440   0.02492  -0.43413
    X2        3.44405  -0.00015   0.00000   0.00470   0.00176   3.44581
    Y2        4.20331  -0.00016   0.00000   0.02905   0.04573   4.24904
    Z2       -0.02244   0.00010   0.00000   0.00247   0.01336  -0.00909
    X3       -6.02726  -0.00013   0.00000  -0.00410  -0.00344  -6.03070
    Y3        1.96592   0.00007   0.00000   0.00340   0.00174   1.96766
    Z3        0.76235   0.00003   0.00000  -0.00100   0.00027   0.76262
    X4       -7.68889  -0.00002   0.00000  -0.00444  -0.00586  -7.69475
    Y4        3.00136  -0.00000   0.00000   0.00349  -0.00205   2.99931
    Z4        1.22803  -0.00001   0.00000  -0.00310  -0.00064   1.22739
    X5       -4.16028  -0.00003   0.00000  -0.00241   0.00060  -4.15968
    Y5        0.79803   0.00014   0.00000   0.00287   0.00556   0.80359
    Z5        0.23836   0.00019   0.00000   0.00525   0.00516   0.24352
    X6       -1.95210   0.00006   0.00000  -0.00923  -0.00320  -1.95531
    Y6       -0.69752   0.00030   0.00000  -0.01015  -0.00221  -0.69973
    Z6       -0.42793   0.00032   0.00000   0.00437   0.00243  -0.42551
    X7       -2.04762  -0.00090   0.00000  -0.03573  -0.02554  -2.07316
    Y7       -2.78062   0.00026   0.00000  -0.01424  -0.00476  -2.78538
    Z7       -1.30931   0.00047   0.00000   0.01550   0.00928  -1.30003
    X8        0.18511   0.00092   0.00000   0.00252   0.00608   0.19119
    Y8        0.56629  -0.00050   0.00000  -0.02481  -0.01402   0.55227
    Z8        0.06669  -0.00100   0.00000  -0.02111  -0.01939   0.04729
    X9        2.47897  -0.00178   0.00000  -0.00062   0.00565   2.48462
    Y9       -0.75090  -0.00690   0.00000  -0.05704  -0.04095  -0.79184
    Z9       -0.55303  -0.00282   0.00000  -0.02129  -0.02106  -0.57410
   X10        3.33403  -0.00119   0.00000  -0.02091  -0.01275   3.32128
   Y10       -2.46885  -0.00218   0.00000  -0.04288  -0.02960  -2.49845
   Z10        1.55042   0.00137   0.00000   0.00681   0.00404   1.55447
   X11        3.90396  -0.00027   0.00000  -0.02261  -0.01872   3.88525
   Y11        0.74084  -0.00160   0.00000  -0.10844  -0.08922   0.65162
   Z11       -0.85808  -0.00146   0.00000  -0.03812  -0.03425  -0.89232
   X12        2.23889  -0.00111   0.00000  -0.03701  -0.02803   2.21087
   Y12       -1.72646  -0.00145   0.00000  -0.07640  -0.05721  -1.78367
   Z12       -2.35134   0.00046   0.00000   0.00048  -0.00144  -2.35278
   X13        5.19095  -0.00011   0.00000  -0.01375  -0.00401   5.18694
   Y13       -3.23723  -0.00023   0.00000  -0.03075  -0.01324  -3.25047
   Z13        1.08749   0.00013   0.00000   0.01205   0.00875   1.09625
   X14        3.48336   0.00007   0.00000  -0.01266  -0.00733   3.47603
   Y14       -1.42135   0.00014   0.00000  -0.01610  -0.00608  -1.42743
   Z14        3.31971  -0.00009   0.00000  -0.00754  -0.00806   3.31164
   X15        2.01494  -0.00003   0.00000  -0.01581  -0.00502   2.00992
   Y15       -4.03611  -0.00016   0.00000  -0.03716  -0.02671  -4.06283
   Z15        1.78908   0.00052   0.00000   0.02324   0.01662   1.80570
         Item               Value     Threshold  Converged?
 Maximum Force            0.012285     0.000450     NO 
 RMS     Force            0.002380     0.000300     NO 
 Maximum Displacement     0.233016     0.001800     NO 
 RMS     Displacement     0.043930     0.001200     NO 
 Predicted change in Energy=-4.249719D-03
 GradGradGradGradGradGradGradGradGradGradGradGradGradGradGradGradGradGrad


 ----------------------------------------------------------------------

 Electric dipole moment (input orientation):
 (Debye = 10**-18 statcoulomb cm , SI units = C m)
                  (au)            (Debye)         (10**-30 SI)
   Tot        0.825720D+00      0.209877D+01      0.700074D+01
   x         -0.380592D+00     -0.967368D+00     -0.322679D+01
   y          0.576040D+00      0.146415D+01      0.488387D+01
   z          0.452924D+00      0.115122D+01      0.384005D+01

 Dipole polarizability, Alpha (input orientation).
 (esu units = cm**3 , SI units = C**2 m**2 J**-1)
 Alpha(0;0):
               (au)            (10**-24 esu)      (10**-40 SI)
   iso        0.731832D+02      0.108446D+02      0.120663D+02
   aniso      0.376176D+02      0.557435D+01      0.620230D+01
   xx         0.912069D+02      0.135155D+02      0.150380D+02
   yx        -0.515844D+01     -0.764402D+00     -0.850512D+00
   yy         0.771106D+02      0.114266D+02      0.127138D+02
   zx        -0.404363D+01     -0.599204D+00     -0.666705D+00
   zy         0.420356D+01      0.622903D+00      0.693073D+00
   zz         0.512321D+02      0.759182D+01      0.844704D+01

 ----------------------------------------------------------------------

 Dipole orientation:
     8          4.83552395          3.68930088         -0.20803954
     1          3.83401822          3.61308280          1.33257317
     6         -4.44074683         -0.43532617          4.56772285
     1         -5.44476510         -0.39521386          6.31138495
     6         -3.31393631         -0.48294044          2.60502741
     6         -2.02636642         -0.58511506          0.17843275
     8         -2.94758339         -1.41849550         -1.71421105
     8          0.30803806          0.38023027          0.34631765
     6          1.72803938          0.38566246         -1.96980010
     6          3.07858793         -2.08222741         -2.40861215
     1          3.12669158          1.91727307         -1.75326562
     1          0.48944947          0.92139320         -3.52612945
     1          4.30781893         -1.90057678         -4.05446739
     1          4.24044780         -2.56722691         -0.77619568
     1          1.72502897         -3.59732713         -2.76306356

 Electric dipole moment (dipole orientation):
 (Debye = 10**-18 statcoulomb cm , SI units = C m)
                  (au)            (Debye)         (10**-30 SI)
   Tot        0.825720D+00      0.209877D+01      0.700074D+01
   x          0.000000D+00      0.000000D+00      0.000000D+00
   y          0.000000D+00      0.000000D+00      0.000000D+00
   z          0.825720D+00      0.209877D+01      0.700074D+01

 Dipole polarizability, Alpha (dipole orientation).
 (esu units = cm**3 , SI units = C**2 m**2 J**-1)
 Alpha(0;0):
               (au)            (10**-24 esu)      (10**-40 SI)
   iso        0.731832D+02      0.108446D+02      0.120663D+02
   aniso      0.376176D+02      0.557435D+01      0.620230D+01
   xx         0.778466D+02      0.115357D+02      0.128352D+02
   yx         0.103389D+02      0.153207D+01      0.170465D+01
   yy         0.608048D+02      0.901034D+01      0.100254D+02
   zx        -0.139840D+02     -0.207222D+01     -0.230566D+01
   zy         0.721114D+01      0.106858D+01      0.118896D+01
   zz         0.808983D+02      0.119879D+02      0.133383D+02

 ----------------------------------------------------------------------
 1\1\GINC-AJ\Freq\UM062X\6-311++G(d,p)\C5H7O3(2)\AAYUSH\23-Jun-2025\0\\
 # freq 6-311++g(d,p) m062x\\Title Card Required\\0,2\O,2.663924,1.7932
 59,-0.242922\H,1.822515,2.224295,-0.011876\C,-3.189487,1.040319,0.4034
 17\H,-4.068786,1.58825,0.649843\C,-2.201524,0.422299,0.126133\C,-1.033
 008,-0.36911,-0.226452\O,-1.083556,-1.47144,-0.692857\O,0.097954,0.299
 669,0.035289\C,1.311813,-0.397357,-0.292652\C,1.764293,-1.306459,0.820
 448\H,2.065889,0.392036,-0.454074\H,1.184772,-0.913603,-1.244276\H,2.7
 46931,-1.713066,0.575476\H,1.843317,-0.752147,1.756714\H,1.066259,-2.1
 3582,0.946741\\Version=ES64L-G16RevA.03\State=2-A\HF=-420.2009639\S2=0
 .755679\S2-1=0.\S2A=0.750022\RMSD=3.839e-09\RMSF=2.380e-03\ZeroPoint=0
 .1097669\Thermal=0.1189359\Dipole=-0.3805918,0.5760403,0.4529241\Dipol
 eDeriv=-0.1633063,0.1541081,-0.0358018,0.1241984,0.0144965,0.0168574,-
 0.002673,0.0742668,-0.3842823,0.2086203,0.031803,0.0377022,0.1698262,0
 .4169362,-0.026421,0.051575,0.0039294,0.3189079,-0.2326886,0.0300055,0
 .0110246,0.0451624,-0.1725586,-0.011087,0.0163707,-0.0119678,-0.148357
 6,0.2628183,-0.0160813,-0.0066891,-0.0242048,0.2345318,0.0110837,-0.01
 05201,0.0117144,0.2128066,-0.5433776,0.2055466,0.0890225,0.2255417,-0.
 2498288,-0.0673567,0.1077179,-0.0721773,-0.1238607,2.469995,-0.0764432
 ,-0.0038968,0.2525707,1.5019565,0.5171093,0.1295284,0.5024995,0.604013
 6,-0.8175657,0.0783999,0.024108,-0.1258684,-1.0554743,-0.3265669,-0.07
 12759,-0.3114863,-0.4839054,-2.0225178,-0.1871318,-0.1227314,-0.140883
 8,-0.631624,-0.1118525,-0.071971,-0.0973468,-0.3675363,1.2122979,0.341
 3276,0.006672,-0.1442533,0.6627997,-0.0706969,-0.2144798,-0.2623948,0.
 298028,-0.1497918,-0.1158938,0.0029594,-0.005981,-0.1466249,0.0710806,
 -0.0102653,0.0899156,-0.0359159,-0.2647632,-0.4211065,0.0273378,-0.404
 5898,-0.6217107,0.068002,0.0072063,0.0119852,0.1012051,-0.0350601,-0.0
 57664,-0.068158,0.0290027,-0.0300296,-0.0298562,0.0466866,0.0463588,-0
 .0456554,-0.0658844,0.0736828,0.0256459,0.0721331,0.0729124,0.0039528,
 0.0278046,-0.0111876,0.0549295,0.0936229,0.0175446,-0.000598,0.0000382
 ,0.0156641,-0.0810012,-0.0245674,-0.0273442,-0.0489957,0.0476012,-0.05
 80974,0.0134027,-0.0726923,-0.0114463,0.0367524,0.0188631,0.053235,0.0
 486187\Polar=91.2069037,-5.1584397,77.1106196,-4.0436306,4.2035554,51.
 2321456\Quadrupole=1.3748182,-0.2566341,-1.1181841,-7.6650103,-1.51480
 68,-0.2446681\PG=C01 [X(C5H7O3)]\NImag=2\\0.39229210,-0.18557042,0.109
 46856,-0.10528307,0.05329247,0.02691007,-0.38576928,0.19570639,0.10512
 247,0.38387507,0.18370766,-0.10782368,-0.05273338,-0.19080210,0.112915
 62,0.10250400,-0.05487971,-0.03046942,-0.10366294,0.05502929,0.0305580
 9,0.00003842,0.00007604,0.00003306,0.00002737,0.00028026,0.00002521,1.
 08619224,-0.00008617,-0.00005340,-0.00002680,0.00009186,-0.00021505,-0
 .00002101,-0.64438899,0.45976802,-0.00000661,-0.00003943,0.00004549,-0
 .00000385,-0.00006967,-0.00008600,-0.28949547,0.17981896,0.14134178,0.
 00002499,-0.00001867,-0.00001238,-0.00006113,-0.00005082,0.00000428,-0
 .29743609,0.16875277,0.07578893,0.28776714,0.00001622,0.00001137,0.000
 01022,0.00000078,0.00008316,0.00000556,0.16848882,-0.13226260,-0.04641
 827,-0.16902055,0.12201045,-0.00000703,0.00001155,-0.00002892,0.000015
 67,0.00001053,0.00004142,0.07567876,-0.04641461,-0.05072724,-0.0759564
 2,0.04708333,0.03913011,0.00007747,0.00024052,0.00005961,0.00004587,0.
 00053108,0.00008053,-0.78990547,0.47250162,0.21236367,0.00809768,-0.00
 225649,-0.00093581,1.04763985,-0.00001221,-0.00006296,-0.00004446,-0.0
 0006534,-0.00024550,-0.00001437,0.47437200,-0.33065785,-0.13325581,-0.
 00218245,0.00645536,-0.00046353,-0.58883698,0.47386265,-0.00001268,0.0
 0001512,-0.00001064,-0.00001272,-0.00002646,0.00001011,0.21312051,-0.1
 3322919,-0.09380894,-0.00090984,-0.00045189,0.00750082,-0.26529270,0.1
 8380474,0.14348492,0.00062193,-0.00102572,-0.00066613,-0.00174200,-0.0
 0433836,-0.00023123,0.00737750,-0.00133238,-0.00059756,0.00070947,0.00
 351683,0.00155164,-0.20697198,0.09359336,0.04157850,0.60676147,0.00075
 996,0.00005640,-0.00005155,-0.00121066,-0.00102300,-0.00013458,-0.0005
 6947,0.00264857,-0.00013590,0.00257337,0.00375812,-0.00093158,0.082812
 81,-0.11450800,-0.01800266,-0.02233724,0.90133122,0.00007930,-0.000720
 41,-0.00041913,-0.00044535,-0.00094464,-0.00001432,-0.00024394,-0.0001
 0276,0.00263031,0.00116937,-0.00092092,0.00546650,0.03705895,-0.018781
 35,-0.08200121,-0.01755902,0.29383822,0.33516383,0.00003984,0.00015572
 ,0.00018154,0.00015800,0.00113865,0.00001164,-0.00337066,0.00185199,0.
 00081749,-0.00026827,-0.00126330,-0.00055537,0.00647439,0.03287487,0.0
 1441861,-0.10849142,-0.00398545,-0.00080404,0.11278161,-0.00072995,-0.
 00025577,0.00019032,0.00101366,0.00124359,-0.00010251,0.00054571,0.001
 29316,0.00045199,0.00025036,0.00069127,0.00071352,0.02648114,-0.048608
 11,-0.03029673,-0.01214641,-0.66362558,-0.24663977,0.03920568,0.771241
 20,-0.00028834,-0.00000976,0.00022706,0.00046580,0.00062352,-0.0000474
 8,0.00029171,0.00045529,0.00039602,0.00009441,0.00073017,-0.00070785,0
 .01157888,-0.03043892,0.00895134,-0.00493836,-0.24851509,-0.18588093,0
 .01366781,0.31164832,0.16603771,0.00044967,0.00398106,0.00141746,0.000
 35112,0.00476715,0.00041522,-0.00338115,0.00269806,0.00118866,0.001285
 56,0.00029217,0.00008032,-0.06417761,-0.00669147,-0.00134855,-0.237041
 15,-0.07225902,-0.02986656,-0.00871891,-0.06327854,-0.02398066,0.52940
 431,-0.00226075,-0.00178411,-0.00032610,0.00156862,0.00088571,0.000307
 00,0.00216760,-0.00152290,-0.00083395,-0.00051201,-0.00070546,-0.00011
 207,0.01291338,0.01365219,0.00050412,-0.05264784,-0.14511091,-0.033989
 32,-0.06159254,-0.05653093,-0.03567447,0.03355370,0.31940146,-0.000174
 24,-0.00042379,0.00061210,0.00003535,0.00012175,-0.00086126,0.00094492
 ,-0.00087730,0.00010820,-0.00024629,-0.00013944,-0.00044685,0.00664070
 ,0.00129236,0.01136295,-0.01944339,-0.03287663,-0.07988324,-0.02435891
 ,-0.03541673,0.01571466,0.00641812,0.10342032,0.12931519,-0.02062701,-
 0.04047881,-0.00496687,0.00579448,-0.00122915,-0.00153768,0.00132096,-
 0.00078073,-0.00030967,-0.00033707,0.00030257,0.00016240,0.00171753,-0
 .00240318,-0.00168020,-0.07255312,-0.00388621,0.00147500,0.00524766,0.
 01523668,0.00700278,-0.14057228,0.03232208,0.02043866,0.47804747,-0.01
 886630,-0.03824974,-0.00467965,0.00018829,-0.00301436,-0.00061905,-0.0
 0076565,0.00087347,0.00042734,0.00017952,0.00009757,0.00013480,-0.0051
 8635,-0.00061099,-0.00225481,-0.00428900,0.02515705,0.01034066,-0.0044
 4551,-0.00983165,-0.00162286,0.06038042,-0.11971671,-0.02911938,0.0686
 3804,0.53173834,0.00535941,0.01050450,0.00219077,-0.00177593,0.0006878
 3,0.00036287,-0.00050990,0.00051715,0.00003785,0.00010595,0.00008690,-
 0.00024267,-0.00194688,-0.00240034,0.00513708,0.00501006,0.01409452,0.
 00681029,0.00000461,-0.00358712,-0.00677437,0.02756938,-0.02884027,-0.
 08297803,0.02363768,0.03396934,0.56975683,0.00227970,0.00401827,0.0005
 4846,-0.00100496,0.00048751,0.00071404,-0.00031573,0.00022617,0.000116
 25,0.00009455,0.00000191,-0.00008861,-0.00108027,-0.00064419,0.0011445
 3,0.00505118,0.00758336,0.00082537,-0.00009433,-0.00259811,-0.00153924
 ,-0.02984316,0.02913448,-0.02427331,-0.07593919,0.01538310,-0.02215069
 ,0.57357316,0.00281582,0.00540464,0.00037943,-0.00067078,0.00013425,0.
 00065308,-0.00000298,0.00000028,0.00004236,-0.00001345,-0.00002172,0.0
 0002013,0.00037401,0.00020334,-0.00063618,-0.00120207,0.00009246,-0.00
 008305,0.00086881,-0.00025935,0.00168751,0.01490988,-0.01275236,0.0095
 6728,0.02244975,-0.12522512,0.06271012,0.01556052,0.55115523,-0.000401
 81,-0.00109174,-0.00010018,0.00015520,0.00007912,0.00019240,0.00018565
 ,-0.00018783,0.00004067,-0.00002763,0.00000829,0.00003198,0.00012611,0
 .00054646,-0.00082764,-0.00208517,-0.00399398,-0.00070147,-0.00010762,
 0.00204827,0.00078012,0.00586591,-0.00550625,0.01210642,-0.03180066,0.
 06740243,-0.17141641,-0.02373556,0.03922918,0.54109127,0.01028296,0.02
 204716,0.00325116,-0.00132587,0.00520627,0.00193627,-0.00050455,0.0004
 5710,0.00014313,0.00010229,-0.00006207,0.00001219,-0.00174836,-0.00014
 407,-0.00037968,0.00231507,0.00451872,0.00477382,-0.00036831,-0.001036
 14,-0.00062619,-0.03920869,-0.01392928,0.00342515,-0.12324038,-0.09657
 175,0.01518060,0.00399090,0.00255941,-0.00119897,0.15034268,0.01950405
 ,0.03092040,0.00363274,-0.00567378,-0.00384106,-0.00025972,-0.00023143
 ,0.00011670,-0.00000453,0.00005346,-0.00010735,-0.00004803,-0.00011007
 ,0.00051699,0.00061835,0.00660278,-0.00308655,-0.00065734,-0.00241655,
 0.00148600,0.00051950,0.01011405,0.01464731,-0.00303132,-0.08256812,-0
 .13963349,0.00869071,-0.01825882,-0.02257336,0.00418266,0.08132426,0.1
 3443814,0.00017253,-0.00274058,0.00039355,-0.00044690,-0.00258160,0.00
 112621,0.00003771,-0.00001804,-0.00005104,-0.00000612,-0.00000421,-0.0
 0001576,0.00033437,-0.00005602,0.00037281,-0.00060398,-0.00320634,-0.0
 0155454,-0.00162749,0.00115779,0.00082183,0.00957339,0.00496803,-0.001
 03924,0.02434401,0.02403815,-0.04650894,0.01348897,0.01927865,-0.00470
 446,-0.02725554,-0.02380648,0.04831243,0.00105702,0.00202420,0.0007289
 8,-0.00059764,0.00047191,-0.00008810,-0.00005630,0.00001609,0.00002758
 ,0.00004132,-0.00002561,0.00004190,-0.00023648,0.00017240,-0.00086274,
 0.00417143,0.00621575,0.00391184,-0.00251304,-0.00344023,-0.00084250,-
 0.01192387,0.02080306,0.03134105,-0.05273706,-0.02085000,-0.04411834,0
 .00041305,-0.00576701,-0.00711959,-0.00278282,-0.01268428,-0.01702971,
 0.06466962,0.00116196,0.00235021,0.00084705,-0.00029149,0.00062372,-0.
 00012863,0.00005677,-0.00001265,0.00004676,-0.00001177,0.00000755,0.00
 000790,0.00029710,-0.00018068,-0.00028472,-0.00332599,-0.00098521,-0.0
 0075727,-0.00168195,0.00049374,0.00125928,0.00814036,-0.01142458,-0.01
 459328,-0.01252180,-0.10866780,-0.11428047,0.00212989,0.01219490,0.020
 52386,-0.00576027,-0.01345530,-0.01873965,0.01099619,0.12040188,-0.001
 56621,-0.00275830,-0.00003648,0.00047944,-0.00008370,-0.00013554,-0.00
 001349,0.00000700,0.00007125,-0.00001599,-0.00000440,-0.00000225,0.000
 25763,0.00019587,-0.00025669,-0.00306811,-0.00371531,-0.00046688,-0.00
 179661,0.00181084,0.00111808,0.00744896,-0.00557556,-0.00410286,-0.032
 11231,-0.11145279,-0.25512248,-0.00425512,-0.01101234,-0.01851301,0.00
 159070,0.00586665,0.00423104,0.03452250,0.12380181,0.27410440,0.000028
 61,0.00005701,-0.00007264,-0.00006289,-0.00007068,-0.00001052,-0.00005
 923,0.00003954,-0.00002513,0.00002246,-0.00001451,-0.00000602,-0.00011
 593,0.00000721,0.00026331,0.00136020,0.00024845,0.00034151,-0.00021827
 ,-0.00005469,-0.00048925,0.00000978,0.00085612,-0.00216499,-0.00926489
 ,0.00169693,0.00395618,-0.26861869,0.09243072,0.05569804,0.00041552,0.
 00027083,-0.00004846,0.00009137,-0.00015135,-0.00042278,0.28955688,-0.
 00038315,-0.00008828,-0.00004722,0.00012076,0.00011301,-0.00010773,0.0
 0006625,-0.00003501,-0.00003455,-0.00002127,0.00000036,0.00001339,0.00
 027789,0.00011091,-0.00010855,-0.00173145,-0.00274933,-0.00042923,-0.0
 0011480,0.00130694,0.00010599,0.00494454,-0.00212417,0.00430017,0.0161
 7368,-0.00738219,-0.00800179,0.09065154,-0.08323398,-0.02165592,0.0000
 2314,0.00045983,-0.00045941,-0.00014603,0.00058414,0.00016903,-0.10175
 629,0.08842130,0.00009462,0.00007310,0.00000031,-0.00006797,-0.0000071
 5,-0.00003699,-0.00010280,0.00009752,0.00001055,0.00001776,0.00000517,
 -0.00001764,-0.00027893,-0.00027297,0.00034230,0.00130986,0.00198496,0
 .00024045,-0.00011032,-0.00079862,-0.00047124,-0.00518844,0.00451957,-
 0.00363912,-0.02124307,0.00655950,0.00802132,0.05738444,-0.02302770,-0
 .06185793,0.00019251,-0.00027477,0.00088629,0.00030525,-0.00116014,0.0
 0020114,-0.06057816,0.02288217,0.06318996,-0.00021551,-0.00007428,-0.0
 0015940,0.00012368,-0.00001191,-0.00006804,0.00000751,0.00000806,0.000
 02935,-0.00002027,0.00000600,-0.00000798,0.00005327,0.00001144,0.00000
 784,-0.00097450,-0.00124655,-0.00063527,-0.00016027,0.00087359,0.00012
 086,0.00174051,-0.00103142,0.00052349,-0.00280967,-0.00460099,-0.00939
 964,-0.04830280,-0.01109202,-0.01567283,0.00025331,0.00057112,0.000702
 33,0.00023490,0.00141469,-0.00160446,0.00364995,0.01436227,0.02579981,
 0.04749027,0.00000914,0.00020609,-0.00046236,0.00012771,-0.00011199,0.
 00020108,-0.00003473,-0.00000334,-0.00000614,0.00000617,0.00000462,-0.
 00000863,-0.00003591,0.00003173,0.00015251,0.00038771,0.00007602,-0.00
 022264,-0.00017093,0.00017221,-0.00026393,-0.00207911,0.00130707,-0.00
 111644,0.00192373,0.01141601,0.02163013,-0.01069160,-0.12156244,-0.122
 49994,-0.00015955,0.00125958,-0.00052391,0.00176597,-0.00270481,0.0032
 4109,-0.00200684,-0.00657903,-0.00895858,0.01025158,0.12786668,0.00002
 981,-0.00018107,0.00054113,-0.00006507,0.00010993,-0.00032972,-0.00003
 582,0.00003733,0.00002088,-0.00000114,-0.00000687,-0.00000275,-0.00003
 367,0.00002623,-0.00003343,-0.00031631,-0.00054205,-0.00031251,0.00001
 702,0.00033804,0.00025859,0.00104258,-0.00041418,0.00273214,-0.0014185
 9,-0.01348803,-0.02451589,-0.01654673,-0.11943074,-0.24544518,0.000165
 95,-0.00018916,0.00049914,-0.00125505,0.00399646,-0.00196631,-0.000575
 00,-0.00222712,-0.00483823,0.01913078,0.12911898,0.26857907,-0.0005809
 0,-0.00113846,-0.00018225,0.00018819,-0.00008748,-0.00009268,0.0000651
 9,-0.00005498,-0.00003676,-0.00002264,0.00001723,0.00001436,0.00013003
 ,-0.00005137,-0.00003420,-0.00059409,0.00078216,-0.00008099,-0.0004980
 3,-0.00032275,-0.00051770,0.00162587,-0.00134519,0.00089367,0.00595256
 ,0.00910925,-0.00092249,-0.16020342,-0.13322061,0.02011892,0.00147624,
 0.00350249,-0.00163511,0.00016851,-0.00045235,0.00055586,-0.01679487,-
 0.02246708,0.00246545,-0.00107040,0.00070667,-0.00013875,0.17015778,-0
 .00006586,-0.00009973,0.00001929,-0.00010392,0.00027558,0.00007130,-0.
 00006019,0.00006260,0.00001084,0.00001533,-0.00002268,-0.00001672,-0.0
 0000376,0.00004092,0.00019634,0.00027578,-0.00203126,0.00006981,-0.000
 42469,0.00118330,-0.00050452,0.00052674,0.00177838,-0.00110758,-0.0131
 7852,-0.01695038,0.00421880,-0.13298403,-0.20355677,0.02091539,0.00152
 708,-0.00114785,0.00269363,0.00044759,0.00077490,-0.00048991,0.0084475
 4,0.01119549,-0.00162207,-0.00944157,-0.01137838,0.00285225,0.14502247
 ,0.21987588,-0.00049968,-0.00105196,0.00014429,0.00020679,-0.00021536,
 -0.00031036,0.00008390,-0.00005572,-0.00002978,-0.00000489,0.00001633,
 0.00002109,-0.00001246,-0.00013788,-0.00022377,0.00005921,0.00218796,0
 .00092285,0.00024165,-0.00151762,-0.00042353,-0.00063579,-0.00244688,0
 .00099894,0.01800854,0.02036437,-0.00475823,0.01836719,0.02062228,-0.0
 5067657,-0.00121111,0.00476076,-0.00276932,0.00043692,-0.00053896,0.00
 087658,0.00413391,0.00560076,-0.00203117,-0.01876685,-0.02028123,0.004
 81308,-0.02040733,-0.02730685,0.05344592\\-0.00467021,-0.01228467,-0.0
 0179637,0.00014632,0.00016312,-0.00010418,0.00012928,-0.00006758,-0.00
 002643,0.00001883,0.00000428,0.00000835,0.00003035,-0.00014106,-0.0001
 9046,-0.00006039,-0.00029525,-0.00031560,0.00090465,-0.00026164,-0.000
 47251,-0.00092305,0.00049725,0.00099888,0.00178072,0.00689917,0.002819
 09,0.00119345,0.00218017,-0.00136997,0.00026653,0.00160024,0.00146182,
 0.00111329,0.00145372,-0.00046120,0.00011030,0.00023065,-0.00012522,-0
 .00006576,-0.00013545,0.00008977,0.00002568,0.00015703,-0.00051599\\\@


 WHERE THERE IS MUCH DESIRE TO LEARN, THERE OF NECESSITY WILL BE
 MUCH ARGUING, MUCH WRITING, MANY OPINIONS; FOR OPINION IN GOOD MEN
 IS BUT KNOWLEDGE IN THE MAKING. -- JOHN MILTON.
 Job cpu time:       0 days  0 hours 57 minutes  2.8 seconds.
 Elapsed time:       0 days  0 hours  2 minutes 22.7 seconds.
 File lengths (MBytes):  RWF=    153 Int=      0 D2E=      0 Chk=      8 Scr=      1
 Normal termination of Gaussian 16 at Mon Jun 23 01:42:30 2025.
