 Entering Gaussian System, Link 0=g16
 Initial command:
 /opt/g16/l1.exe "/home/aayush/scratches/g16/Gau-23340.inp" -scrdir="/home/aayush/scratches/g16/"
 Entering Link 1 = /opt/g16/l1.exe PID=     23343.
  
 Copyright (c) 1988,1990,1992,1993,1995,1998,2003,2009,2016,
            Gaussian, Inc.  All Rights Reserved.
  
 This is part of the Gaussian(R) 16 program.  It is based on
 the Gaussian(R) 09 system (copyright 2009, Gaussian, Inc.),
 the Gaussian(R) 03 system (copyright 2003, Gaussian, Inc.),
 the Gaussian(R) 98 system (copyright 1998, Gaussian, Inc.),
 the Gaussian(R) 94 system (copyright 1995, Gaussian, Inc.),
 the Gaussian 92(TM) system (copyright 1992, Gaussian, Inc.),
 the Gaussian 90(TM) system (copyright 1990, Gaussian, Inc.),
 the Gaussian 88(TM) system (copyright 1988, Gaussian, Inc.),
 the Gaussian 86(TM) system (copyright 1986, Carnegie Mellon
 University), and the Gaussian 82(TM) system (copyright 1983,
 Carnegie Mellon University). Gaussian is a federally registered
 trademark of Gaussian, Inc.
  
 This software contains proprietary and confidential information,
 including trade secrets, belonging to Gaussian, Inc.
  
 This software is provided under written license and may be
 used, copied, transmitted, or stored only in accord with that
 written license.
  
 The following legend is applicable only to US Government
 contracts under FAR:
  
                    RESTRICTED RIGHTS LEGEND
  
 Use, reproduction and disclosure by the US Government is
 subject to restrictions as set forth in subparagraphs (a)
 and (c) of the Commercial Computer Software - Restricted
 Rights clause in FAR 52.227-19.
  
 Gaussian, Inc.
 340 Quinnipiac St., Bldg. 40, Wallingford CT 06492
  
  
 ---------------------------------------------------------------
 Warning -- This program may not be used in any manner that
 competes with the business of Gaussian, Inc. or will provide
 assistance to any competitor of Gaussian, Inc.  The licensee
 of this program is prohibited from giving any competitor of
 Gaussian, Inc. access to this program.  By using this program,
 the user acknowledges that Gaussian, Inc. is engaged in the
 business of creating and licensing software in the field of
 computational chemistry and represents and warrants to the
 licensee that it is not a competitor of Gaussian, Inc. and that
 it will not use this program in any manner prohibited above.
 ---------------------------------------------------------------
  

 Cite this work as:
 Gaussian 16, Revision A.03,
 M. J. Frisch, G. W. Trucks, H. B. Schlegel, G. E. Scuseria, 
 M. A. Robb, J. R. Cheeseman, G. Scalmani, V. Barone, 
 G. A. Petersson, H. Nakatsuji, X. Li, M. Caricato, A. V. Marenich, 
 J. Bloino, B. G. Janesko, R. Gomperts, B. Mennucci, H. P. Hratchian, 
 J. V. Ortiz, A. F. Izmaylov, J. L. Sonnenberg, D. Williams-Young, 
 F. Ding, F. Lipparini, F. Egidi, J. Goings, B. Peng, A. Petrone, 
 T. Henderson, D. Ranasinghe, V. G. Zakrzewski, J. Gao, N. Rega, 
 G. Zheng, W. Liang, M. Hada, M. Ehara, K. Toyota, R. Fukuda, 
 J. Hasegawa, M. Ishida, T. Nakajima, Y. Honda, O. Kitao, H. Nakai, 
 T. Vreven, K. Throssell, J. A. Montgomery, Jr., J. E. Peralta, 
 F. Ogliaro, M. J. Bearpark, J. J. Heyd, E. N. Brothers, K. N. Kudin, 
 V. N. Staroverov, T. A. Keith, R. Kobayashi, J. Normand, 
 K. Raghavachari, A. P. Rendell, J. C. Burant, S. S. Iyengar, 
 J. Tomasi, M. Cossi, J. M. Millam, M. Klene, C. Adamo, R. Cammi, 
 J. W. Ochterski, R. L. Martin, K. Morokuma, O. Farkas, 
 J. B. Foresman, and D. J. Fox, Gaussian, Inc., Wallingford CT, 2016.
 
 ******************************************
 Gaussian 16:  ES64L-G16RevA.03 25-Dec-2016
                20-Jun-2025 
 ******************************************
 %nprocshared=24
 Will use up to   24 processors via shared memory.
 %mem=12GB
 %chk=ethyl_propiolate_ts1.chk
 -------------------
 # freq 6-31+g m062x
 -------------------
 1/10=4,30=1,38=1/1,3;
 2/12=2,17=6,18=5,40=1/2;
 3/5=1,6=6,7=10,11=2,25=1,30=1,71=2,74=-55,140=1/1,2,3;
 4//1;
 5/5=2,38=5,98=1/2;
 8/6=4,10=90,11=11/1;
 11/6=1,8=1,9=11,15=111,16=1/1,2,10;
 10/6=1/2;
 6/7=2,8=2,9=2,10=2,28=1/1;
 7/8=1,10=1,25=1/1,2,3,16;
 1/10=4,30=1/3;
 99//99;
 -------------------
 Title Card Required
 -------------------
 Symbolic Z-matrix:
 Charge =  0 Multiplicity = 2
 O                     2.69757   1.74389  -0.22932 
 H                     1.88763   2.22433   0.0018 
 C                    -3.13428   1.01996   0.42242 
 H                    -4.01484   1.566     0.66921 
 C                    -2.14462   0.4049    0.1447 
 C                    -0.97632  -0.38408  -0.20931 
 O                    -1.01988  -1.48613  -0.6746 
 O                     0.15572   0.28817   0.05624 
 C                     1.37393  -0.3789   -0.26186 
 C                     1.83251  -1.30091   0.83416 
 H                     2.17394   0.58225  -0.34636 
 H                     1.31853  -0.8261   -1.25463 
 H                     2.81379  -1.70899   0.58996 
 H                     1.89939  -0.76298   1.78047 
 H                     1.12561  -2.12945   0.93803 
 

 GradGradGradGradGradGradGradGradGradGradGradGradGradGradGradGradGradGrad
 Berny optimization.
 Initialization pass.
 Trust Radius=3.00D-01 FncErr=1.00D-07 GrdErr=1.00D-07 EigMax=2.50D+02 EigMin=1.00D-04
 Number of steps in this run=      2 maximum allowed number of steps=      2.
 GradGradGradGradGradGradGradGradGradGradGradGradGradGradGradGradGradGrad

                          Input orientation:                          
 ---------------------------------------------------------------------
 Center     Atomic      Atomic             Coordinates (Angstroms)
 Number     Number       Type             X           Y           Z
 ---------------------------------------------------------------------
      1          8           0        2.697565    1.743886   -0.229319
      2          1           0        1.887626    2.224335    0.001796
      3          6           0       -3.134276    1.019964    0.422422
      4          1           0       -4.014841    1.565997    0.669213
      5          6           0       -2.144617    0.404898    0.144699
      6          6           0       -0.976324   -0.384078   -0.209306
      7          8           0       -1.019877   -1.486128   -0.674597
      8          8           0        0.155717    0.288168    0.056241
      9          6           0        1.373930   -0.378901   -0.261857
     10          6           0        1.832508   -1.300913    0.834160
     11          1           0        2.173935    0.582245   -0.346363
     12          1           0        1.318526   -0.826096   -1.254629
     13          1           0        2.813785   -1.708986    0.589960
     14          1           0        1.899388   -0.762976    1.780468
     15          1           0        1.125610   -2.129453    0.938025
 ---------------------------------------------------------------------
                    Distance matrix (angstroms):
                    1          2          3          4          5
     1  O    0.000000
     2  H    0.969663   0.000000
     3  C    5.912630   5.181403   0.000000
     4  H    6.774614   5.976451   1.065107   0.000000
     5  C    5.037808   4.426032   1.197857   2.262963   0.000000
     6  C    4.245715   3.879509   2.650881   3.715801   1.453517
     7  O    4.944759   4.762207   3.457547   4.482310   2.347821
     8  O    2.943068   2.598310   3.390231   4.404786   2.304992
     9  C    2.501858   2.666502   4.769589   5.804169   3.627644
    10  C    3.339178   3.622601   5.497721   6.514436   4.382085
    11  H    1.279569   1.702835   5.381425   6.348237   4.349998
    12  H    3.091572   3.347777   5.103713   6.153705   3.932788
    13  H    3.550641   4.083469   6.546348   7.573766   5.408559
    14  H    3.310693   3.476757   5.510076   6.452682   4.515932
    15  H    4.340102   4.518038   5.322716   6.336627   4.212682
                    6          7          8          9         10
     6  C    0.000000
     7  O    1.197041   0.000000
     8  O    1.343111   2.250394   0.000000
     9  C    2.350847   2.669573   1.424854   0.000000
    10  C    3.133520   3.232144   2.437615   1.503879   0.000000
    11  H    3.297984   3.819207   2.078888   1.253376   2.248664
    12  H    2.560159   2.498041   2.076557   1.090252   2.202877
    13  H    4.093792   4.042986   3.367314   2.137265   1.090441
    14  H    3.517454   3.882319   2.668005   2.143528   1.090572
    15  H    2.963246   2.759988   2.750114   2.136776   1.094062
                   11         12         13         14         15
    11  H    0.000000
    12  H    1.881514   0.000000
    13  H    2.556531   2.533338   0.000000
    14  H    2.531483   3.090825   1.774364   0.000000
    15  H    3.178356   2.558063   1.774226   1.782050   0.000000
 Stoichiometry    C5H7O3(2)
 Framework group  C1[X(C5H7O3)]
 Deg. of freedom    39
 Full point group                 C1      NOp   1
 Largest Abelian subgroup         C1      NOp   1
 Largest concise Abelian subgroup C1      NOp   1
                         Standard orientation:                         
 ---------------------------------------------------------------------
 Center     Atomic      Atomic             Coordinates (Angstroms)
 Number     Number       Type             X           Y           Z
 ---------------------------------------------------------------------
      1          8           0        2.639062    1.752253   -0.248203
      2          1           0        1.829163    2.232726   -0.016998
      3          6           0       -3.192855    1.028719    0.403284
      4          1           0       -4.073375    1.574778    0.650179
      5          6           0       -2.203247    0.413623    0.125444
      6          6           0       -1.035020   -0.375382   -0.228712
      7          8           0       -1.078665   -1.477327   -0.694243
      8          8           0        0.097078    0.296704    0.036999
      9          6           0        1.315236   -0.370407   -0.281223
     10          6           0        1.773712   -1.292698    0.814602
     11          1           0        2.115329    0.590685   -0.365508
     12          1           0        1.259808   -0.817382   -1.274093
     13          1           0        2.754956   -1.700807    0.570330
     14          1           0        1.840625   -0.754972    1.761027
     15          1           0        1.066737   -2.121196    0.918275
 ---------------------------------------------------------------------
 Rotational constants (GHZ):           3.0334632           1.1298113           0.9019520
 Standard basis: 6-31+G (6D, 7F)
 There are   118 symmetry adapted cartesian basis functions of A   symmetry.
 There are   118 symmetry adapted basis functions of A   symmetry.
   118 basis functions,   236 primitive gaussians,   118 cartesian basis functions
    31 alpha electrons       30 beta electrons
       nuclear repulsion energy       348.5660852935 Hartrees.
 NAtoms=   15 NActive=   15 NUniq=   15 SFac= 1.00D+00 NAtFMM=   60 NAOKFM=F Big=F
 Integral buffers will be    131072 words long.
 Raffenetti 2 integral format.
 Two-electron integral symmetry is turned on.
 One-electron integrals computed using PRISM.
 NBasis=   118 RedAO= T EigKep=  1.62D-06  NBF=   118
 NBsUse=   118 1.00D-06 EigRej= -1.00D+00 NBFU=   118
 ExpMin= 4.38D-02 ExpMax= 5.48D+03 ExpMxC= 8.25D+02 IAcc=3 IRadAn=         5 AccDes= 0.00D+00
 Harris functional with IExCor= 1009 and IRadAn=       5 diagonalized for initial guess.
 HarFok:  IExCor= 1009 AccDes= 0.00D+00 IRadAn=         5 IDoV= 1 UseB2=F ITyADJ=14
 ICtDFT=  3500011 ScaDFX=  1.000000  1.000000  1.000000  1.000000
 FoFCou: FMM=F IPFlag=           0 FMFlag=      100000 FMFlg1=           0
         NFxFlg=           0 DoJE=T BraDBF=F KetDBF=T FulRan=T
         wScrn=  0.000000 ICntrl=       500 IOpCl=  0 I1Cent=   200000004 NGrid=           0
         NMat0=    1 NMatS0=      1 NMatT0=    0 NMatD0=    1 NMtDS0=    0 NMtDT0=    0
 Petite list used in FoFCou.
 Initial guess <Sx>= 0.0000 <Sy>= 0.0000 <Sz>= 0.5000 <S**2>= 0.7500 S= 0.5000
 Requested convergence on RMS density matrix=1.00D-08 within 128 cycles.
 Requested convergence on MAX density matrix=1.00D-06.
 Requested convergence on             energy=1.00D-06.
 No special actions if energy rises.
 SCF Done:  E(UM062X) =  -419.950111757     A.U. after   20 cycles
            NFock= 20  Conv=0.65D-08     -V/T= 2.0051
 <Sx>= 0.0000 <Sy>= 0.0000 <Sz>= 0.5000 <S**2>= 0.7605 S= 0.5052
 <L.S>=  0.00000000000    
 Annihilation of the first spin contaminant:
 S**2 before annihilation     0.7605,   after     0.7500
 DoSCS=F DFT=T ScalE2(SS,OS)=  1.000000  1.000000
 Range of M.O.s used for correlation:     1   118
 NBasis=   118 NAE=    31 NBE=    30 NFC=     0 NFV=     0
 NROrb=    118 NOA=    31 NOB=    30 NVA=    87 NVB=    88

 **** Warning!!: The largest alpha MO coefficient is  0.22331778D+03


 **** Warning!!: The largest beta MO coefficient is  0.22447458D+03

 Symmetrizing basis deriv contribution to polar:
 IMax=3 JMax=2 DiffMx= 0.00D+00
 G2DrvN: will do    16 centers at a time, making    1 passes.
 Calling FoFCou, ICntrl=  3107 FMM=F I1Cent=   0 AccDes= 0.00D+00.
 End of G2Drv F.D. properties file   721 does not exist.
 End of G2Drv F.D. properties file   722 does not exist.
 End of G2Drv F.D. properties file   788 does not exist.
          IDoAtm=111111111111111
          Differentiating once with respect to electric field.
                with respect to dipole field.
          Differentiating once with respect to nuclear coordinates.
 Keep R1 and R2 ints in memory in canonical form, NReq=71861349.
          There are    48 degrees of freedom in the 1st order CPHF.  IDoFFX=6 NUNeed=     3.
     45 vectors produced by pass  0 Test12= 1.11D-14 2.08D-09 XBig12= 9.51D+01 3.68D+00.
 AX will form    45 AO Fock derivatives at one time.
     45 vectors produced by pass  1 Test12= 1.11D-14 2.08D-09 XBig12= 1.90D+01 7.13D-01.
     45 vectors produced by pass  2 Test12= 1.11D-14 2.08D-09 XBig12= 5.41D-01 1.01D-01.
     45 vectors produced by pass  3 Test12= 1.11D-14 2.08D-09 XBig12= 3.56D-03 6.71D-03.
     45 vectors produced by pass  4 Test12= 1.11D-14 2.08D-09 XBig12= 3.00D-05 6.96D-04.
     45 vectors produced by pass  5 Test12= 1.11D-14 2.08D-09 XBig12= 2.26D-07 5.19D-05.
     39 vectors produced by pass  6 Test12= 1.11D-14 2.08D-09 XBig12= 1.17D-09 3.35D-06.
     10 vectors produced by pass  7 Test12= 1.11D-14 2.08D-09 XBig12= 5.70D-12 2.57D-07.
      3 vectors produced by pass  8 Test12= 1.11D-14 2.08D-09 XBig12= 3.31D-14 1.58D-08.
      2 vectors produced by pass  9 Test12= 1.11D-14 2.08D-09 XBig12= 1.42D-15 5.76D-09.
 InvSVY:  IOpt=1 It=  1 EMax= 4.43D-15
 Solved reduced A of dimension   324 with    48 vectors.
 Isotropic polarizability for W=    0.000000       73.36 Bohr**3.
 End of Minotr F.D. properties file   721 does not exist.
 End of Minotr F.D. properties file   722 does not exist.
 End of Minotr F.D. properties file   788 does not exist.

 **********************************************************************

            Population analysis using the SCF density.

 **********************************************************************

 Orbital symmetries:
 Alpha Orbitals:
       Occupied  (A) (A) (A) (A) (A) (A) (A) (A) (A) (A) (A) (A)
                 (A) (A) (A) (A) (A) (A) (A) (A) (A) (A) (A) (A)
                 (A) (A) (A) (A) (A) (A) (A)
       Virtual   (A) (A) (A) (A) (A) (A) (A) (A) (A) (A) (A) (A)
                 (A) (A) (A) (A) (A) (A) (A) (A) (A) (A) (A) (A)
                 (A) (A) (A) (A) (A) (A) (A) (A) (A) (A) (A) (A)
                 (A) (A) (A) (A) (A) (A) (A) (A) (A) (A) (A) (A)
                 (A) (A) (A) (A) (A) (A) (A) (A) (A) (A) (A) (A)
                 (A) (A) (A) (A) (A) (A) (A) (A) (A) (A) (A) (A)
                 (A) (A) (A) (A) (A) (A) (A) (A) (A) (A) (A) (A)
                 (A) (A) (A)
 Beta  Orbitals:
       Occupied  (A) (A) (A) (A) (A) (A) (A) (A) (A) (A) (A) (A)
                 (A) (A) (A) (A) (A) (A) (A) (A) (A) (A) (A) (A)
                 (A) (A) (A) (A) (A) (A)
       Virtual   (A) (A) (A) (A) (A) (A) (A) (A) (A) (A) (A) (A)
                 (A) (A) (A) (A) (A) (A) (A) (A) (A) (A) (A) (A)
                 (A) (A) (A) (A) (A) (A) (A) (A) (A) (A) (A) (A)
                 (A) (A) (A) (A) (A) (A) (A) (A) (A) (A) (A) (A)
                 (A) (A) (A) (A) (A) (A) (A) (A) (A) (A) (A) (A)
                 (A) (A) (A) (A) (A) (A) (A) (A) (A) (A) (A) (A)
                 (A) (A) (A) (A) (A) (A) (A) (A) (A) (A) (A) (A)
                 (A) (A) (A) (A)
 The electronic state is 2-A.
 Alpha  occ. eigenvalues --  -19.72827 -19.68098 -19.67588 -10.74713 -10.64689
 Alpha  occ. eigenvalues --  -10.59809 -10.59468 -10.56164  -1.30027  -1.20752
 Alpha  occ. eigenvalues --   -1.13606  -0.92722  -0.89099  -0.80395  -0.72600
 Alpha  occ. eigenvalues --   -0.66965  -0.62733  -0.60942  -0.59329  -0.58038
 Alpha  occ. eigenvalues --   -0.52913  -0.51593  -0.49862  -0.48283  -0.46042
 Alpha  occ. eigenvalues --   -0.41353  -0.40880  -0.40652  -0.38657  -0.37924
 Alpha  occ. eigenvalues --   -0.34414
 Alpha virt. eigenvalues --   -0.03101   0.01673   0.02197   0.03147   0.03327
 Alpha virt. eigenvalues --    0.04134   0.04788   0.06130   0.07586   0.07861
 Alpha virt. eigenvalues --    0.08107   0.08578   0.09724   0.10847   0.12167
 Alpha virt. eigenvalues --    0.12533   0.14194   0.15423   0.16166   0.16708
 Alpha virt. eigenvalues --    0.17767   0.18765   0.19416   0.19689   0.21389
 Alpha virt. eigenvalues --    0.21697   0.22356   0.24386   0.25273   0.26888
 Alpha virt. eigenvalues --    0.27216   0.27312   0.29331   0.30338   0.30827
 Alpha virt. eigenvalues --    0.31953   0.32965   0.33296   0.34845   0.36360
 Alpha virt. eigenvalues --    0.37443   0.38098   0.39418   0.41272   0.42630
 Alpha virt. eigenvalues --    0.45719   0.57194   0.60265   0.67997   0.69196
 Alpha virt. eigenvalues --    0.71557   0.72751   0.74063   0.74989   0.75854
 Alpha virt. eigenvalues --    0.76942   0.79483   0.84109   0.86063   0.90603
 Alpha virt. eigenvalues --    0.94431   0.96288   1.02083   1.07380   1.09665
 Alpha virt. eigenvalues --    1.11885   1.12827   1.15482   1.19181   1.20994
 Alpha virt. eigenvalues --    1.21245   1.24117   1.28075   1.28975   1.31012
 Alpha virt. eigenvalues --    1.32926   1.36466   1.37793   1.42705   1.45924
 Alpha virt. eigenvalues --    1.49363   1.60956   1.69553   1.77673   1.86544
 Alpha virt. eigenvalues --    1.98595   2.02938
  Beta  occ. eigenvalues --  -19.72815 -19.68093 -19.66407 -10.74688 -10.64153
  Beta  occ. eigenvalues --  -10.59809 -10.59468 -10.56175  -1.29911  -1.20614
  Beta  occ. eigenvalues --   -1.09471  -0.92151  -0.88543  -0.80102  -0.71647
  Beta  occ. eigenvalues --   -0.66344  -0.62473  -0.60039  -0.58417  -0.55923
  Beta  occ. eigenvalues --   -0.51415  -0.50973  -0.48293  -0.46834  -0.43224
  Beta  occ. eigenvalues --   -0.40879  -0.40117  -0.38644  -0.38129  -0.37839
  Beta virt. eigenvalues --   -0.11247  -0.03038   0.01708   0.02270   0.03247
  Beta virt. eigenvalues --    0.03393   0.04228   0.04874   0.06169   0.07631
  Beta virt. eigenvalues --    0.07928   0.08194   0.08635   0.09967   0.10884
  Beta virt. eigenvalues --    0.12269   0.12641   0.14267   0.15499   0.16199
  Beta virt. eigenvalues --    0.16813   0.17801   0.18749   0.19361   0.19662
  Beta virt. eigenvalues --    0.21878   0.21992   0.22705   0.24502   0.25586
  Beta virt. eigenvalues --    0.27251   0.27318   0.27481   0.29564   0.30589
  Beta virt. eigenvalues --    0.31574   0.32245   0.33092   0.33580   0.34900
  Beta virt. eigenvalues --    0.36621   0.37531   0.38406   0.40193   0.41799
  Beta virt. eigenvalues --    0.43569   0.45942   0.57237   0.60471   0.68314
  Beta virt. eigenvalues --    0.69444   0.71666   0.72860   0.74650   0.75461
  Beta virt. eigenvalues --    0.75930   0.77679   0.80296   0.84211   0.86235
  Beta virt. eigenvalues --    0.90960   0.94657   0.96904   1.02262   1.07517
  Beta virt. eigenvalues --    1.09779   1.12277   1.13168   1.15933   1.19382
  Beta virt. eigenvalues --    1.20489   1.21711   1.24833   1.29224   1.30061
  Beta virt. eigenvalues --    1.31174   1.35131   1.37222   1.38007   1.42789
  Beta virt. eigenvalues --    1.45944   1.49339   1.60988   1.70523   1.78344
  Beta virt. eigenvalues --    1.88245   1.98654   2.02990
          Condensed to atoms (all electrons):
               1          2          3          4          5          6
     1  O    8.345068   0.181077   0.007783   0.000001   0.021415  -0.024989
     2  H    0.181077   0.414046   0.005097  -0.000000   0.005037  -0.012026
     3  C    0.007783   0.005097  23.839038   0.744887  -4.635401 -12.898123
     4  H    0.000001  -0.000000   0.744887   0.331697  -0.318015  -0.107532
     5  C    0.021415   0.005037  -4.635401  -0.318015  16.853075  -4.126402
     6  C   -0.024989  -0.012026 -12.898123  -0.107532  -4.126402  21.466300
     7  O   -0.000032   0.000255  -0.038084  -0.000335   0.209675  -0.030350
     8  O    0.041957   0.008629  -0.906525  -0.000904  -1.419292   1.555381
     9  C   -0.082530   0.017657  -0.274083  -0.000382  -0.415080   0.506248
    10  C   -0.010336  -0.003639  -0.098871  -0.000197  -0.347991   0.162757
    11  H    0.038146  -0.025530   0.011262   0.000000   0.026942  -0.019141
    12  H    0.003735  -0.000099  -0.001722  -0.000000  -0.002688   0.003097
    13  H    0.000880  -0.000006   0.000052   0.000000   0.000613   0.003989
    14  H    0.002306  -0.000033   0.001934   0.000000   0.004777  -0.001693
    15  H   -0.000895   0.000009   0.004564   0.000000   0.009812  -0.013039
               7          8          9         10         11         12
     1  O   -0.000032   0.041957  -0.082530  -0.010336   0.038146   0.003735
     2  H    0.000255   0.008629   0.017657  -0.003639  -0.025530  -0.000099
     3  C   -0.038084  -0.906525  -0.274083  -0.098871   0.011262  -0.001722
     4  H   -0.000335  -0.000904  -0.000382  -0.000197   0.000000  -0.000000
     5  C    0.209675  -1.419292  -0.415080  -0.347991   0.026942  -0.002688
     6  C   -0.030350   1.555381   0.506248   0.162757  -0.019141   0.003097
     7  O    8.470448  -0.243172   0.010656  -0.054062   0.000241   0.000378
     8  O   -0.243172   9.272707  -0.087918   0.124634  -0.040289  -0.041610
     9  C    0.010656  -0.087918   6.695881  -0.533157   0.204079   0.429156
    10  C   -0.054062   0.124634  -0.533157   6.157862   0.000502  -0.084108
    11  H    0.000241  -0.040289   0.204079   0.000502   0.547691  -0.024493
    12  H    0.000378  -0.041610   0.429156  -0.084108  -0.024493   0.467104
    13  H   -0.000141   0.007235  -0.080052   0.410678  -0.001892  -0.000770
    14  H   -0.000398  -0.000257  -0.054351   0.392891  -0.005626   0.003218
    15  H    0.002227  -0.008101  -0.055624   0.397692   0.003467  -0.003236
              13         14         15
     1  O    0.000880   0.002306  -0.000895
     2  H   -0.000006  -0.000033   0.000009
     3  C    0.000052   0.001934   0.004564
     4  H    0.000000   0.000000   0.000000
     5  C    0.000613   0.004777   0.009812
     6  C    0.003989  -0.001693  -0.013039
     7  O   -0.000141  -0.000398   0.002227
     8  O    0.007235  -0.000257  -0.008101
     9  C   -0.080052  -0.054351  -0.055624
    10  C    0.410678   0.392891   0.397692
    11  H   -0.001892  -0.005626   0.003467
    12  H   -0.000770   0.003218  -0.003236
    13  H    0.476066  -0.022006  -0.022833
    14  H   -0.022006   0.470233  -0.026530
    15  H   -0.022833  -0.026530   0.471904
          Atomic-Atomic Spin Densities.
               1          2          3          4          5          6
     1  O    0.739875  -0.000390   0.003345   0.000000   0.008043  -0.012923
     2  H   -0.000390  -0.022866  -0.001666   0.000000  -0.002923   0.004333
     3  C    0.003345  -0.001666  -0.282443  -0.001540   0.109481   0.147330
     4  H    0.000000   0.000000  -0.001540  -0.000265   0.001184   0.000629
     5  C    0.008043  -0.002923   0.109481   0.001184  -0.090441  -0.048419
     6  C   -0.012923   0.004333   0.147330   0.000629  -0.048419  -0.034271
     7  O    0.000731  -0.000060   0.010736   0.000014   0.003895  -0.014791
     8  O    0.046416  -0.005001   0.021587  -0.000032   0.025795  -0.051950
     9  C   -0.188932   0.010382   0.008395  -0.000020   0.003553   0.011177
    10  C    0.049161  -0.003222  -0.002496   0.000010  -0.000481  -0.011960
    11  H   -0.038919   0.002590  -0.005300   0.000000  -0.013641   0.016546
    12  H    0.003474  -0.000100   0.002830   0.000000   0.010191  -0.015692
    13  H    0.000371  -0.000002  -0.000033  -0.000000  -0.000110   0.000307
    14  H    0.001268  -0.000043   0.000813   0.000000   0.002248  -0.004042
    15  H   -0.000577   0.000008  -0.002001  -0.000000  -0.006701   0.010961
               7          8          9         10         11         12
     1  O    0.000731   0.046416  -0.188932   0.049161  -0.038919   0.003474
     2  H   -0.000060  -0.005001   0.010382  -0.003222   0.002590  -0.000100
     3  C    0.010736   0.021587   0.008395  -0.002496  -0.005300   0.002830
     4  H    0.000014  -0.000032  -0.000020   0.000010   0.000000   0.000000
     5  C    0.003895   0.025795   0.003553  -0.000481  -0.013641   0.010191
     6  C   -0.014791  -0.051950   0.011177  -0.011960   0.016546  -0.015692
     7  O   -0.000121   0.003191  -0.001842   0.002697  -0.001046   0.002282
     8  O    0.003191   0.077013  -0.170559   0.048548  -0.024597   0.009850
     9  C   -0.001842  -0.170559   0.864492  -0.132749   0.145244  -0.036386
    10  C    0.002697   0.048548  -0.132749   0.033100  -0.041719   0.018522
    11  H   -0.001046  -0.024597   0.145244  -0.041719  -0.122181   0.001264
    12  H    0.002282   0.009850  -0.036386   0.018522   0.001264  -0.005904
    13  H    0.000052   0.000454  -0.005883   0.005800  -0.000148   0.000152
    14  H    0.000276   0.002479  -0.013531   0.012045  -0.000246   0.000122
    15  H   -0.002201  -0.002488   0.011939  -0.009446  -0.000004  -0.001108
              13         14         15
     1  O    0.000371   0.001268  -0.000577
     2  H   -0.000002  -0.000043   0.000008
     3  C   -0.000033   0.000813  -0.002001
     4  H   -0.000000   0.000000  -0.000000
     5  C   -0.000110   0.002248  -0.006701
     6  C    0.000307  -0.004042   0.010961
     7  O    0.000052   0.000276  -0.002201
     8  O    0.000454   0.002479  -0.002488
     9  C   -0.005883  -0.013531   0.011939
    10  C    0.005800   0.012045  -0.009446
    11  H   -0.000148  -0.000246  -0.000004
    12  H    0.000152   0.000122  -0.001108
    13  H    0.000953   0.000321  -0.001020
    14  H    0.000321   0.007022  -0.003088
    15  H   -0.001020  -0.003088   0.034012
 Mulliken charges and spin densities:
               1          2
     1  O   -0.523589   0.610941
     2  H    0.409526  -0.018960
     3  C    0.238192   0.009039
     4  H    0.350780  -0.000020
     5  C    0.133524   0.001674
     6  C   -0.464477  -0.002766
     7  O   -0.327307   0.003813
     8  O   -0.262475  -0.019295
     9  C   -0.280500   0.505278
    10  C   -0.514655  -0.032192
    11  H    0.284639  -0.082156
    12  H    0.252037  -0.010502
    13  H    0.228186   0.001214
    14  H    0.235535   0.005645
    15  H    0.240584   0.028285
 Sum of Mulliken charges =  -0.00000   1.00000
 Mulliken charges and spin densities with hydrogens summed into heavy atoms:
               1          2
     1  O   -0.114063   0.591981
     3  C    0.588971   0.009018
     5  C    0.133524   0.001674
     6  C   -0.464477  -0.002766
     7  O   -0.327307   0.003813
     8  O   -0.262475  -0.019295
     9  C    0.256177   0.412621
    10  C    0.189650   0.002953
 APT charges:
               1
     1  O   -0.244685
     2  H    0.285639
     3  C   -0.209120
     4  H    0.263246
     5  C   -0.308608
     6  C    1.526173
     7  O   -0.757302
     8  O   -1.049401
     9  C    0.906619
    10  C   -0.196068
    11  H   -0.317305
    12  H   -0.036110
    13  H    0.040890
    14  H    0.046296
    15  H    0.049736
 Sum of APT charges =   0.00000
 APT charges with hydrogens summed into heavy atoms:
               1
     1  O    0.040954
     3  C    0.054126
     5  C   -0.308608
     6  C    1.526173
     7  O   -0.757302
     8  O   -1.049401
     9  C    0.553203
    10  C   -0.059146
 Electronic spatial extent (au):  <R**2>=           1265.8737
 Charge=             -0.0000 electrons
 Dipole moment (field-independent basis, Debye):
    X=             -2.0767    Y=              0.4631    Z=              1.2909  Tot=              2.4887
 Quadrupole moment (field-independent basis, Debye-Ang):
   XX=            -48.2134   YY=            -49.2961   ZZ=            -48.4969
   XY=            -13.6887   XZ=             -1.5808   YZ=             -0.5045
 Traceless Quadrupole moment (field-independent basis, Debye-Ang):
   XX=              0.4554   YY=             -0.6273   ZZ=              0.1719
   XY=            -13.6887   XZ=             -1.5808   YZ=             -0.5045
 Octapole moment (field-independent basis, Debye-Ang**2):
  XXX=            -64.2537  YYY=             15.4410  ZZZ=             -2.6986  XYY=             -1.5838
  XXY=              0.6563  XXZ=             13.8504  XZZ=              4.2737  YZZ=             -0.7043
  YYZ=              7.4934  XYZ=              1.7939
 Hexadecapole moment (field-independent basis, Debye-Ang**3):
 XXXX=          -1063.6481 YYYY=           -377.1564 ZZZZ=           -124.0552 XXXY=           -167.5474
 XXXZ=            -32.6055 YYYX=             -2.7722 YYYZ=              1.4730 ZZZX=              3.8327
 ZZZY=              3.4937 XXYY=           -253.7528 XXZZ=           -218.2338 YYZZ=            -92.5810
 XXYZ=             24.4648 YYXZ=             -3.5911 ZZXY=             -1.9875
 N-N= 3.485660852935D+02 E-N=-1.679184438499D+03  KE= 4.178264921747D+02
  Exact polarizability:  91.356   0.457  81.208  -4.751   4.288  47.512
 Approx polarizability:  91.249  -5.239  91.698  -7.202  11.707  51.779
                          Isotropic Fermi Contact Couplings
        Atom                 a.u.       MegaHertz       Gauss      10(-4) cm-1
     1  O(17)              0.07911     -47.95894     -17.11294     -15.99738
     2  H(1)              -0.01016     -45.41998     -16.20698     -15.15047
     3  C(13)              0.00024       0.26568       0.09480       0.08862
     4  H(1)              -0.00001      -0.02236      -0.00798      -0.00746
     5  C(13)             -0.00018      -0.20533      -0.07327      -0.06849
     6  C(13)              0.01482      16.66532       5.94660       5.55895
     7  O(17)              0.00141      -0.85230      -0.30412      -0.28430
     8  O(17)              0.02878     -17.44485      -6.22476      -5.81898
     9  C(13)              0.17780     199.88222      71.32295      66.67353
    10  C(13)             -0.00653      -7.33543      -2.61746      -2.44683
    11  H(1)              -0.02881    -128.75753     -45.94389     -42.94889
    12  H(1)              -0.00129      -5.77414      -2.06036      -1.92605
    13  H(1)               0.00095       4.23992       1.51291       1.41429
    14  H(1)               0.00315      14.07865       5.02361       4.69613
    15  H(1)               0.01418      63.38881      22.61870      21.14423
 --------------------------------------------------------
       Center         ----  Spin Dipole Couplings  ----
                      3XX-RR        3YY-RR        3ZZ-RR
 --------------------------------------------------------
     1   Atom       -0.266564      1.386643     -1.120080
     2   Atom        0.067457      0.005092     -0.072550
     3   Atom        0.001430     -0.001091     -0.000338
     4   Atom        0.001048     -0.000484     -0.000565
     5   Atom        0.003460     -0.001137     -0.002322
     6   Atom        0.020298     -0.009014     -0.011283
     7   Atom       -0.000675     -0.007511      0.008186
     8   Atom       -0.015808      0.027988     -0.012180
     9   Atom        0.007136      0.266654     -0.273791
    10   Atom       -0.014311      0.018441     -0.004130
    11   Atom       -0.019386      0.132660     -0.113274
    12   Atom       -0.025652     -0.007479      0.033132
    13   Atom       -0.000270      0.005271     -0.005000
    14   Atom       -0.006370     -0.003432      0.009802
    15   Atom       -0.003603      0.004863     -0.001260
 --------------------------------------------------------
                        XY            XZ            YZ
 --------------------------------------------------------
     1   Atom        1.496890      0.098454      0.156918
     2   Atom       -0.060522     -0.038170      0.026099
     3   Atom       -0.000336     -0.000088      0.001004
     4   Atom       -0.000324     -0.000242      0.000086
     5   Atom       -0.000878     -0.000720     -0.000098
     6   Atom        0.009544      0.007231      0.003623
     7   Atom        0.004899     -0.001272     -0.000094
     8   Atom        0.060504     -0.002140     -0.030315
     9   Atom        0.399159     -0.011861     -0.017116
    10   Atom        0.006351     -0.001834     -0.019813
    11   Atom        0.148065     -0.000206      0.006954
    12   Atom        0.013382     -0.000636      0.024389
    13   Atom       -0.006503      0.003916     -0.005171
    14   Atom        0.001127      0.001794     -0.006149
    15   Atom        0.002854     -0.000243     -0.006322
 --------------------------------------------------------


 ---------------------------------------------------------------------------------
              Anisotropic Spin Dipole Couplings in Principal Axis System
 ---------------------------------------------------------------------------------

       Atom             a.u.   MegaHertz   Gauss  10(-4) cm-1        Axes

              Baa    -1.1511    83.295    29.722    27.784  0.8438 -0.4833 -0.2331
     1 O(17)  Bbb    -1.1290    81.690    29.149    27.249  0.1742 -0.1642  0.9709
              Bcc     2.2801  -164.985   -58.871   -55.033  0.5075  0.8599  0.0544
 
              Baa    -0.0840   -44.809   -15.989   -14.947  0.1797 -0.1622  0.9703
     2 H(1)   Bbb    -0.0317   -16.916    -6.036    -5.643  0.5324  0.8454  0.0427
              Bcc     0.1157    61.725    22.025    20.589  0.8272 -0.5089 -0.2383
 
              Baa    -0.0018    -0.242    -0.086    -0.081  0.0706  0.8247 -0.5611
     3 C(13)  Bbb     0.0003     0.040     0.014     0.013  0.2222  0.5354  0.8148
              Bcc     0.0015     0.202     0.072     0.067  0.9724 -0.1822 -0.1455
 
              Baa    -0.0006    -0.331    -0.118    -0.110  0.0378 -0.4644  0.8848
     4 H(1)   Bbb    -0.0005    -0.284    -0.101    -0.095  0.2447  0.8628  0.4424
              Bcc     0.0012     0.615     0.219     0.205  0.9689 -0.1998 -0.1463
 
              Baa    -0.0024    -0.328    -0.117    -0.109  0.1442  0.1696  0.9749
     5 C(13)  Bbb    -0.0013    -0.168    -0.060    -0.056  0.1514  0.9698 -0.1911
              Bcc     0.0037     0.497     0.177     0.166  0.9779 -0.1752 -0.1141
 
              Baa    -0.0139    -1.872    -0.668    -0.624 -0.0115 -0.5774  0.8164
     6 C(13)  Bbb    -0.0109    -1.468    -0.524    -0.490 -0.3577  0.7648  0.5359
              Bcc     0.0249     3.340     1.192     1.114  0.9338  0.2859  0.2153
 
              Baa    -0.0101     0.729     0.260     0.243 -0.4647  0.8850 -0.0278
     7 O(17)  Bbb     0.0017    -0.121    -0.043    -0.040  0.8692  0.4620  0.1763
              Bcc     0.0084    -0.609    -0.217    -0.203 -0.1689 -0.0578  0.9839
 
              Baa    -0.0636     4.598     1.641     1.534  0.7383 -0.5939 -0.3197
     8 O(17)  Bbb    -0.0146     1.053     0.376     0.351  0.4245  0.0408  0.9045
              Bcc     0.0781    -5.651    -2.017    -1.885  0.5241  0.8035 -0.2822
 
              Baa    -0.2829   -37.956   -13.544   -12.661  0.8071 -0.5880 -0.0541
     9 C(13)  Bbb    -0.2743   -36.807   -13.134   -12.277  0.0585 -0.0116  0.9982
              Bcc     0.5571    74.763    26.677    24.938  0.5875  0.8088 -0.0250
 
              Baa    -0.0170    -2.286    -0.816    -0.763  0.6525 -0.4552 -0.6059
    10 C(13)  Bbb    -0.0138    -1.856    -0.662    -0.619  0.7446  0.2366  0.6241
              Bcc     0.0309     4.142     1.478     1.382  0.1407  0.8584 -0.4933
 
              Baa    -0.1158   -61.779   -22.044   -20.607  0.4499 -0.2918  0.8441
    11 H(1)   Bbb    -0.1074   -57.299   -20.446   -19.113  0.7254 -0.4319 -0.5360
              Bcc     0.2232   119.078    42.490    39.720  0.5209  0.8534  0.0173
 
              Baa    -0.0353   -18.848    -6.725    -6.287  0.7972 -0.5663  0.2092
    12 H(1)   Bbb    -0.0096    -5.132    -1.831    -1.712  0.5991  0.6993 -0.3900
              Bcc     0.0449    23.980     8.557     7.999  0.0746  0.4362  0.8967
 
              Baa    -0.0075    -4.008    -1.430    -1.337 -0.3030  0.2208  0.9270
    13 H(1)   Bbb    -0.0045    -2.411    -0.860    -0.804  0.7968  0.5923  0.1193
              Bcc     0.0120     6.419     2.290     2.141 -0.5228  0.7748 -0.3554
 
              Baa    -0.0079    -4.204    -1.500    -1.402  0.7651 -0.5801 -0.2794
    14 H(1)   Bbb    -0.0044    -2.360    -0.842    -0.787  0.6403  0.7312  0.2353
              Bcc     0.0123     6.564     2.342     2.190  0.0678 -0.3589  0.9309
 
              Baa    -0.0061    -3.238    -1.155    -1.080 -0.5398  0.5226  0.6599
    15 H(1)   Bbb    -0.0033    -1.742    -0.621    -0.581  0.8189  0.1445  0.5554
              Bcc     0.0093     4.979     1.777     1.661  0.1949  0.8402 -0.5060
 

 ---------------------------------------------------------------------------------

 Calling FoFJK, ICntrl=    100127 FMM=F ISym2X=0 I1Cent= 0 IOpClX= 1 NMat=1 NMatS=1 NMatT=0.
 Full mass-weighted force constant matrix:
 Low frequencies ----1528.9859 -464.9545 -141.0311  -71.7173  -65.4423  -55.4161
 Low frequencies ---   -0.0005    0.0003    0.0010
 ******    4 imaginary frequencies (negative Signs) ****** 
 Diagonal vibrational polarizability:
       40.4424235     167.1368853     194.9919431
 Harmonic frequencies (cm**-1), IR intensities (KM/Mole), Raman scattering
 activities (A**4/AMU), depolarization ratios for plane and unpolarized
 incident light, reduced masses (AMU), force constants (mDyne/A),
 and normal coordinates:
                      1                      2                      3
                      A                      A                      A
 Frequencies --  -1528.9858              -463.4075              -111.6957
 Red. masses --      1.0975                 1.0532                 8.5393
 Frc consts  --      1.5116                 0.1333                 0.0628
 IR Inten    --   1591.7242               135.2119                 3.8042
  Atom  AN      X      Y      Z        X      Y      Z        X      Y      Z
     1   8    -0.03  -0.05  -0.00    -0.01   0.00  -0.05    -0.06   0.04   0.27
     2   1     0.08   0.09  -0.00     0.17  -0.18   0.96    -0.20  -0.16   0.22
     3   6     0.00  -0.00  -0.00    -0.00   0.00  -0.01     0.05   0.02   0.01
     4   1     0.00   0.00   0.00    -0.00   0.00  -0.02     0.05  -0.01   0.07
     5   6     0.00   0.00  -0.00    -0.00   0.00  -0.01     0.05   0.05  -0.06
     6   6    -0.01   0.00  -0.00     0.00   0.00   0.00     0.04   0.01  -0.01
     7   8     0.00   0.00   0.00     0.00  -0.00   0.01     0.02  -0.17   0.42
     8   8     0.01  -0.00  -0.00     0.00  -0.00   0.00     0.05   0.13  -0.36
     9   6    -0.04  -0.03   0.01    -0.00  -0.00  -0.01     0.04   0.02  -0.18
    10   6     0.01   0.01  -0.00     0.00   0.01   0.01    -0.15  -0.06  -0.16
    11   1     0.48   0.85   0.07    -0.02   0.02  -0.12     0.12   0.01   0.00
    12   1     0.09   0.12  -0.06    -0.02  -0.02   0.00     0.17   0.08  -0.22
    13   1     0.00  -0.00   0.00     0.00   0.01   0.01    -0.11  -0.05  -0.04
    14   1    -0.00  -0.00   0.01     0.00   0.01   0.00    -0.28  -0.12  -0.12
    15   1    -0.01   0.01  -0.02     0.00   0.01   0.01    -0.17  -0.06  -0.32
                      4                      5                      6
                      A                      A                      A
 Frequencies --    -65.1692                33.3865                98.6650
 Red. masses --      4.6081                 3.8298                 3.6471
 Frc consts  --      0.0115                 0.0025                 0.0209
 IR Inten    --     11.4406                 7.6919                14.6007
  Atom  AN      X      Y      Z        X      Y      Z        X      Y      Z
     1   8     0.38  -0.09  -0.01     0.00  -0.05  -0.02     0.05   0.04   0.07
     2   1     0.65   0.34   0.03    -0.02  -0.10   0.01     0.14   0.20   0.06
     3   6    -0.15  -0.15   0.01     0.05  -0.09   0.25     0.19   0.23   0.07
     4   1    -0.19  -0.22   0.01     0.07  -0.16   0.48     0.38   0.51   0.16
     5   6    -0.10  -0.07   0.00     0.03  -0.02  -0.01    -0.05  -0.10  -0.04
     6   6    -0.05   0.00   0.02     0.02   0.03  -0.14    -0.08  -0.15  -0.05
     7   8     0.03  -0.02   0.06     0.01   0.02  -0.13    -0.02  -0.15  -0.05
     8   8    -0.09   0.08  -0.01     0.02   0.05  -0.19    -0.12  -0.09  -0.02
     9   6    -0.07   0.13  -0.01     0.03  -0.04   0.02    -0.05   0.06  -0.01
    10   6    -0.07   0.07  -0.05    -0.14   0.10   0.21     0.06   0.12   0.00
    11   1    -0.07   0.08   0.04     0.07  -0.06  -0.02    -0.14   0.10   0.00
    12   1    -0.04   0.16  -0.03     0.13  -0.17   0.08     0.00   0.04  -0.01
    13   1    -0.03   0.16  -0.03    -0.14   0.00   0.39     0.18   0.36   0.07
    14   1    -0.15   0.00  -0.01    -0.22   0.24   0.14    -0.13   0.12   0.02
    15   1    -0.02   0.01  -0.16    -0.20   0.16   0.27     0.24  -0.04  -0.07
                      7                      8                      9
                      A                      A                      A
 Frequencies --    133.7512               170.9551               254.7824
 Red. masses --      2.0717                 1.4056                 4.1814
 Frc consts  --      0.0218                 0.0242                 0.1599
 IR Inten    --      4.1320                 2.1339                 3.7071
  Atom  AN      X      Y      Z        X      Y      Z        X      Y      Z
     1   8     0.02  -0.09   0.12    -0.00  -0.03   0.02    -0.05  -0.12   0.04
     2   1    -0.02  -0.09   0.02    -0.03  -0.05  -0.01    -0.11  -0.20  -0.03
     3   6    -0.05  -0.03  -0.01    -0.05  -0.04  -0.01     0.02   0.05  -0.13
     4   1    -0.08  -0.07  -0.03    -0.10  -0.12  -0.02     0.03   0.25  -0.55
     5   6    -0.01   0.03   0.00     0.02   0.06   0.01     0.02  -0.16   0.31
     6   6    -0.02   0.01  -0.01    -0.01   0.03  -0.00     0.04  -0.05   0.17
     7   8    -0.08   0.01   0.00    -0.09   0.03   0.00     0.12   0.06  -0.10
     8   8     0.01  -0.03  -0.04     0.03  -0.03  -0.02     0.02   0.08  -0.05
     9   6    -0.01  -0.04  -0.08     0.02  -0.04  -0.02    -0.04  -0.01  -0.13
    10   6     0.15   0.14  -0.00     0.08   0.03   0.02    -0.11   0.11  -0.01
    11   1    -0.03  -0.05  -0.18     0.01  -0.03  -0.04     0.01  -0.09  -0.19
    12   1    -0.10  -0.16  -0.02     0.02  -0.08   0.00    -0.13  -0.09  -0.08
    13   1    -0.01  -0.10  -0.22     0.34   0.48   0.27    -0.02   0.20   0.20
    14   1     0.56   0.37  -0.16    -0.43  -0.02   0.08    -0.34   0.21  -0.05
    15   1     0.03   0.30   0.44     0.41  -0.28  -0.27    -0.03   0.03  -0.06
                     10                     11                     12
                      A                      A                      A
 Frequencies --    266.0155               422.8888               542.3717
 Red. masses --      4.6476                 3.5370                 5.4466
 Frc consts  --      0.1938                 0.3727                 0.9440
 IR Inten    --      7.4778                 8.2815                12.2812
  Atom  AN      X      Y      Z        X      Y      Z        X      Y      Z
     1   8    -0.10  -0.21   0.01     0.01   0.01   0.02    -0.08  -0.17  -0.02
     2   1    -0.16  -0.27  -0.08     0.00   0.04  -0.06    -0.03  -0.09   0.02
     3   6     0.01   0.02   0.09     0.08  -0.07  -0.00     0.21  -0.13  -0.06
     4   1     0.08   0.01   0.37     0.02  -0.23   0.12     0.07  -0.32  -0.17
     5   6    -0.08   0.01  -0.21     0.14   0.08  -0.10     0.30   0.03   0.03
     6   6     0.01   0.09  -0.07     0.06  -0.02   0.01     0.05  -0.05  -0.04
     7   8     0.28   0.02   0.06    -0.04  -0.03   0.02    -0.16  -0.05  -0.02
     8   8    -0.05   0.12   0.12     0.04  -0.13   0.21    -0.10   0.15  -0.01
     9   6    -0.14  -0.03  -0.01    -0.01   0.02  -0.17    -0.10   0.23   0.19
    10   6     0.06   0.04  -0.05    -0.18   0.14  -0.06    -0.00   0.05  -0.03
    11   1    -0.09  -0.18  -0.18    -0.02   0.06  -0.21    -0.14  -0.12   0.14
    12   1    -0.37  -0.12   0.04    -0.20   0.02  -0.16    -0.04   0.25   0.18
    13   1     0.17   0.31  -0.08    -0.16  -0.01   0.31    -0.04   0.18  -0.40
    14   1    -0.05   0.03  -0.04    -0.42   0.34  -0.16     0.21  -0.24   0.12
    15   1     0.28  -0.16  -0.07    -0.32   0.25  -0.07     0.09  -0.04  -0.15
                     13                     14                     15
                      A                      A                      A
 Frequencies --    600.1027               649.3429               747.0740
 Red. masses --      2.8312                 3.9494                 1.5119
 Frc consts  --      0.6007                 0.9811                 0.4972
 IR Inten    --      9.5304                 0.9600               404.1021
  Atom  AN      X      Y      Z        X      Y      Z        X      Y      Z
     1   8    -0.00   0.08   0.02    -0.03  -0.11  -0.02    -0.10  -0.09   0.00
     2   1     0.30   0.56   0.04    -0.18  -0.35  -0.01     0.42   0.74   0.06
     3   6     0.01   0.00  -0.00    -0.15   0.11   0.05    -0.01   0.00  -0.01
     4   1    -0.20  -0.29  -0.14    -0.39  -0.22  -0.05     0.07   0.08   0.11
     5   6     0.15   0.18   0.09    -0.01   0.25   0.09    -0.03  -0.02  -0.03
     6   6    -0.03  -0.02  -0.02    -0.06  -0.10  -0.03     0.04   0.02   0.04
     7   8     0.13  -0.03  -0.02     0.14  -0.11  -0.05    -0.00   0.04   0.01
     8   8    -0.07  -0.04  -0.06    -0.04  -0.14  -0.02     0.03  -0.03  -0.02
     9   6    -0.18  -0.14  -0.01     0.14   0.17   0.04     0.08   0.04  -0.01
    10   6    -0.01  -0.05   0.03     0.01   0.07  -0.03     0.01   0.01  -0.00
    11   1    -0.30   0.10  -0.01     0.07  -0.11   0.17    -0.39  -0.03   0.08
    12   1    -0.20  -0.22   0.03     0.40   0.32  -0.04     0.15   0.03  -0.01
    13   1     0.02   0.09  -0.09    -0.04  -0.06   0.01    -0.01  -0.08   0.07
    14   1     0.06   0.03  -0.03    -0.01  -0.05   0.04    -0.03  -0.01   0.01
    15   1     0.14  -0.15   0.19    -0.13   0.17  -0.18    -0.07   0.07  -0.08
                     16                     17                     18
                      A                      A                      A
 Frequencies --    778.7539               816.5944               842.0260
 Red. masses --      3.1448                 1.4311                 1.1422
 Frc consts  --      1.1237                 0.5623                 0.4771
 IR Inten    --     82.2141                42.6369                11.6200
  Atom  AN      X      Y      Z        X      Y      Z        X      Y      Z
     1   8     0.02   0.02   0.00     0.01   0.00  -0.00    -0.00  -0.01  -0.02
     2   1    -0.07  -0.12   0.01    -0.04  -0.07   0.00    -0.02  -0.07   0.05
     3   6     0.01   0.03  -0.07    -0.09  -0.12  -0.05     0.03  -0.01   0.01
     4   1    -0.02  -0.40   0.77     0.54   0.74   0.30    -0.02  -0.03  -0.13
     5   6     0.00   0.06  -0.14     0.06   0.08   0.03     0.00  -0.03  -0.02
     6   6    -0.00  -0.15   0.35    -0.00  -0.01   0.01    -0.01   0.03   0.00
     7   8    -0.00   0.03  -0.09     0.02  -0.00  -0.00     0.01   0.04   0.02
     8   8    -0.01   0.05  -0.07    -0.01  -0.02  -0.01    -0.01  -0.03  -0.00
     9   6    -0.02  -0.02  -0.00    -0.02   0.00   0.01    -0.03  -0.02  -0.01
    10   6    -0.00  -0.01   0.00    -0.01   0.01  -0.01    -0.03  -0.02  -0.02
    11   1     0.07  -0.00   0.06     0.01  -0.02   0.06    -0.02  -0.15   0.51
    12   1     0.05   0.05  -0.04     0.04   0.05  -0.01     0.29   0.46  -0.23
    13   1     0.01   0.05  -0.04    -0.00   0.05  -0.05     0.06   0.17   0.02
    14   1     0.04   0.02  -0.02     0.02   0.02  -0.01     0.01   0.30  -0.20
    15   1     0.07  -0.06   0.07     0.03  -0.02   0.03     0.15  -0.11   0.35
                     19                     20                     21
                      A                      A                      A
 Frequencies --    874.5157               900.4317               968.9852
 Red. masses --      1.8805                 3.2784                 3.1558
 Frc consts  --      0.8474                 1.5661                 1.7458
 IR Inten    --     20.5588                22.8406                 9.3907
  Atom  AN      X      Y      Z        X      Y      Z        X      Y      Z
     1   8    -0.00  -0.00  -0.00    -0.02  -0.01  -0.00    -0.01   0.01  -0.00
     2   1    -0.00  -0.01   0.00     0.11   0.20   0.03     0.10   0.17   0.03
     3   6     0.00   0.06  -0.17    -0.07   0.02   0.00    -0.10   0.07   0.03
     4   1     0.03  -0.36   0.88    -0.02   0.08   0.06    -0.13   0.06   0.04
     5   6     0.00  -0.07   0.14     0.01   0.08   0.04    -0.08   0.02   0.01
     6   6    -0.00   0.06  -0.13     0.02  -0.11  -0.06     0.16  -0.07  -0.04
     7   8     0.00  -0.00   0.03    -0.05  -0.15  -0.06    -0.05  -0.11  -0.04
     8   8    -0.00  -0.02   0.02    -0.02   0.25   0.09     0.21   0.05   0.03
     9   6    -0.00  -0.00   0.00     0.08  -0.02  -0.11    -0.04  -0.06   0.09
    10   6    -0.00   0.00  -0.00     0.08  -0.14   0.03    -0.16   0.09  -0.07
    11   1    -0.01  -0.02   0.06     0.04  -0.03   0.06     0.04  -0.11   0.17
    12   1     0.03   0.05  -0.02    -0.15   0.28  -0.23    -0.01  -0.15   0.13
    13   1     0.01   0.02   0.01     0.17  -0.21   0.51    -0.11   0.47  -0.56
    14   1    -0.01   0.04  -0.02    -0.15   0.31  -0.19     0.17   0.04  -0.07
    15   1     0.01  -0.00   0.03     0.02  -0.04   0.34     0.22  -0.20   0.11
                     22                     23                     24
                      A                      A                      A
 Frequencies --   1127.4781              1161.6042              1188.6962
 Red. masses --      2.6179                 2.2700                 1.7273
 Frc consts  --      1.9607                 1.8046                 1.4380
 IR Inten    --     33.2774                53.9133                20.0661
  Atom  AN      X      Y      Z        X      Y      Z        X      Y      Z
     1   8    -0.00  -0.01   0.01    -0.01  -0.01   0.00     0.00   0.00  -0.01
     2   1    -0.02  -0.01  -0.05     0.04   0.07  -0.00    -0.02  -0.04   0.04
     3   6    -0.02   0.02   0.01     0.03  -0.02  -0.01    -0.01   0.01   0.00
     4   1    -0.03   0.02   0.01     0.03  -0.02  -0.01    -0.02   0.01   0.00
     5   6    -0.02  -0.01  -0.01     0.02   0.01   0.00    -0.01   0.00   0.00
     6   6     0.08   0.00  -0.00    -0.08   0.01  -0.00     0.04  -0.01  -0.01
     7   8    -0.00   0.01   0.00     0.01   0.00   0.00    -0.01  -0.02  -0.01
     8   8     0.07  -0.09  -0.03    -0.10   0.05   0.07     0.04   0.02   0.02
     9   6    -0.09   0.23  -0.12     0.19  -0.05  -0.15    -0.13  -0.03  -0.13
    10   6    -0.04  -0.14   0.16    -0.11   0.02   0.09     0.07   0.07   0.11
    11   1    -0.02   0.13  -0.50     0.10   0.04  -0.05    -0.05  -0.15   0.54
    12   1    -0.26   0.29  -0.15     0.40  -0.18  -0.11     0.03   0.16  -0.23
    13   1     0.04   0.16  -0.06    -0.10   0.31  -0.47    -0.09  -0.21  -0.08
    14   1     0.23  -0.10   0.13     0.33  -0.22   0.19     0.04  -0.40   0.37
    15   1     0.24  -0.33   0.36     0.25  -0.28   0.02    -0.09   0.13  -0.38
                     25                     26                     27
                      A                      A                      A
 Frequencies --   1277.0145              1325.4946              1396.0451
 Red. masses --      1.1526                 9.7016                 1.2759
 Frc consts  --      1.1074                10.0427                 1.4651
 IR Inten    --     46.3012               702.3592                 3.0292
  Atom  AN      X      Y      Z        X      Y      Z        X      Y      Z
     1   8    -0.01  -0.00  -0.01     0.02   0.01  -0.00     0.01  -0.00  -0.00
     2   1     0.06   0.07   0.05    -0.11  -0.19  -0.01    -0.04  -0.07  -0.00
     3   6     0.00  -0.00  -0.00    -0.10   0.07   0.03    -0.01   0.01   0.00
     4   1     0.00  -0.00  -0.00    -0.11   0.10   0.04    -0.01   0.01   0.00
     5   6     0.00  -0.00  -0.00    -0.04   0.00   0.00    -0.00  -0.00  -0.00
     6   6    -0.01   0.01   0.01     0.69   0.03   0.00     0.06  -0.01  -0.00
     7   8     0.00   0.01   0.00    -0.05   0.05   0.02    -0.01   0.00   0.00
     8   8    -0.02  -0.03  -0.02    -0.43  -0.07  -0.04    -0.01   0.01   0.03
     9   6     0.05   0.08  -0.04     0.11  -0.13   0.02    -0.09   0.08  -0.05
    10   6    -0.01  -0.02  -0.00    -0.00   0.03  -0.01     0.02  -0.03  -0.04
    11   1     0.39  -0.10   0.58    -0.01   0.22  -0.01    -0.07   0.08   0.12
    12   1    -0.53  -0.38   0.20    -0.30   0.21  -0.10     0.66  -0.61   0.21
    13   1     0.04   0.06   0.02    -0.03  -0.02  -0.03     0.05  -0.07   0.17
    14   1     0.04   0.06  -0.05     0.02   0.01  -0.01    -0.06  -0.04  -0.02
    15   1     0.02  -0.03   0.06    -0.01   0.02  -0.11     0.02  -0.01   0.22
                     28                     29                     30
                      A                      A                      A
 Frequencies --   1448.5016              1517.1923              1519.0058
 Red. masses --      1.2382                 1.0473                 1.0431
 Frc consts  --      1.5306                 1.4203                 1.4181
 IR Inten    --     21.8782                 8.0101                 9.2642
  Atom  AN      X      Y      Z        X      Y      Z        X      Y      Z
     1   8     0.00  -0.00  -0.00     0.00   0.00  -0.00    -0.00   0.00   0.00
     2   1    -0.02  -0.03   0.00    -0.02  -0.03  -0.00     0.02   0.03  -0.00
     3   6    -0.00   0.00   0.00    -0.00   0.00  -0.00     0.00  -0.00  -0.00
     4   1    -0.00   0.00   0.00    -0.00  -0.00  -0.00     0.00  -0.00   0.00
     5   6    -0.00   0.00  -0.00    -0.00  -0.00   0.00     0.00   0.00  -0.00
     6   6     0.01   0.00   0.00    -0.00   0.00   0.00    -0.00   0.00   0.00
     7   8    -0.00  -0.00  -0.00    -0.00  -0.00  -0.00     0.00  -0.00  -0.00
     8   8     0.00   0.00   0.00     0.00   0.00   0.00    -0.00  -0.00   0.00
     9   6    -0.01   0.02  -0.01    -0.01  -0.02  -0.00     0.02  -0.01  -0.01
    10   6     0.04  -0.10   0.10    -0.04  -0.03  -0.02     0.04  -0.02  -0.03
    11   1    -0.05   0.04   0.03    -0.09   0.04   0.04     0.07  -0.05  -0.03
    12   1     0.11  -0.09   0.02    -0.01   0.02  -0.02    -0.04   0.05  -0.04
    13   1     0.07   0.32  -0.44     0.28   0.45   0.44     0.11   0.33  -0.23
    14   1    -0.13   0.49  -0.24     0.58  -0.15   0.02    -0.38  -0.37   0.22
    15   1    -0.37   0.21  -0.39    -0.29   0.20  -0.13    -0.31   0.34   0.51
                     31                     32                     33
                      A                      A                      A
 Frequencies --   1573.2156              1913.0240              2333.1600
 Red. masses --      1.0700                12.7471                 5.5482
 Frc consts  --      1.5603                27.4854                17.7948
 IR Inten    --     59.3102               311.0727                83.2000
  Atom  AN      X      Y      Z        X      Y      Z        X      Y      Z
     1   8    -0.02   0.01   0.01    -0.00  -0.00   0.00    -0.00  -0.00   0.00
     2   1     0.16   0.26   0.02    -0.00  -0.01  -0.00     0.00   0.00  -0.00
     3   6    -0.00   0.00   0.00     0.07  -0.04  -0.02    -0.30   0.19   0.09
     4   1    -0.00   0.00   0.00     0.11  -0.05  -0.02    -0.63   0.39   0.18
     5   6    -0.00  -0.00  -0.00    -0.05   0.01   0.00     0.43  -0.27  -0.12
     6   6     0.01  -0.00  -0.00     0.02   0.74   0.32    -0.07   0.06   0.03
     7   8     0.00   0.01   0.00    -0.01  -0.50  -0.21    -0.00  -0.01  -0.00
     8   8    -0.02  -0.01   0.00    -0.03  -0.04  -0.02    -0.01  -0.00  -0.00
     9   6    -0.06  -0.00   0.01    -0.01   0.02   0.01     0.00   0.00   0.00
    10   6     0.01   0.00   0.00     0.01  -0.00  -0.01    -0.00   0.00  -0.00
    11   1     0.71  -0.49  -0.28     0.08  -0.02  -0.04     0.00  -0.01  -0.00
    12   1     0.23   0.07  -0.04     0.10  -0.01   0.03     0.00   0.00  -0.00
    13   1     0.03   0.00   0.06    -0.01  -0.05   0.02     0.00  -0.00  -0.00
    14   1     0.07   0.02  -0.01    -0.03   0.01  -0.01    -0.00  -0.00   0.00
    15   1    -0.04   0.03  -0.11     0.03  -0.02   0.03     0.00  -0.00   0.00
                     34                     35                     36
                      A                      A                      A
 Frequencies --   3093.8809              3169.3196              3178.9030
 Red. masses --      1.0367                 1.0867                 1.0957
 Frc consts  --      5.8466                 6.4310                 6.5239
 IR Inten    --      2.5859                 6.6334                 4.5069
  Atom  AN      X      Y      Z        X      Y      Z        X      Y      Z
     1   8    -0.00  -0.00  -0.00     0.00   0.00   0.00     0.00   0.00   0.00
     2   1     0.00   0.00  -0.00     0.00   0.00  -0.00    -0.00   0.00  -0.00
     3   6    -0.00   0.00  -0.00    -0.00  -0.00   0.00     0.00  -0.00   0.00
     4   1     0.00  -0.00  -0.00    -0.00   0.00   0.00    -0.00   0.00   0.00
     5   6     0.00   0.00   0.00     0.00   0.00  -0.00     0.00   0.00  -0.00
     6   6    -0.00  -0.00  -0.00    -0.00  -0.00  -0.00    -0.00  -0.00  -0.00
     7   8    -0.00   0.00  -0.00    -0.00   0.00   0.00    -0.00   0.00   0.00
     8   8     0.00   0.00   0.00     0.00  -0.00  -0.00     0.00  -0.00   0.00
     9   6    -0.00   0.00   0.00    -0.00  -0.03  -0.07    -0.00  -0.01  -0.03
    10   6    -0.00  -0.04   0.03     0.02   0.03   0.02    -0.07  -0.04  -0.02
    11   1     0.01   0.01  -0.00    -0.00  -0.00  -0.01     0.00   0.01  -0.01
    12   1     0.00  -0.00  -0.01     0.05   0.37   0.81     0.02   0.15   0.34
    13   1    -0.41   0.16   0.11    -0.03   0.02   0.01     0.49  -0.22  -0.13
    14   1    -0.03  -0.25  -0.41    -0.02  -0.18  -0.31     0.01   0.21   0.38
    15   1     0.49   0.56  -0.06    -0.16  -0.18   0.03     0.38   0.46  -0.06
                     37                     38                     39
                      A                      A                      A
 Frequencies --   3203.5393              3531.6846              3834.0359
 Red. masses --      1.1006                 1.1796                 1.0656
 Frc consts  --      6.6550                 8.6684                 9.2293
 IR Inten    --      8.7383                55.5421                29.3706
  Atom  AN      X      Y      Z        X      Y      Z        X      Y      Z
     1   8    -0.00  -0.00  -0.00     0.00  -0.00  -0.00    -0.05   0.03   0.01
     2   1    -0.00  -0.00   0.00    -0.00  -0.00   0.00     0.82  -0.51  -0.24
     3   6     0.00  -0.00  -0.00    -0.10   0.06   0.03    -0.00   0.00   0.00
     4   1     0.00  -0.00   0.00     0.82  -0.51  -0.23     0.00  -0.00  -0.00
     5   6    -0.00  -0.00   0.00     0.03  -0.02  -0.01    -0.00   0.00  -0.00
     6   6     0.00   0.00   0.00    -0.00   0.00   0.00     0.00  -0.00   0.00
     7   8     0.00  -0.00  -0.00     0.00   0.00   0.00    -0.00  -0.00  -0.00
     8   8     0.00  -0.00  -0.00    -0.00  -0.00  -0.00    -0.00   0.00   0.00
     9   6    -0.00   0.01   0.02    -0.00   0.00   0.00     0.00   0.00  -0.00
    10   6    -0.05   0.05   0.06     0.00   0.00  -0.00    -0.00  -0.00   0.00
    11   1     0.00   0.00   0.00     0.00   0.00   0.00    -0.02  -0.01   0.00
    12   1    -0.01  -0.10  -0.22     0.00  -0.00   0.00    -0.00  -0.00   0.00
    13   1     0.63  -0.26  -0.15     0.00  -0.00   0.00     0.00  -0.00  -0.00
    14   1    -0.05  -0.33  -0.58    -0.00   0.00   0.00     0.00   0.00   0.00
    15   1    -0.02   0.01   0.02    -0.00   0.00  -0.00     0.00  -0.00   0.00

 -------------------
 - Thermochemistry -
 -------------------
 Temperature   298.150 Kelvin.  Pressure   1.00000 Atm.
 Atom     1 has atomic number  8 and mass  15.99491
 Atom     2 has atomic number  1 and mass   1.00783
 Atom     3 has atomic number  6 and mass  12.00000
 Atom     4 has atomic number  1 and mass   1.00783
 Atom     5 has atomic number  6 and mass  12.00000
 Atom     6 has atomic number  6 and mass  12.00000
 Atom     7 has atomic number  8 and mass  15.99491
 Atom     8 has atomic number  8 and mass  15.99491
 Atom     9 has atomic number  6 and mass  12.00000
 Atom    10 has atomic number  6 and mass  12.00000
 Atom    11 has atomic number  1 and mass   1.00783
 Atom    12 has atomic number  1 and mass   1.00783
 Atom    13 has atomic number  1 and mass   1.00783
 Atom    14 has atomic number  1 and mass   1.00783
 Atom    15 has atomic number  1 and mass   1.00783
 Molecular mass:   115.03952 amu.
 Principal axes and moments of inertia in atomic units:
                           1         2         3
     Eigenvalues --   594.944161597.382892000.92826
           X            0.99931  -0.03697   0.00276
           Y            0.03703   0.99908  -0.02171
           Z           -0.00195   0.02180   0.99976
 This molecule is an asymmetric top.
 Rotational symmetry number  1.
 Warning -- assumption of classical behavior for rotation
           may cause significant error
 Rotational temperatures (Kelvin)      0.14558     0.05422     0.04329
 Rotational constants (GHZ):           3.03346     1.12981     0.90195
    4 imaginary frequencies ignored.
 Zero-point vibrational energy     280479.1 (Joules/Mol)
                                   67.03611 (Kcal/Mol)
 Warning -- explicit consideration of   9 degrees of freedom as
           vibrations may cause significant error
 Vibrational temperatures:     48.04   141.96   192.44   245.97   366.58
          (Kelvin)            382.74   608.44   780.35   863.41   934.26
                             1074.87  1120.45  1174.90  1211.49  1258.23
                             1295.52  1394.15  1622.19  1671.29  1710.27
                             1837.34  1907.09  2008.60  2084.07  2182.90
                             2185.51  2263.51  2752.41  3356.90  4451.40
                             4559.94  4573.73  4609.18  5081.31  5516.32
 
 Zero-point correction=                           0.106829 (Hartree/Particle)
 Thermal correction to Energy=                    0.114854
 Thermal correction to Enthalpy=                  0.115799
 Thermal correction to Gibbs Free Energy=         0.072058
 Sum of electronic and zero-point Energies=           -419.843283
 Sum of electronic and thermal Energies=              -419.835257
 Sum of electronic and thermal Enthalpies=            -419.834313
 Sum of electronic and thermal Free Energies=         -419.878054
 
                     E (Thermal)             CV                S
                      KCal/Mol        Cal/Mol-Kelvin    Cal/Mol-Kelvin
 Total                   72.072             27.216             92.060
 Electronic               0.000              0.000              1.377
 Translational            0.889              2.981             40.136
 Rotational               0.889              2.981             29.032
 Vibrational             70.295             21.255             21.515
 Vibration     1          0.594              1.983              5.617
 Vibration     2          0.604              1.950              3.481
 Vibration     3          0.613              1.920              2.891
 Vibration     4          0.626              1.878              2.425
 Vibration     5          0.665              1.755              1.697
 Vibration     6          0.672              1.735              1.622
 Vibration     7          0.785              1.420              0.882
 Vibration     8          0.897              1.156              0.560
 Vibration     9          0.958              1.032              0.449
                       Q            Log10(Q)             Ln(Q)
 Total Bot       0.717422D-33        -33.144226        -76.317400
 Total V=0       0.985335D+16         15.993584         36.826587
 Vib (Bot)       0.149836D-46        -46.824384       -107.817129
 Vib (Bot)    1  0.620014D+01          0.792401          1.824572
 Vib (Bot)    2  0.208058D+01          0.318184          0.732645
 Vib (Bot)    3  0.152276D+01          0.182631          0.420524
 Vib (Bot)    4  0.117845D+01          0.071313          0.164204
 Vib (Bot)    5  0.764282D+00         -0.116746         -0.268818
 Vib (Bot)    6  0.727970D+00         -0.137886         -0.317495
 Vib (Bot)    7  0.414295D+00         -0.382690         -0.881177
 Vib (Bot)    8  0.291459D+00         -0.535423         -1.232856
 Vib (Bot)    9  0.248797D+00         -0.604155         -1.391118
 Vib (V=0)       0.205790D+03          2.313425          5.326859
 Vib (V=0)    1  0.672027D+01          0.827387          1.905128
 Vib (V=0)    2  0.263981D+01          0.421573          0.970708
 Vib (V=0)    3  0.210275D+01          0.322787          0.743244
 Vib (V=0)    4  0.178014D+01          0.250454          0.576691
 Vib (V=0)    5  0.141331D+01          0.150236          0.345932
 Vib (V=0)    6  0.138314D+01          0.140867          0.324358
 Vib (V=0)    7  0.114934D+01          0.060448          0.139187
 Vib (V=0)    8  0.107875D+01          0.032920          0.075800
 Vib (V=0)    9  0.105848D+01          0.024683          0.056834
 Electronic      0.200000D+01          0.301030          0.693147
 Translational   0.484981D+08          7.685724         17.697035
 Rotational      0.493633D+06          5.693404         13.109547
 ***** Axes restored to original set *****
 -------------------------------------------------------------------
 Center     Atomic                   Forces (Hartrees/Bohr)
 Number     Number              X              Y              Z
 -------------------------------------------------------------------
      1        8           0.007261450   -0.015435443   -0.004169065
      2        1          -0.012449381    0.013207674    0.004750913
      3        6          -0.017373827    0.011261299    0.005086127
      4        1          -0.000794966    0.000277522    0.000136696
      5        6           0.021193192   -0.013326677   -0.006116825
      6        6          -0.031694349    0.042195779    0.018079948
      7        8           0.001998086   -0.046483781   -0.019723173
      8        8           0.008008641    0.011826819    0.005017992
      9        6           0.016639921   -0.003076027   -0.001890409
     10        6           0.001507608    0.002175444   -0.000956452
     11        1           0.003609710   -0.001438756   -0.000416126
     12        1           0.001376063    0.000653400   -0.001837748
     13        1           0.001173490   -0.000731137    0.000194523
     14        1           0.000136663    0.000285106    0.001334506
     15        1          -0.000592300   -0.001391221    0.000509092
 -------------------------------------------------------------------
 Cartesian Forces:  Max     0.046483781 RMS     0.013333178

 GradGradGradGradGradGradGradGradGradGradGradGradGradGradGradGradGradGrad
 Berny optimization.
 Search for a local minimum.
 Step number   1 out of a maximum of    2
 All quantities printed in internal units (Hartrees-Bohrs-Radians)
 Second derivative matrix not updated -- analytic derivatives used.
 ITU=  0
     Eigenvalues ---   -0.15015  -0.01090  -0.00670  -0.00081   0.00016
     Eigenvalues ---    0.00091   0.00215   0.00365   0.01179   0.01780
     Eigenvalues ---    0.02650   0.03292   0.04275   0.05645   0.06283
     Eigenvalues ---    0.07255   0.07792   0.09014   0.10249   0.10848
     Eigenvalues ---    0.10988   0.12055   0.15698   0.17957   0.20985
     Eigenvalues ---    0.26670   0.30924   0.36138   0.45524   0.52894
     Eigenvalues ---    0.67485   0.75286   0.78790   0.83233   0.90743
     Eigenvalues ---    0.91920   0.97836   1.87217   2.89339
 Eigenvalue     1 is  -1.50D-01 should be greater than     0.000000 Eigenvector:
                          Y11       X11       Y1        X1        X9
   1                    0.74639   0.39626  -0.37665  -0.24126  -0.14661
                          Y9        Y12       Y10       Z12       X10
   1                   -0.13864   0.07683   0.05852  -0.05340   0.05214
 Eigenvalue     2 is  -1.09D-02 should be greater than     0.000000 Eigenvector:
                          Z2        Z1        Y2        X2        Z11
   1                    0.85553  -0.36053  -0.16720   0.14463  -0.14290
                          Z7        Z8        X1        Z12       Z4
   1                   -0.11594   0.11507  -0.07456   0.06076  -0.05759
 Eigenvalue     3 is  -6.70D-03 should be greater than     0.000000 Eigenvector:
                          Z7        Z8        Z2        Y7        Z1
   1                    0.59945  -0.36868   0.31862  -0.24406   0.23629
                          Z15       Z12       Z9        Y8        X14
   1                   -0.22135  -0.17902  -0.16224   0.15239  -0.14388
 Eigenvalue     4 is  -8.11D-04 should be greater than     0.000000 Eigenvector:
                          X2        X1        Y2        Y4        X4
   1                    0.69037   0.40829   0.31243  -0.19676  -0.18537
                          X3        Y3        Y1        Y13       Y12
   1                   -0.15165  -0.14397  -0.13642   0.11770   0.11584
 Quadratic step=7.880D-01 exceeds max=3.000D-01 adjusted using Lamda=-1.615D-03.
 Angle between NR and scaled steps=  32.32 degrees.
 Angle between quadratic step and forces=  73.85 degrees.
 Linear search not attempted -- first point.
 B after Tr=    -0.010774   -0.011232   -0.002136
         Rot=    1.000000    0.000667   -0.000060    0.000396 Ang=   0.09 deg.
 Variable       Old X    -DE/DX   Delta X   Delta X   Delta X     New X
                                 (Linear)    (Quad)   (Total)
    X1        5.09766   0.00726   0.00000   0.04544   0.03717   5.13483
    Y1        3.29547  -0.01544   0.00000  -0.06205  -0.07792   3.21755
    Z1       -0.43335  -0.00417   0.00000   0.01206   0.00499  -0.42836
    X2        3.56710  -0.01245   0.00000   0.14684   0.13952   3.70662
    Y2        4.20338   0.01321   0.00000   0.15988   0.14575   4.34913
    Z2        0.00339   0.00475   0.00000   0.03378   0.02538   0.02877
    X3       -5.92292  -0.01737   0.00000  -0.04636  -0.05549  -5.97842
    Y3        1.92745   0.01126   0.00000   0.02079   0.01536   1.94281
    Z3        0.79826   0.00509   0.00000   0.00944   0.00541   0.80367
    X4       -7.58695  -0.00079   0.00000  -0.03410  -0.04234  -7.62929
    Y4        2.95931   0.00028   0.00000   0.03931   0.03583   2.99513
    Z4        1.26463   0.00014   0.00000   0.02221   0.01698   1.28161
    X5       -4.05274   0.02119   0.00000  -0.05509  -0.06524  -4.11797
    Y5        0.76515  -0.01333   0.00000  -0.01827  -0.02591   0.73924
    Z5        0.27344  -0.00612   0.00000  -0.01269  -0.01533   0.25811
    X6       -1.84498  -0.03169   0.00000  -0.07491  -0.08630  -1.93129
    Y6       -0.72580   0.04220   0.00000  -0.00061  -0.01085  -0.73665
    Z6       -0.39553   0.01808   0.00000  -0.00150  -0.00244  -0.39797
    X7       -1.92729   0.00200   0.00000  -0.01486  -0.02805  -1.95534
    Y7       -2.80837  -0.04648   0.00000  -0.05613  -0.06753  -2.87590
    Z7       -1.27480  -0.01972   0.00000  -0.00828  -0.00636  -1.28116
    X8        0.29426   0.00801   0.00000  -0.02605  -0.03638   0.25788
    Y8        0.54456   0.01183   0.00000   0.00826  -0.00305   0.54151
    Z8        0.10628   0.00502   0.00000  -0.00663  -0.00954   0.09674
    X9        2.59635   0.01664   0.00000   0.02101   0.00961   2.60596
    Y9       -0.71602  -0.00308   0.00000   0.00048  -0.01350  -0.72952
    Z9       -0.49484  -0.00189   0.00000  -0.00911  -0.01061  -0.50545
   X10        3.46294   0.00151   0.00000   0.03743   0.02491   3.48785
   Y10       -2.45837   0.00218   0.00000   0.01806   0.00616  -2.45221
   Z10        1.57633  -0.00096   0.00000  -0.00376  -0.00306   1.57327
   X11        4.10814   0.00361   0.00000  -0.00694  -0.01693   4.09121
   Y11        1.10028  -0.00144   0.00000  -0.01200  -0.02734   1.07294
   Z11       -0.65453  -0.00042   0.00000   0.00970   0.00562  -0.64891
   X12        2.49165   0.00138   0.00000   0.03882   0.02654   2.51819
   Y12       -1.56110   0.00065   0.00000   0.02193   0.00550  -1.55559
   Z12       -2.37091  -0.00184   0.00000  -0.02250  -0.02289  -2.39379
   X13        5.31728   0.00117   0.00000   0.05962   0.04647   5.36375
   Y13       -3.22952  -0.00073   0.00000   0.04979   0.03582  -3.19370
   Z13        1.11486   0.00019   0.00000   0.01488   0.01635   1.13121
   X14        3.58932   0.00014   0.00000   0.00405  -0.00744   3.58188
   Y14       -1.44182   0.00029   0.00000   0.01671   0.00713  -1.43468
   Z14        3.36460   0.00133   0.00000   0.00297   0.00230   3.36690
   X15        2.12709  -0.00059   0.00000   0.06771   0.05396   2.18105
   Y15       -4.02408  -0.00139   0.00000  -0.01485  -0.02546  -4.04954
   Z15        1.77261   0.00051   0.00000  -0.00981  -0.00682   1.76579
         Item               Value     Threshold  Converged?
 Maximum Force            0.046484     0.000450     NO 
 RMS     Force            0.013333     0.000300     NO 
 Maximum Displacement     0.145750     0.001800     NO 
 RMS     Displacement     0.043688     0.001200     NO 
 Predicted change in Energy=-3.910069D-03
 GradGradGradGradGradGradGradGradGradGradGradGradGradGradGradGradGradGrad


 ----------------------------------------------------------------------

 Electric dipole moment (input orientation):
 (Debye = 10**-18 statcoulomb cm , SI units = C m)
                  (au)            (Debye)         (10**-30 SI)
   Tot        0.979130D+00      0.248870D+01      0.830141D+01
   x         -0.817059D+00     -0.207676D+01     -0.692732D+01
   y          0.182242D+00      0.463212D+00      0.154511D+01
   z          0.507836D+00      0.129079D+01      0.430561D+01

 Dipole polarizability, Alpha (input orientation).
 (esu units = cm**3 , SI units = C**2 m**2 J**-1)
 Alpha(0;0):
               (au)            (10**-24 esu)      (10**-40 SI)
   iso        0.733584D+02      0.108706D+02      0.120952D+02
   aniso      0.412779D+02      0.611675D+01      0.680580D+01
   xx         0.913555D+02      0.135375D+02      0.150625D+02
   yx         0.456897D+00      0.677051D-01      0.753321D-01
   yy         0.812096D+02      0.120340D+02      0.133897D+02
   zx        -0.475195D+01     -0.704166D+00     -0.783491D+00
   zy         0.428065D+01      0.634327D+00      0.705784D+00
   zz         0.475099D+02      0.704025D+01      0.783333D+01

 ----------------------------------------------------------------------

 Dipole orientation:
     8          2.73565692          3.82230155         -3.86525737
     1          2.36420680          4.47168336         -2.19253219
     6         -2.34384267          1.12915379          5.71530651
     1         -2.75016453          1.88048086          7.53783602
     6         -1.88801151          0.28231304          3.66614546
     6         -1.40329839         -0.82431856          1.19935639
     8         -2.39458445         -2.70414645          0.42437120
     8          0.30371647          0.54244993         -0.08907477
     6          0.91969288         -0.34204750         -2.55651271
     6          2.93907147         -2.34152301         -2.52971903
     1          1.79078347          1.61716058         -3.56282894
     1         -0.78895741         -0.82936887         -3.59947746
     1          3.47919427         -2.81953755         -4.46000038
     1          4.60373145         -1.66807518         -1.51847528
     1          2.21940731         -4.04467292         -1.60461049

 Electric dipole moment (dipole orientation):
 (Debye = 10**-18 statcoulomb cm , SI units = C m)
                  (au)            (Debye)         (10**-30 SI)
   Tot        0.979130D+00      0.248870D+01      0.830141D+01
   x          0.000000D+00      0.000000D+00      0.000000D+00
   y          0.000000D+00      0.000000D+00      0.000000D+00
   z          0.979130D+00      0.248870D+01      0.830141D+01

 Dipole polarizability, Alpha (dipole orientation).
 (esu units = cm**3 , SI units = C**2 m**2 J**-1)
 Alpha(0;0):
               (au)            (10**-24 esu)      (10**-40 SI)
   iso        0.733584D+02      0.108706D+02      0.120952D+02
   aniso      0.412779D+02      0.611675D+01      0.680580D+01
   xx         0.572046D+02      0.847685D+01      0.943176D+01
   yx         0.952503D+01      0.141146D+01      0.157047D+01
   yy         0.788634D+02      0.116864D+02      0.130028D+02
   zx        -0.162965D+02     -0.241489D+01     -0.268692D+01
   zy         0.305462D+01      0.452648D+00      0.503638D+00
   zz         0.840071D+02      0.124486D+02      0.138509D+02

 ----------------------------------------------------------------------
 1\1\GINC-AJ\Freq\UM062X\6-31+G\C5H7O3(2)\AAYUSH\20-Jun-2025\0\\# freq 
 6-31+g m062x\\Title Card Required\\0,2\O,2.697565,1.743886,-0.229319\H
 ,1.887626,2.224335,0.001796\C,-3.134276,1.019964,0.422422\H,-4.014841,
 1.565997,0.669213\C,-2.144617,0.404898,0.144699\C,-0.976324,-0.384078,
 -0.209306\O,-1.019877,-1.486128,-0.674597\O,0.155717,0.288168,0.056241
 \C,1.37393,-0.378901,-0.261857\C,1.832508,-1.300913,0.83416\H,2.173935
 ,0.582245,-0.346363\H,1.318526,-0.826096,-1.254629\H,2.813785,-1.70898
 6,0.58996\H,1.899388,-0.762976,1.780468\H,1.12561,-2.129453,0.938025\\
 Version=ES64L-G16RevA.03\State=2-A\HF=-419.9501118\S2=0.760483\S2-1=0.
 \S2A=0.750045\RMSD=6.533e-09\RMSF=1.333e-02\ZeroPoint=0.1068288\Therma
 l=0.1148544\Dipole=-0.8170591,0.1822416,0.5078361\DipoleDeriv=-0.14731
 32,0.1979494,-0.0685035,0.1638621,-0.0166546,0.0362857,-0.0367368,0.08
 7858,-0.5700879,0.0891105,0.0235081,0.0729943,0.1977485,0.406517,-0.03
 74207,0.0864113,-0.004937,0.3612894,-0.2276159,-0.0180585,-0.0063704,0
 .0108019,-0.1951643,0.0030174,0.0003206,0.0034489,-0.2045802,0.272995,
 0.0039077,0.0015613,-0.0035916,0.2628325,0.0055263,-0.0008497,0.006102
 7,0.2539119,-0.5832339,0.2106737,0.0997216,0.2636439,-0.2515566,-0.089
 6102,0.1249802,-0.0908795,-0.091034,2.5085151,0.0010828,-0.0081941,0.2
 411512,1.453726,0.4882799,0.1681359,0.5016812,0.616279,-0.7931655,0.05
 55585,0.0232226,-0.1543359,-1.0010441,-0.2969659,-0.0982757,-0.2976054
 ,-0.4776961,-2.143106,-0.3441209,-0.1186575,-0.1264235,-0.5845928,-0.0
 801769,-0.0907221,-0.0629812,-0.4205036,1.3897928,0.6294192,-0.0047475
 ,0.1455836,0.9821908,-0.1198863,-0.1918616,-0.2617193,0.3478724,-0.218
 2756,-0.2161951,0.0344336,-0.0385963,-0.2871279,0.1145601,-0.0246833,0
 .1037344,-0.0828006,-0.2569023,-0.5465719,0.0295319,-0.6879238,-0.8845
 466,0.071336,-0.0380652,-0.0638569,0.1895333,-0.0362096,-0.0702836,-0.
 0762968,0.0083335,-0.0362013,-0.031158,0.06057,0.0707326,-0.0359201,-0
 .0499617,0.0819546,0.0240895,0.0710047,0.0967583,0.0007587,0.0380921,-
 0.0207385,0.0758732,0.1209087,0.0274046,0.0009753,-0.0004057,0.049806,
 -0.0937177,-0.0228956,-0.0404191,-0.0318256,0.0744617,-0.0362287,-0.00
 37604,-0.0908524,0.0050574,0.0291713,0.0255801,0.0695791,0.0696887\Pol
 ar=91.3555422,0.4568968,81.2096457,-4.7519493,4.2806538,47.5099423\Qua
 drupole=0.3403693,-0.4683561,0.1279868,-10.1773661,-1.1730334,-0.37488
 47\PG=C01 [X(C5H7O3)]\NImag=4\\0.38825233,-0.20657233,0.16109148,-0.10
 667103,0.06447166,0.03313684,-0.36497642,0.22670892,0.10672238,0.36357
 436,0.19415261,-0.13884082,-0.06052425,-0.21331615,0.15679108,0.100912
 43,-0.06643224,-0.02509704,-0.10438103,0.06767410,0.02331182,0.0000252
 9,0.00007108,0.00004725,-0.00001177,0.00026691,0.00002583,1.14614526,-
 0.00005884,-0.00000550,-0.00001935,0.00009340,-0.00019972,-0.00001742,
 -0.67234584,0.48584012,-0.00000850,-0.00004880,0.00006979,0.00002621,-
 0.00006974,-0.00011041,-0.30396662,0.18503943,0.16154998,0.00001872,-0
 .00002251,-0.00001684,-0.00004309,-0.00005284,0.00000370,-0.30695362,0
 .16968186,0.07668498,0.29535509,0.00001993,0.00000562,0.00001047,-0.00
 001233,0.00008850,0.00000518,0.16965255,-0.13899466,-0.04631873,-0.171
 34164,0.12530437,-0.00001202,0.00001819,-0.00005331,0.00001463,0.00001
 169,0.00005962,0.07664726,-0.04630376,-0.05820269,-0.07746358,0.047578
 61,0.04209453,0.00008459,0.00022909,0.00005106,-0.00004908,0.00055831,
 0.00009934,-0.84441591,0.49811376,0.22521648,0.01109790,-0.00078233,-0
 .00027661,1.11199184,-0.00004284,-0.00017496,-0.00005988,-0.00001099,-
 0.00026262,-0.00004194,0.49957096,-0.35732219,-0.13637187,-0.00050046,
 0.01135581,-0.00124494,-0.61628998,0.51445653,0.00001117,0.00006067,-0
 .00000231,-0.00006167,-0.00003712,0.00002384,0.22583015,-0.13631374,-0
 .11810052,-0.00018485,-0.00124855,0.01385951,-0.27916561,0.18622676,0.
 18383654,0.00010448,-0.00280053,-0.00087143,-0.00058182,-0.00451993,-0
 .00046879,0.01129552,0.00217666,0.00103726,-0.00036203,0.00290501,0.00
 129128,-0.21724579,0.09049037,0.04047936,0.62259876,0.00045067,-0.0003
 5328,0.00004990,-0.00091800,-0.00102547,-0.00024501,0.00149069,0.01032
 580,-0.00370369,0.00215486,0.00237862,-0.00061239,0.08507121,-0.132136
 77,-0.01190265,-0.01184439,0.95927391,-0.00034735,-0.00160405,-0.00072
 859,0.00001517,-0.00090827,0.00012667,0.00076919,-0.00379564,0.0172885
 3,0.00099814,-0.00052380,0.00334104,0.03813147,-0.01285701,-0.11176823
 ,-0.01413152,0.32147882,0.33798250,-0.00011579,-0.00011404,0.00020204,
 -0.00005030,0.00110178,0.00002784,-0.00472438,0.00037541,0.00017672,-0
 .00023000,-0.00087716,-0.00038791,0.00605332,0.04044611,0.01775963,-0.
 08885619,-0.00595601,-0.00136655,0.09282250,-0.00052400,0.00031693,0.0
 0026089,0.00065680,0.00150876,0.00000421,-0.00062505,0.00105698,0.0012
 7489,0.00030074,0.00071564,0.00067117,0.02379614,-0.04769532,-0.032381
 60,-0.00974041,-0.71860380,-0.27677675,0.03542769,0.82551599,-0.000068
 61,0.00042633,0.00034586,0.00023405,0.00078042,-0.00001991,-0.00015397
 ,0.00143164,-0.00151513,0.00010543,0.00062692,-0.00053329,0.01046259,-
 0.03277152,0.01382951,-0.00349184,-0.27842910,-0.18017418,0.01285640,0
 .34309879,0.15778359,0.00288517,0.00982086,0.00192134,-0.00069493,0.00
 507600,0.00051107,-0.00227006,0.00274764,0.00120749,0.00122009,0.00018
 920,0.00004409,-0.06783508,-0.01022669,-0.00305674,-0.25533515,-0.0891
 4403,-0.03468814,-0.00914666,-0.05829401,-0.02253702,0.57690496,-0.002
 32424,-0.00093439,-0.00040683,0.00154218,0.00138842,0.00048446,0.00274
 966,-0.00142227,-0.00046418,-0.00039534,-0.00077446,-0.00016003,0.0132
 4326,0.01082800,-0.00163087,-0.06374758,-0.13168918,-0.03330231,-0.063
 63681,-0.05689396,-0.03511259,0.03455012,0.29520286,-0.00028915,-0.000
 64027,0.00121382,-0.00019204,-0.00006092,-0.00131565,0.00108485,-0.000
 61181,-0.00062862,-0.00017093,-0.00018720,-0.00039179,0.00720684,-0.00
 030750,0.01257564,-0.02321488,-0.03235689,-0.07158748,-0.02603272,-0.0
 3532903,0.01514042,0.00606242,0.10225603,0.11931845,-0.03916517,-0.075
 78484,-0.00600843,0.00858711,-0.00061391,-0.00191829,0.00155223,-0.001
 51010,-0.00053988,-0.00030047,0.00039018,0.00017638,0.00317109,-0.0027
 1306,-0.00203078,-0.08522870,0.00248360,0.00180682,0.00670264,0.015140
 37,0.00708410,-0.16113179,0.03825598,0.02486629,0.39493953,-0.04675883
 ,-0.08810473,-0.00660611,0.00343467,-0.00391748,-0.00162352,-0.0002278
 9,0.00046764,0.00053606,0.00007044,0.00011484,0.00007540,-0.00366476,-
 0.00043741,-0.00287404,-0.01271947,0.01711173,0.00635255,-0.00354366,-
 0.00757030,-0.00053825,0.09552744,-0.10306400,-0.02895885,-0.07825750,
 0.38097679,0.00545953,0.00996702,0.00297023,-0.00209942,0.00025810,0.0
 0008599,-0.00034828,0.00082136,-0.00050175,0.00005815,0.00004178,-0.00
 021329,-0.00191810,-0.00327898,0.00682836,0.00175872,0.01073054,0.0054
 7500,-0.00064356,-0.00263847,-0.00582191,0.03641869,-0.02739005,-0.082
 40803,0.02708526,0.05136724,0.58531996,0.00305772,0.00540623,0.0005340
 3,-0.00149802,0.00021111,0.00097501,-0.00029684,0.00020117,0.00012194,
 0.00010251,-0.00001489,-0.00010714,-0.00116186,-0.00053158,0.00119493,
 0.00616943,0.00689551,0.00177947,-0.00029211,-0.00250896,-0.00174673,-
 0.03136280,0.03220460,-0.02576237,-0.07522146,0.02244403,-0.01932463,0
 .58539369,0.00459977,0.00854974,0.00004608,-0.00128482,0.00018873,0.00
 098924,-0.00004585,-0.00008547,0.00001743,-0.00000795,-0.00002740,0.00
 002497,0.00045804,0.00037755,-0.00056274,-0.00130577,-0.00012510,0.000
 41511,0.00104439,0.00006459,0.00120794,0.01336800,-0.01243640,0.010051
 38,0.03476885,-0.11779619,0.06224580,0.00236283,0.54426051,-0.00072678
 ,-0.00207972,0.00047023,0.00015098,-0.00014083,0.00002921,0.00018038,-
 0.00021489,0.00012835,-0.00003368,0.00000479,0.00001147,0.00008126,0.0
 0070316,-0.00098956,-0.00117779,-0.00436744,-0.00038569,-0.00048990,0.
 00179770,0.00055614,0.00725574,-0.00359257,0.01182326,-0.03425054,0.06
 040398,-0.17041470,-0.02156495,0.04974714,0.54808370,0.00943689,0.0415
 6086,0.00356772,-0.00387394,0.01680993,0.00467544,-0.00040724,0.000444
 04,0.00009018,0.00007270,-0.00009050,0.00001645,-0.00140128,-0.0000291
 0,-0.00012641,0.00354518,0.00282734,0.00454531,-0.00002643,-0.00079223
 ,-0.00094422,-0.04164197,-0.01060724,0.00255806,-0.00238318,0.02464460
 ,-0.00494213,-0.00167987,-0.00441430,-0.00029390,0.03898289,0.05577055
 ,0.05474177,0.00231591,-0.01638013,-0.01647197,-0.00079188,-0.00050449
 ,0.00032407,0.00011899,0.00010439,-0.00015352,-0.00004962,-0.00122122,
 0.00086419,0.00038392,0.01317892,0.00007110,0.00318574,-0.00225487,-0.
 00099331,-0.00115166,-0.01390737,0.00640286,-0.00117122,0.05867706,0.0
 3063566,-0.01518945,-0.02015320,-0.02803905,0.00511989,-0.06648584,-0.
 03413047,0.00325954,-0.00091586,-0.01372630,-0.00117592,-0.00709846,0.
 00372570,-0.00004770,0.00000158,-0.00007837,0.00001594,-0.00001917,0.0
 0001504,0.00011412,0.00003521,0.00033548,0.00095802,-0.00155529,-0.000
 42631,-0.00102912,0.00036752,0.00020774,0.00597422,0.00352886,-0.00053
 874,0.00731044,0.00597055,-0.03136653,0.00685882,0.01334060,-0.0041155
 3,-0.01054459,-0.00117510,0.04706956,0.00145323,0.00290655,0.00108962,
 -0.00082864,0.00041144,-0.00025473,0.00000358,0.00010394,-0.00001965,0
 .00005479,-0.00005427,0.00004989,-0.00034526,-0.00008141,-0.00078416,0
 .00456370,0.00647914,0.00299853,-0.00114833,-0.00324788,-0.00089238,-0
 .01489858,0.01982169,0.03419724,-0.04585635,-0.00588650,-0.03393644,0.
 00330865,-0.00497587,-0.00688895,-0.00301709,-0.01214422,-0.01170999,0
 .05619713,0.00226507,0.00399380,0.00137879,-0.00069727,0.00048306,-0.0
 0029326,0.00004831,-0.00003982,0.00007315,-0.00001034,0.00000102,-0.00
 000121,0.00032800,-0.00005657,-0.00025818,-0.00241036,-0.00083845,-0.0
 0121161,-0.00090692,0.00035478,0.00100773,0.00809207,-0.00816881,-0.01
 422383,0.00166082,-0.08903869,-0.11187602,0.00225195,0.01053109,0.0231
 3719,-0.00616468,-0.01457671,-0.01432422,-0.00524259,0.09889296,-0.001
 81930,-0.00310946,0.00038514,0.00061795,0.00009507,-0.00012623,-0.0000
 5044,-0.00005166,0.00011445,-0.00000420,0.00000743,0.00000595,0.000207
 74,0.00037220,-0.00045860,-0.00251128,-0.00251263,0.00022269,-0.001440
 09,0.00132052,0.00077629,0.00436073,-0.00564854,-0.00329125,-0.0156141
 6,-0.10399421,-0.28365925,-0.00314089,-0.01093562,-0.01708788,0.002874
 13,0.00658909,0.00007745,0.01768616,0.11512171,0.30355046,0.00003052,0
 .00013883,-0.00012154,-0.00002272,-0.00009716,-0.00000539,-0.00005108,
 0.00004637,-0.00002812,0.00001912,-0.00001271,0.00000109,-0.00016974,-
 0.00002192,0.00027028,0.00139317,0.00020667,0.00034484,-0.00023599,-0.
 00007822,-0.00048212,0.00017565,0.00062057,-0.00217464,-0.00922216,0.0
 0177853,0.00496480,-0.27470030,0.09503608,0.05616598,0.00014075,0.0002
 8275,0.00005819,0.00014807,-0.00012710,-0.00050252,0.29815416,-0.00067
 239,-0.00024577,-0.00009130,0.00008911,0.00018236,-0.00009450,0.000062
 41,-0.00001316,-0.00004981,-0.00001784,0.00000063,0.00001391,0.0002676
 7,0.00006883,-0.00003166,-0.00132588,-0.00243541,-0.00040923,-0.000174
 62,0.00110019,0.00006762,0.00428924,-0.00172260,0.00430947,0.01860528,
 -0.00886575,-0.00702765,0.09278474,-0.08557225,-0.02282436,0.00068127,
 0.00052901,-0.00033053,-0.00043041,0.00059153,0.00018667,-0.10506974,0
 .09219647,0.00024736,0.00020052,-0.00005788,-0.00009229,-0.00001079,-0
 .00002151,-0.00008629,0.00007499,-0.00002551,0.00001415,0.00000754,-0.
 00001537,-0.00025004,-0.00027341,0.00041225,0.00115814,0.00188116,0.00
 010748,-0.00004595,-0.00075290,-0.00045705,-0.00481402,0.00446347,-0.0
 0358269,-0.02265207,0.00893905,0.00738558,0.05870572,-0.02412204,-0.06
 471415,-0.00035125,-0.00055681,0.00049570,0.00044467,-0.00112481,0.000
 20296,-0.06196294,0.02341592,0.06629720,-0.00020340,-0.00002152,-0.000
 30578,0.00010082,0.00003649,-0.00002715,0.00000912,0.00000298,0.000005
 49,-0.00002234,0.00001136,-0.00000688,0.00006997,0.00000296,0.00004877
 ,-0.00099468,-0.00106914,-0.00079934,-0.00017541,0.00076820,0.00010593
 ,0.00131139,-0.00085857,0.00092765,-0.00113646,-0.00497830,-0.00995020
 ,-0.05045939,-0.00794394,-0.01423955,0.00015566,0.00047982,0.00062901,
 0.00028923,0.00140400,-0.00122227,0.00285340,0.01494195,0.02744926,0.0
 4927385,-0.00008415,0.00014621,-0.00077353,0.00019298,-0.00017859,0.00
 027562,-0.00006032,-0.00000739,-0.00002332,0.00001282,0.00000838,-0.00
 000684,-0.00004183,0.00004293,0.00022931,0.00043760,0.00025223,-0.0002
 3285,-0.00028636,0.00001003,-0.00024730,-0.00249250,0.00100924,-0.0013
 7508,0.00237648,0.00963212,0.02493585,-0.00796340,-0.11916422,-0.12318
 471,0.00040523,0.00151973,0.00041806,0.00165100,-0.00284755,0.00303369
 ,-0.00236796,-0.00613695,-0.01024692,0.00816454,0.12733386,0.00043535,
 0.00049769,0.00080546,-0.00009915,0.00017670,-0.00034052,-0.00002064,0
 .00003621,0.00004634,-0.00000683,-0.00000703,-0.00000801,-0.00004277,0
 .00003958,-0.00009208,-0.00021907,-0.00061069,-0.00021340,0.00002134,0
 .00042924,0.00019585,0.00122692,-0.00035322,0.00274967,-0.00087353,-0.
 01181631,-0.02702365,-0.01476758,-0.11978120,-0.25456117,-0.00080754,-
 0.00142824,-0.00013064,-0.00158686,0.00352479,-0.00150697,-0.00152002,
 -0.00278264,-0.00508027,0.01710674,0.12942586,0.28165577,-0.00088815,-
 0.00152666,-0.00014038,0.00036844,-0.00002459,-0.00017528,0.00009991,-
 0.00007243,-0.00000399,-0.00002937,0.00001758,0.00001308,0.00015529,-0
 .00006236,-0.00018407,-0.00106590,0.00087188,-0.00005604,-0.00057689,-
 0.00027918,-0.00053161,0.00181973,-0.00141828,0.00093338,0.00469315,0.
 00813720,-0.00258240,-0.16135937,-0.13165943,0.01583170,0.00209693,0.0
 0455785,-0.00067097,0.00007586,-0.00049095,0.00055844,-0.01851286,-0.0
 2403079,0.00223556,-0.00107176,0.00005588,0.00115364,0.17419497,-0.000
 22097,-0.00018610,-0.00005243,-0.00009837,0.00026576,0.00010695,-0.000
 10311,0.00007559,-0.00000982,0.00002382,-0.00002338,-0.00001514,-0.000
 06537,0.00009200,0.00034048,0.00122577,-0.00220594,0.00018929,-0.00064
 493,0.00111280,-0.00039698,0.00040403,0.00227469,-0.00139428,-0.013479
 20,-0.02014423,0.00703292,-0.13359014,-0.20072614,0.01549068,0.0012106
 1,-0.00072336,0.00175625,0.00068940,0.00071836,-0.00047426,0.00966501,
 0.01032287,-0.00189497,-0.01094083,-0.01162003,0.00264926,0.14592429,0
 .22076710,-0.00038263,-0.00081169,0.00026806,0.00032013,-0.00014569,-0
 .00033158,0.00008903,-0.00007695,-0.00003446,0.00000042,0.00002176,0.0
 0003058,0.00008223,-0.00016988,-0.00028984,-0.00059619,0.00215536,0.00
 073996,0.00039183,-0.00134619,-0.00031395,0.00011321,-0.00267164,0.000
 92301,0.01555838,0.02276647,-0.00665601,0.01624438,0.01731590,-0.04883
 369,-0.00031726,0.00380044,-0.00154424,-0.00039293,-0.00093023,0.00079
 479,0.00499212,0.00564812,-0.00094675,-0.01972168,-0.02222785,0.003503
 61,-0.01638105,-0.02332793,0.05269050\\-0.00726145,0.01543544,0.004169
 07,0.01244938,-0.01320767,-0.00475091,0.01737383,-0.01126130,-0.005086
 13,0.00079497,-0.00027752,-0.00013670,-0.02119319,0.01332668,0.0061168
 2,0.03169435,-0.04219578,-0.01807995,-0.00199809,0.04648378,0.01972317
 ,-0.00800864,-0.01182682,-0.00501799,-0.01663992,0.00307603,0.00189041
 ,-0.00150761,-0.00217544,0.00095645,-0.00360971,0.00143876,0.00041613,
 -0.00137606,-0.00065340,0.00183775,-0.00117349,0.00073114,-0.00019452,
 -0.00013666,-0.00028511,-0.00133451,0.00059230,0.00139122,-0.00050909\
 \\@


 MATERIAL COPIED FROM ONE SCHOLARLY BOOK WITHOUT CREDIT COMPRISES PLAGIARISM.
 MATERIAL COPIED FROM TWO SCHOLARLY BOOKS COMPRISES AN ESSAY.
 MATERIAL COPIED FROM THREE SCHOLARLY BOOKS COMPRISES A DISSERTATION.
 MATERIAL COPIED FROM FOUR SCHOLARLY BOOKS COMPRISES A FIFTH SCHOLARLY BOOK.

                               -- C&EN, 25 FEB 1980
 Job cpu time:       0 days  0 hours 19 minutes  3.9 seconds.
 Elapsed time:       0 days  0 hours  0 minutes 47.7 seconds.
 File lengths (MBytes):  RWF=     59 Int=      0 D2E=      0 Chk=      8 Scr=      1
 Normal termination of Gaussian 16 at Fri Jun 20 12:44:13 2025.
