 Entering Gaussian System, Link 0=g16
 Initial command:
 /opt/g16/l1.exe "/home/aayush/scratches/g16/Gau-19925.inp" -scrdir="/home/aayush/scratches/g16/"
 Entering Link 1 = /opt/g16/l1.exe PID=     19928.
  
 Copyright (c) 1988,1990,1992,1993,1995,1998,2003,2009,2016,
            Gaussian, Inc.  All Rights Reserved.
  
 This is part of the Gaussian(R) 16 program.  It is based on
 the Gaussian(R) 09 system (copyright 2009, Gaussian, Inc.),
 the Gaussian(R) 03 system (copyright 2003, Gaussian, Inc.),
 the Gaussian(R) 98 system (copyright 1998, Gaussian, Inc.),
 the Gaussian(R) 94 system (copyright 1995, Gaussian, Inc.),
 the Gaussian 92(TM) system (copyright 1992, Gaussian, Inc.),
 the Gaussian 90(TM) system (copyright 1990, Gaussian, Inc.),
 the Gaussian 88(TM) system (copyright 1988, Gaussian, Inc.),
 the Gaussian 86(TM) system (copyright 1986, Carnegie Mellon
 University), and the Gaussian 82(TM) system (copyright 1983,
 Carnegie Mellon University). Gaussian is a federally registered
 trademark of Gaussian, Inc.
  
 This software contains proprietary and confidential information,
 including trade secrets, belonging to Gaussian, Inc.
  
 This software is provided under written license and may be
 used, copied, transmitted, or stored only in accord with that
 written license.
  
 The following legend is applicable only to US Government
 contracts under FAR:
  
                    RESTRICTED RIGHTS LEGEND
  
 Use, reproduction and disclosure by the US Government is
 subject to restrictions as set forth in subparagraphs (a)
 and (c) of the Commercial Computer Software - Restricted
 Rights clause in FAR 52.227-19.
  
 Gaussian, Inc.
 340 Quinnipiac St., Bldg. 40, Wallingford CT 06492
  
  
 ---------------------------------------------------------------
 Warning -- This program may not be used in any manner that
 competes with the business of Gaussian, Inc. or will provide
 assistance to any competitor of Gaussian, Inc.  The licensee
 of this program is prohibited from giving any competitor of
 Gaussian, Inc. access to this program.  By using this program,
 the user acknowledges that Gaussian, Inc. is engaged in the
 business of creating and licensing software in the field of
 computational chemistry and represents and warrants to the
 licensee that it is not a competitor of Gaussian, Inc. and that
 it will not use this program in any manner prohibited above.
 ---------------------------------------------------------------
  

 Cite this work as:
 Gaussian 16, Revision A.03,
 M. J. Frisch, G. W. Trucks, H. B. Schlegel, G. E. Scuseria, 
 M. A. Robb, J. R. Cheeseman, G. Scalmani, V. Barone, 
 G. A. Petersson, H. Nakatsuji, X. Li, M. Caricato, A. V. Marenich, 
 J. Bloino, B. G. Janesko, R. Gomperts, B. Mennucci, H. P. Hratchian, 
 J. V. Ortiz, A. F. Izmaylov, J. L. Sonnenberg, D. Williams-Young, 
 F. Ding, F. Lipparini, F. Egidi, J. Goings, B. Peng, A. Petrone, 
 T. Henderson, D. Ranasinghe, V. G. Zakrzewski, J. Gao, N. Rega, 
 G. Zheng, W. Liang, M. Hada, M. Ehara, K. Toyota, R. Fukuda, 
 J. Hasegawa, M. Ishida, T. Nakajima, Y. Honda, O. Kitao, H. Nakai, 
 T. Vreven, K. Throssell, J. A. Montgomery, Jr., J. E. Peralta, 
 F. Ogliaro, M. J. Bearpark, J. J. Heyd, E. N. Brothers, K. N. Kudin, 
 V. N. Staroverov, T. A. Keith, R. Kobayashi, J. Normand, 
 K. Raghavachari, A. P. Rendell, J. C. Burant, S. S. Iyengar, 
 J. Tomasi, M. Cossi, J. M. Millam, M. Klene, C. Adamo, R. Cammi, 
 J. W. Ochterski, R. L. Martin, K. Morokuma, O. Farkas, 
 J. B. Foresman, and D. J. Fox, Gaussian, Inc., Wallingford CT, 2016.
 
 ******************************************
 Gaussian 16:  ES64L-G16RevA.03 25-Dec-2016
                20-Jun-2025 
 ******************************************
 %nprocshared=24
 Will use up to   24 processors via shared memory.
 %mem=12GB
 %chk=ethyl_propiolate_ts1.chk
 -------------------
 # freq 6-31+g m062x
 -------------------
 1/10=4,30=1,38=1/1,3;
 2/12=2,17=6,18=5,40=1/2;
 3/5=1,6=6,7=10,11=2,25=1,30=1,71=2,74=-55,140=1/1,2,3;
 4//1;
 5/5=2,38=5,98=1/2;
 8/6=4,10=90,11=11/1;
 11/6=1,8=1,9=11,15=111,16=1/1,2,10;
 10/6=1/2;
 6/7=2,8=2,9=2,10=2,28=1/1;
 7/8=1,10=1,25=1/1,2,3,16;
 1/10=4,30=1/3;
 99//99;
 -------------------
 Title Card Required
 -------------------
 Symbolic Z-matrix:
 Charge =  0 Multiplicity = 2
 O                     2.70233   1.7546   -0.22822 
 H                     1.8827    2.22266   0.00286 
 C                    -3.1344    1.02003   0.42244 
 H                    -4.01498   1.5659    0.66918 
 C                    -2.14479   0.40486   0.14476 
 C                    -0.97537  -0.38396  -0.20875 
 O                    -1.02016  -1.48614  -0.67459 
 O                     0.15416   0.28866   0.05613 
 C                     1.37608  -0.38085  -0.26429 
 C                     1.83065  -1.30373   0.83501 
 H                     2.13624   0.48739  -0.36539 
 H                     1.30054  -0.84915  -1.24614 
 H                     2.81324  -1.70942   0.59048 
 H                     1.90034  -0.76232   1.77931 
 H                     1.12792  -2.13326   0.94358 
 

 GradGradGradGradGradGradGradGradGradGradGradGradGradGradGradGradGradGrad
 Berny optimization.
 Initialization pass.
 Trust Radius=3.00D-01 FncErr=1.00D-07 GrdErr=1.00D-07 EigMax=2.50D+02 EigMin=1.00D-04
 Number of steps in this run=      2 maximum allowed number of steps=      2.
 GradGradGradGradGradGradGradGradGradGradGradGradGradGradGradGradGradGrad

                          Input orientation:                          
 ---------------------------------------------------------------------
 Center     Atomic      Atomic             Coordinates (Angstroms)
 Number     Number       Type             X           Y           Z
 ---------------------------------------------------------------------
      1          8           0        2.702334    1.754598   -0.228217
      2          1           0        1.882704    2.222655    0.002860
      3          6           0       -3.134402    1.020033    0.422441
      4          1           0       -4.014982    1.565900    0.669183
      5          6           0       -2.144792    0.404863    0.144757
      6          6           0       -0.975368   -0.383964   -0.208747
      7          8           0       -1.020161   -1.486136   -0.674593
      8          8           0        0.154164    0.288664    0.056133
      9          6           0        1.376079   -0.380848   -0.264291
     10          6           0        1.830652   -1.303731    0.835012
     11          1           0        2.136244    0.487387   -0.365387
     12          1           0        1.300541   -0.849147   -1.246142
     13          1           0        2.813243   -1.709421    0.590483
     14          1           0        1.900335   -0.762319    1.779305
     15          1           0        1.127918   -2.133264    0.943579
 ---------------------------------------------------------------------
                    Distance matrix (angstroms):
                    1          2          3          4          5
     1  O    0.000000
     2  H    0.971734   0.000000
     3  C    5.918651   5.176263   0.000000
     4  H    6.779622   5.971433   1.065023   0.000000
     5  C    5.045347   4.420998   1.197861   2.262883   0.000000
     6  C    4.254329   3.873992   2.651610   3.716448   1.454223
     7  O    4.955661   4.758224   3.457511   4.482144   2.347766
     8  O    2.953470   2.594419   3.388768   4.403287   2.303596
     9  C    2.514037   2.665758   4.772683   5.807301   3.630592
    10  C    3.353157   3.623615   5.497441   6.514117   4.381769
    11  H    1.394667   1.791938   5.355753   6.330174   4.312114
    12  H    3.127408   3.366732   5.093793   6.144567   3.921411
    13  H    3.561179   4.083188   6.546193   7.573545   5.408417
    14  H    3.317863   3.473635   5.510575   6.453212   4.516316
    15  H    4.355154   4.519810   5.327498   6.341019   4.217918
                    6          7          8          9         10
     6  C    0.000000
     7  O    1.197415   0.000000
     8  O    1.341056   2.250092   0.000000
     9  C    2.352105   2.670576   1.429683   0.000000
    10  C    3.131957   3.230993   2.439874   1.505595   0.000000
    11  H    3.235107   3.735411   2.036126   1.158405   2.177716
    12  H    2.544080   2.473475   2.074781   1.090432   2.195192
    13  H    4.092576   4.042927   3.368765   2.135693   1.090809
    14  H    3.516415   3.882631   2.668895   2.143980   1.090721
    15  H    2.968454   2.766134   2.757080   2.142778   1.092587
                   11         12         13         14         15
    11  H    0.000000
    12  H    1.805672   0.000000
    13  H    2.489574   2.530125   0.000000
    14  H    2.493416   3.085550   1.773048   0.000000
    15  H    3.098052   2.544334   1.773313   1.781728   0.000000
 Stoichiometry    C5H7O3(2)
 Framework group  C1[X(C5H7O3)]
 Deg. of freedom    39
 Full point group                 C1      NOp   1
 Largest Abelian subgroup         C1      NOp   1
 Largest concise Abelian subgroup C1      NOp   1
                         Standard orientation:                         
 ---------------------------------------------------------------------
 Center     Atomic      Atomic             Coordinates (Angstroms)
 Number     Number       Type             X           Y           Z
 ---------------------------------------------------------------------
      1          8           0        2.644266    1.763970   -0.247487
      2          1           0        1.824669    2.232085   -0.016410
      3          6           0       -3.192521    1.029817    0.403171
      4          1           0       -4.073063    1.575746    0.649913
      5          6           0       -2.202955    0.414577    0.125487
      6          6           0       -1.033586   -0.374332   -0.228017
      7          8           0       -1.078457   -1.476501   -0.693863
      8          8           0        0.095993    0.298216    0.036863
      9          6           0        1.317861   -0.371382   -0.283561
     10          6           0        1.772369   -1.294297    0.815742
     11          1           0        2.078087    0.496799   -0.384657
     12          1           0        1.242290   -0.839676   -1.265412
     13          1           0        2.754931   -1.700056    0.571213
     14          1           0        1.842090   -0.752890    1.760035
     15          1           0        1.069576   -2.123781    0.924309
 ---------------------------------------------------------------------
 Rotational constants (GHZ):           3.0215340           1.1292649           0.9006149
 Standard basis: 6-31+G (6D, 7F)
 There are   118 symmetry adapted cartesian basis functions of A   symmetry.
 There are   118 symmetry adapted basis functions of A   symmetry.
   118 basis functions,   236 primitive gaussians,   118 cartesian basis functions
    31 alpha electrons       30 beta electrons
       nuclear repulsion energy       348.4196887782 Hartrees.
 NAtoms=   15 NActive=   15 NUniq=   15 SFac= 1.00D+00 NAtFMM=   60 NAOKFM=F Big=F
 Integral buffers will be    131072 words long.
 Raffenetti 2 integral format.
 Two-electron integral symmetry is turned on.
 One-electron integrals computed using PRISM.
 NBasis=   118 RedAO= T EigKep=  1.62D-06  NBF=   118
 NBsUse=   118 1.00D-06 EigRej= -1.00D+00 NBFU=   118
 ExpMin= 4.38D-02 ExpMax= 5.48D+03 ExpMxC= 8.25D+02 IAcc=3 IRadAn=         5 AccDes= 0.00D+00
 Harris functional with IExCor= 1009 and IRadAn=       5 diagonalized for initial guess.
 HarFok:  IExCor= 1009 AccDes= 0.00D+00 IRadAn=         5 IDoV= 1 UseB2=F ITyADJ=14
 ICtDFT=  3500011 ScaDFX=  1.000000  1.000000  1.000000  1.000000
 FoFCou: FMM=F IPFlag=           0 FMFlag=      100000 FMFlg1=           0
         NFxFlg=           0 DoJE=T BraDBF=F KetDBF=T FulRan=T
         wScrn=  0.000000 ICntrl=       500 IOpCl=  0 I1Cent=   200000004 NGrid=           0
         NMat0=    1 NMatS0=      1 NMatT0=    0 NMatD0=    1 NMtDS0=    0 NMtDT0=    0
 Petite list used in FoFCou.
 Initial guess <Sx>= 0.0000 <Sy>= 0.0000 <Sz>= 0.5000 <S**2>= 0.7500 S= 0.5000
 Requested convergence on RMS density matrix=1.00D-08 within 128 cycles.
 Requested convergence on MAX density matrix=1.00D-06.
 Requested convergence on             energy=1.00D-06.
 No special actions if energy rises.
 Restarting incremental Fock formation.
 SCF Done:  E(UM062X) =  -419.951511993     A.U. after   21 cycles
            NFock= 21  Conv=0.73D-08     -V/T= 2.0049
 <Sx>= 0.0000 <Sy>= 0.0000 <Sz>= 0.5000 <S**2>= 0.7580 S= 0.5040
 <L.S>=  0.00000000000    
 Annihilation of the first spin contaminant:
 S**2 before annihilation     0.7580,   after     0.7500
 DoSCS=F DFT=T ScalE2(SS,OS)=  1.000000  1.000000
 Range of M.O.s used for correlation:     1   118
 NBasis=   118 NAE=    31 NBE=    30 NFC=     0 NFV=     0
 NROrb=    118 NOA=    31 NOB=    30 NVA=    87 NVB=    88

 **** Warning!!: The largest alpha MO coefficient is  0.22013223D+03


 **** Warning!!: The largest beta MO coefficient is  0.21320967D+03

 Symmetrizing basis deriv contribution to polar:
 IMax=3 JMax=2 DiffMx= 0.00D+00
 G2DrvN: will do    16 centers at a time, making    1 passes.
 Calling FoFCou, ICntrl=  3107 FMM=F I1Cent=   0 AccDes= 0.00D+00.
 End of G2Drv F.D. properties file   721 does not exist.
 End of G2Drv F.D. properties file   722 does not exist.
 End of G2Drv F.D. properties file   788 does not exist.
          IDoAtm=111111111111111
          Differentiating once with respect to electric field.
                with respect to dipole field.
          Differentiating once with respect to nuclear coordinates.
 Keep R1 and R2 ints in memory in canonical form, NReq=71861349.
          There are    48 degrees of freedom in the 1st order CPHF.  IDoFFX=6 NUNeed=     3.
     45 vectors produced by pass  0 Test12= 1.11D-14 2.08D-09 XBig12= 8.94D+01 3.47D+00.
 AX will form    45 AO Fock derivatives at one time.
     45 vectors produced by pass  1 Test12= 1.11D-14 2.08D-09 XBig12= 1.83D+01 7.62D-01.
     45 vectors produced by pass  2 Test12= 1.11D-14 2.08D-09 XBig12= 4.99D-01 1.03D-01.
     45 vectors produced by pass  3 Test12= 1.11D-14 2.08D-09 XBig12= 2.97D-03 6.68D-03.
     45 vectors produced by pass  4 Test12= 1.11D-14 2.08D-09 XBig12= 1.97D-05 7.34D-04.
     45 vectors produced by pass  5 Test12= 1.11D-14 2.08D-09 XBig12= 1.37D-07 4.31D-05.
     38 vectors produced by pass  6 Test12= 1.11D-14 2.08D-09 XBig12= 7.06D-10 3.25D-06.
     10 vectors produced by pass  7 Test12= 1.11D-14 2.08D-09 XBig12= 3.31D-12 1.75D-07.
      3 vectors produced by pass  8 Test12= 1.11D-14 2.08D-09 XBig12= 2.02D-14 1.30D-08.
      2 vectors produced by pass  9 Test12= 1.11D-14 2.08D-09 XBig12= 8.56D-16 4.01D-09.
 InvSVY:  IOpt=1 It=  1 EMax= 3.55D-15
 Solved reduced A of dimension   323 with    48 vectors.
 Isotropic polarizability for W=    0.000000       72.70 Bohr**3.
 End of Minotr F.D. properties file   721 does not exist.
 End of Minotr F.D. properties file   722 does not exist.
 End of Minotr F.D. properties file   788 does not exist.

 **********************************************************************

            Population analysis using the SCF density.

 **********************************************************************

 Orbital symmetries:
 Alpha Orbitals:
       Occupied  (A) (A) (A) (A) (A) (A) (A) (A) (A) (A) (A) (A)
                 (A) (A) (A) (A) (A) (A) (A) (A) (A) (A) (A) (A)
                 (A) (A) (A) (A) (A) (A) (A)
       Virtual   (A) (A) (A) (A) (A) (A) (A) (A) (A) (A) (A) (A)
                 (A) (A) (A) (A) (A) (A) (A) (A) (A) (A) (A) (A)
                 (A) (A) (A) (A) (A) (A) (A) (A) (A) (A) (A) (A)
                 (A) (A) (A) (A) (A) (A) (A) (A) (A) (A) (A) (A)
                 (A) (A) (A) (A) (A) (A) (A) (A) (A) (A) (A) (A)
                 (A) (A) (A) (A) (A) (A) (A) (A) (A) (A) (A) (A)
                 (A) (A) (A) (A) (A) (A) (A) (A) (A) (A) (A) (A)
                 (A) (A) (A)
 Beta  Orbitals:
       Occupied  (A) (A) (A) (A) (A) (A) (A) (A) (A) (A) (A) (A)
                 (A) (A) (A) (A) (A) (A) (A) (A) (A) (A) (A) (A)
                 (A) (A) (A) (A) (A) (A)
       Virtual   (A) (A) (A) (A) (A) (A) (A) (A) (A) (A) (A) (A)
                 (A) (A) (A) (A) (A) (A) (A) (A) (A) (A) (A) (A)
                 (A) (A) (A) (A) (A) (A) (A) (A) (A) (A) (A) (A)
                 (A) (A) (A) (A) (A) (A) (A) (A) (A) (A) (A) (A)
                 (A) (A) (A) (A) (A) (A) (A) (A) (A) (A) (A) (A)
                 (A) (A) (A) (A) (A) (A) (A) (A) (A) (A) (A) (A)
                 (A) (A) (A) (A) (A) (A) (A) (A) (A) (A) (A) (A)
                 (A) (A) (A) (A)
 The electronic state is 2-A.
 Alpha  occ. eigenvalues --  -19.72260 -19.69526 -19.67644 -10.74249 -10.63400
 Alpha  occ. eigenvalues --  -10.59528 -10.59200 -10.55526  -1.29474  -1.20201
 Alpha  occ. eigenvalues --   -1.14776  -0.92326  -0.88756  -0.79834  -0.72439
 Alpha  occ. eigenvalues --   -0.66354  -0.62508  -0.60583  -0.58888  -0.57564
 Alpha  occ. eigenvalues --   -0.53964  -0.50947  -0.50045  -0.47750  -0.45632
 Alpha  occ. eigenvalues --   -0.42291  -0.41021  -0.40380  -0.38383  -0.37630
 Alpha  occ. eigenvalues --   -0.36581
 Alpha virt. eigenvalues --   -0.02734   0.01753   0.02274   0.03302   0.03523
 Alpha virt. eigenvalues --    0.04207   0.04852   0.06268   0.07706   0.07936
 Alpha virt. eigenvalues --    0.08252   0.08686   0.09774   0.11065   0.12278
 Alpha virt. eigenvalues --    0.12760   0.14283   0.15547   0.16221   0.16879
 Alpha virt. eigenvalues --    0.17961   0.18838   0.19475   0.19799   0.21301
 Alpha virt. eigenvalues --    0.21570   0.22320   0.24370   0.25181   0.26889
 Alpha virt. eigenvalues --    0.27351   0.27521   0.29620   0.30636   0.31140
 Alpha virt. eigenvalues --    0.32134   0.33287   0.33435   0.35034   0.36386
 Alpha virt. eigenvalues --    0.37618   0.38342   0.39964   0.41804   0.43289
 Alpha virt. eigenvalues --    0.46001   0.57574   0.60533   0.68555   0.69601
 Alpha virt. eigenvalues --    0.71831   0.72984   0.74315   0.75321   0.76227
 Alpha virt. eigenvalues --    0.77590   0.80366   0.84521   0.86186   0.91023
 Alpha virt. eigenvalues --    0.94723   0.96934   1.02387   1.07639   1.10032
 Alpha virt. eigenvalues --    1.11741   1.12847   1.15755   1.19384   1.20931
 Alpha virt. eigenvalues --    1.22404   1.24121   1.27521   1.29021   1.31017
 Alpha virt. eigenvalues --    1.32123   1.36632   1.37980   1.42982   1.46320
 Alpha virt. eigenvalues --    1.50091   1.61430   1.70316   1.78426   1.82967
 Alpha virt. eigenvalues --    1.99073   2.03393
  Beta  occ. eigenvalues --  -19.72261 -19.68097 -19.67641 -10.74235 -10.63032
  Beta  occ. eigenvalues --  -10.59528 -10.59200 -10.55532  -1.29410  -1.20110
  Beta  occ. eigenvalues --   -1.09287  -0.91912  -0.88345  -0.79651  -0.71643
  Beta  occ. eigenvalues --   -0.65980  -0.62256  -0.59673  -0.58067  -0.55749
  Beta  occ. eigenvalues --   -0.51604  -0.50642  -0.47963  -0.46437  -0.42880
  Beta  occ. eigenvalues --   -0.40498  -0.39703  -0.38995  -0.38371  -0.37558
  Beta virt. eigenvalues --   -0.11322  -0.02700   0.01808   0.02378   0.03395
  Beta virt. eigenvalues --    0.03581   0.04341   0.04932   0.06310   0.07771
  Beta virt. eigenvalues --    0.08037   0.08328   0.08748   0.10041   0.11099
  Beta virt. eigenvalues --    0.12406   0.12851   0.14376   0.15631   0.16250
  Beta virt. eigenvalues --    0.16910   0.17995   0.18780   0.19316   0.19860
  Beta virt. eigenvalues --    0.21734   0.21946   0.22658   0.24435   0.25458
  Beta virt. eigenvalues --    0.27000   0.27525   0.27650   0.29742   0.30829
  Beta virt. eigenvalues --    0.31691   0.32399   0.33370   0.33673   0.35079
  Beta virt. eigenvalues --    0.36626   0.37689   0.38573   0.40444   0.42198
  Beta virt. eigenvalues --    0.44191   0.46183   0.57595   0.60669   0.68711
  Beta virt. eigenvalues --    0.69782   0.71911   0.73068   0.74770   0.75475
  Beta virt. eigenvalues --    0.76286   0.78103   0.80951   0.84619   0.86298
  Beta virt. eigenvalues --    0.91265   0.94843   0.97364   1.02515   1.07870
  Beta virt. eigenvalues --    1.10102   1.12887   1.13080   1.16170   1.19617
  Beta virt. eigenvalues --    1.21557   1.22019   1.24682   1.29127   1.29761
  Beta virt. eigenvalues --    1.31368   1.34862   1.37190   1.38156   1.43057
  Beta virt. eigenvalues --    1.46333   1.50025   1.61432   1.70914   1.79250
  Beta virt. eigenvalues --    1.85243   1.99084   2.03411
          Condensed to atoms (all electrons):
               1          2          3          4          5          6
     1  O    8.301676   0.173008   0.007400   0.000001   0.018910  -0.019525
     2  H    0.173008   0.415668   0.004671  -0.000000   0.005484  -0.013394
     3  C    0.007400   0.004671  23.551365   0.744088  -4.406018 -12.840714
     4  H    0.000001  -0.000000   0.744088   0.332577  -0.317323  -0.106930
     5  C    0.018910   0.005484  -4.406018  -0.317323  16.693502  -4.164776
     6  C   -0.019525  -0.013394 -12.840714  -0.106930  -4.164776  21.425866
     7  O   -0.000135   0.000215  -0.037761  -0.000327   0.212729  -0.026831
     8  O    0.035992   0.005658  -0.905143  -0.000937  -1.447720   1.582575
     9  C   -0.073751   0.024881  -0.262649  -0.000419  -0.419061   0.462763
    10  C   -0.003760  -0.006899  -0.111897  -0.000188  -0.348958   0.191530
    11  H    0.004031  -0.019129   0.010367   0.000000   0.025464  -0.012632
    12  H    0.003775  -0.000136  -0.000509  -0.000000   0.001177  -0.002761
    13  H    0.000814  -0.000005   0.000025   0.000000   0.000530   0.004411
    14  H    0.001935  -0.000051   0.002415  -0.000000   0.006309  -0.003535
    15  H   -0.000711   0.000009   0.003740   0.000000   0.006622  -0.009342
               7          8          9         10         11         12
     1  O   -0.000135   0.035992  -0.073751  -0.003760   0.004031   0.003775
     2  H    0.000215   0.005658   0.024881  -0.006899  -0.019129  -0.000136
     3  C   -0.037761  -0.905143  -0.262649  -0.111897   0.010367  -0.000509
     4  H   -0.000327  -0.000937  -0.000419  -0.000188   0.000000  -0.000000
     5  C    0.212729  -1.447720  -0.419061  -0.348958   0.025464   0.001177
     6  C   -0.026831   1.582575   0.462763   0.191530  -0.012632  -0.002761
     7  O    8.469894  -0.243506   0.008588  -0.055084  -0.000009   0.000583
     8  O   -0.243506   9.261245  -0.035899   0.112532  -0.055918  -0.040986
     9  C    0.008588  -0.035899   6.565846  -0.490922   0.274534   0.436711
    10  C   -0.055084   0.112532  -0.490922   6.116651  -0.013390  -0.084490
    11  H   -0.000009  -0.055918   0.274534  -0.013390   0.568400  -0.031108
    12  H    0.000583  -0.040986   0.436711  -0.084490  -0.031108   0.470783
    13  H   -0.000138   0.007070  -0.079098   0.410048  -0.002244  -0.000724
    14  H   -0.000428  -0.000956  -0.051073   0.390986  -0.006205   0.003348
    15  H    0.002072  -0.007515  -0.061815   0.406326   0.004371  -0.003695
              13         14         15
     1  O    0.000814   0.001935  -0.000711
     2  H   -0.000005  -0.000051   0.000009
     3  C    0.000025   0.002415   0.003740
     4  H    0.000000  -0.000000   0.000000
     5  C    0.000530   0.006309   0.006622
     6  C    0.004411  -0.003535  -0.009342
     7  O   -0.000138  -0.000428   0.002072
     8  O    0.007070  -0.000956  -0.007515
     9  C   -0.079098  -0.051073  -0.061815
    10  C    0.410048   0.390986   0.406326
    11  H   -0.002244  -0.006205   0.004371
    12  H   -0.000724   0.003348  -0.003695
    13  H    0.481793  -0.022888  -0.022886
    14  H   -0.022888   0.477261  -0.026784
    15  H   -0.022886  -0.026784   0.473458
          Atomic-Atomic Spin Densities.
               1          2          3          4          5          6
     1  O    0.887753   0.001976   0.002309   0.000000   0.004942  -0.008305
     2  H    0.001976  -0.030713  -0.001541   0.000000  -0.002800   0.004082
     3  C    0.002309  -0.001541  -0.084944  -0.001172   0.036525   0.036390
     4  H    0.000000   0.000000  -0.001172  -0.000169   0.000783   0.000566
     5  C    0.004942  -0.002800   0.036525   0.000783   0.002483  -0.055010
     6  C   -0.008305   0.004082   0.036390   0.000566  -0.055010   0.049582
     7  O    0.000621  -0.000045   0.008806   0.000007   0.002333  -0.010844
     8  O    0.041028  -0.003400   0.013082  -0.000021   0.017948  -0.031413
     9  C   -0.156210   0.006516  -0.000234  -0.000020   0.000060   0.019368
    10  C    0.045924  -0.002346   0.000497   0.000010  -0.001362  -0.012078
    11  H   -0.044446   0.001800  -0.003994   0.000000  -0.009409   0.010101
    12  H    0.003302  -0.000074   0.002284   0.000000   0.007634  -0.011216
    13  H    0.000285  -0.000001  -0.000023  -0.000000  -0.000107   0.000257
    14  H    0.001048  -0.000028   0.000617  -0.000000   0.001590  -0.002772
    15  H   -0.000489   0.000005  -0.001578  -0.000000  -0.004765   0.007061
               7          8          9         10         11         12
     1  O    0.000621   0.041028  -0.156210   0.045924  -0.044446   0.003302
     2  H   -0.000045  -0.003400   0.006516  -0.002346   0.001800  -0.000074
     3  C    0.008806   0.013082  -0.000234   0.000497  -0.003994   0.002284
     4  H    0.000007  -0.000021  -0.000020   0.000010   0.000000   0.000000
     5  C    0.002333   0.017948   0.000060  -0.001362  -0.009409   0.007634
     6  C   -0.010844  -0.031413   0.019368  -0.012078   0.010101  -0.011216
     7  O    0.000558   0.001572  -0.002540   0.002711  -0.000997   0.001767
     8  O    0.001572   0.050822  -0.127796   0.040343  -0.020794   0.007475
     9  C   -0.002540  -0.127796   0.586512  -0.103988   0.134525  -0.031915
    10  C    0.002711   0.040343  -0.103988   0.034064  -0.042003   0.016567
    11  H   -0.000997  -0.020794   0.134525  -0.042003  -0.094168   0.000723
    12  H    0.001767   0.007475  -0.031915   0.016567   0.000723  -0.000488
    13  H    0.000034   0.000322  -0.004329   0.004141  -0.000047   0.000099
    14  H    0.000193   0.001747  -0.010596   0.009091  -0.000132   0.000098
    15  H   -0.001485  -0.001629   0.013568  -0.010581  -0.000115  -0.000821
              13         14         15
     1  O    0.000285   0.001048  -0.000489
     2  H   -0.000001  -0.000028   0.000005
     3  C   -0.000023   0.000617  -0.001578
     4  H   -0.000000  -0.000000  -0.000000
     5  C   -0.000107   0.001590  -0.004765
     6  C    0.000257  -0.002772   0.007061
     7  O    0.000034   0.000193  -0.001485
     8  O    0.000322   0.001747  -0.001629
     9  C   -0.004329  -0.010596   0.013568
    10  C    0.004141   0.009091  -0.010581
    11  H   -0.000047  -0.000132  -0.000115
    12  H    0.000099   0.000098  -0.000821
    13  H    0.000535   0.000155  -0.000570
    14  H    0.000155   0.003883  -0.001836
    15  H   -0.000570  -0.001836   0.020262
 Mulliken charges and spin densities:
               1          2
     1  O   -0.449662   0.779739
     2  H    0.410021  -0.026569
     3  C    0.240622   0.007024
     4  H    0.349459  -0.000016
     5  C    0.133129   0.000845
     6  C   -0.466705  -0.004229
     7  O   -0.329861   0.002691
     8  O   -0.266491  -0.010714
     9  C   -0.298635   0.322922
    10  C   -0.512484  -0.019010
    11  H    0.253469  -0.068956
    12  H    0.248032  -0.004563
    13  H    0.223291   0.000752
    14  H    0.229666   0.003059
    15  H    0.236151   0.017026
 Sum of Mulliken charges =  -0.00000   1.00000
 Mulliken charges and spin densities with hydrogens summed into heavy atoms:
               1          2
     1  O   -0.039641   0.753170
     3  C    0.590080   0.007007
     5  C    0.133129   0.000845
     6  C   -0.466705  -0.004229
     7  O   -0.329861   0.002691
     8  O   -0.266491  -0.010714
     9  C    0.202865   0.249403
    10  C    0.176624   0.001827
 APT charges:
               1
     1  O   -0.127292
     2  H    0.311219
     3  C   -0.216952
     4  H    0.262419
     5  C   -0.300970
     6  C    1.513999
     7  O   -0.758465
     8  O   -1.029372
     9  C    0.873787
    10  C   -0.178029
    11  H   -0.421639
    12  H   -0.045047
    13  H    0.035241
    14  H    0.038005
    15  H    0.043097
 Sum of APT charges =   0.00000
 APT charges with hydrogens summed into heavy atoms:
               1
     1  O    0.183927
     3  C    0.045467
     5  C   -0.300970
     6  C    1.513999
     7  O   -0.758465
     8  O   -1.029372
     9  C    0.407100
    10  C   -0.061686
 Electronic spatial extent (au):  <R**2>=           1265.4829
 Charge=             -0.0000 electrons
 Dipole moment (field-independent basis, Debye):
    X=             -1.6054    Y=              1.0800    Z=              1.2333  Tot=              2.2945
 Quadrupole moment (field-independent basis, Debye-Ang):
   XX=            -47.0390   YY=            -48.3904   ZZ=            -48.6480
   XY=            -11.9216   XZ=             -1.7420   YZ=             -0.5595
 Traceless Quadrupole moment (field-independent basis, Debye-Ang):
   XX=              0.9868   YY=             -0.3646   ZZ=             -0.6222
   XY=            -11.9216   XZ=             -1.7420   YZ=             -0.5595
 Octapole moment (field-independent basis, Debye-Ang**2):
  XXX=            -57.8903  YYY=             18.9612  ZZZ=             -2.9325  XYY=              1.8349
  XXY=              5.3967  XXZ=             13.1835  XZZ=              4.3370  YZZ=             -0.2528
  YYZ=              7.0215  XYZ=              1.6765
 Hexadecapole moment (field-independent basis, Debye-Ang**3):
 XXXX=          -1049.2261 YYYY=           -372.6669 ZZZZ=           -124.9603 XXXY=           -150.6677
 XXXZ=            -34.0576 YYYX=              7.1034 YYYZ=              1.1183 ZZZX=              3.3168
 ZZZY=              3.4558 XXYY=           -244.6440 XXZZ=           -218.3120 YYZZ=            -92.7386
 XXYZ=             23.6180 YYXZ=             -4.6908 ZZXY=             -0.8727
 N-N= 3.484196887782D+02 E-N=-1.679062467372D+03  KE= 4.178851489679D+02
  Exact polarizability:  90.420  -0.027  80.300  -4.679   4.536  47.392
 Approx polarizability:  89.619  -7.041  88.023  -7.036  12.031  51.578
                          Isotropic Fermi Contact Couplings
        Atom                 a.u.       MegaHertz       Gauss      10(-4) cm-1
     1  O(17)              0.10874     -65.91909     -23.52157     -21.98824
     2  H(1)              -0.01356     -60.61878     -21.63029     -20.22025
     3  C(13)              0.00012       0.13382       0.04775       0.04464
     4  H(1)              -0.00000      -0.02063      -0.00736      -0.00688
     5  C(13)             -0.00022      -0.24214      -0.08640      -0.08077
     6  C(13)              0.00782       8.79007       3.13652       2.93205
     7  O(17)              0.00109      -0.65881      -0.23508      -0.21976
     8  O(17)              0.01067      -6.46684      -2.30753      -2.15711
     9  C(13)              0.12390     139.29054      49.70233      46.46232
    10  C(13)             -0.00417      -4.69338      -1.67472      -1.56554
    11  H(1)              -0.01561     -69.78677     -24.90166     -23.27836
    12  H(1)              -0.00010      -0.46319      -0.16528      -0.15450
    13  H(1)               0.00061       2.70468       0.96510       0.90218
    14  H(1)               0.00167       7.45518       2.66019       2.48678
    15  H(1)               0.00858      38.34340      13.68188      12.78998
 --------------------------------------------------------
       Center         ----  Spin Dipole Couplings  ----
                      3XX-RR        3YY-RR        3ZZ-RR
 --------------------------------------------------------
     1   Atom       -0.342522      1.734486     -1.391965
     2   Atom        0.087578      0.001049     -0.088627
     3   Atom        0.001382     -0.000910     -0.000472
     4   Atom        0.000987     -0.000471     -0.000515
     5   Atom        0.002839     -0.001043     -0.001796
     6   Atom        0.012606     -0.005383     -0.007223
     7   Atom        0.000787     -0.004555      0.003769
     8   Atom       -0.003929      0.010509     -0.006580
     9   Atom        0.009420      0.175873     -0.185293
    10   Atom       -0.010504      0.013065     -0.002561
    11   Atom       -0.016298      0.112424     -0.096126
    12   Atom       -0.017114     -0.002695      0.019808
    13   Atom       -0.001333      0.005474     -0.004141
    14   Atom       -0.005266     -0.001063      0.006329
    15   Atom       -0.002749      0.004000     -0.001251
 --------------------------------------------------------
                        XY            XZ            YZ
 --------------------------------------------------------
     1   Atom        1.842788      0.126314      0.209875
     2   Atom       -0.074697     -0.047708      0.031503
     3   Atom       -0.000077     -0.000096      0.000575
     4   Atom       -0.000186     -0.000219      0.000051
     5   Atom       -0.000167     -0.000519     -0.000110
     6   Atom        0.005912      0.003818      0.001963
     7   Atom        0.004084     -0.003484     -0.000525
     8   Atom        0.035215     -0.001863     -0.017417
     9   Atom        0.271862     -0.012244     -0.017293
    10   Atom        0.004621     -0.001538     -0.014920
    11   Atom        0.124748     -0.000809      0.006762
    12   Atom        0.010624      0.000850      0.017665
    13   Atom       -0.004309      0.002610     -0.004157
    14   Atom        0.001547      0.000533     -0.005925
    15   Atom        0.002507     -0.000306     -0.004473
 --------------------------------------------------------


 ---------------------------------------------------------------------------------
              Anisotropic Spin Dipole Couplings in Principal Axis System
 ---------------------------------------------------------------------------------

       Atom             a.u.   MegaHertz   Gauss  10(-4) cm-1        Axes

              Baa    -1.4200   102.751    36.664    34.274  0.8480 -0.4805 -0.2234
     1 O(17)  Bbb    -1.4055   101.698    36.288    33.923  0.1647 -0.1617  0.9730
              Bcc     2.8255  -204.449   -72.953   -68.197  0.5037  0.8619  0.0580
 
              Baa    -0.1028   -54.837   -19.567   -18.292  0.1778 -0.1664  0.9699
     2 H(1)   Bbb    -0.0418   -22.316    -7.963    -7.444  0.5137  0.8563  0.0527
              Bcc     0.1446    77.153    27.530    25.735  0.8393 -0.4889 -0.2377
 
              Baa    -0.0013    -0.175    -0.063    -0.058  0.0035  0.8235 -0.5673
     3 C(13)  Bbb    -0.0001    -0.012    -0.004    -0.004  0.0835  0.5651  0.8208
              Bcc     0.0014     0.187     0.067     0.062  0.9965 -0.0502 -0.0668
 
              Baa    -0.0006    -0.297    -0.106    -0.099  0.0871 -0.3674  0.9260
     4 H(1)   Bbb    -0.0005    -0.259    -0.093    -0.086  0.1681  0.9216  0.3498
              Bcc     0.0010     0.556     0.198     0.185  0.9819 -0.1252 -0.1421
 
              Baa    -0.0019    -0.251    -0.090    -0.084  0.1135  0.1525  0.9818
     5 C(13)  Bbb    -0.0010    -0.138    -0.049    -0.046  0.0216  0.9875 -0.1559
              Bcc     0.0029     0.390     0.139     0.130  0.9933 -0.0389 -0.1088
 
              Baa    -0.0085    -1.137    -0.406    -0.379 -0.0052 -0.5293  0.8484
     6 C(13)  Bbb    -0.0067    -0.899    -0.321    -0.300 -0.3424  0.7981  0.4958
              Bcc     0.0152     2.036     0.726     0.679  0.9395  0.2879  0.1854
 
              Baa    -0.0069     0.500     0.178     0.167 -0.5081  0.8524 -0.1238
     7 O(17)  Bbb     0.0001    -0.010    -0.003    -0.003  0.6082  0.4568  0.6492
              Bcc     0.0068    -0.490    -0.175    -0.164 -0.6099 -0.2545  0.7505
 
              Baa    -0.0361     2.611     0.932     0.871  0.6862 -0.6446 -0.3371
     8 O(17)  Bbb    -0.0075     0.546     0.195     0.182  0.4425  0.0021  0.8968
              Bcc     0.0436    -3.157    -1.127    -1.053  0.5773  0.7645 -0.2866
 
              Baa    -0.1917   -25.725    -9.179    -8.581  0.7998 -0.5952 -0.0780
     9 C(13)  Bbb    -0.1861   -24.967    -8.909    -8.328  0.0850 -0.0163  0.9962
              Bcc     0.3778    50.692    18.088    16.909  0.5942  0.8034 -0.0376
 
              Baa    -0.0125    -1.674    -0.597    -0.558  0.6311 -0.4733 -0.6146
    10 C(13)  Bbb    -0.0103    -1.382    -0.493    -0.461  0.7627  0.2342  0.6029
              Bcc     0.0228     3.056     1.090     1.019  0.1414  0.8492 -0.5087
 
              Baa    -0.0989   -52.774   -18.831   -17.603  0.4509 -0.2931  0.8430
    11 H(1)   Bbb    -0.0896   -47.820   -17.063   -15.951  0.7254 -0.4299 -0.5375
              Bcc     0.1885   100.594    35.894    33.554  0.5200  0.8540  0.0188
 
              Baa    -0.0244   -13.002    -4.639    -4.337  0.7996 -0.5628  0.2097
    12 H(1)   Bbb    -0.0059    -3.140    -1.120    -1.047  0.5869  0.6580 -0.4718
              Bcc     0.0303    16.142     5.760     5.384  0.1276  0.5003  0.8564
 
              Baa    -0.0060    -3.205    -1.144    -1.069 -0.3172  0.2154  0.9236
    13 H(1)   Bbb    -0.0033    -1.774    -0.633    -0.592  0.8490  0.4985  0.1753
              Bcc     0.0093     4.979     1.777     1.661 -0.4227  0.8397 -0.3410
 
              Baa    -0.0065    -3.461    -1.235    -1.154  0.7983 -0.5333 -0.2798
    14 H(1)   Bbb    -0.0031    -1.673    -0.597    -0.558  0.6019  0.6917  0.3991
              Bcc     0.0096     5.134     1.832     1.712 -0.0194 -0.4870  0.8732
 
              Baa    -0.0045    -2.426    -0.866    -0.809 -0.5947  0.5028  0.6274
    15 H(1)   Bbb    -0.0026    -1.371    -0.489    -0.457  0.7699  0.1314  0.6245
              Bcc     0.0071     3.797     1.355     1.266  0.2315  0.8544 -0.4653
 

 ---------------------------------------------------------------------------------

 Calling FoFJK, ICntrl=    100127 FMM=F ISym2X=0 I1Cent= 0 IOpClX= 1 NMat=1 NMatS=1 NMatT=0.
 Full mass-weighted force constant matrix:
 Low frequencies --- -672.0962 -458.0317 -141.7010 -122.1867  -76.8920  -69.9722
 Low frequencies ---  -49.1017    0.0008    0.0009
 ******    4 imaginary frequencies (negative Signs) ****** 
 Diagonal vibrational polarizability:
       73.7040177     231.2049444     427.3956550
 Harmonic frequencies (cm**-1), IR intensities (KM/Mole), Raman scattering
 activities (A**4/AMU), depolarization ratios for plane and unpolarized
 incident light, reduced masses (AMU), force constants (mDyne/A),
 and normal coordinates:
                      1                      2                      3
                      A                      A                      A
 Frequencies --   -672.0796              -456.6941              -127.2700
 Red. masses --      1.7117                 1.0618                 5.7666
 Frc consts  --      0.4555                 0.1305                 0.0550
 IR Inten    --    597.0217               147.8741                25.9961
  Atom  AN      X      Y      Z        X      Y      Z        X      Y      Z
     1   8     0.07   0.18   0.02    -0.02  -0.01  -0.05     0.32   0.02  -0.20
     2   1    -0.17  -0.24   0.05     0.18  -0.17   0.96     0.58   0.44  -0.13
     3   6    -0.00   0.00  -0.00    -0.00   0.00  -0.01    -0.10  -0.07  -0.00
     4   1    -0.00  -0.00  -0.00    -0.00   0.00  -0.02    -0.10  -0.06  -0.04
     5   6    -0.00   0.00   0.00    -0.00   0.00  -0.01    -0.10  -0.09   0.04
     6   6     0.01   0.00   0.01    -0.00   0.00  -0.00    -0.06  -0.03   0.02
     7   8    -0.01   0.00   0.00     0.00  -0.00   0.00    -0.00   0.07  -0.23
     8   8    -0.00   0.00  -0.01     0.00  -0.00   0.01    -0.11  -0.05   0.23
     9   6    -0.01  -0.09  -0.04    -0.00   0.00  -0.00    -0.07   0.06   0.13
    10   6    -0.03  -0.04   0.02     0.00   0.01   0.00     0.02   0.03   0.07
    11   1    -0.20  -0.70  -0.32    -0.01   0.04  -0.07    -0.17   0.04   0.11
    12   1    -0.28  -0.36   0.11    -0.00  -0.00   0.00    -0.11   0.06   0.13
    13   1    -0.02  -0.03   0.02     0.01   0.01   0.01     0.04   0.09   0.01
    14   1     0.01   0.02  -0.02    -0.00   0.01   0.01     0.03  -0.01   0.10
    15   1     0.01  -0.05   0.10     0.00   0.01   0.00     0.07  -0.01   0.06
                      4                      5                      6
                      A                      A                      A
 Frequencies --   -113.1491                18.3593                36.5027
 Red. masses --      6.4250                 3.7206                 2.8369
 Frc consts  --      0.0485                 0.0007                 0.0022
 IR Inten    --     15.6916                 4.7032                 5.7269
  Atom  AN      X      Y      Z        X      Y      Z        X      Y      Z
     1   8     0.34  -0.07   0.20     0.03  -0.09   0.01    -0.03  -0.07   0.11
     2   1     0.53   0.29   0.16     0.02  -0.11   0.01    -0.05  -0.05  -0.01
     3   6    -0.09  -0.07  -0.01     0.03  -0.10   0.24     0.03   0.10  -0.05
     4   1    -0.09  -0.09   0.01     0.05  -0.17   0.45     0.07   0.19  -0.10
     5   6    -0.08  -0.05  -0.03     0.01  -0.02  -0.00    -0.02  -0.00   0.01
     6   6    -0.06  -0.03   0.01     0.00   0.02  -0.13    -0.05  -0.05   0.01
     7   8    -0.00  -0.13   0.25    -0.01   0.03  -0.14    -0.09  -0.01  -0.06
     8   8    -0.09   0.09  -0.18     0.01   0.04  -0.18    -0.03  -0.09   0.06
     9   6    -0.07   0.11  -0.15     0.01  -0.04  -0.00    -0.04  -0.04  -0.08
    10   6    -0.04   0.12  -0.15    -0.08   0.16   0.20     0.23   0.17  -0.01
    11   1    -0.12   0.10  -0.16     0.04  -0.06  -0.11    -0.11  -0.00  -0.31
    12   1    -0.07   0.08  -0.14     0.06  -0.21   0.07    -0.18  -0.19   0.01
    13   1    -0.01   0.19  -0.14    -0.10   0.04   0.33     0.18   0.14  -0.15
    14   1    -0.09   0.11  -0.14    -0.08   0.36   0.09     0.43   0.36  -0.13
    15   1     0.01   0.07  -0.17    -0.14   0.23   0.36     0.26   0.19   0.32
                      7                      8                      9
                      A                      A                      A
 Frequencies --     96.4129               176.8207               248.3247
 Red. masses --      3.2491                 1.2281                 3.7968
 Frc consts  --      0.0178                 0.0226                 0.1379
 IR Inten    --     12.6613                 1.3774                 5.3776
  Atom  AN      X      Y      Z        X      Y      Z        X      Y      Z
     1   8    -0.00   0.11   0.01    -0.00   0.01  -0.00    -0.03  -0.11   0.01
     2   1     0.05   0.19   0.05     0.01   0.03   0.01    -0.10  -0.20  -0.06
     3   6     0.21   0.21   0.09     0.04   0.03   0.00     0.03   0.05  -0.10
     4   1     0.40   0.47   0.20     0.08   0.09   0.01     0.05   0.25  -0.45
     5   6    -0.02  -0.09  -0.04    -0.01  -0.05  -0.01    -0.00  -0.16   0.25
     6   6    -0.05  -0.13  -0.05     0.00  -0.02   0.00     0.04  -0.04   0.15
     7   8     0.02  -0.14  -0.04     0.07  -0.02  -0.00     0.17   0.06  -0.09
     8   8    -0.09  -0.06  -0.03    -0.02   0.03   0.02     0.00   0.09  -0.00
     9   6    -0.02   0.05   0.04    -0.02   0.03   0.00    -0.06  -0.00  -0.11
    10   6    -0.05   0.01   0.02    -0.05  -0.01  -0.02    -0.13   0.08  -0.02
    11   1    -0.08   0.10   0.14    -0.01   0.02   0.02    -0.01  -0.10  -0.23
    12   1     0.10   0.10   0.00    -0.03   0.05  -0.00    -0.20  -0.08  -0.05
    13   1     0.08   0.23   0.16    -0.31  -0.47  -0.28    -0.01   0.24   0.23
    14   1    -0.34  -0.09   0.09     0.47   0.07  -0.10    -0.44   0.13  -0.02
    15   1     0.09  -0.15  -0.22    -0.37   0.30   0.31    -0.02  -0.03  -0.15
                     10                     11                     12
                      A                      A                      A
 Frequencies --    272.9032               418.4593               565.1292
 Red. masses --      4.1623                 3.5863                 4.0673
 Frc consts  --      0.1826                 0.3700                 0.7653
 IR Inten    --      6.8705                 5.8399                 8.7198
  Atom  AN      X      Y      Z        X      Y      Z        X      Y      Z
     1   8    -0.05  -0.13  -0.01    -0.00   0.01   0.01    -0.04  -0.03   0.00
     2   1    -0.13  -0.23  -0.09     0.03   0.10  -0.05     0.09   0.19   0.02
     3   6     0.00   0.01   0.10     0.08  -0.07  -0.00     0.20  -0.12  -0.06
     4   1     0.08  -0.01   0.44     0.02  -0.25   0.12     0.03  -0.34  -0.19
     5   6    -0.09   0.02  -0.25     0.15   0.09  -0.10     0.30   0.06   0.05
     6   6    -0.01   0.09  -0.08     0.06  -0.03   0.01     0.03  -0.03  -0.03
     7   8     0.25   0.01   0.06    -0.06  -0.03   0.02    -0.08  -0.04  -0.02
     8   8    -0.05   0.09   0.15     0.05  -0.13   0.22    -0.11   0.14  -0.03
     9   6    -0.13  -0.04   0.01    -0.00   0.04  -0.16    -0.22   0.05   0.13
    10   6     0.04  -0.01  -0.04    -0.18   0.13  -0.06    -0.01  -0.01   0.00
    11   1    -0.10  -0.18  -0.21    -0.03   0.08  -0.21    -0.22  -0.09  -0.04
    12   1    -0.39  -0.13   0.08    -0.15   0.06  -0.15    -0.32  -0.09   0.20
    13   1     0.15   0.27  -0.08    -0.17  -0.04   0.31    -0.00   0.21  -0.37
    14   1    -0.07  -0.05  -0.01    -0.42   0.30  -0.14     0.20  -0.18   0.08
    15   1     0.26  -0.19  -0.09    -0.34   0.25  -0.10     0.19  -0.17   0.02
                     13                     14                     15
                      A                      A                      A
 Frequencies --    581.7449               644.0989               779.5455
 Red. masses --      1.7986                 2.9283                 3.1180
 Frc consts  --      0.3586                 0.7158                 1.1164
 IR Inten    --     68.3267               106.8583                70.2035
  Atom  AN      X      Y      Z        X      Y      Z        X      Y      Z
     1   8    -0.06   0.03   0.01     0.05   0.00  -0.01     0.00   0.00   0.00
     2   1     0.41   0.80   0.07    -0.34  -0.65  -0.05    -0.01  -0.02   0.02
     3   6    -0.04   0.03   0.01    -0.09   0.07   0.03     0.01   0.03  -0.07
     4   1    -0.14  -0.09  -0.04    -0.36  -0.30  -0.11    -0.01  -0.38   0.80
     5   6     0.02   0.11   0.05     0.06   0.24   0.10    -0.00   0.05  -0.14
     6   6    -0.01   0.01   0.00    -0.07  -0.09  -0.04     0.01  -0.14   0.35
     7   8     0.12   0.00  -0.00     0.14  -0.10  -0.05    -0.00   0.04  -0.08
     8   8    -0.01  -0.07  -0.05    -0.08  -0.09  -0.02    -0.00   0.04  -0.08
     9   6    -0.05  -0.12  -0.05    -0.01   0.07   0.04    -0.01  -0.01  -0.00
    10   6    -0.00  -0.04   0.02    -0.01   0.04  -0.02    -0.00  -0.01  -0.00
    11   1    -0.21   0.08  -0.00     0.08  -0.01   0.12     0.01  -0.02   0.09
    12   1    -0.03  -0.14  -0.04     0.14   0.15  -0.01     0.07   0.06  -0.04
    13   1     0.02  -0.02   0.06    -0.02   0.05  -0.08     0.01   0.04  -0.04
    14   1    -0.02   0.07  -0.04     0.03  -0.01   0.01     0.04   0.02  -0.02
    15   1     0.03  -0.05   0.12    -0.01   0.04  -0.04     0.06  -0.05   0.06
                     16                     17                     18
                      A                      A                      A
 Frequencies --    799.1560               815.3320               872.6177
 Red. masses --      1.3398                 1.4329                 1.9004
 Frc consts  --      0.5041                 0.5612                 0.8526
 IR Inten    --     28.3495                62.3163                21.5186
  Atom  AN      X      Y      Z        X      Y      Z        X      Y      Z
     1   8     0.03   0.03  -0.01    -0.00  -0.00   0.00     0.00   0.00  -0.00
     2   1    -0.09  -0.19   0.03     0.00   0.01  -0.01    -0.01  -0.01  -0.00
     3   6     0.02  -0.05  -0.01    -0.10  -0.11  -0.05    -0.00   0.06  -0.17
     4   1     0.15   0.15  -0.01     0.53   0.73   0.32     0.03  -0.36   0.89
     5   6     0.03  -0.02  -0.00     0.05   0.09   0.03     0.01  -0.06   0.15
     6   6    -0.01   0.04  -0.00     0.00  -0.02   0.01    -0.01   0.06  -0.13
     7   8     0.01   0.04   0.02     0.02  -0.01  -0.01     0.00  -0.01   0.03
     8   8    -0.01  -0.03  -0.00    -0.00  -0.02  -0.01    -0.00  -0.02   0.02
     9   6    -0.09  -0.08  -0.03     0.00   0.02   0.02    -0.00  -0.00   0.00
    10   6    -0.03  -0.02  -0.01    -0.00   0.01   0.00     0.00   0.00   0.00
    11   1     0.03  -0.02   0.51    -0.02   0.01  -0.09    -0.00   0.01   0.01
    12   1     0.18   0.36  -0.25    -0.03  -0.08   0.07    -0.01   0.01  -0.00
    13   1     0.06   0.18   0.01    -0.02  -0.01  -0.05     0.00  -0.00   0.01
    14   1     0.02   0.33  -0.21     0.01  -0.08   0.05    -0.01   0.01  -0.00
    15   1     0.18  -0.13   0.39    -0.03   0.02  -0.09    -0.01   0.01   0.01
                     19                     20                     21
                      A                      A                      A
 Frequencies --    899.3459               961.5718              1130.8712
 Red. masses --      3.4305                 2.6699                 3.2674
 Frc consts  --      1.6348                 1.4545                 2.4620
 IR Inten    --     22.8415                34.1484                49.6586
  Atom  AN      X      Y      Z        X      Y      Z        X      Y      Z
     1   8    -0.02  -0.01  -0.00    -0.02  -0.01  -0.00    -0.02  -0.02  -0.00
     2   1     0.09   0.15   0.03     0.09   0.15   0.03     0.08   0.12   0.04
     3   6    -0.08   0.02   0.01    -0.09   0.07   0.03     0.04  -0.03  -0.02
     4   1    -0.03   0.09   0.05    -0.11   0.05   0.03     0.05  -0.03  -0.01
     5   6     0.00   0.08   0.04    -0.07   0.01   0.01     0.04   0.01   0.00
     6   6     0.03  -0.12  -0.06     0.14  -0.06  -0.04    -0.12   0.01   0.01
     7   8    -0.05  -0.17  -0.07    -0.04  -0.09  -0.03     0.01   0.01   0.00
     8   8    -0.01   0.26   0.10     0.18   0.02   0.02    -0.13   0.08   0.04
     9   6     0.08  -0.01  -0.10    -0.02  -0.03   0.10     0.21  -0.20   0.13
    10   6     0.07  -0.12   0.02    -0.15   0.10  -0.07    -0.01   0.13  -0.19
    11   1     0.16  -0.10   0.08     0.11  -0.23   0.19     0.08  -0.31   0.36
    12   1    -0.17   0.29  -0.22     0.02  -0.09   0.12     0.35  -0.33   0.21
    13   1     0.16  -0.16   0.47    -0.10   0.49  -0.56    -0.02   0.01  -0.01
    14   1    -0.13   0.33  -0.21     0.18   0.05  -0.08    -0.15   0.23  -0.24
    15   1     0.05  -0.06   0.36     0.22  -0.18   0.10    -0.15   0.24  -0.24
                     22                     23                     24
                      A                      A                      A
 Frequencies --   1159.5061              1177.8622              1289.0942
 Red. masses --      2.2412                 2.0767                 1.5488
 Frc consts  --      1.7753                 1.6976                 1.5165
 IR Inten    --    148.0645               387.8990               809.6050
  Atom  AN      X      Y      Z        X      Y      Z        X      Y      Z
     1   8    -0.02  -0.02  -0.00    -0.03  -0.04  -0.00     0.03   0.04   0.01
     2   1     0.05   0.09  -0.00     0.07   0.13   0.00    -0.08  -0.12  -0.05
     3   6     0.02  -0.02  -0.01     0.00  -0.00  -0.00     0.02  -0.02  -0.01
     4   1     0.03  -0.02  -0.01     0.01   0.00   0.00     0.02  -0.02  -0.01
     5   6     0.02   0.00  -0.00    -0.00  -0.01  -0.00     0.01   0.00   0.00
     6   6    -0.06   0.01   0.00     0.02   0.02   0.01    -0.14  -0.01   0.00
     7   8     0.01   0.02   0.01     0.01   0.04   0.01     0.01  -0.01  -0.01
     8   8    -0.10   0.01   0.05    -0.04  -0.08  -0.05     0.08   0.04   0.02
     9   6     0.18   0.05  -0.16     0.10   0.18   0.11    -0.00  -0.05   0.06
    10   6    -0.11  -0.02   0.12    -0.04  -0.10  -0.09    -0.05  -0.05  -0.03
    11   1     0.17  -0.10  -0.12     0.08  -0.29  -0.27    -0.17   0.61  -0.57
    12   1     0.26  -0.07  -0.12    -0.27   0.03   0.21     0.26  -0.12   0.06
    13   1    -0.07   0.35  -0.43     0.14   0.16   0.22     0.02   0.12  -0.03
    14   1     0.37  -0.18   0.17    -0.05   0.42  -0.36    -0.01   0.15  -0.15
    15   1     0.30  -0.35   0.16     0.08  -0.10   0.44     0.06  -0.12   0.21
                     25                     26                     27
                      A                      A                      A
 Frequencies --   1325.7965              1399.7699              1426.3485
 Red. masses --      2.6799                 1.2790                 1.1275
 Frc consts  --      2.7754                 1.4765                 1.3515
 IR Inten    --    420.1962                 5.3429               322.9115
  Atom  AN      X      Y      Z        X      Y      Z        X      Y      Z
     1   8     0.01  -0.00  -0.00     0.00   0.01   0.00     0.02   0.02  -0.00
     2   1    -0.10  -0.15  -0.04     0.01   0.02  -0.01    -0.06  -0.13   0.01
     3   6    -0.05   0.03   0.02     0.01  -0.00  -0.00    -0.01   0.00   0.00
     4   1    -0.05   0.04   0.02     0.01  -0.00  -0.00    -0.01   0.01   0.00
     5   6    -0.02   0.00   0.00     0.00   0.00   0.00    -0.00   0.00  -0.00
     6   6     0.31   0.01  -0.01    -0.03   0.01   0.00     0.04   0.00   0.01
     7   8    -0.03   0.02   0.01     0.00   0.00  -0.00    -0.00  -0.00  -0.00
     8   8    -0.17   0.00   0.00    -0.00  -0.01  -0.03    -0.03  -0.00  -0.01
     9   6     0.04  -0.08   0.04     0.08  -0.10   0.07     0.04  -0.02  -0.03
    10   6    -0.02  -0.01  -0.02    -0.02   0.03   0.04    -0.01  -0.04   0.02
    11   1    -0.56   0.34  -0.40     0.03   0.04  -0.25     0.13   0.54   0.35
    12   1     0.44   0.14  -0.11    -0.59   0.66  -0.25    -0.52  -0.39   0.20
    13   1    -0.01   0.00   0.01    -0.05   0.06  -0.17     0.02   0.13  -0.12
    14   1    -0.00   0.05  -0.05     0.05   0.03   0.02     0.01   0.17  -0.11
    15   1     0.02  -0.03   0.04    -0.01   0.00  -0.19    -0.07  -0.01  -0.06
                     28                     29                     30
                      A                      A                      A
 Frequencies --   1454.4992              1520.3803              1526.7068
 Red. masses --      1.2370                 1.0428                 1.0461
 Frc consts  --      1.5419                 1.4202                 1.4366
 IR Inten    --     84.8911                22.5323                 7.9787
  Atom  AN      X      Y      Z        X      Y      Z        X      Y      Z
     1   8     0.01   0.01   0.00    -0.00  -0.00  -0.00     0.00   0.00   0.00
     2   1    -0.02  -0.03  -0.00    -0.00  -0.00   0.00     0.00   0.01  -0.00
     3   6    -0.00   0.00   0.00     0.00  -0.00  -0.00    -0.00   0.00   0.00
     4   1    -0.00   0.00   0.00     0.00  -0.00  -0.00    -0.00   0.00   0.00
     5   6    -0.00  -0.00   0.00     0.00  -0.00   0.00     0.00   0.00  -0.00
     6   6     0.01   0.00  -0.00    -0.00   0.00   0.00     0.00   0.00   0.00
     7   8     0.00   0.00   0.00    -0.00  -0.00  -0.00     0.00   0.00  -0.00
     8   8    -0.01  -0.00  -0.01     0.01   0.00   0.00    -0.01  -0.00   0.00
     9   6     0.02  -0.03   0.01    -0.01  -0.01  -0.00     0.01  -0.02  -0.01
    10   6    -0.05   0.09  -0.10    -0.04  -0.03  -0.01     0.03  -0.02  -0.04
    11   1     0.05   0.17   0.07    -0.08  -0.02   0.04     0.06   0.01  -0.03
    12   1    -0.23  -0.03   0.03     0.02   0.02  -0.02    -0.05   0.04  -0.04
    13   1    -0.05  -0.27   0.46     0.27   0.42   0.44     0.15   0.38  -0.15
    14   1     0.19  -0.45   0.21     0.62  -0.08  -0.02    -0.30  -0.40   0.22
    15   1     0.36  -0.22   0.37    -0.27   0.17  -0.23    -0.34   0.36   0.50
                     31                     32                     33
                      A                      A                      A
 Frequencies --   1632.7292              1913.8105              2333.1812
 Red. masses --      1.1847                12.3844                 5.5499
 Frc consts  --      1.8607                26.7253                17.8004
 IR Inten    --    468.6768               284.9036                78.8908
  Atom  AN      X      Y      Z        X      Y      Z        X      Y      Z
     1   8     0.01   0.03   0.01     0.00   0.00   0.00    -0.00  -0.00   0.00
     2   1     0.05   0.06  -0.00    -0.00  -0.01  -0.00     0.00   0.00   0.00
     3   6    -0.01   0.00   0.00     0.07  -0.04  -0.02    -0.30   0.19   0.09
     4   1    -0.01   0.01   0.00     0.10  -0.05  -0.02    -0.63   0.39   0.18
     5   6     0.00  -0.00  -0.00    -0.05   0.01   0.00     0.43  -0.27  -0.12
     6   6     0.04  -0.01  -0.00     0.02   0.73   0.31    -0.07   0.06   0.03
     7   8    -0.00   0.01   0.01    -0.01  -0.49  -0.21    -0.00  -0.01  -0.00
     8   8    -0.05  -0.01   0.00    -0.04  -0.04  -0.02    -0.01  -0.00  -0.00
     9   6    -0.08  -0.05   0.02    -0.02   0.01   0.01     0.00   0.00   0.00
    10   6     0.00  -0.00  -0.00     0.01  -0.00  -0.01    -0.00   0.00  -0.00
    11   1     0.92   0.05  -0.33     0.17  -0.01  -0.08    -0.00  -0.01  -0.00
    12   1     0.14  -0.04  -0.01     0.11   0.00   0.02     0.00   0.00  -0.00
    13   1     0.02  -0.00   0.06    -0.01  -0.05   0.03     0.00  -0.00  -0.00
    14   1     0.05   0.03  -0.03    -0.03   0.01  -0.01    -0.00  -0.00   0.00
    15   1    -0.02  -0.01  -0.06     0.03  -0.01   0.03     0.00  -0.00   0.00
                     34                     35                     36
                      A                      A                      A
 Frequencies --   3101.0430              3164.3634              3185.2531
 Red. masses --      1.0348                 1.0846                 1.1000
 Frc consts  --      5.8628                 6.3989                 6.5757
 IR Inten    --      5.8217                 6.0580                 5.0630
  Atom  AN      X      Y      Z        X      Y      Z        X      Y      Z
     1   8    -0.00  -0.00  -0.00     0.00   0.00   0.00     0.00  -0.00   0.00
     2   1     0.00   0.00   0.00     0.00   0.00  -0.00    -0.00   0.00  -0.00
     3   6    -0.00   0.00   0.00    -0.00  -0.00   0.00     0.00  -0.00   0.00
     4   1     0.00  -0.00  -0.00    -0.00   0.00   0.00    -0.00  -0.00   0.00
     5   6     0.00  -0.00  -0.00     0.00   0.00  -0.00    -0.00   0.00   0.00
     6   6    -0.00  -0.00  -0.00    -0.00  -0.00  -0.00     0.00  -0.00  -0.00
     7   8    -0.00   0.00  -0.00    -0.00   0.00   0.00    -0.00   0.00  -0.00
     8   8     0.00   0.00   0.00     0.00  -0.00  -0.00     0.00  -0.00   0.00
     9   6    -0.00   0.00  -0.00    -0.01  -0.03  -0.07    -0.00  -0.01  -0.01
    10   6     0.01  -0.04   0.03     0.00   0.02   0.02    -0.08  -0.04  -0.01
    11   1     0.01   0.01  -0.00     0.00  -0.00  -0.02     0.01   0.01  -0.00
    12   1     0.00  -0.00  -0.00     0.07   0.42   0.86     0.01   0.07   0.14
    13   1    -0.46   0.19   0.12     0.07  -0.02  -0.02     0.48  -0.21  -0.13
    14   1    -0.03  -0.28  -0.46    -0.01  -0.12  -0.21     0.01   0.19   0.35
    15   1     0.43   0.50  -0.06    -0.09  -0.10   0.02     0.46   0.55  -0.07
                     37                     38                     39
                      A                      A                      A
 Frequencies --   3199.4015              3532.3145              3807.8780
 Red. masses --      1.1005                 1.1794                 1.0662
 Frc consts  --      6.6371                 8.6704                 9.1083
 IR Inten    --     11.4708                55.0458                19.0053
  Atom  AN      X      Y      Z        X      Y      Z        X      Y      Z
     1   8     0.00   0.00   0.00     0.00  -0.00  -0.00    -0.05   0.03   0.01
     2   1     0.00   0.00  -0.00    -0.00  -0.00   0.00     0.83  -0.49  -0.24
     3   6    -0.00   0.00   0.00    -0.10   0.06   0.03    -0.00   0.00   0.00
     4   1    -0.00   0.00  -0.00     0.82  -0.51  -0.23     0.00  -0.00  -0.00
     5   6     0.00   0.00  -0.00     0.03  -0.02  -0.01    -0.00   0.00  -0.00
     6   6    -0.00  -0.00  -0.00    -0.00   0.00   0.00     0.00  -0.00   0.00
     7   8    -0.00   0.00   0.00     0.00   0.00   0.00    -0.00   0.00   0.00
     8   8    -0.00   0.00   0.00    -0.00  -0.00  -0.00    -0.00   0.00   0.00
     9   6    -0.00  -0.01  -0.02    -0.00  -0.00   0.00     0.00   0.00  -0.00
    10   6     0.04  -0.05  -0.06     0.00   0.00  -0.00    -0.00  -0.00   0.00
    11   1     0.00   0.00  -0.00     0.00   0.00   0.00    -0.02  -0.01   0.00
    12   1     0.02   0.10   0.22     0.00  -0.00   0.00    -0.00  -0.00   0.00
    13   1    -0.60   0.24   0.14     0.00  -0.00   0.00     0.00  -0.00  -0.00
    14   1     0.06   0.35   0.61    -0.00   0.00   0.00     0.00   0.00   0.00
    15   1     0.05   0.03  -0.02    -0.00   0.00  -0.00     0.00  -0.00   0.00

 -------------------
 - Thermochemistry -
 -------------------
 Temperature   298.150 Kelvin.  Pressure   1.00000 Atm.
 Atom     1 has atomic number  8 and mass  15.99491
 Atom     2 has atomic number  1 and mass   1.00783
 Atom     3 has atomic number  6 and mass  12.00000
 Atom     4 has atomic number  1 and mass   1.00783
 Atom     5 has atomic number  6 and mass  12.00000
 Atom     6 has atomic number  6 and mass  12.00000
 Atom     7 has atomic number  8 and mass  15.99491
 Atom     8 has atomic number  8 and mass  15.99491
 Atom     9 has atomic number  6 and mass  12.00000
 Atom    10 has atomic number  6 and mass  12.00000
 Atom    11 has atomic number  1 and mass   1.00783
 Atom    12 has atomic number  1 and mass   1.00783
 Atom    13 has atomic number  1 and mass   1.00783
 Atom    14 has atomic number  1 and mass   1.00783
 Atom    15 has atomic number  1 and mass   1.00783
 Molecular mass:   115.03952 amu.
 Principal axes and moments of inertia in atomic units:
                           1         2         3
     Eigenvalues --   597.293041598.155692003.89888
           X            0.99928  -0.03794   0.00281
           Y            0.03799   0.99905  -0.02137
           Z           -0.00200   0.02146   0.99977
 This molecule is an asymmetric top.
 Rotational symmetry number  1.
 Warning -- assumption of classical behavior for rotation
           may cause significant error
 Rotational temperatures (Kelvin)      0.14501     0.05420     0.04322
 Rotational constants (GHZ):           3.02153     1.12926     0.90061
    4 imaginary frequencies ignored.
 Zero-point vibrational energy     283916.5 (Joules/Mol)
                                   67.85768 (Kcal/Mol)
 Warning -- explicit consideration of   9 degrees of freedom as
           vibrations may cause significant error
 Vibrational temperatures:     26.41    52.52   138.72   254.41   357.28
          (Kelvin)            392.65   602.07   813.09   837.00   926.71
                             1121.59  1149.81  1173.08  1255.50  1293.96
                             1383.49  1627.07  1668.27  1694.68  1854.72
                             1907.53  2013.96  2052.20  2092.70  2187.49
                             2196.59  2349.13  2753.55  3356.93  4461.71
                             4552.81  4582.87  4603.23  5082.21  5478.69
 
 Zero-point correction=                           0.108138 (Hartree/Particle)
 Thermal correction to Energy=                    0.116309
 Thermal correction to Enthalpy=                  0.117253
 Thermal correction to Gibbs Free Energy=         0.071835
 Sum of electronic and zero-point Energies=           -419.843374
 Sum of electronic and thermal Energies=              -419.835203
 Sum of electronic and thermal Enthalpies=            -419.834259
 Sum of electronic and thermal Free Energies=         -419.879677
 
                     E (Thermal)             CV                S
                      KCal/Mol        Cal/Mol-Kelvin    Cal/Mol-Kelvin
 Total                   72.985             26.704             95.589
 Electronic               0.000              0.000              1.377
 Translational            0.889              2.981             40.136
 Rotational               0.889              2.981             29.038
 Vibrational             71.207             20.743             25.038
 Vibration     1          0.593              1.986              6.804
 Vibration     2          0.594              1.982              5.440
 Vibration     3          0.603              1.952              3.526
 Vibration     4          0.628              1.871              2.362
 Vibration     5          0.662              1.766              1.742
 Vibration     6          0.676              1.723              1.578
 Vibration     7          0.781              1.430              0.897
 Vibration     8          0.921              1.107              0.514
 Vibration     9          0.939              1.071              0.482
                       Q            Log10(Q)             Ln(Q)
 Total Bot       0.908010D-33        -33.041909        -76.081808
 Total V=0       0.499016D+17         16.698115         38.448830
 Vib (Bot)       0.189082D-46        -46.723350       -107.584490
 Vib (Bot)    1  0.112835D+02          1.052443          2.423340
 Vib (Bot)    2  0.566964D+01          0.753555          1.735125
 Vib (Bot)    3  0.213008D+01          0.328396          0.756160
 Vib (Bot)    4  0.113714D+01          0.055812          0.128512
 Vib (Bot)    5  0.786575D+00         -0.104260         -0.240068
 Vib (Bot)    6  0.707115D+00         -0.150510         -0.346561
 Vib (Bot)    7  0.420102D+00         -0.376645         -0.867257
 Vib (Bot)    8  0.273645D+00         -0.562812         -1.295923
 Vib (Bot)    9  0.261481D+00         -0.582559         -1.341392
 Vib (V=0)       0.103914D+04          3.016673          6.946147
 Vib (V=0)    1  0.117946D+02          1.071682          2.467638
 Vib (V=0)    2  0.619164D+01          0.791806          1.823200
 Vib (V=0)    3  0.268798D+01          0.429426          0.988789
 Vib (V=0)    4  0.174221D+01          0.241100          0.555152
 Vib (V=0)    5  0.143204D+01          0.155955          0.359100
 Vib (V=0)    6  0.136603D+01          0.135461          0.311911
 Vib (V=0)    7  0.115306D+01          0.061851          0.142418
 Vib (V=0)    8  0.106998D+01          0.029377          0.067644
 Vib (V=0)    9  0.106425D+01          0.027042          0.062266
 Electronic      0.200000D+01          0.301030          0.693147
 Translational   0.484981D+08          7.685724         17.697035
 Rotational      0.495093D+06          5.694687         13.112501
 ***** Axes restored to original set *****
 -------------------------------------------------------------------
 Center     Atomic                   Forces (Hartrees/Bohr)
 Number     Number              X              Y              Z
 -------------------------------------------------------------------
      1        8           0.015765799    0.000055724   -0.002862979
      2        1          -0.013700899    0.011063616    0.004654520
      3        6          -0.017513445    0.011344627    0.005091814
      4        1          -0.000811622    0.000269814    0.000138017
      5        6           0.020992437   -0.013335977   -0.006006778
      6        6          -0.030368320    0.041970820    0.018625961
      7        8           0.001584560   -0.046455640   -0.019768668
      8        8           0.006001675    0.012574685    0.004883659
      9        6           0.019893504   -0.003025131   -0.004538640
     10        6          -0.000537403   -0.001116389    0.000059950
     11        1          -0.001806755   -0.009774504   -0.001607272
     12        1          -0.000410352   -0.001578708   -0.000930831
     13        1           0.001152994   -0.000763101    0.000194834
     14        1           0.000185244    0.000410800    0.001190607
     15        1          -0.000427419   -0.001640635    0.000875807
 -------------------------------------------------------------------
 Cartesian Forces:  Max     0.046455640 RMS     0.013370418

 GradGradGradGradGradGradGradGradGradGradGradGradGradGradGradGradGradGrad
 Berny optimization.
 Search for a local minimum.
 Step number   1 out of a maximum of    2
 All quantities printed in internal units (Hartrees-Bohrs-Radians)
 Second derivative matrix not updated -- analytic derivatives used.
 ITU=  0
     Eigenvalues ---   -0.06661  -0.01232  -0.00685  -0.00268  -0.00024
     Eigenvalues ---    0.00010   0.00101   0.00233   0.01120   0.01744
     Eigenvalues ---    0.02507   0.03307   0.03951   0.05677   0.06646
     Eigenvalues ---    0.07754   0.08157   0.09438   0.09918   0.10966
     Eigenvalues ---    0.11154   0.12878   0.16077   0.18277   0.21187
     Eigenvalues ---    0.28232   0.31060   0.40101   0.47804   0.55622
     Eigenvalues ---    0.69395   0.75175   0.79504   0.83676   0.90939
     Eigenvalues ---    0.92970   0.96520   1.87168   2.89338
 Eigenvalue     1 is  -6.66D-02 should be greater than     0.000000 Eigenvector:
                          Y11       Y1        X1        X11       Y12
   1                    0.61513  -0.58631  -0.29990   0.22367   0.19277
                          Z11       X12       Y10       X2        Y15
   1                    0.11979   0.11319   0.10470   0.08303   0.08020
 Eigenvalue     2 is  -1.23D-02 should be greater than     0.000000 Eigenvector:
                          Z2        Z1        Z7        Z8        Y2
   1                    0.76936  -0.46551  -0.20886   0.17825  -0.13948
                          X2        Y7        Z9        Z12       X1
   1                    0.12716   0.09665   0.09493   0.09449  -0.09000
 Eigenvalue     3 is  -6.85D-03 should be greater than     0.000000 Eigenvector:
                          Z7        Z2        Z8        Y7        Z1
   1                    0.56148   0.47605  -0.33683  -0.22571   0.21030
                          Z15       Z12       Z9        Y2        Y8
   1                   -0.18376  -0.17148  -0.16408  -0.13959   0.13847
 Eigenvalue     4 is  -2.68D-03 should be greater than     0.000000 Eigenvector:
                          X2        X1        Y2        X11       Y13
   1                    0.69070   0.43713   0.33353  -0.16124   0.13745
                          X3        X4        X8        X5        X12
   1                   -0.12527  -0.12493  -0.12443  -0.11821  -0.11070
 Eigenvalue     5 is  -2.41D-04 should be greater than     0.000000 Eigenvector:
                          Y14       Z15       Z11       Z1        Y12
   1                    0.43093   0.35516  -0.33406   0.27368  -0.26549
                          X14       Y15       Y10       Y2        Z7
   1                    0.26012   0.22719   0.18924  -0.17131  -0.16721
 Quadratic step=1.362D+00 exceeds max=3.000D-01 adjusted using Lamda=-5.287D-03.
 Angle between NR and scaled steps=  63.58 degrees.
 Angle between quadratic step and forces=  69.29 degrees.
 Linear search not attempted -- first point.
 B after Tr=    -0.003577    0.001108   -0.003012
         Rot=    1.000000   -0.000206    0.000040   -0.000568 Ang=  -0.07 deg.
 Variable       Old X    -DE/DX   Delta X   Delta X   Delta X     New X
                                 (Linear)    (Quad)   (Total)
    X1        5.10667   0.01577   0.00000   0.09664   0.08919   5.19586
    Y1        3.31571   0.00006   0.00000   0.11777   0.12497   3.44068
    Z1       -0.43127  -0.00286   0.00000  -0.00270  -0.00388  -0.43515
    X2        3.55779  -0.01370   0.00000   0.07089   0.06239   3.62018
    Y2        4.20021   0.01106   0.00000   0.13051   0.13572   4.33593
    Z2        0.00540   0.00465   0.00000   0.02418   0.02323   0.02864
    X3       -5.92316  -0.01751   0.00000  -0.03643  -0.04229  -5.96545
    Y3        1.92758   0.01134   0.00000   0.02881   0.02281   1.95039
    Z3        0.79830   0.00509   0.00000   0.00845   0.00576   0.80406
    X4       -7.58722  -0.00081   0.00000  -0.02534  -0.03243  -7.61965
    Y4        2.95912   0.00027   0.00000   0.04605   0.03797   2.99710
    Z4        1.26457   0.00014   0.00000   0.01732   0.01494   1.27951
    X5       -4.05307   0.02099   0.00000  -0.04603  -0.05048  -4.10355
    Y5        0.76508  -0.01334   0.00000  -0.01575  -0.01941   0.74567
    Z5        0.27355  -0.00601   0.00000  -0.00556  -0.00859   0.26496
    X6       -1.84318  -0.03037   0.00000  -0.06773  -0.07044  -1.91362
    Y6       -0.72559   0.04197   0.00000  -0.00855  -0.00945  -0.73504
    Z6       -0.39447   0.01863   0.00000   0.00411   0.00065  -0.39383
    X7       -1.92782   0.00158   0.00000  -0.03514  -0.03535  -1.96318
    Y7       -2.80839  -0.04646   0.00000  -0.05865  -0.05924  -2.86763
    Z7       -1.27480  -0.01977   0.00000  -0.01570  -0.02005  -1.29485
    X8        0.29133   0.00600   0.00000  -0.02069  -0.02489   0.26644
    Y8        0.54550   0.01257   0.00000  -0.00850  -0.00713   0.53837
    Z8        0.10608   0.00488   0.00000  -0.00536  -0.00812   0.09795
    X9        2.60041   0.01989   0.00000   0.04987   0.04718   2.64759
    Y9       -0.71970  -0.00303   0.00000  -0.01915  -0.01482  -0.73452
    Z9       -0.49944  -0.00454   0.00000  -0.01504  -0.01814  -0.51758
   X10        3.45943  -0.00054   0.00000   0.01344   0.01257   3.47201
   Y10       -2.46369  -0.00112   0.00000  -0.03023  -0.02583  -2.48952
   Z10        1.57794   0.00006   0.00000   0.00677   0.00301   1.58095
   X11        4.03692  -0.00181   0.00000  -0.03612  -0.04055   3.99636
   Y11        0.92103  -0.00977   0.00000  -0.12493  -0.11899   0.80204
   Z11       -0.69048  -0.00161   0.00000  -0.00274  -0.00510  -0.69558
   X12        2.45767  -0.00041   0.00000   0.02144   0.01991   2.47757
   Y12       -1.60466  -0.00158   0.00000  -0.02712  -0.02222  -1.62687
   Z12       -2.35487  -0.00093   0.00000  -0.01048  -0.01397  -2.36883
   X13        5.31626   0.00115   0.00000   0.03183   0.03184   5.34810
   Y13       -3.23034  -0.00076   0.00000  -0.01204  -0.00531  -3.23565
   Z13        1.11585   0.00019   0.00000   0.02534   0.02142   1.13727
   X14        3.59111   0.00019   0.00000   0.00815   0.00595   3.59707
   Y14       -1.44057   0.00041   0.00000  -0.01023  -0.00641  -1.44699
   Z14        3.36240   0.00119   0.00000   0.00266  -0.00066   3.36173
   X15        2.13146  -0.00043   0.00000   0.02650   0.02740   2.15885
   Y15       -4.03128  -0.00164   0.00000  -0.03549  -0.03267  -4.06395
   Z15        1.78311   0.00088   0.00000   0.01403   0.00952   1.79262
         Item               Value     Threshold  Converged?
 Maximum Force            0.046456     0.000450     NO 
 RMS     Force            0.013370     0.000300     NO 
 Maximum Displacement     0.135725     0.001800     NO 
 RMS     Displacement     0.044586     0.001200     NO 
 Predicted change in Energy=-7.470409D-03
 GradGradGradGradGradGradGradGradGradGradGradGradGradGradGradGradGradGrad


 ----------------------------------------------------------------------

 Electric dipole moment (input orientation):
 (Debye = 10**-18 statcoulomb cm , SI units = C m)
                  (au)            (Debye)         (10**-30 SI)
   Tot        0.902707D+00      0.229445D+01      0.765347D+01
   x         -0.631635D+00     -0.160546D+01     -0.535523D+01
   y          0.424846D+00      0.107985D+01      0.360200D+01
   z          0.485204D+00      0.123327D+01      0.411373D+01

 Dipole polarizability, Alpha (input orientation).
 (esu units = cm**3 , SI units = C**2 m**2 J**-1)
 Alpha(0;0):
               (au)            (10**-24 esu)      (10**-40 SI)
   iso        0.727041D+02      0.107736D+02      0.119873D+02
   aniso      0.405683D+02      0.601160D+01      0.668881D+01
   xx         0.904204D+02      0.133989D+02      0.149083D+02
   yx        -0.262828D-01     -0.389471D-02     -0.433345D-02
   yy         0.802997D+02      0.118992D+02      0.132396D+02
   zx        -0.467939D+01     -0.693413D+00     -0.771526D+00
   zy         0.453551D+01      0.672094D+00      0.747805D+00
   zz         0.473922D+02      0.702280D+01      0.781392D+01

 ----------------------------------------------------------------------

 Dipole orientation:
     8          3.88893034          4.13477878         -2.24451287
     1          3.32826513          4.35459410         -0.50975773
     6         -3.06556912          0.00552746          5.48078018
     1         -3.65252897          0.31259767          7.38124074
     6         -2.40714615         -0.34199031          3.34308841
     6         -1.68767056         -0.83018349          0.73617695
     8         -2.80743925         -2.21674939         -0.65800850
     8          0.38961793          0.47938458          0.10990015
     6          1.26873359          0.17600696         -2.42670254
     6          2.93423928         -2.11044347         -2.73196420
     1          2.46554482          1.97795372         -2.76234255
     1         -0.31636753          0.26119776         -3.74060537
     1          3.71224895         -2.15145860         -4.64039281
     1          4.49173034         -2.04634185         -1.38344345
     1          1.83694061         -3.83318957         -2.43025413

 Electric dipole moment (dipole orientation):
 (Debye = 10**-18 statcoulomb cm , SI units = C m)
                  (au)            (Debye)         (10**-30 SI)
   Tot        0.902707D+00      0.229445D+01      0.765347D+01
   x          0.000000D+00      0.000000D+00      0.000000D+00
   y          0.000000D+00      0.000000D+00      0.000000D+00
   z          0.902707D+00      0.229445D+01      0.765347D+01

 Dipole polarizability, Alpha (dipole orientation).
 (esu units = cm**3 , SI units = C**2 m**2 J**-1)
 Alpha(0;0):
               (au)            (10**-24 esu)      (10**-40 SI)
   iso        0.727041D+02      0.107736D+02      0.119873D+02
   aniso      0.405683D+02      0.601160D+01      0.668881D+01
   xx         0.657783D+02      0.974733D+01      0.108454D+02
   yx         0.153565D+02      0.227560D+01      0.253195D+01
   yy         0.707547D+02      0.104848D+02      0.116659D+02
   zx        -0.146149D+02     -0.216570D+01     -0.240967D+01
   zy         0.582316D+01      0.862904D+00      0.960110D+00
   zz         0.815794D+02      0.120888D+02      0.134506D+02

 ----------------------------------------------------------------------
 1\1\GINC-AJ\Freq\UM062X\6-31+G\C5H7O3(2)\AAYUSH\20-Jun-2025\0\\# freq 
 6-31+g m062x\\Title Card Required\\0,2\O,2.702334,1.754598,-0.228217\H
 ,1.882704,2.222655,0.00286\C,-3.134402,1.020033,0.422441\H,-4.014982,1
 .5659,0.669183\C,-2.144792,0.404863,0.144757\C,-0.975368,-0.383964,-0.
 208747\O,-1.020161,-1.486136,-0.674593\O,0.154164,0.288664,0.056133\C,
 1.376079,-0.380848,-0.264291\C,1.830652,-1.303731,0.835012\H,2.136244,
 0.487387,-0.365387\H,1.300541,-0.849147,-1.246142\H,2.813243,-1.709421
 ,0.590483\H,1.900335,-0.762319,1.779305\H,1.127918,-2.133264,0.943579\
 \Version=ES64L-G16RevA.03\State=2-A\HF=-419.951512\S2=0.757973\S2-1=0.
 \S2A=0.750033\RMSD=7.332e-09\RMSF=1.337e-02\ZeroPoint=0.1081381\Therma
 l=0.1163087\Dipole=-0.6316351,0.4248464,0.4852044\DipoleDeriv=-0.08609
 25,0.2251972,-0.0673404,0.2491908,0.2018164,0.0198944,-0.0193972,0.108
 1313,-0.497599,0.1374666,0.0617037,0.0665055,0.2283979,0.4316511,-0.04
 21604,0.0833022,-0.0085073,0.3645388,-0.2369431,-0.0144871,-0.0049616,
 0.0144069,-0.2034225,0.0021024,0.0008126,0.0029964,-0.2104908,0.270416
 3,0.0054989,0.002219,-0.0020727,0.2625571,0.005034,-0.0002807,0.005603
 6,0.254283,-0.5676738,0.2036372,0.0970786,0.256398,-0.2462232,-0.08720
 58,0.1248227,-0.090105,-0.0890126,2.4722417,-0.0075968,-0.006769,0.239
 4155,1.4559466,0.4865857,0.1508205,0.4968003,0.6138083,-0.794774,0.052
 7931,0.0219946,-0.1488372,-1.0005736,-0.296626,-0.0907136,-0.2931421,-
 0.4800488,-2.0684135,-0.3236128,-0.1163735,-0.1473868,-0.5979926,-0.08
 28415,-0.0908397,-0.0650441,-0.4217092,1.3721267,0.6583555,-0.0105177,
 0.1239531,0.9197574,-0.1030522,-0.2184021,-0.283166,0.3294756,-0.21538
 07,-0.1904585,0.0204129,-0.0419017,-0.2544002,0.0973068,-0.0160203,0.1
 023043,-0.0643071,-0.36682,-0.647275,0.0383874,-0.75624,-1.0517807,0.0
 946832,-0.026877,-0.0442563,0.1536832,-0.0443574,-0.0790459,-0.0733693
 ,0.0035537,-0.0447933,-0.0332823,0.0594782,0.0585243,-0.0459904,-0.060
 4202,0.0843077,0.0254752,0.0752861,0.0928168,0.0020675,0.0399033,-0.02
 17175,0.0733273,0.1194058,0.022799,0.0016316,-0.0024801,0.0403446,-0.0
 960218,-0.0233857,-0.0360346,-0.0457346,0.0692181,-0.0518162,0.0056267
 ,-0.0916834,-0.0057039,0.033516,0.0267767,0.0676128,0.0657762\Polar=90
 .4204444,-0.0262828,80.2997169,-4.6793853,4.5355143,47.392189\Quadrupo
 le=0.7349168,-0.2723226,-0.4625942,-8.8633616,-1.2951058,-0.4160916\PG
 =C01 [X(C5H7O3)]\NImag=4\\0.37860844,-0.20502151,0.12668390,-0.1064583
 2,0.05989541,0.02317900,-0.36847369,0.21722147,0.10607580,0.36701652,0
 .19594632,-0.12576595,-0.05881862,-0.20877128,0.13776306,0.10216159,-0
 .06270307,-0.02369770,-0.10436296,0.06363460,0.02273076,0.00007437,0.0
 0023908,0.00006509,0.00002251,0.00029562,0.00002450,1.14609566,-0.0000
 8563,-0.00015519,-0.00003990,0.00006902,-0.00022817,-0.00001831,-0.672
 57921,0.48559789,-0.00002133,-0.00009237,0.00005504,0.00001831,-0.0000
 7573,-0.00011223,-0.30396642,0.18509218,0.16107540,0.00000716,-0.00004
 172,-0.00001662,-0.00005188,-0.00005509,0.00000501,-0.30704208,0.16979
 245,0.07674272,0.29550064,0.00002711,0.00004325,0.00001440,-0.00000599
 ,0.00009161,0.00000441,0.16973401,-0.13886005,-0.04634772,-0.17142702,
 0.12525011,-0.00000820,0.00001938,-0.00004571,0.00001539,0.00001125,0.
 00006009,0.07668514,-0.04633034,-0.05803857,-0.07751106,0.04760023,0.0
 4201970,0.00018270,0.00057690,0.00009289,0.00002696,0.00059030,0.00009
 645,-0.84445659,0.49837623,0.22523178,0.01101087,-0.00076495,-0.000261
 98,1.11186964,-0.00007844,-0.00022861,-0.00006634,-0.00002324,-0.00025
 550,-0.00003426,0.49985194,-0.35729130,-0.13646335,-0.00051360,0.01125
 492,-0.00124483,-0.61611710,0.51385158,0.00000166,0.00004756,-0.000001
 91,-0.00006300,-0.00003823,0.00002132,0.22581784,-0.13639272,-0.117756
 46,-0.00019677,-0.00124334,0.01375304,-0.27889060,0.18613939,0.1832845
 1,-0.00046374,-0.00371243,-0.00088319,-0.00101475,-0.00451526,-0.00040
 751,0.01165121,0.00187340,0.00090835,-0.00030152,0.00288189,0.00128080
 ,-0.21695663,0.09022271,0.04024016,0.62814807,0.00034404,-0.00032782,0
 .00007188,-0.00098847,-0.00103613,-0.00024692,0.00113702,0.01046460,-0
 .00361894,0.00214902,0.00241332,-0.00059357,0.08451136,-0.13152425,-0.
 01187000,-0.00705353,0.96074710,-0.00039206,-0.00182353,-0.00068130,-0
 .00016830,-0.00092803,0.00014149,0.00065890,-0.00369541,0.01728224,0.0
 0100254,-0.00052282,0.00336129,0.03769580,-0.01269041,-0.11149483,-0.0
 1232330,0.32186605,0.33957869,0.00012995,0.00045739,0.00022491,0.00004
 610,0.00114484,0.00001879,-0.00478112,0.00042397,0.00019419,-0.0002414
 9,-0.00087775,-0.00038805,0.00606746,0.04028602,0.01768662,-0.08888027
 ,-0.00582350,-0.00143595,0.09335559,-0.00043690,0.00014252,0.00018762,
 0.00075891,0.00147158,-0.00001852,-0.00037784,0.00095774,0.00123438,0.
 00031111,0.00070589,0.00066036,0.02370475,-0.04772642,-0.03229206,-0.0
 1156406,-0.71712629,-0.27657699,0.03595765,0.82399944,-0.00006033,0.00
 036827,0.00029232,0.00032017,0.00076221,-0.00003484,-0.00003916,0.0013
 7055,-0.00154289,0.00010995,0.00062651,-0.00053531,0.01044732,-0.03275
 670,0.01377520,-0.00436016,-0.27819833,-0.18044407,0.01292764,0.342801
 42,0.15789500,0.00223493,0.01000713,0.00203311,0.00036727,0.00531607,0
 .00036222,-0.00234774,0.00282372,0.00123718,0.00118204,0.00022009,0.00
 005410,-0.06767751,-0.01036070,-0.00301516,-0.26359845,-0.09379874,-0.
 03749886,-0.00923105,-0.05670587,-0.02160569,0.59085208,-0.00247499,-0
 .00206231,-0.00049977,0.00154399,0.00124016,0.00047539,0.00272066,-0.0
 0139741,-0.00044692,-0.00041064,-0.00079757,-0.00017373,0.01366498,0.0
 1106177,-0.00150008,-0.06305458,-0.13554091,-0.03374274,-0.06423585,-0
 .05759008,-0.03559480,0.03698104,0.30296012,-0.00013161,-0.00044629,0.
 00105209,-0.00024192,-0.00008404,-0.00135917,0.00105171,-0.00059783,-0
 .00061789,-0.00017362,-0.00018856,-0.00039167,0.00730838,-0.00030787,0
 .01261993,-0.02295075,-0.03234553,-0.07278535,-0.02584095,-0.03573904,
 0.01516227,0.00566027,0.10343446,0.11973902,-0.03378042,-0.06860166,-0
 .00611635,0.00675792,-0.00098930,-0.00165727,0.00163882,-0.00160124,-0
 .00058317,-0.00029516,0.00037543,0.00016725,0.00327468,-0.00245106,-0.
 00191110,-0.08245631,0.00211356,0.00277772,0.00651085,0.01460863,0.006
 76824,-0.16357745,0.03719185,0.02469095,0.44728287,-0.03634668,-0.0710
 7274,-0.00602553,0.00165614,-0.00372603,-0.00119253,-0.00027956,0.0005
 2687,0.00055876,0.00008225,0.00012142,0.00008613,-0.00405356,-0.000537
 29,-0.00296854,-0.01477481,0.01768341,0.00678860,-0.00326593,-0.007286
 34,-0.00053687,0.08698364,-0.10818421,-0.02855546,-0.01392527,0.464708
 32,0.00612101,0.01215755,0.00300338,-0.00181537,0.00045815,0.00003080,
 -0.00038149,0.00086155,-0.00050156,0.00006541,0.00003516,-0.00020949,-
 0.00206468,-0.00326151,0.00677513,0.00213394,0.01129653,0.00613946,-0.
 00041651,-0.00283166,-0.00603813,0.03505300,-0.02767646,-0.08093958,0.
 02611762,0.04664493,0.58402806,0.00329022,0.00680342,0.00071028,-0.001
 11767,0.00040130,0.00092634,-0.00033001,0.00022669,0.00013260,0.000105
 47,-0.00001055,-0.00010747,-0.00117143,-0.00059105,0.00120052,0.006039
 12,0.00714078,0.00150694,-0.00031164,-0.00259527,-0.00166039,-0.031234
 41,0.03196364,-0.02561081,-0.07598404,0.01946271,-0.02040043,0.5862805
 7,0.00452363,0.00921446,0.00033437,-0.00089162,0.00026711,0.00090837,-
 0.00006901,-0.00007213,0.00003272,-0.00000076,-0.00002613,0.00002449,0
 .00039643,0.00037928,-0.00061861,-0.00096502,0.00028430,0.00033818,0.0
 0098905,-0.00014305,0.00135566,0.01337222,-0.01245237,0.01004619,0.029
 72069,-0.12328886,0.06121280,0.00927429,0.55558747,-0.00065827,-0.0017
 5018,0.00028473,0.00017670,-0.00009718,0.00008122,0.00019030,-0.000223
 64,0.00012726,-0.00003545,0.00000969,0.00001421,0.00008501,0.00066063,
 -0.00100917,-0.00174665,-0.00427230,-0.00057698,-0.00035969,0.00186428
 ,0.00059021,0.00733549,-0.00451678,0.01164914,-0.03266901,0.06399928,-
 0.17089638,-0.02320486,0.04456931,0.55096139,0.01775784,0.04060583,0.0
 0379206,-0.00320944,0.01024468,0.00328566,-0.00058816,0.00060198,0.000
 14904,0.00010347,-0.00010961,0.00001744,-0.00193247,-0.00008625,-0.000
 21871,0.00409083,0.00410683,0.00534396,-0.00036168,-0.00099069,-0.0009
 5476,-0.04588116,-0.01312130,0.00274185,-0.05496596,-0.03099361,-0.000
 70331,-0.00017719,-0.00216272,-0.00104803,0.08578983,0.04209019,0.0590
 8241,0.00437599,-0.01026897,-0.01071919,-0.00077574,-0.00062362,0.0004
 3014,0.00013330,0.00010676,-0.00018135,-0.00005317,-0.00129929,0.00089
 805,0.00051863,0.01320059,-0.00097497,0.00223600,-0.00302547,-0.000054
 07,-0.00059701,-0.00468543,0.01106682,-0.00231097,-0.00094774,-0.05480
 098,-0.01066588,-0.02283344,-0.02992804,0.00517697,-0.00306827,0.04061
 684,0.00142804,-0.00105163,-0.00439464,-0.00048560,-0.00483147,0.00298
 427,-0.00003489,-0.00001177,-0.00007408,0.00000924,-0.00001636,0.00000
 538,0.00022768,0.00003971,0.00039944,0.00046307,-0.00241993,-0.0010084
 6,-0.00132205,0.00076024,0.00052676,0.00849925,0.00464164,-0.00048318,
 0.01116250,0.00999046,-0.04125508,0.01019053,0.01820547,-0.00489681,-0
 .01422742,-0.00856339,0.04823939,0.00157996,0.00348389,0.00108026,-0.0
 0068136,0.00053365,-0.00026155,0.00000350,0.00010222,-0.00001394,0.000
 05627,-0.00005532,0.00005033,-0.00032231,-0.00007317,-0.00080880,0.004
 52927,0.00645531,0.00337262,-0.00135280,-0.00326620,-0.00092335,-0.014
 88316,0.02093015,0.03385890,-0.04799617,-0.01089185,-0.03549121,0.0018
 4356,-0.00552953,-0.00744321,-0.00336141,-0.01444753,-0.01560836,0.060
 02787,0.00222137,0.00444391,0.00131553,-0.00048601,0.00060338,-0.00030
 590,0.00005134,-0.00003016,0.00007347,-0.00000791,-0.00000047,0.000001
 23,0.00024356,-0.00007162,-0.00030652,-0.00259298,-0.00064803,-0.00076
 404,-0.00103444,0.00032826,0.00100260,0.00767669,-0.00943326,-0.014493
 11,-0.00275906,-0.09637460,-0.11179913,0.00196302,0.01058794,0.0229267
 7,-0.00692492,-0.01629260,-0.01864570,0.00079266,0.10832004,-0.0017934
 3,-0.00344169,0.00015108,0.00047628,0.00005474,-0.00010289,-0.00004787
 ,-0.00005394,0.00011444,-0.00000903,0.00000728,0.00000212,0.00025234,0
 .00038166,-0.00040568,-0.00275728,-0.00308948,-0.00014391,-0.00163485,
 0.00160731,0.00096409,0.00533592,-0.00567060,-0.00383764,-0.02085189,-
 0.10739724,-0.27475781,-0.00348333,-0.01081224,-0.01811155,0.00263126,
 0.00670578,0.00115266,0.02312137,0.11907496,0.29556334,-0.00001349,0.0
 0001101,-0.00012790,-0.00003402,-0.00011599,-0.00000545,-0.00005739,0.
 00004930,-0.00002854,0.00002015,-0.00001368,0.00000073,-0.00016791,-0.
 00001715,0.00027897,0.00145403,0.00020478,0.00035746,-0.00024706,-0.00
 007875,-0.00049873,0.00016634,0.00069632,-0.00224119,-0.00959235,0.001
 76988,0.00504083,-0.27419285,0.09406094,0.05623119,0.00034228,0.000406
 10,0.00006907,0.00012583,-0.00013817,-0.00051714,0.29785413,-0.0005289
 7,-0.00019514,-0.00009973,0.00007942,0.00015717,-0.00008702,0.00006709
 ,-0.00001709,-0.00004922,-0.00001872,0.00000128,0.00001446,0.00026130,
 0.00006398,-0.00004234,-0.00146515,-0.00242487,-0.00042665,-0.00014671
 ,0.00112830,0.00007236,0.00427935,-0.00207697,0.00431675,0.01861653,-0
 .00828460,-0.00715778,0.09188304,-0.08528543,-0.02228668,0.00038140,0.
 00051124,-0.00045696,-0.00028769,0.00066068,0.00009286,-0.10415542,0.0
 9152998,0.00019751,0.00018450,-0.00004791,-0.00007648,0.00000681,-0.00
 001878,-0.00008936,0.00007738,-0.00002613,0.00001380,0.00000786,-0.000
 01563,-0.00024377,-0.00027748,0.00042022,0.00113217,0.00188126,0.00009
 269,-0.00004031,-0.00074465,-0.00045412,-0.00471539,0.00446139,-0.0036
 0743,-0.02283970,0.00888524,0.00700389,0.05857874,-0.02380930,-0.06410
 576,-0.00018276,-0.00057162,0.00071383,0.00034398,-0.00116938,0.000229
 22,-0.06194713,0.02324715,0.06616809,-0.00021083,-0.00015087,-0.000288
 65,0.00009121,0.00002393,-0.00002597,0.00001151,0.00000105,0.00000491,
 -0.00002287,0.00001116,-0.00000729,0.00007463,0.00000140,0.00005127,-0
 .00108757,-0.00112275,-0.00083014,-0.00015750,0.00081914,0.00011552,0.
 00150627,-0.00101516,0.00087879,-0.00154984,-0.00454818,-0.01051559,-0
 .05045707,-0.00914369,-0.01423443,0.00021196,0.00059236,0.00076473,0.0
 0024728,0.00141093,-0.00131375,0.00278375,0.01525757,0.02747274,0.0495
 5736,-0.00006827,0.00012890,-0.00066288,0.00017033,-0.00017671,0.00026
 458,-0.00006111,-0.00000472,-0.00002200,0.00001194,0.00000703,-0.00000
 778,-0.00003619,0.00004759,0.00023654,0.00049703,0.00020398,-0.0002146
 0,-0.00028304,0.00003490,-0.00027017,-0.00253156,0.00119111,-0.0013343
 0,0.00276452,0.00970356,0.02497654,-0.00898566,-0.12055549,-0.12335410
 ,0.00022363,0.00163241,0.00000474,0.00169745,-0.00279551,0.00307416,-0
 .00231983,-0.00625663,-0.01026386,0.00871013,0.12859272,0.00023116,0.0
 0012653,0.00069342,-0.00008864,0.00015544,-0.00038438,-0.00002763,0.00
 004060,0.00005244,-0.00000595,-0.00000702,-0.00000931,-0.00005501,0.00
 004051,-0.00010054,-0.00020287,-0.00058474,-0.00025371,0.00000794,0.00
 042499,0.00021111,0.00119084,-0.00052231,0.00283259,-0.00137452,-0.012
 80772,-0.02684109,-0.01510675,-0.11959723,-0.25335936,-0.00028833,-0.0
 0073619,0.00032051,-0.00137933,0.00373957,-0.00160266,-0.00153902,-0.0
 0291513,-0.00528465,0.01764643,0.12980166,0.27998337,-0.00092340,-0.00
 187793,-0.00018337,0.00025431,-0.00004978,-0.00015984,0.00010551,-0.00
 007396,-0.00000567,-0.00003107,0.00001519,0.00001286,0.00017789,-0.000
 05032,-0.00017291,-0.00115330,0.00062430,-0.00006733,-0.00054534,-0.00
 014460,-0.00058630,0.00212198,-0.00138010,0.00100002,0.00473257,0.0091
 2482,-0.00274323,-0.16258264,-0.13357491,0.01738091,0.00218127,0.00480
 376,-0.00113579,0.00018367,-0.00041607,0.00059142,-0.01844144,-0.02422
 305,0.00239597,-0.00099830,0.00021064,0.00099167,0.17491828,-0.0001112
 6,0.00006841,0.00001758,-0.00006371,0.00031361,0.00009493,-0.00010642,
 0.00007900,-0.00000856,0.00002192,-0.00002325,-0.00001411,-0.00005472,
 0.00007784,0.00033031,0.00102220,-0.00219342,0.00015638,-0.00056624,0.
 00115764,-0.00040571,0.00042235,0.00201512,-0.00139441,-0.01411586,-0.
 01918793,0.00574920,-0.13410292,-0.20456906,0.01729392,0.00129303,-0.0
 0128670,0.00235495,0.00055597,0.00070206,-0.00053357,0.00964066,0.0104
 8811,-0.00191531,-0.01084701,-0.01175313,0.00284103,0.14701202,0.22411
 171,-0.00061742,-0.00149045,0.00015811,0.00021961,-0.00020989,-0.00033
 998,0.00009334,-0.00007840,-0.00003699,-0.00000017,0.00002029,0.000029
 85,0.00007838,-0.00015915,-0.00028019,-0.00052678,0.00212402,0.0007927
 6,0.00037827,-0.00133769,-0.00036761,0.00007371,-0.00266869,0.00096686
 ,0.01631873,0.02253048,-0.00554160,0.01632808,0.01780980,-0.05075216,-
 0.00033794,0.00512729,-0.00222999,0.00010229,-0.00065036,0.00078519,0.
 00492685,0.00577792,-0.00106753,-0.01971855,-0.02222853,0.00374226,-0.
 01731839,-0.02456663,0.05414102\\-0.01576580,-0.00005572,0.00286298,0.
 01370090,-0.01106362,-0.00465452,0.01751344,-0.01134463,-0.00509181,0.
 00081162,-0.00026981,-0.00013802,-0.02099244,0.01333598,0.00600678,0.0
 3036832,-0.04197082,-0.01862596,-0.00158456,0.04645564,0.01976867,-0.0
 0600168,-0.01257468,-0.00488366,-0.01989350,0.00302513,0.00453864,0.00
 053740,0.00111639,-0.00005995,0.00180675,0.00977450,0.00160727,0.00041
 035,0.00157871,0.00093083,-0.00115299,0.00076310,-0.00019483,-0.000185
 24,-0.00041080,-0.00119061,0.00042742,0.00164063,-0.00087581\\\@


 THERE IS NOTHING NOBLE IN BEING SUPERIOR TO SOME OTHER MAN.
 TRUE NOBILITY IS BEING SUPERIOR TO YOUR FORMER SELF.

                                                   -- HINDU PROVERB
 Job cpu time:       0 days  0 hours 18 minutes 48.0 seconds.
 Elapsed time:       0 days  0 hours  0 minutes 47.0 seconds.
 File lengths (MBytes):  RWF=     59 Int=      0 D2E=      0 Chk=      8 Scr=      1
 Normal termination of Gaussian 16 at Fri Jun 20 12:38:41 2025.
