 Entering Gaussian System, Link 0=g16
 Initial command:
 /opt/g16/l1.exe "/home/aayush/scratches/g16/Gau-38478.inp" -scrdir="/home/aayush/scratches/g16/"
 Entering Link 1 = /opt/g16/l1.exe PID=     38481.
  
 Copyright (c) 1988,1990,1992,1993,1995,1998,2003,2009,2016,
            Gaussian, Inc.  All Rights Reserved.
  
 This is part of the Gaussian(R) 16 program.  It is based on
 the Gaussian(R) 09 system (copyright 2009, Gaussian, Inc.),
 the Gaussian(R) 03 system (copyright 2003, Gaussian, Inc.),
 the Gaussian(R) 98 system (copyright 1998, Gaussian, Inc.),
 the Gaussian(R) 94 system (copyright 1995, Gaussian, Inc.),
 the Gaussian 92(TM) system (copyright 1992, Gaussian, Inc.),
 the Gaussian 90(TM) system (copyright 1990, Gaussian, Inc.),
 the Gaussian 88(TM) system (copyright 1988, Gaussian, Inc.),
 the Gaussian 86(TM) system (copyright 1986, Carnegie Mellon
 University), and the Gaussian 82(TM) system (copyright 1983,
 Carnegie Mellon University). Gaussian is a federally registered
 trademark of Gaussian, Inc.
  
 This software contains proprietary and confidential information,
 including trade secrets, belonging to Gaussian, Inc.
  
 This software is provided under written license and may be
 used, copied, transmitted, or stored only in accord with that
 written license.
  
 The following legend is applicable only to US Government
 contracts under FAR:
  
                    RESTRICTED RIGHTS LEGEND
  
 Use, reproduction and disclosure by the US Government is
 subject to restrictions as set forth in subparagraphs (a)
 and (c) of the Commercial Computer Software - Restricted
 Rights clause in FAR 52.227-19.
  
 Gaussian, Inc.
 340 Quinnipiac St., Bldg. 40, Wallingford CT 06492
  
  
 ---------------------------------------------------------------
 Warning -- This program may not be used in any manner that
 competes with the business of Gaussian, Inc. or will provide
 assistance to any competitor of Gaussian, Inc.  The licensee
 of this program is prohibited from giving any competitor of
 Gaussian, Inc. access to this program.  By using this program,
 the user acknowledges that Gaussian, Inc. is engaged in the
 business of creating and licensing software in the field of
 computational chemistry and represents and warrants to the
 licensee that it is not a competitor of Gaussian, Inc. and that
 it will not use this program in any manner prohibited above.
 ---------------------------------------------------------------
  

 Cite this work as:
 Gaussian 16, Revision A.03,
 M. J. Frisch, G. W. Trucks, H. B. Schlegel, G. E. Scuseria, 
 M. A. Robb, J. R. Cheeseman, G. Scalmani, V. Barone, 
 G. A. Petersson, H. Nakatsuji, X. Li, M. Caricato, A. V. Marenich, 
 J. Bloino, B. G. Janesko, R. Gomperts, B. Mennucci, H. P. Hratchian, 
 J. V. Ortiz, A. F. Izmaylov, J. L. Sonnenberg, D. Williams-Young, 
 F. Ding, F. Lipparini, F. Egidi, J. Goings, B. Peng, A. Petrone, 
 T. Henderson, D. Ranasinghe, V. G. Zakrzewski, J. Gao, N. Rega, 
 G. Zheng, W. Liang, M. Hada, M. Ehara, K. Toyota, R. Fukuda, 
 J. Hasegawa, M. Ishida, T. Nakajima, Y. Honda, O. Kitao, H. Nakai, 
 T. Vreven, K. Throssell, J. A. Montgomery, Jr., J. E. Peralta, 
 F. Ogliaro, M. J. Bearpark, J. J. Heyd, E. N. Brothers, K. N. Kudin, 
 V. N. Staroverov, T. A. Keith, R. Kobayashi, J. Normand, 
 K. Raghavachari, A. P. Rendell, J. C. Burant, S. S. Iyengar, 
 J. Tomasi, M. Cossi, J. M. Millam, M. Klene, C. Adamo, R. Cammi, 
 J. W. Ochterski, R. L. Martin, K. Morokuma, O. Farkas, 
 J. B. Foresman, and D. J. Fox, Gaussian, Inc., Wallingford CT, 2016.
 
 ******************************************
 Gaussian 16:  ES64L-G16RevA.03 25-Dec-2016
                24-Apr-2025 
 ******************************************
 %chk=ethyl_propiolate.chk
 %nprocshared=24
 Will use up to   24 processors via shared memory.
 %mem=12GB
 --------------------------
 # ccsd(t)/6-311++g(d,p) sp
 --------------------------
 1/38=1,172=1/1;
 2/12=2,17=6,18=5,40=1/2;
 3/5=4,6=6,7=1111,11=9,25=1,30=1/1,2,3;
 4//1;
 5/5=2,38=5/2;
 8/6=4,9=120000,10=2/1,4;
 9/5=7,14=2/13;
 6/7=2,8=2,9=2,10=2/1;
 99/5=1,9=1/99;
 -------------------
 Title Card Required
 -------------------
 Symbolic Z-matrix:
 Charge =  0 Multiplicity = 2
 C                    -2.52933   0.21952  -1.13545 
 H                    -3.42599   0.48916  -1.64297 
 C                    -1.51825  -0.03998  -0.53267 
 C                    -0.2575   -0.59741  -0.03775 
 O                    -0.18215  -1.66021   0.51059 
 O                     0.76094   0.20571  -0.31612 
 C                     2.0524   -0.25504   0.12663 
 C                     3.05827   0.80254  -0.26242 
 H                     2.01037  -0.40941   1.20667 
 H                     2.25714  -1.21782  -0.34639 
 H                     3.06699   0.94669  -1.34345 
 H                     2.81717   1.75316   0.2144 
 H                     4.05585   0.49533   0.0559 
 O                    -1.70516   1.18098   1.20627 
 H                    -2.49752   0.7404    1.55332 
 
                          Input orientation:                          
 ---------------------------------------------------------------------
 Center     Atomic      Atomic             Coordinates (Angstroms)
 Number     Number       Type             X           Y           Z
 ---------------------------------------------------------------------
      1          6           0       -2.529334    0.219521   -1.135454
      2          1           0       -3.425992    0.489159   -1.642973
      3          6           0       -1.518245   -0.039983   -0.532665
      4          6           0       -0.257499   -0.597414   -0.037745
      5          8           0       -0.182145   -1.660214    0.510588
      6          8           0        0.760942    0.205713   -0.316117
      7          6           0        2.052404   -0.255041    0.126630
      8          6           0        3.058272    0.802544   -0.262418
      9          1           0        2.010370   -0.409409    1.206665
     10          1           0        2.257141   -1.217817   -0.346385
     11          1           0        3.066986    0.946689   -1.343448
     12          1           0        2.817172    1.753163    0.214401
     13          1           0        4.055848    0.495333    0.055896
     14          8           0       -1.705159    1.180983    1.206273
     15          1           0       -2.497523    0.740402    1.553323
 ---------------------------------------------------------------------
                    Distance matrix (angstroms):
                    1          2          3          4          5
     1  C    0.000000
     2  H    1.065024   0.000000
     3  C    1.205404   2.269862   0.000000
     4  C    2.652090   3.714397   1.464635   0.000000
     5  O    3.428141   4.447491   2.344928   1.198287   0.000000
     6  O    3.390785   4.401284   2.302597   1.326547   2.248230
     7  C    4.776022   5.805011   3.637369   2.340917   2.667423
     8  C    5.685371   6.637004   4.661265   3.606203   4.142827
     9  H    5.146842   6.203378   3.951312   2.593672   2.618427
    10  H    5.059537   6.073953   3.959234   2.608366   2.623020
    11  H    5.647197   6.515966   4.759751   3.891184   4.559632
    12  H    5.723573   6.635107   4.750718   3.878452   4.553545
    13  H    6.697761   7.672296   5.630584   4.450598   4.776370
    14  O    2.662209   3.399719   2.132979   2.608830   3.297870
    15  H    2.738951   3.337886   2.432968   3.055971   3.494457
                    6          7          8          9         10
     6  O    0.000000
     7  C    1.440900   0.000000
     8  C    2.374198   1.510502   0.000000
     9  H    2.063567   1.091820   2.173737   0.000000
    10  H    2.065421   1.092061   2.175022   1.768158   0.000000
    11  H    2.631025   2.152826   1.090633   3.075470   2.516956
    12  H    2.627572   2.150688   1.090487   2.512416   3.074872
    13  H    3.328465   2.140526   1.091265   2.515315   2.516358
    14  O    3.057855   4.164982   4.999054   4.041597   4.885162
    15  H    3.794508   4.871160   5.845309   4.665119   5.481819
                   11         12         13         14         15
    11  H    0.000000
    12  H    1.771920   0.000000
    13  H    1.771929   1.772450   0.000000
    14  O    5.415657   4.665049   5.914616   0.000000
    15  H    6.276751   5.573543   6.726739   0.970771   0.000000
 Stoichiometry    C5H7O3(2)
 Framework group  C1[X(C5H7O3)]
 Deg. of freedom    39
 Full point group                 C1      NOp   1
 Largest Abelian subgroup         C1      NOp   1
 Largest concise Abelian subgroup C1      NOp   1
                         Standard orientation:                         
 ---------------------------------------------------------------------
 Center     Atomic      Atomic             Coordinates (Angstroms)
 Number     Number       Type             X           Y           Z
 ---------------------------------------------------------------------
      1          6           0        2.596174   -0.126538   -1.144126
      2          1           0        3.492861   -0.364769   -1.667075
      3          6           0        1.585134    0.095842   -0.526598
      4          6           0        0.323965    0.621607    0.000829
      5          8           0        0.247542    1.650385    0.610475
      6          8           0       -0.693578   -0.165254   -0.323488
      7          6           0       -1.985368    0.267012    0.146215
      8          6           0       -2.990068   -0.767376   -0.303490
      9          1           0       -1.942832    0.357955    1.233409
     10          1           0       -2.191709    1.255540   -0.269516
     11          1           0       -2.999298   -0.848010   -1.391099
     12          1           0       -2.747377   -1.743941    0.116729
     13          1           0       -3.987847   -0.480701    0.032836
     14          8           0        1.774831   -1.224556    1.137783
     15          1           0        2.566829   -0.803951    1.509570
 ---------------------------------------------------------------------
 Rotational constants (GHZ):           3.4926058           1.1404999           1.0684046
 Standard basis: 6-311++G(d,p) (5D, 7F)
 There are   233 symmetry adapted cartesian basis functions of A   symmetry.
 There are   225 symmetry adapted basis functions of A   symmetry.
   225 basis functions,   351 primitive gaussians,   233 cartesian basis functions
    31 alpha electrons       30 beta electrons
       nuclear repulsion energy       354.6894850481 Hartrees.
 NAtoms=   15 NActive=   15 NUniq=   15 SFac= 1.00D+00 NAtFMM=   60 NAOKFM=F Big=F
 Integral buffers will be    131072 words long.
 Raffenetti 2 integral format.
 Two-electron integral symmetry is turned on.
 One-electron integrals computed using PRISM.
 NBasis=   225 RedAO= T EigKep=  1.70D-06  NBF=   225
 NBsUse=   225 1.00D-06 EigRej= -1.00D+00 NBFU=   225
 ExpMin= 3.60D-02 ExpMax= 8.59D+03 ExpMxC= 1.30D+03 IAcc=3 IRadAn=         5 AccDes= 0.00D+00
 Harris functional with IExCor=  205 and IRadAn=       5 diagonalized for initial guess.
 HarFok:  IExCor=  205 AccDes= 0.00D+00 IRadAn=         5 IDoV= 1 UseB2=F ITyADJ=14
 ICtDFT=  3500011 ScaDFX=  1.000000  1.000000  1.000000  1.000000
 FoFCou: FMM=F IPFlag=           0 FMFlag=      100000 FMFlg1=           0
         NFxFlg=           0 DoJE=T BraDBF=F KetDBF=T FulRan=T
         wScrn=  0.000000 ICntrl=       500 IOpCl=  0 I1Cent=   200000004 NGrid=           0
         NMat0=    1 NMatS0=      1 NMatT0=    0 NMatD0=    1 NMtDS0=    0 NMtDT0=    0
 Petite list used in FoFCou.
 Initial guess <Sx>= 0.0000 <Sy>= 0.0000 <Sz>= 0.5000 <S**2>= 0.7500 S= 0.5000
 Requested convergence on RMS density matrix=1.00D-08 within 128 cycles.
 Requested convergence on MAX density matrix=1.00D-06.
 Requested convergence on             energy=1.00D-06.
 No special actions if energy rises.
 Restarting incremental Fock formation.
 Initial convergence to 1.0D-05 achieved.  Increase integral accuracy.
 SCF Done:  E(UHF) =  -417.986267221     A.U. after   39 cycles
            NFock= 39  Conv=0.58D-08     -V/T= 2.0006
 <Sx>= 0.0000 <Sy>= 0.0000 <Sz>= 0.5000 <S**2>= 0.9173 S= 0.5804
 <L.S>=  0.00000000000    
 Annihilation of the first spin contaminant:
 S**2 before annihilation     0.9173,   after     0.7662
 ExpMin= 3.60D-02 ExpMax= 8.59D+03 ExpMxC= 1.30D+03 IAcc=3 IRadAn=         5 AccDes= 0.00D+00
 HarFok:  IExCor=  205 AccDes= 0.00D+00 IRadAn=         5 IDoV=-2 UseB2=F ITyADJ=14
 ICtDFT= 12500011 ScaDFX=  1.000000  1.000000  1.000000  1.000000
 Range of M.O.s used for correlation:     9   225
 NBasis=   225 NAE=    31 NBE=    30 NFC=     8 NFV=     0
 NROrb=    217 NOA=    23 NOB=    22 NVA=   194 NVB=   195

 **** Warning!!: The largest alpha MO coefficient is  0.26566505D+03


 **** Warning!!: The largest beta MO coefficient is  0.21096981D+03

 Semi-Direct transformation.
 ModeAB=           4 MOrb=            23 LenV=    1609178463
 LASXX=    109339976 LTotXX=   109339976 LenRXX=   221407890
 LTotAB=   112067914 MaxLAS=   127050896 LenRXY=           0
 NonZer=   330747866 LenScr=   498067456 LnRSAI=   127050896
 LnScr1=   191340032 LExtra=           0 Total=   1037866274
 MaxDsk=          -1 SrtSym=           T ITran=            4
 JobTyp=1 Pass  1:  I=   1 to  23.
 (rs|ai) integrals will be sorted in core.
 ModeAB=           4 MOrb=            22 LenV=    1609178463
 LASXX=    104936601 LTotXX=   104936601 LenRXX=   190867446
 LTotAB=    85930845 MaxLAS=   121526944 LenRXY=           0
 NonZer=   295804047 LenScr=   445446144 LnRSAI=   121526944
 LnScr1=   183066624 LExtra=           0 Total=    940907158
 MaxDsk=          -1 SrtSym=           T ITran=            4
 JobTyp=2 Pass  1:  I=   1 to  22.
 (rs|ai) integrals will be sorted in core.
 SymMOI:  orbitals are not symmetric.
 Spin components of T(2) and E(2):
     alpha-alpha T2 =       0.5220636868D-01 E2=     -0.1695928725D+00
     alpha-beta  T2 =       0.2833971893D+00 E2=     -0.9319597648D+00
     beta-beta   T2 =       0.4947249892D-01 E2=     -0.1557400878D+00
 ANorm=    0.1176892543D+01
 E2 =    -0.1257292725D+01 EUMP2 =    -0.41924355994573D+03
 (S**2,0)=  0.91735D+00           (S**2,1)=  0.87036D+00
 E(PUHF)=      -0.41800017513D+03        E(PMP2)=      -0.41925562052D+03
 Keep R2 and R3 ints in memory in canonical form, NReq=652884060.
 CIDS: In Core Option IDoMem=           1.
 Iterations=  50 Convergence= 0.100D-06
 Produce multiple copies of IABC intergrals
 Iteration Nr.   1
 **********************
 DD1Dir will call FoFMem   1 times, MxPair=      1496
 NAB=   506 NAA=   253 NBB=   231.
 E(PMP3)=      -0.41928151385D+03
 MP4(R+Q)=  0.24673382D-01
 E3=       -0.29110195D-01        EUMP3=      -0.41927267014D+03
 E4(DQ)=   -0.58109382D-02        UMP4(DQ)=   -0.41927848108D+03
 E4(SDQ)=  -0.25776254D-01        UMP4(SDQ)=  -0.41929844640D+03
 DE(Corr)=  -1.2613084     E(Corr)=     -419.24757563    
 NORM(A)=   0.11852831D+01
 Iteration Nr.   2
 **********************
 DD1Dir will call FoFMem   1 times, MxPair=      1496
 NAB=   506 NAA=   253 NBB=   231.
 DE(Corr)=  -1.3039638     E(CORR)=     -419.29023097     Delta=-4.27D-02
 NORM(A)=   0.12054166D+01
 Iteration Nr.   3
 **********************
 DD1Dir will call FoFMem   1 times, MxPair=      1496
 NAB=   506 NAA=   253 NBB=   231.
 DE(Corr)=  -1.3066472     E(CORR)=     -419.29291446     Delta=-2.68D-03
 NORM(A)=   0.12155908D+01
 Iteration Nr.   4
 **********************
 DD1Dir will call FoFMem   1 times, MxPair=      1496
 NAB=   506 NAA=   253 NBB=   231.
 DE(Corr)=  -1.3131224     E(CORR)=     -419.29938967     Delta=-6.48D-03
 NORM(A)=   0.12218567D+01
 Iteration Nr.   5
 **********************
 DD1Dir will call FoFMem   1 times, MxPair=      1496
 NAB=   506 NAA=   253 NBB=   231.
 DE(Corr)=  -1.3148131     E(CORR)=     -419.30108032     Delta=-1.69D-03
 NORM(A)=   0.12250773D+01
 Iteration Nr.   6
 **********************
 DD1Dir will call FoFMem   1 times, MxPair=      1496
 NAB=   506 NAA=   253 NBB=   231.
 DE(Corr)=  -1.3153286     E(CORR)=     -419.30159580     Delta=-5.15D-04
 NORM(A)=   0.12256159D+01
 Iteration Nr.   7
 **********************
 DD1Dir will call FoFMem   1 times, MxPair=      1496
 NAB=   506 NAA=   253 NBB=   231.
 DE(Corr)=  -1.3154030     E(CORR)=     -419.30167025     Delta=-7.45D-05
 NORM(A)=   0.12257131D+01
 Iteration Nr.   8
 **********************
 DD1Dir will call FoFMem   1 times, MxPair=      1496
 NAB=   506 NAA=   253 NBB=   231.
 DE(Corr)=  -1.3153838     E(CORR)=     -419.30165104     Delta= 1.92D-05
 NORM(A)=   0.12257357D+01
 Iteration Nr.   9
 **********************
 DD1Dir will call FoFMem   1 times, MxPair=      1496
 NAB=   506 NAA=   253 NBB=   231.
 DE(Corr)=  -1.3153952     E(CORR)=     -419.30166241     Delta=-1.14D-05
 NORM(A)=   0.12257200D+01
 Iteration Nr.  10
 **********************
 DD1Dir will call FoFMem   1 times, MxPair=      1496
 NAB=   506 NAA=   253 NBB=   231.
 DE(Corr)=  -1.3153870     E(CORR)=     -419.30165418     Delta= 8.23D-06
 NORM(A)=   0.12257039D+01
 Iteration Nr.  11
 **********************
 DD1Dir will call FoFMem   1 times, MxPair=      1496
 NAB=   506 NAA=   253 NBB=   231.
 DE(Corr)=  -1.3153994     E(CORR)=     -419.30166663     Delta=-1.25D-05
 NORM(A)=   0.12257087D+01
 Iteration Nr.  12
 **********************
 DD1Dir will call FoFMem   1 times, MxPair=      1496
 NAB=   506 NAA=   253 NBB=   231.
 DE(Corr)=  -1.3153947     E(CORR)=     -419.30166193     Delta= 4.70D-06
 NORM(A)=   0.12257420D+01
 Iteration Nr.  13
 **********************
 DD1Dir will call FoFMem   1 times, MxPair=      1496
 NAB=   506 NAA=   253 NBB=   231.
 DE(Corr)=  -1.3154041     E(CORR)=     -419.30167130     Delta=-9.36D-06
 NORM(A)=   0.12258028D+01
 Iteration Nr.  14
 **********************
 DD1Dir will call FoFMem   1 times, MxPair=      1496
 NAB=   506 NAA=   253 NBB=   231.
 DE(Corr)=  -1.3154129     E(CORR)=     -419.30168016     Delta=-8.87D-06
 NORM(A)=   0.12258634D+01
 Iteration Nr.  15
 **********************
 DD1Dir will call FoFMem   1 times, MxPair=      1496
 NAB=   506 NAA=   253 NBB=   231.
 DE(Corr)=  -1.3154188     E(CORR)=     -419.30168597     Delta=-5.81D-06
 NORM(A)=   0.12259014D+01
 Iteration Nr.  16
 **********************
 DD1Dir will call FoFMem   1 times, MxPair=      1496
 NAB=   506 NAA=   253 NBB=   231.
 DE(Corr)=  -1.3154270     E(CORR)=     -419.30169418     Delta=-8.21D-06
 NORM(A)=   0.12259126D+01
 Iteration Nr.  17
 **********************
 DD1Dir will call FoFMem   1 times, MxPair=      1496
 NAB=   506 NAA=   253 NBB=   231.
 DE(Corr)=  -1.3154257     E(CORR)=     -419.30169296     Delta= 1.22D-06
 NORM(A)=   0.12259117D+01
 Iteration Nr.  18
 **********************
 DD1Dir will call FoFMem   1 times, MxPair=      1496
 NAB=   506 NAA=   253 NBB=   231.
 DE(Corr)=  -1.3154259     E(CORR)=     -419.30169313     Delta=-1.71D-07
 NORM(A)=   0.12259072D+01
 Iteration Nr.  19
 **********************
 DD1Dir will call FoFMem   1 times, MxPair=      1496
 NAB=   506 NAA=   253 NBB=   231.
 DE(Corr)=  -1.3154244     E(CORR)=     -419.30169161     Delta= 1.51D-06
 NORM(A)=   0.12259032D+01
 Iteration Nr.  20
 **********************
 DD1Dir will call FoFMem   1 times, MxPair=      1496
 NAB=   506 NAA=   253 NBB=   231.
 DE(Corr)=  -1.3154234     E(CORR)=     -419.30169063     Delta= 9.78D-07
 NORM(A)=   0.12259003D+01
 Iteration Nr.  21
 **********************
 DD1Dir will call FoFMem   1 times, MxPair=      1496
 NAB=   506 NAA=   253 NBB=   231.
 DE(Corr)=  -1.3154228     E(CORR)=     -419.30169003     Delta= 6.04D-07
 NORM(A)=   0.12258993D+01
 Iteration Nr.  22
 **********************
 DD1Dir will call FoFMem   1 times, MxPair=      1496
 NAB=   506 NAA=   253 NBB=   231.
 DE(Corr)=  -1.3154225     E(CORR)=     -419.30168975     Delta= 2.81D-07
 NORM(A)=   0.12258997D+01
 Iteration Nr.  23
 **********************
 DD1Dir will call FoFMem   1 times, MxPair=      1496
 NAB=   506 NAA=   253 NBB=   231.
 DE(Corr)=  -1.3154227     E(CORR)=     -419.30168989     Delta=-1.42D-07
 NORM(A)=   0.12259015D+01
 Iteration Nr.  24
 **********************
 DD1Dir will call FoFMem   1 times, MxPair=      1496
 NAB=   506 NAA=   253 NBB=   231.
 DE(Corr)=  -1.3154229     E(CORR)=     -419.30169015     Delta=-2.62D-07
 NORM(A)=   0.12259043D+01
 Iteration Nr.  25
 **********************
 DD1Dir will call FoFMem   1 times, MxPair=      1496
 NAB=   506 NAA=   253 NBB=   231.
 DE(Corr)=  -1.3154234     E(CORR)=     -419.30169066     Delta=-5.05D-07
 NORM(A)=   0.12259069D+01
 Iteration Nr.  26
 **********************
 DD1Dir will call FoFMem   1 times, MxPair=      1496
 NAB=   506 NAA=   253 NBB=   231.
 DE(Corr)=  -1.3154237     E(CORR)=     -419.30169096     Delta=-3.03D-07
 NORM(A)=   0.12259084D+01
 Iteration Nr.  27
 **********************
 DD1Dir will call FoFMem   1 times, MxPair=      1496
 NAB=   506 NAA=   253 NBB=   231.
 DE(Corr)=  -1.3154239     E(CORR)=     -419.30169112     Delta=-1.63D-07
 NORM(A)=   0.12259085D+01
 Iteration Nr.  28
 **********************
 DD1Dir will call FoFMem   1 times, MxPair=      1496
 NAB=   506 NAA=   253 NBB=   231.
 DE(Corr)=  -1.3154237     E(CORR)=     -419.30169097     Delta= 1.57D-07
 NORM(A)=   0.12259078D+01
 Iteration Nr.  29
 **********************
 DD1Dir will call FoFMem   1 times, MxPair=      1496
 NAB=   506 NAA=   253 NBB=   231.
 DE(Corr)=  -1.3154235     E(CORR)=     -419.30169076     Delta= 2.05D-07
 NORM(A)=   0.12259072D+01
 Iteration Nr.  30
 **********************
 DD1Dir will call FoFMem   1 times, MxPair=      1496
 NAB=   506 NAA=   253 NBB=   231.
 DE(Corr)=  -1.3154234     E(CORR)=     -419.30169061     Delta= 1.48D-07
 NORM(A)=   0.12259067D+01
 Iteration Nr.  31
 **********************
 DD1Dir will call FoFMem   1 times, MxPair=      1496
 NAB=   506 NAA=   253 NBB=   231.
 DE(Corr)=  -1.3154233     E(CORR)=     -419.30169050     Delta= 1.13D-07
 NORM(A)=   0.12259065D+01
 Iteration Nr.  32
 **********************
 DD1Dir will call FoFMem   1 times, MxPair=      1496
 NAB=   506 NAA=   253 NBB=   231.
 DE(Corr)=  -1.3154233     E(CORR)=     -419.30169049     Delta= 1.43D-08
 NORM(A)=   0.12259065D+01
 Wavefunction amplitudes converged. E(Corr)=     -419.30169049    
 Largest amplitude= 5.84D-02
 Time for triples=    36203.91 seconds.
 T4(CCSD)= -0.56820967D-01
 T5(CCSD)=  0.37782053D-02
 CCSD(T)= -0.41935473325D+03

 S**2, projected HF & approx projected MPn energies after annihilation of
 unwanted spin states (see manual for definitions):

 spins       (S**2,0) (S**2,1)    PUHF        PMP2        PMP3        PMP4
 annihilated
 s+1         0.74046  0.74661 -418.000175 -419.255621 -419.281514
 s+1,s+2     0.75012  0.74997 -417.999449 -419.254939 -419.280891
 s+1 to s+3  0.75000  0.75000 -417.999460 -419.254948 -419.280894
 s+1 to s+4  0.75000  0.75000 -417.999460 -419.254947 -419.280894
 s+1 to s+5  0.75000  0.75000 -417.999460
 s+1 to s+6  0.75000  0.75000 -417.999460

 Discarding MO integrals.

 **********************************************************************

            Population analysis using the SCF density.

 **********************************************************************

 Orbital symmetries:
 Alpha Orbitals:
       Occupied  (A) (A) (A) (A) (A) (A) (A) (A) (A) (A) (A) (A)
                 (A) (A) (A) (A) (A) (A) (A) (A) (A) (A) (A) (A)
                 (A) (A) (A) (A) (A) (A) (A)
       Virtual   (A) (A) (A) (A) (A) (A) (A) (A) (A) (A) (A) (A)
                 (A) (A) (A) (A) (A) (A) (A) (A) (A) (A) (A) (A)
                 (A) (A) (A) (A) (A) (A) (A) (A) (A) (A) (A) (A)
                 (A) (A) (A) (A) (A) (A) (A) (A) (A) (A) (A) (A)
                 (A) (A) (A) (A) (A) (A) (A) (A) (A) (A) (A) (A)
                 (A) (A) (A) (A) (A) (A) (A) (A) (A) (A) (A) (A)
                 (A) (A) (A) (A) (A) (A) (A) (A) (A) (A) (A) (A)
                 (A) (A) (A) (A) (A) (A) (A) (A) (A) (A) (A) (A)
                 (A) (A) (A) (A) (A) (A) (A) (A) (A) (A) (A) (A)
                 (A) (A) (A) (A) (A) (A) (A) (A) (A) (A) (A) (A)
                 (A) (A) (A) (A) (A) (A) (A) (A) (A) (A) (A) (A)
                 (A) (A) (A) (A) (A) (A) (A) (A) (A) (A) (A) (A)
                 (A) (A) (A) (A) (A) (A) (A) (A) (A) (A) (A) (A)
                 (A) (A) (A) (A) (A) (A) (A) (A) (A) (A) (A) (A)
                 (A) (A) (A) (A) (A) (A) (A) (A) (A) (A) (A) (A)
                 (A) (A) (A) (A) (A) (A) (A) (A) (A) (A) (A) (A)
                 (A) (A)
 Beta  Orbitals:
       Occupied  (A) (A) (A) (A) (A) (A) (A) (A) (A) (A) (A) (A)
                 (A) (A) (A) (A) (A) (A) (A) (A) (A) (A) (A) (A)
                 (A) (A) (A) (A) (A) (A)
       Virtual   (A) (A) (A) (A) (A) (A) (A) (A) (A) (A) (A) (A)
                 (A) (A) (A) (A) (A) (A) (A) (A) (A) (A) (A) (A)
                 (A) (A) (A) (A) (A) (A) (A) (A) (A) (A) (A) (A)
                 (A) (A) (A) (A) (A) (A) (A) (A) (A) (A) (A) (A)
                 (A) (A) (A) (A) (A) (A) (A) (A) (A) (A) (A) (A)
                 (A) (A) (A) (A) (A) (A) (A) (A) (A) (A) (A) (A)
                 (A) (A) (A) (A) (A) (A) (A) (A) (A) (A) (A) (A)
                 (A) (A) (A) (A) (A) (A) (A) (A) (A) (A) (A) (A)
                 (A) (A) (A) (A) (A) (A) (A) (A) (A) (A) (A) (A)
                 (A) (A) (A) (A) (A) (A) (A) (A) (A) (A) (A) (A)
                 (A) (A) (A) (A) (A) (A) (A) (A) (A) (A) (A) (A)
                 (A) (A) (A) (A) (A) (A) (A) (A) (A) (A) (A) (A)
                 (A) (A) (A) (A) (A) (A) (A) (A) (A) (A) (A) (A)
                 (A) (A) (A) (A) (A) (A) (A) (A) (A) (A) (A) (A)
                 (A) (A) (A) (A) (A) (A) (A) (A) (A) (A) (A) (A)
                 (A) (A) (A) (A) (A) (A) (A) (A) (A) (A) (A) (A)
                 (A) (A) (A)
 The electronic state is 2-A.
 Alpha  occ. eigenvalues --  -20.62711 -20.61056 -20.55577 -11.41314 -11.29510
 Alpha  occ. eigenvalues --  -11.26789 -11.25894 -11.22709  -1.48076  -1.38448
 Alpha  occ. eigenvalues --   -1.37656  -1.07868  -1.04565  -0.92013  -0.83216
 Alpha  occ. eigenvalues --   -0.77201  -0.72751  -0.69875  -0.68790  -0.67382
 Alpha  occ. eigenvalues --   -0.65792  -0.59451  -0.58619  -0.55661  -0.55090
 Alpha  occ. eigenvalues --   -0.51904  -0.51448  -0.47657  -0.46229  -0.42933
 Alpha  occ. eigenvalues --   -0.42158
 Alpha virt. eigenvalues --    0.03688   0.04491   0.05920   0.06559   0.07097
 Alpha virt. eigenvalues --    0.08133   0.09949   0.10132   0.11026   0.11998
 Alpha virt. eigenvalues --    0.12907   0.13800   0.14811   0.15240   0.16697
 Alpha virt. eigenvalues --    0.16949   0.17431   0.18721   0.18870   0.19878
 Alpha virt. eigenvalues --    0.20300   0.20766   0.21853   0.22361   0.23252
 Alpha virt. eigenvalues --    0.24483   0.25739   0.26811   0.27392   0.29212
 Alpha virt. eigenvalues --    0.29504   0.30487   0.31526   0.32055   0.32740
 Alpha virt. eigenvalues --    0.34257   0.35512   0.36060   0.37089   0.37941
 Alpha virt. eigenvalues --    0.38739   0.41059   0.42248   0.43327   0.44565
 Alpha virt. eigenvalues --    0.45635   0.46522   0.46949   0.47564   0.50545
 Alpha virt. eigenvalues --    0.50914   0.55464   0.57458   0.59095   0.61688
 Alpha virt. eigenvalues --    0.63618   0.67951   0.68548   0.68938   0.72232
 Alpha virt. eigenvalues --    0.73432   0.74930   0.81197   0.82876   0.84166
 Alpha virt. eigenvalues --    0.84904   0.85872   0.86995   0.87374   0.87775
 Alpha virt. eigenvalues --    0.90136   0.91141   0.92855   0.96157   0.97522
 Alpha virt. eigenvalues --    0.99564   1.04871   1.08782   1.10474   1.12981
 Alpha virt. eigenvalues --    1.21877   1.23857   1.25192   1.26138   1.29758
 Alpha virt. eigenvalues --    1.32555   1.37746   1.37977   1.40631   1.41343
 Alpha virt. eigenvalues --    1.44271   1.44739   1.49312   1.50117   1.51814
 Alpha virt. eigenvalues --    1.52152   1.55640   1.59206   1.61737   1.64532
 Alpha virt. eigenvalues --    1.66202   1.70760   1.71923   1.74103   1.78056
 Alpha virt. eigenvalues --    1.80492   1.82500   1.83512   1.85822   1.87370
 Alpha virt. eigenvalues --    1.89416   1.91484   1.93561   1.95716   1.99215
 Alpha virt. eigenvalues --    2.00964   2.02962   2.09779   2.11967   2.13829
 Alpha virt. eigenvalues --    2.18360   2.20904   2.27335   2.30030   2.34025
 Alpha virt. eigenvalues --    2.34629   2.41525   2.42168   2.48251   2.56879
 Alpha virt. eigenvalues --    2.65284   2.69742   2.78674   2.79616   2.81404
 Alpha virt. eigenvalues --    2.82648   2.86193   2.88702   2.89846   2.93387
 Alpha virt. eigenvalues --    2.96283   2.96832   2.98287   2.99971   3.06489
 Alpha virt. eigenvalues --    3.13110   3.14564   3.18078   3.19510   3.21801
 Alpha virt. eigenvalues --    3.24657   3.31120   3.33525   3.36960   3.39795
 Alpha virt. eigenvalues --    3.40989   3.44275   3.47604   3.49006   3.51528
 Alpha virt. eigenvalues --    3.59828   3.62537   3.65731   3.71653   3.72361
 Alpha virt. eigenvalues --    3.79490   3.88225   4.03541   4.16083   4.20493
 Alpha virt. eigenvalues --    4.22040   4.22356   4.23668   4.44539   4.53309
 Alpha virt. eigenvalues --    4.55460   4.71048   5.52416   5.54752   5.58422
 Alpha virt. eigenvalues --    5.65346   5.78440   5.93206   6.02789   6.23096
 Alpha virt. eigenvalues --    6.43488  24.70227  25.00909  25.02043  25.14319
 Alpha virt. eigenvalues --   26.22364  51.51498  51.61322  51.72005
  Beta  occ. eigenvalues --  -20.61064 -20.58721 -20.55945 -11.41020 -11.29511
  Beta  occ. eigenvalues --  -11.27324 -11.25111 -11.22710  -1.48225  -1.38256
  Beta  occ. eigenvalues --   -1.23831  -1.07912  -1.03940  -0.91167  -0.83003
  Beta  occ. eigenvalues --   -0.76989  -0.71996  -0.69539  -0.69102  -0.63668
  Beta  occ. eigenvalues --   -0.60103  -0.58821  -0.55702  -0.52667  -0.51945
  Beta  occ. eigenvalues --   -0.50119  -0.48436  -0.47129  -0.43427  -0.42304
  Beta virt. eigenvalues --    0.03751   0.04470   0.04962   0.06544   0.07085
  Beta virt. eigenvalues --    0.08026   0.08740   0.09919   0.10729   0.11494
  Beta virt. eigenvalues --    0.12625   0.13019   0.14012   0.15383   0.15742
  Beta virt. eigenvalues --    0.16862   0.17261   0.18019   0.18768   0.18933
  Beta virt. eigenvalues --    0.20072   0.20503   0.20824   0.22021   0.22432
  Beta virt. eigenvalues --    0.23699   0.24535   0.25759   0.27019   0.27572
  Beta virt. eigenvalues --    0.29550   0.29739   0.30621   0.32050   0.32625
  Beta virt. eigenvalues --    0.33271   0.35213   0.36113   0.36212   0.37614
  Beta virt. eigenvalues --    0.37965   0.39062   0.41041   0.42254   0.43339
  Beta virt. eigenvalues --    0.44735   0.45660   0.46416   0.46833   0.48246
  Beta virt. eigenvalues --    0.50551   0.51388   0.55200   0.57463   0.59148
  Beta virt. eigenvalues --    0.62173   0.63745   0.68080   0.68808   0.69286
  Beta virt. eigenvalues --    0.73048   0.75376   0.76945   0.81630   0.83066
  Beta virt. eigenvalues --    0.84443   0.85194   0.85994   0.86989   0.87501
  Beta virt. eigenvalues --    0.88291   0.89666   0.90290   0.92740   0.96275
  Beta virt. eigenvalues --    0.97572   0.99446   1.04929   1.09105   1.11352
  Beta virt. eigenvalues --    1.13029   1.21917   1.24392   1.25451   1.29391
  Beta virt. eigenvalues --    1.31732   1.33800   1.37995   1.39396   1.41432
  Beta virt. eigenvalues --    1.42803   1.44394   1.45259   1.49378   1.50700
  Beta virt. eigenvalues --    1.52015   1.53361   1.56863   1.61037   1.63292
  Beta virt. eigenvalues --    1.65066   1.67648   1.71620   1.72195   1.75131
  Beta virt. eigenvalues --    1.78771   1.80499   1.82502   1.83676   1.85974
  Beta virt. eigenvalues --    1.87154   1.89402   1.91113   1.93513   1.95661
  Beta virt. eigenvalues --    1.99592   2.00957   2.02872   2.09970   2.12198
  Beta virt. eigenvalues --    2.13764   2.18401   2.21450   2.27631   2.30042
  Beta virt. eigenvalues --    2.34605   2.35768   2.41581   2.42264   2.48258
  Beta virt. eigenvalues --    2.56880   2.65287   2.69912   2.78631   2.79639
  Beta virt. eigenvalues --    2.81288   2.82665   2.86206   2.88729   2.90309
  Beta virt. eigenvalues --    2.93476   2.96272   2.96839   2.98657   2.99978
  Beta virt. eigenvalues --    3.07317   3.14675   3.17607   3.19654   3.20759
  Beta virt. eigenvalues --    3.26659   3.28396   3.31525   3.36796   3.37724
  Beta virt. eigenvalues --    3.40471   3.44066   3.45444   3.49528   3.50679
  Beta virt. eigenvalues --    3.54053   3.61105   3.62829   3.65734   3.71784
  Beta virt. eigenvalues --    3.72501   3.78916   3.88993   4.03436   4.15861
  Beta virt. eigenvalues --    4.20500   4.22040   4.22343   4.26991   4.44464
  Beta virt. eigenvalues --    4.53239   4.55412   4.71045   5.55092   5.58332
  Beta virt. eigenvalues --    5.64778   5.66479   5.78341   5.93241   6.05304
  Beta virt. eigenvalues --    6.23014   6.43416  24.70180  25.01039  25.02142
  Beta virt. eigenvalues --   25.14319  26.22545  51.53674  51.61408  51.71810
          Condensed to atoms (all electrons):
               1          2          3          4          5          6
     1  C   27.768006   0.629803  -8.107398 -12.793344   0.091467   0.085323
     2  H    0.629803   0.405681  -0.191011  -0.043348  -0.001491  -0.002989
     3  C   -8.107398  -0.191011  18.510087  -5.483705   0.358448   0.068498
     4  C  -12.793344  -0.043348  -5.483705  24.435172  -0.033682  -0.311043
     5  O    0.091467  -0.001491   0.358448  -0.033682   8.062342  -0.105579
     6  O    0.085323  -0.002989   0.068498  -0.311043  -0.105579   8.396971
     7  C   -0.196436  -0.000273  -0.603176   0.389334  -0.061563   0.197635
     8  C   -0.073644   0.000664  -0.387726   0.464707   0.016174  -0.212048
     9  H    0.060025   0.000144   0.086014  -0.145909  -0.010757  -0.032588
    10  H   -0.038198  -0.000408  -0.040947   0.068890  -0.014295  -0.036570
    11  H    0.010368  -0.000013   0.020466  -0.023387  -0.001031  -0.007516
    12  H   -0.006868  -0.000010   0.013035   0.001256  -0.001126  -0.008988
    13  H   -0.005807  -0.000026  -0.007455   0.011568   0.001616   0.021999
    14  O   -0.083273   0.000937   0.181449  -0.185613  -0.013413  -0.006675
    15  H   -0.066690  -0.002074   0.056331   0.035434  -0.001155   0.000107
               7          8          9         10         11         12
     1  C   -0.196436  -0.073644   0.060025  -0.038198   0.010368  -0.006868
     2  H   -0.000273   0.000664   0.000144  -0.000408  -0.000013  -0.000010
     3  C   -0.603176  -0.387726   0.086014  -0.040947   0.020466   0.013035
     4  C    0.389334   0.464707  -0.145909   0.068890  -0.023387   0.001256
     5  O   -0.061563   0.016174  -0.010757  -0.014295  -0.001031  -0.001126
     6  O    0.197635  -0.212048  -0.032588  -0.036570  -0.007516  -0.008988
     7  C    5.474860   0.038827   0.446145   0.434839  -0.023261  -0.036091
     8  C    0.038827   5.706237  -0.077525  -0.045965   0.384661   0.395133
     9  H    0.446145  -0.077525   0.555146  -0.053367   0.004415  -0.005519
    10  H    0.434839  -0.045965  -0.053367   0.553891  -0.006201   0.004107
    11  H   -0.023261   0.384661   0.004415  -0.006201   0.565352  -0.039857
    12  H   -0.036091   0.395133  -0.005519   0.004107  -0.039857   0.560704
    13  H   -0.053084   0.418246  -0.005259  -0.003971  -0.034641  -0.033815
    14  O   -0.008086  -0.003161   0.000916   0.000183   0.000201   0.000498
    15  H    0.000199   0.000252  -0.000686   0.000112  -0.000009  -0.000037
              13         14         15
     1  C   -0.005807  -0.083273  -0.066690
     2  H   -0.000026   0.000937  -0.002074
     3  C   -0.007455   0.181449   0.056331
     4  C    0.011568  -0.185613   0.035434
     5  O    0.001616  -0.013413  -0.001155
     6  O    0.021999  -0.006675   0.000107
     7  C   -0.053084  -0.008086   0.000199
     8  C    0.418246  -0.003161   0.000252
     9  H   -0.005259   0.000916  -0.000686
    10  H   -0.003971   0.000183   0.000112
    11  H   -0.034641   0.000201  -0.000009
    12  H   -0.033815   0.000498  -0.000037
    13  H    0.552361  -0.000255   0.000059
    14  O   -0.000255   8.015452   0.260333
    15  H    0.000059   0.260333   0.476184
          Atomic-Atomic Spin Densities.
               1          2          3          4          5          6
     1  C   -0.457430  -0.054554   0.403994   1.111070   0.008427  -0.013614
     2  H   -0.054554  -0.053989   0.038160   0.013829   0.000148  -0.000475
     3  C    0.403994   0.038160  -1.236030  -0.038009   0.016202   0.043122
     4  C    1.111070   0.013829  -0.038009  -0.993861  -0.004367  -0.034643
     5  O    0.008427   0.000148   0.016202  -0.004367  -0.100740   0.000277
     6  O   -0.013614  -0.000475   0.043122  -0.034643   0.000277   0.007059
     7  C   -0.014468  -0.000146   0.002156   0.011014   0.004077  -0.003636
     8  C    0.022150   0.000161   0.014918  -0.038167  -0.001032   0.002418
     9  H   -0.002412  -0.000026  -0.001492   0.005085   0.000197  -0.000246
    10  H    0.001698   0.000018   0.001507  -0.002589  -0.000351   0.000285
    11  H   -0.000718  -0.000012  -0.000197   0.001382   0.000021   0.000036
    12  H   -0.001027  -0.000011  -0.000630   0.001804  -0.000010   0.000008
    13  H    0.000352   0.000003   0.001200  -0.001651   0.000048  -0.000064
    14  O   -0.308412  -0.004080   0.032000   0.219910   0.000965   0.000231
    15  H    0.045970   0.000838  -0.024260  -0.025539  -0.000090   0.000657
               7          8          9         10         11         12
     1  C   -0.014468   0.022150  -0.002412   0.001698  -0.000718  -0.001027
     2  H   -0.000146   0.000161  -0.000026   0.000018  -0.000012  -0.000011
     3  C    0.002156   0.014918  -0.001492   0.001507  -0.000197  -0.000630
     4  C    0.011014  -0.038167   0.005085  -0.002589   0.001382   0.001804
     5  O    0.004077  -0.001032   0.000197  -0.000351   0.000021  -0.000010
     6  O   -0.003636   0.002418  -0.000246   0.000285   0.000036   0.000008
     7  C    0.004976   0.000202  -0.001707  -0.000559  -0.000659  -0.001276
     8  C    0.000202  -0.003148   0.001303  -0.000178   0.000425   0.001299
     9  H   -0.001707   0.001303  -0.000091  -0.000167  -0.000034  -0.000012
    10  H   -0.000559  -0.000178  -0.000167   0.000186   0.000029   0.000067
    11  H   -0.000659   0.000425  -0.000034   0.000029  -0.000054  -0.000071
    12  H   -0.001276   0.001299  -0.000012   0.000067  -0.000071  -0.000032
    13  H    0.001636  -0.001525  -0.000073  -0.000106  -0.000095  -0.000123
    14  O   -0.001836   0.003196  -0.000588   0.000328  -0.000017   0.000028
    15  H    0.000514  -0.000350   0.000136  -0.000073   0.000002  -0.000026
              13         14         15
     1  C    0.000352  -0.308412   0.045970
     2  H    0.000003  -0.004080   0.000838
     3  C    0.001200   0.032000  -0.024260
     4  C   -0.001651   0.219910  -0.025539
     5  O    0.000048   0.000965  -0.000090
     6  O   -0.000064   0.000231   0.000657
     7  C    0.001636  -0.001836   0.000514
     8  C   -0.001525   0.003196  -0.000350
     9  H   -0.000073  -0.000588   0.000136
    10  H   -0.000106   0.000328  -0.000073
    11  H   -0.000095  -0.000017   0.000002
    12  H   -0.000123   0.000028  -0.000026
    13  H    0.000386   0.000001   0.000009
    14  O    0.000001   0.992656   0.015174
    15  H    0.000009   0.015174  -0.048457
 Mulliken charges and spin densities:
               1          2
     1  C   -1.273335   0.741026
     2  H    0.204415  -0.060136
     3  C    1.527090  -0.747359
     4  C   -0.386330   0.225268
     5  O   -0.285953  -0.076227
     6  O   -0.046538   0.001415
     7  C    0.000131   0.000289
     8  C   -0.624831   0.001672
     9  H    0.178807  -0.000126
    10  H    0.177900   0.000095
    11  H    0.150453   0.000037
    12  H    0.157577  -0.000013
    13  H    0.138465  -0.000002
    14  O   -0.159493   0.949555
    15  H    0.241641  -0.035495
 Sum of Mulliken charges =  -0.00000   1.00000
 Mulliken charges and spin densities with hydrogens summed into heavy atoms:
               1          2
     1  C   -1.068920   0.680890
     3  C    1.527090  -0.747359
     4  C   -0.386330   0.225268
     5  O   -0.285953  -0.076227
     6  O   -0.046538   0.001415
     7  C    0.356838   0.000258
     8  C   -0.178336   0.001695
    14  O    0.082148   0.914060
 Electronic spatial extent (au):  <R**2>=           1177.6134
 Charge=             -0.0000 electrons
 Dipole moment (field-independent basis, Debye):
    X=              0.4861    Y=             -0.9598    Z=             -0.5904  Tot=              1.2272
 Quadrupole moment (field-independent basis, Debye-Ang):
   XX=            -29.9236   YY=            -55.5131   ZZ=            -44.6670
   XY=             -2.0650   XZ=             -1.3843   YZ=             -2.1134
 Traceless Quadrupole moment (field-independent basis, Debye-Ang):
   XX=             13.4443   YY=            -12.1452   ZZ=             -1.2991
   XY=             -2.0650   XZ=             -1.3843   YZ=             -2.1134
 Octapole moment (field-independent basis, Debye-Ang**2):
  XXX=             34.5715  YYY=             -6.8631  ZZZ=              9.7542  XYY=             -7.9092
  XXY=             -5.9261  XXZ=             -1.6205  XZZ=             12.9405  YZZ=             -3.6607
  YYZ=             -2.6475  XYZ=              0.9413
 Hexadecapole moment (field-independent basis, Debye-Ang**3):
 XXXX=           -906.8918 YYYY=           -275.7411 ZZZZ=           -179.1145 XXXY=            -42.1485
 XXXZ=            -21.2997 YYYX=             -4.4784 YYYZ=             -9.5025 ZZZX=             15.6834
 ZZZY=             -5.0097 XXYY=           -236.7439 XXZZ=           -163.8795 YYZZ=            -76.6873
 XXYZ=              2.6070 YYXZ=              3.1892 ZZXY=            -12.7116
 N-N= 3.546894850481D+02 E-N=-1.692586867623D+03  KE= 4.177356900251D+02
 1\1\GINC-AJ\SP\UCCSD(T)-FC\6-311++G(d,p)\C5H7O3(2)\AAYUSH\24-Apr-2025\
 0\\# ccsd(t)/6-311++g(d,p) sp\\Title Card Required\\0,2\C,0,-2.529334,
 0.219521,-1.135454\H,0,-3.425992,0.489159,-1.642973\C,0,-1.518245,-0.0
 39983,-0.532665\C,0,-0.257499,-0.597414,-0.037745\O,0,-0.182145,-1.660
 214,0.510588\O,0,0.760942,0.205713,-0.316117\C,0,2.052404,-0.255041,0.
 12663\C,0,3.058272,0.802544,-0.262418\H,0,2.01037,-0.409409,1.206665\H
 ,0,2.257141,-1.217817,-0.346385\H,0,3.066986,0.946689,-1.343448\H,0,2.
 817172,1.753163,0.214401\H,0,4.055848,0.495333,0.055896\O,0,-1.705159,
 1.180983,1.206273\H,0,-2.497523,0.740402,1.553323\\Version=ES64L-G16Re
 vA.03\State=2-A\HF=-417.9862672\MP2=-419.2435599\MP3=-419.2726701\MP4D
 =-419.3031545\MP4DQ=-419.2784811\PUHF=-418.0001751\PMP2-0=-419.2556205
 \PMP3-0=-419.2815138\MP4SDQ=-419.2984464\CCSD=-419.3016905\CCSD(T)=-41
 9.3547332\S2=0.917346\S2-1=0.870357\S2A=0.766171\RMSD=5.809e-09\PG=C01
  [X(C5H7O3)]\\@


 WHEN IT COMES TO CASH FLOW, IT SEEMS LIKE THE TIDE IS ALWAYS GOING OUT.
 Job cpu time:       0 days 22 hours  3 minutes 57.8 seconds.
 Elapsed time:       0 days  0 hours 55 minutes 23.4 seconds.
 File lengths (MBytes):  RWF=  44733 Int=      0 D2E=      0 Chk=      7 Scr=      1
 Normal termination of Gaussian 16 at Thu Apr 24 14:31:37 2025.
