 Entering Gaussian System, Link 0=g16
 Initial command:
 /opt/g16/l1.exe "/home/aayush/scratches/g16/Gau-7330.inp" -scrdir="/home/aayush/scratches/g16/"
 Entering Link 1 = /opt/g16/l1.exe PID=      7333.
  
 Copyright (c) 1988,1990,1992,1993,1995,1998,2003,2009,2016,
            Gaussian, Inc.  All Rights Reserved.
  
 This is part of the Gaussian(R) 16 program.  It is based on
 the Gaussian(R) 09 system (copyright 2009, Gaussian, Inc.),
 the Gaussian(R) 03 system (copyright 2003, Gaussian, Inc.),
 the Gaussian(R) 98 system (copyright 1998, Gaussian, Inc.),
 the Gaussian(R) 94 system (copyright 1995, Gaussian, Inc.),
 the Gaussian 92(TM) system (copyright 1992, Gaussian, Inc.),
 the Gaussian 90(TM) system (copyright 1990, Gaussian, Inc.),
 the Gaussian 88(TM) system (copyright 1988, Gaussian, Inc.),
 the Gaussian 86(TM) system (copyright 1986, Carnegie Mellon
 University), and the Gaussian 82(TM) system (copyright 1983,
 Carnegie Mellon University). Gaussian is a federally registered
 trademark of Gaussian, Inc.
  
 This software contains proprietary and confidential information,
 including trade secrets, belonging to Gaussian, Inc.
  
 This software is provided under written license and may be
 used, copied, transmitted, or stored only in accord with that
 written license.
  
 The following legend is applicable only to US Government
 contracts under FAR:
  
                    RESTRICTED RIGHTS LEGEND
  
 Use, reproduction and disclosure by the US Government is
 subject to restrictions as set forth in subparagraphs (a)
 and (c) of the Commercial Computer Software - Restricted
 Rights clause in FAR 52.227-19.
  
 Gaussian, Inc.
 340 Quinnipiac St., Bldg. 40, Wallingford CT 06492
  
  
 ---------------------------------------------------------------
 Warning -- This program may not be used in any manner that
 competes with the business of Gaussian, Inc. or will provide
 assistance to any competitor of Gaussian, Inc.  The licensee
 of this program is prohibited from giving any competitor of
 Gaussian, Inc. access to this program.  By using this program,
 the user acknowledges that Gaussian, Inc. is engaged in the
 business of creating and licensing software in the field of
 computational chemistry and represents and warrants to the
 licensee that it is not a competitor of Gaussian, Inc. and that
 it will not use this program in any manner prohibited above.
 ---------------------------------------------------------------
  

 Cite this work as:
 Gaussian 16, Revision A.03,
 M. J. Frisch, G. W. Trucks, H. B. Schlegel, G. E. Scuseria, 
 M. A. Robb, J. R. Cheeseman, G. Scalmani, V. Barone, 
 G. A. Petersson, H. Nakatsuji, X. Li, M. Caricato, A. V. Marenich, 
 J. Bloino, B. G. Janesko, R. Gomperts, B. Mennucci, H. P. Hratchian, 
 J. V. Ortiz, A. F. Izmaylov, J. L. Sonnenberg, D. Williams-Young, 
 F. Ding, F. Lipparini, F. Egidi, J. Goings, B. Peng, A. Petrone, 
 T. Henderson, D. Ranasinghe, V. G. Zakrzewski, J. Gao, N. Rega, 
 G. Zheng, W. Liang, M. Hada, M. Ehara, K. Toyota, R. Fukuda, 
 J. Hasegawa, M. Ishida, T. Nakajima, Y. Honda, O. Kitao, H. Nakai, 
 T. Vreven, K. Throssell, J. A. Montgomery, Jr., J. E. Peralta, 
 F. Ogliaro, M. J. Bearpark, J. J. Heyd, E. N. Brothers, K. N. Kudin, 
 V. N. Staroverov, T. A. Keith, R. Kobayashi, J. Normand, 
 K. Raghavachari, A. P. Rendell, J. C. Burant, S. S. Iyengar, 
 J. Tomasi, M. Cossi, J. M. Millam, M. Klene, C. Adamo, R. Cammi, 
 J. W. Ochterski, R. L. Martin, K. Morokuma, O. Farkas, 
 J. B. Foresman, and D. J. Fox, Gaussian, Inc., Wallingford CT, 2016.
 
 ******************************************
 Gaussian 16:  ES64L-G16RevA.03 25-Dec-2016
                28-Apr-2025 
 ******************************************
 %chk=ethyl_propiolate.chk
 %nprocshared=24
 Will use up to   24 processors via shared memory.
 %mem=12GB
 --------------------------
 # ccsd(t)/6-311++g(d,p) sp
 --------------------------
 1/38=1,172=1/1;
 2/12=2,17=6,18=5,40=1/2;
 3/5=4,6=6,7=1111,11=9,25=1,30=1/1,2,3;
 4//1;
 5/5=2,38=5/2;
 8/6=4,9=120000,10=2/1,4;
 9/5=7,14=2/13;
 6/7=2,8=2,9=2,10=2/1;
 99/5=1,9=1/99;
 -------------------
 Title Card Required
 -------------------
 Symbolic Z-matrix:
 Charge =  0 Multiplicity = 2
 C                    -2.52077   0.2125   -1.13729 
 H                    -3.40894   0.46609  -1.66893 
 C                    -1.53632   0.03059  -0.43157 
 C                    -0.25797  -0.59127  -0.02787 
 O                    -0.18484  -1.66134   0.50366 
 O                     0.76054   0.20481  -0.31827 
 C                     2.05295  -0.25585   0.1249 
 C                     3.05821   0.80264  -0.26251 
 H                     2.00818  -0.40958   1.20492 
 H                     2.25855  -1.21834  -0.34796 
 H                     3.06798   0.9472   -1.34349 
 H                     2.81604   1.75272   0.21472 
 H                     4.05561   0.49556   0.05648 
 O                    -1.69657   1.13342   1.13836 
 H                    -2.48742   0.72954   1.52587 
 
                          Input orientation:                          
 ---------------------------------------------------------------------
 Center     Atomic      Atomic             Coordinates (Angstroms)
 Number     Number       Type             X           Y           Z
 ---------------------------------------------------------------------
      1          6           0       -2.520774    0.212502   -1.137294
      2          1           0       -3.408938    0.466086   -1.668934
      3          6           0       -1.536317    0.030588   -0.431567
      4          6           0       -0.257971   -0.591268   -0.027874
      5          8           0       -0.184842   -1.661340    0.503660
      6          8           0        0.760543    0.204811   -0.318274
      7          6           0        2.052954   -0.255850    0.124901
      8          6           0        3.058213    0.802641   -0.262507
      9          1           0        2.008184   -0.409576    1.204922
     10          1           0        2.258551   -1.218335   -0.347955
     11          1           0        3.067976    0.947195   -1.343491
     12          1           0        2.816044    1.752720    0.214721
     13          1           0        4.055607    0.495558    0.056477
     14          8           0       -1.696574    1.133416    1.138364
     15          1           0       -2.487420    0.729540    1.525869
 ---------------------------------------------------------------------
                    Distance matrix (angstroms):
                    1          2          3          4          5
     1  C    0.000000
     2  H    1.065730   0.000000
     3  C    1.224867   2.286361   0.000000
     4  C    2.645210   3.706706   1.477783   0.000000
     5  O    3.414761   4.431806   2.358761   1.197051   0.000000
     6  O    3.381996   4.390572   2.306243   1.324932   2.247632
     7  C    4.767754   5.794075   3.643428   2.340132   2.669568
     8  C    5.677906   6.626866   4.662012   3.604873   4.144348
     9  H    5.136576   6.194436   3.928782   2.586166   2.620695
    10  H    5.050970   6.058275   3.995976   2.613149   2.625199
    11  H    5.640604   6.502907   4.782394   3.893538   4.560400
    12  H    5.716804   6.629780   4.725090   3.873332   4.554625
    13  H    6.689843   7.661419   5.632406   4.449187   4.778451
    14  O    2.589596   3.355360   1.925252   2.530657   3.240192
    15  H    2.713094   3.335471   2.285757   3.021439   3.473195
                    6          7          8          9         10
     6  O    0.000000
     7  C    1.441853   0.000000
     8  C    2.374826   1.510309   0.000000
     9  H    2.062573   1.091825   2.173794   0.000000
    10  H    2.066459   1.091898   2.175110   1.768672   0.000000
    11  H    2.631815   2.152617   1.090650   3.075450   2.517098
    12  H    2.627773   2.150518   1.090432   2.511705   3.074829
    13  H    3.329027   2.140074   1.091259   2.515976   2.516030
    14  O    3.003585   4.125061   4.967882   4.013787   4.835586
    15  H    3.771666   4.852700   5.827322   4.648768   5.461655
                   11         12         13         14         15
    11  H    0.000000
    12  H    1.772107   0.000000
    13  H    1.771807   1.772573   0.000000
    14  O    5.375427   4.647620   5.887693   0.000000
    15  H    6.256439   5.558123   6.710072   0.968872   0.000000
 Stoichiometry    C5H7O3(2)
 Framework group  C1[X(C5H7O3)]
 Deg. of freedom    39
 Full point group                 C1      NOp   1
 Largest Abelian subgroup         C1      NOp   1
 Largest concise Abelian subgroup C1      NOp   1
                         Standard orientation:                         
 ---------------------------------------------------------------------
 Center     Atomic      Atomic             Coordinates (Angstroms)
 Number     Number       Type             X           Y           Z
 ---------------------------------------------------------------------
      1          6           0        2.588581   -0.220402   -1.128305
      2          1           0        3.476783   -0.487985   -1.652974
      3          6           0        1.603990   -0.019959   -0.427805
      4          6           0        0.325849    0.612711   -0.040601
      5          8           0        0.253126    1.696075    0.463348
      6          8           0       -0.693002   -0.189994   -0.310884
      7          6           0       -1.985309    0.282551    0.119910
      8          6           0       -2.991016   -0.784969   -0.240628
      9          1           0       -1.940814    0.463844    1.195659
     10          1           0       -2.190225    1.232729   -0.377494
     11          1           0       -3.000499   -0.957136   -1.317562
     12          1           0       -2.749523   -1.722653    0.260842
     13          1           0       -3.988348   -0.469288    0.070047
     14          8           0        1.763125   -1.082332    1.169892
     15          1           0        2.554063   -0.669095    1.547207
 ---------------------------------------------------------------------
 Rotational constants (GHZ):           3.6339872           1.1511055           1.0740744
 Standard basis: 6-311++G(d,p) (5D, 7F)
 There are   233 symmetry adapted cartesian basis functions of A   symmetry.
 There are   225 symmetry adapted basis functions of A   symmetry.
   225 basis functions,   351 primitive gaussians,   233 cartesian basis functions
    31 alpha electrons       30 beta electrons
       nuclear repulsion energy       356.8477817824 Hartrees.
 NAtoms=   15 NActive=   15 NUniq=   15 SFac= 1.00D+00 NAtFMM=   60 NAOKFM=F Big=F
 Integral buffers will be    131072 words long.
 Raffenetti 2 integral format.
 Two-electron integral symmetry is turned on.
 One-electron integrals computed using PRISM.
 NBasis=   225 RedAO= T EigKep=  4.06D-06  NBF=   225
 NBsUse=   225 1.00D-06 EigRej= -1.00D+00 NBFU=   225
 ExpMin= 3.60D-02 ExpMax= 8.59D+03 ExpMxC= 1.30D+03 IAcc=3 IRadAn=         5 AccDes= 0.00D+00
 Harris functional with IExCor=  205 and IRadAn=       5 diagonalized for initial guess.
 HarFok:  IExCor=  205 AccDes= 0.00D+00 IRadAn=         5 IDoV= 1 UseB2=F ITyADJ=14
 ICtDFT=  3500011 ScaDFX=  1.000000  1.000000  1.000000  1.000000
 FoFCou: FMM=F IPFlag=           0 FMFlag=      100000 FMFlg1=           0
         NFxFlg=           0 DoJE=T BraDBF=F KetDBF=T FulRan=T
         wScrn=  0.000000 ICntrl=       500 IOpCl=  0 I1Cent=   200000004 NGrid=           0
         NMat0=    1 NMatS0=      1 NMatT0=    0 NMatD0=    1 NMtDS0=    0 NMtDT0=    0
 Petite list used in FoFCou.
 Initial guess <Sx>= 0.0000 <Sy>= 0.0000 <Sz>= 0.5000 <S**2>= 0.7500 S= 0.5000
 Requested convergence on RMS density matrix=1.00D-08 within 128 cycles.
 Requested convergence on MAX density matrix=1.00D-06.
 Requested convergence on             energy=1.00D-06.
 No special actions if energy rises.
 Initial convergence to 1.0D-05 achieved.  Increase integral accuracy.
 SCF Done:  E(UHF) =  -417.978792598     A.U. after   33 cycles
            NFock= 33  Conv=0.90D-08     -V/T= 2.0006
 <Sx>= 0.0000 <Sy>= 0.0000 <Sz>= 0.5000 <S**2>= 1.0626 S= 0.6457
 <L.S>=  0.00000000000    
 Annihilation of the first spin contaminant:
 S**2 before annihilation     1.0626,   after     0.8116
 ExpMin= 3.60D-02 ExpMax= 8.59D+03 ExpMxC= 1.30D+03 IAcc=3 IRadAn=         5 AccDes= 0.00D+00
 HarFok:  IExCor=  205 AccDes= 0.00D+00 IRadAn=         5 IDoV=-2 UseB2=F ITyADJ=14
 ICtDFT= 12500011 ScaDFX=  1.000000  1.000000  1.000000  1.000000
 Range of M.O.s used for correlation:     9   225
 NBasis=   225 NAE=    31 NBE=    30 NFC=     8 NFV=     0
 NROrb=    217 NOA=    23 NOB=    22 NVA=   194 NVB=   195

 **** Warning!!: The largest alpha MO coefficient is  0.13951040D+03


 **** Warning!!: The largest beta MO coefficient is  0.13895890D+03

 Semi-Direct transformation.
 ModeAB=           4 MOrb=            23 LenV=    1609178157
 LASXX=    109339976 LTotXX=   109339976 LenRXX=   221407890
 LTotAB=   112067914 MaxLAS=   127115779 LenRXY=           0
 NonZer=   330747866 LenScr=   498067456 LnRSAI=   127115779
 LnScr1=   191447040 LExtra=           0 Total=   1038038165
 MaxDsk=          -1 SrtSym=           T ITran=            4
 JobTyp=1 Pass  1:  I=   1 to  23.
 (rs|ai) integrals will be sorted in core.
 ModeAB=           4 MOrb=            22 LenV=    1609178157
 LASXX=    104936601 LTotXX=   104936601 LenRXX=   190867446
 LTotAB=    85930845 MaxLAS=   121589006 LenRXY=           0
 NonZer=   295804047 LenScr=   445446144 LnRSAI=   121589006
 LnScr1=   183149568 LExtra=           0 Total=    941052164
 MaxDsk=          -1 SrtSym=           T ITran=            4
 JobTyp=2 Pass  1:  I=   1 to  22.
 (rs|ai) integrals will be sorted in core.
 SymMOI:  orbitals are not symmetric.
 Spin components of T(2) and E(2):
     alpha-alpha T2 =       0.5188571919D-01 E2=     -0.1695951013D+00
     alpha-beta  T2 =       0.2797663780D+00 E2=     -0.9278173095D+00
     beta-beta   T2 =       0.4977929444D-01 E2=     -0.1575296747D+00
 ANorm=    0.1175343095D+01
 E2 =    -0.1254942085D+01 EUMP2 =    -0.41923373468317D+03
 (S**2,0)=  0.10626D+01           (S**2,1)=  0.97634D+00
 E(PUHF)=      -0.41800478927D+03        E(PMP2)=      -0.41925651821D+03
 Keep R2 and R3 ints in memory in canonical form, NReq=652884060.
 CIDS: In Core Option IDoMem=           1.
 Iterations=  50 Convergence= 0.100D-06
 Produce multiple copies of IABC intergrals
 Iteration Nr.   1
 **********************
 DD1Dir will call FoFMem   1 times, MxPair=      1496
 NAB=   506 NAA=   253 NBB=   231.
 E(PMP3)=      -0.41928163725D+03
 MP4(R+Q)=  0.24284376D-01
 E3=       -0.30496700D-01        EUMP3=      -0.41926423138D+03
 E4(DQ)=   -0.61301377D-02        UMP4(DQ)=   -0.41927036152D+03
 E4(SDQ)=  -0.28082062D-01        UMP4(SDQ)=  -0.41929231344D+03
 DE(Corr)=  -1.2609430     E(Corr)=     -419.23973564    
 NORM(A)=   0.11860841D+01
 Iteration Nr.   2
 **********************
 DD1Dir will call FoFMem   1 times, MxPair=      1496
 NAB=   506 NAA=   253 NBB=   231.
 DE(Corr)=  -1.3051412     E(CORR)=     -419.28393377     Delta=-4.42D-02
 NORM(A)=   0.12091829D+01
 Iteration Nr.   3
 **********************
 DD1Dir will call FoFMem   1 times, MxPair=      1496
 NAB=   506 NAA=   253 NBB=   231.
 DE(Corr)=  -1.3092098     E(CORR)=     -419.28800241     Delta=-4.07D-03
 NORM(A)=   0.12241832D+01
 Iteration Nr.   4
 **********************
 DD1Dir will call FoFMem   1 times, MxPair=      1496
 NAB=   506 NAA=   253 NBB=   231.
 DE(Corr)=  -1.3177600     E(CORR)=     -419.29655257     Delta=-8.55D-03
 NORM(A)=   0.12343023D+01
 Iteration Nr.   5
 **********************
 DD1Dir will call FoFMem   1 times, MxPair=      1496
 NAB=   506 NAA=   253 NBB=   231.
 DE(Corr)=  -1.3204017     E(CORR)=     -419.29919427     Delta=-2.64D-03
 NORM(A)=   0.12386284D+01
 Iteration Nr.   6
 **********************
 DD1Dir will call FoFMem   1 times, MxPair=      1496
 NAB=   506 NAA=   253 NBB=   231.
 DE(Corr)=  -1.3211237     E(CORR)=     -419.29991627     Delta=-7.22D-04
 NORM(A)=   0.12392126D+01
 Iteration Nr.   7
 **********************
 DD1Dir will call FoFMem   1 times, MxPair=      1496
 NAB=   506 NAA=   253 NBB=   231.
 DE(Corr)=  -1.3212093     E(CORR)=     -419.30000190     Delta=-8.56D-05
 NORM(A)=   0.12393346D+01
 Iteration Nr.   8
 **********************
 DD1Dir will call FoFMem   1 times, MxPair=      1496
 NAB=   506 NAA=   253 NBB=   231.
 DE(Corr)=  -1.3211825     E(CORR)=     -419.29997509     Delta= 2.68D-05
 NORM(A)=   0.12393401D+01
 Iteration Nr.   9
 **********************
 DD1Dir will call FoFMem   1 times, MxPair=      1496
 NAB=   506 NAA=   253 NBB=   231.
 DE(Corr)=  -1.3212000     E(CORR)=     -419.29999256     Delta=-1.75D-05
 NORM(A)=   0.12393062D+01
 Iteration Nr.  10
 **********************
 DD1Dir will call FoFMem   1 times, MxPair=      1496
 NAB=   506 NAA=   253 NBB=   231.
 DE(Corr)=  -1.3211763     E(CORR)=     -419.29996891     Delta= 2.37D-05
 NORM(A)=   0.12393014D+01
 Iteration Nr.  11
 **********************
 DD1Dir will call FoFMem   1 times, MxPair=      1496
 NAB=   506 NAA=   253 NBB=   231.
 DE(Corr)=  -1.3211997     E(CORR)=     -419.29999229     Delta=-2.34D-05
 NORM(A)=   0.12393608D+01
 Iteration Nr.  12
 **********************
 DD1Dir will call FoFMem   1 times, MxPair=      1496
 NAB=   506 NAA=   253 NBB=   231.
 DE(Corr)=  -1.3212012     E(CORR)=     -419.29999384     Delta=-1.55D-06
 NORM(A)=   0.12394582D+01
 Iteration Nr.  13
 **********************
 DD1Dir will call FoFMem   1 times, MxPair=      1496
 NAB=   506 NAA=   253 NBB=   231.
 DE(Corr)=  -1.3212223     E(CORR)=     -419.30001485     Delta=-2.10D-05
 NORM(A)=   0.12395541D+01
 Iteration Nr.  14
 **********************
 DD1Dir will call FoFMem   1 times, MxPair=      1496
 NAB=   506 NAA=   253 NBB=   231.
 DE(Corr)=  -1.3212399     E(CORR)=     -419.30003253     Delta=-1.77D-05
 NORM(A)=   0.12396204D+01
 Iteration Nr.  15
 **********************
 DD1Dir will call FoFMem   1 times, MxPair=      1496
 NAB=   506 NAA=   253 NBB=   231.
 DE(Corr)=  -1.3212485     E(CORR)=     -419.30004114     Delta=-8.61D-06
 NORM(A)=   0.12396523D+01
 Iteration Nr.  16
 **********************
 DD1Dir will call FoFMem   1 times, MxPair=      1496
 NAB=   506 NAA=   253 NBB=   231.
 DE(Corr)=  -1.3212561     E(CORR)=     -419.30004870     Delta=-7.55D-06
 NORM(A)=   0.12396597D+01
 Iteration Nr.  17
 **********************
 DD1Dir will call FoFMem   1 times, MxPair=      1496
 NAB=   506 NAA=   253 NBB=   231.
 DE(Corr)=  -1.3212555     E(CORR)=     -419.30004805     Delta= 6.41D-07
 NORM(A)=   0.12396573D+01
 Iteration Nr.  18
 **********************
 DD1Dir will call FoFMem   1 times, MxPair=      1496
 NAB=   506 NAA=   253 NBB=   231.
 DE(Corr)=  -1.3212550     E(CORR)=     -419.30004756     Delta= 4.99D-07
 NORM(A)=   0.12396523D+01
 Iteration Nr.  19
 **********************
 DD1Dir will call FoFMem   1 times, MxPair=      1496
 NAB=   506 NAA=   253 NBB=   231.
 DE(Corr)=  -1.3212535     E(CORR)=     -419.30004615     Delta= 1.41D-06
 NORM(A)=   0.12396486D+01
 Iteration Nr.  20
 **********************
 DD1Dir will call FoFMem   1 times, MxPair=      1496
 NAB=   506 NAA=   253 NBB=   231.
 DE(Corr)=  -1.3212525     E(CORR)=     -419.30004507     Delta= 1.08D-06
 NORM(A)=   0.12396460D+01
 Iteration Nr.  21
 **********************
 DD1Dir will call FoFMem   1 times, MxPair=      1496
 NAB=   506 NAA=   253 NBB=   231.
 DE(Corr)=  -1.3212519     E(CORR)=     -419.30004447     Delta= 6.05D-07
 NORM(A)=   0.12396466D+01
 Iteration Nr.  22
 **********************
 DD1Dir will call FoFMem   1 times, MxPair=      1496
 NAB=   506 NAA=   253 NBB=   231.
 DE(Corr)=  -1.3212518     E(CORR)=     -419.30004439     Delta= 7.62D-08
 NORM(A)=   0.12396493D+01
 Wavefunction amplitudes converged. E(Corr)=     -419.30004439    
 Largest amplitude= 6.27D-02
 Time for triples=    35774.60 seconds.
 T4(CCSD)= -0.58752520D-01
 T5(CCSD)=  0.42827080D-02
 CCSD(T)= -0.41935451420D+03

 S**2, projected HF & approx projected MPn energies after annihilation of
 unwanted spin states (see manual for definitions):

 spins       (S**2,0) (S**2,1)    PUHF        PMP2        PMP3        PMP4
 annihilated
 s+1         0.71374  0.73596 -418.004789 -419.256518 -419.281637
 s+1,s+2     0.75069  0.74988 -418.002360 -419.254205 -419.279479
 s+1 to s+3  0.74999  0.75000 -418.002417 -419.254247 -419.279497
 s+1 to s+4  0.75000  0.75000 -418.002417 -419.254246 -419.279496
 s+1 to s+5  0.75000  0.75000 -418.002417
 s+1 to s+6  0.75000  0.75000 -418.002417

 Discarding MO integrals.

 **********************************************************************

            Population analysis using the SCF density.

 **********************************************************************

 Orbital symmetries:
 Alpha Orbitals:
       Occupied  (A) (A) (A) (A) (A) (A) (A) (A) (A) (A) (A) (A)
                 (A) (A) (A) (A) (A) (A) (A) (A) (A) (A) (A) (A)
                 (A) (A) (A) (A) (A) (A) (A)
       Virtual   (A) (A) (A) (A) (A) (A) (A) (A) (A) (A) (A) (A)
                 (A) (A) (A) (A) (A) (A) (A) (A) (A) (A) (A) (A)
                 (A) (A) (A) (A) (A) (A) (A) (A) (A) (A) (A) (A)
                 (A) (A) (A) (A) (A) (A) (A) (A) (A) (A) (A) (A)
                 (A) (A) (A) (A) (A) (A) (A) (A) (A) (A) (A) (A)
                 (A) (A) (A) (A) (A) (A) (A) (A) (A) (A) (A) (A)
                 (A) (A) (A) (A) (A) (A) (A) (A) (A) (A) (A) (A)
                 (A) (A) (A) (A) (A) (A) (A) (A) (A) (A) (A) (A)
                 (A) (A) (A) (A) (A) (A) (A) (A) (A) (A) (A) (A)
                 (A) (A) (A) (A) (A) (A) (A) (A) (A) (A) (A) (A)
                 (A) (A) (A) (A) (A) (A) (A) (A) (A) (A) (A) (A)
                 (A) (A) (A) (A) (A) (A) (A) (A) (A) (A) (A) (A)
                 (A) (A) (A) (A) (A) (A) (A) (A) (A) (A) (A) (A)
                 (A) (A) (A) (A) (A) (A) (A) (A) (A) (A) (A) (A)
                 (A) (A) (A) (A) (A) (A) (A) (A) (A) (A) (A) (A)
                 (A) (A) (A) (A) (A) (A) (A) (A) (A) (A) (A) (A)
                 (A) (A)
 Beta  Orbitals:
       Occupied  (A) (A) (A) (A) (A) (A) (A) (A) (A) (A) (A) (A)
                 (A) (A) (A) (A) (A) (A) (A) (A) (A) (A) (A) (A)
                 (A) (A) (A) (A) (A) (A)
       Virtual   (A) (A) (A) (A) (A) (A) (A) (A) (A) (A) (A) (A)
                 (A) (A) (A) (A) (A) (A) (A) (A) (A) (A) (A) (A)
                 (A) (A) (A) (A) (A) (A) (A) (A) (A) (A) (A) (A)
                 (A) (A) (A) (A) (A) (A) (A) (A) (A) (A) (A) (A)
                 (A) (A) (A) (A) (A) (A) (A) (A) (A) (A) (A) (A)
                 (A) (A) (A) (A) (A) (A) (A) (A) (A) (A) (A) (A)
                 (A) (A) (A) (A) (A) (A) (A) (A) (A) (A) (A) (A)
                 (A) (A) (A) (A) (A) (A) (A) (A) (A) (A) (A) (A)
                 (A) (A) (A) (A) (A) (A) (A) (A) (A) (A) (A) (A)
                 (A) (A) (A) (A) (A) (A) (A) (A) (A) (A) (A) (A)
                 (A) (A) (A) (A) (A) (A) (A) (A) (A) (A) (A) (A)
                 (A) (A) (A) (A) (A) (A) (A) (A) (A) (A) (A) (A)
                 (A) (A) (A) (A) (A) (A) (A) (A) (A) (A) (A) (A)
                 (A) (A) (A) (A) (A) (A) (A) (A) (A) (A) (A) (A)
                 (A) (A) (A) (A) (A) (A) (A) (A) (A) (A) (A) (A)
                 (A) (A) (A) (A) (A) (A) (A) (A) (A) (A) (A) (A)
                 (A) (A) (A)
 The electronic state is 2-A.
 Alpha  occ. eigenvalues --  -20.61749 -20.61070 -20.55558 -11.41213 -11.29529
 Alpha  occ. eigenvalues --  -11.27430 -11.27028 -11.22722  -1.48125  -1.37753
 Alpha  occ. eigenvalues --   -1.37480  -1.08151  -1.04770  -0.92035  -0.83287
 Alpha  occ. eigenvalues --   -0.77389  -0.72806  -0.69959  -0.68752  -0.67023
 Alpha  occ. eigenvalues --   -0.64373  -0.59287  -0.58505  -0.55653  -0.54259
 Alpha  occ. eigenvalues --   -0.51925  -0.51280  -0.47671  -0.46163  -0.43353
 Alpha  occ. eigenvalues --   -0.42182
 Alpha virt. eigenvalues --    0.03678   0.04490   0.05940   0.06554   0.07096
 Alpha virt. eigenvalues --    0.08125   0.09947   0.10554   0.11213   0.12218
 Alpha virt. eigenvalues --    0.12926   0.13859   0.14666   0.15265   0.16783
 Alpha virt. eigenvalues --    0.17005   0.17294   0.18605   0.18804   0.19756
 Alpha virt. eigenvalues --    0.20485   0.20777   0.21697   0.21944   0.22388
 Alpha virt. eigenvalues --    0.24526   0.24936   0.26060   0.26664   0.29417
 Alpha virt. eigenvalues --    0.29852   0.30871   0.31879   0.32295   0.32796
 Alpha virt. eigenvalues --    0.34282   0.34888   0.36713   0.37714   0.38092
 Alpha virt. eigenvalues --    0.39595   0.41054   0.42725   0.43307   0.44744
 Alpha virt. eigenvalues --    0.45263   0.46524   0.46862   0.47534   0.50567
 Alpha virt. eigenvalues --    0.51971   0.55269   0.57318   0.58708   0.60498
 Alpha virt. eigenvalues --    0.63094   0.67612   0.68549   0.68643   0.70996
 Alpha virt. eigenvalues --    0.72972   0.73823   0.79991   0.81951   0.82501
 Alpha virt. eigenvalues --    0.83806   0.85877   0.87037   0.87256   0.87471
 Alpha virt. eigenvalues --    0.89881   0.90707   0.91896   0.95172   0.97247
 Alpha virt. eigenvalues --    0.99496   1.03701   1.08777   1.09511   1.14241
 Alpha virt. eigenvalues --    1.20705   1.23505   1.24514   1.26682   1.30397
 Alpha virt. eigenvalues --    1.34519   1.37552   1.38145   1.40862   1.42686
 Alpha virt. eigenvalues --    1.44958   1.45388   1.49241   1.50481   1.51478
 Alpha virt. eigenvalues --    1.53354   1.55472   1.60240   1.62955   1.66900
 Alpha virt. eigenvalues --    1.68357   1.71667   1.72457   1.75669   1.78999
 Alpha virt. eigenvalues --    1.80513   1.82513   1.83022   1.85833   1.87192
 Alpha virt. eigenvalues --    1.89430   1.91366   1.93485   1.95654   1.98958
 Alpha virt. eigenvalues --    2.01045   2.02443   2.09440   2.13079   2.13656
 Alpha virt. eigenvalues --    2.16941   2.19900   2.27689   2.30131   2.34569
 Alpha virt. eigenvalues --    2.35902   2.41558   2.42319   2.48082   2.56835
 Alpha virt. eigenvalues --    2.63420   2.65169   2.75076   2.79460   2.82055
 Alpha virt. eigenvalues --    2.82993   2.85847   2.87159   2.88867   2.93106
 Alpha virt. eigenvalues --    2.96126   2.96697   2.98338   3.00042   3.05587
 Alpha virt. eigenvalues --    3.11449   3.14315   3.17274   3.17900   3.21060
 Alpha virt. eigenvalues --    3.25276   3.30949   3.35200   3.36465   3.39504
 Alpha virt. eigenvalues --    3.44166   3.45709   3.48757   3.50428   3.56268
 Alpha virt. eigenvalues --    3.62245   3.65047   3.67219   3.70558   3.73680
 Alpha virt. eigenvalues --    3.80118   3.84226   4.02858   4.14887   4.20523
 Alpha virt. eigenvalues --    4.22045   4.22312   4.24925   4.43409   4.51880
 Alpha virt. eigenvalues --    4.54752   4.70864   5.55226   5.56448   5.58741
 Alpha virt. eigenvalues --    5.65393   5.78272   5.93086   6.05047   6.22803
 Alpha virt. eigenvalues --    6.43324  24.68342  25.00649  25.01735  25.14246
 Alpha virt. eigenvalues --   26.06914  51.54128  51.61440  51.71596
  Beta  occ. eigenvalues --  -20.61077 -20.58190 -20.55958 -11.40840 -11.29531
  Beta  occ. eigenvalues --  -11.29169 -11.24925 -11.22723  -1.48278  -1.38335
  Beta  occ. eigenvalues --   -1.25273  -1.07827  -1.03822  -0.90721  -0.82779
  Beta  occ. eigenvalues --   -0.76955  -0.71693  -0.69701  -0.69077  -0.64045
  Beta  occ. eigenvalues --   -0.60138  -0.58703  -0.55729  -0.52755  -0.51982
  Beta  occ. eigenvalues --   -0.49871  -0.48504  -0.47199  -0.44910  -0.42340
  Beta virt. eigenvalues --    0.03761   0.04453   0.04630   0.06537   0.07080
  Beta virt. eigenvalues --    0.07802   0.08390   0.09897   0.10669   0.12178
  Beta virt. eigenvalues --    0.12650   0.13062   0.14086   0.15433   0.16135
  Beta virt. eigenvalues --    0.17167   0.17408   0.17888   0.18704   0.18833
  Beta virt. eigenvalues --    0.20070   0.20700   0.20893   0.21937   0.22143
  Beta virt. eigenvalues --    0.23048   0.24337   0.24865   0.26056   0.27096
  Beta virt. eigenvalues --    0.29328   0.29929   0.30747   0.31932   0.32835
  Beta virt. eigenvalues --    0.34019   0.35389   0.36075   0.36908   0.37751
  Beta virt. eigenvalues --    0.38184   0.39651   0.41083   0.42920   0.43257
  Beta virt. eigenvalues --    0.44785   0.45501   0.46482   0.46819   0.48180
  Beta virt. eigenvalues --    0.50577   0.52421   0.54981   0.57341   0.58770
  Beta virt. eigenvalues --    0.61331   0.63359   0.67776   0.68702   0.69079
  Beta virt. eigenvalues --    0.72764   0.74374   0.75639   0.80945   0.81953
  Beta virt. eigenvalues --    0.83477   0.85228   0.85988   0.87020   0.87306
  Beta virt. eigenvalues --    0.88116   0.88825   0.90059   0.91541   0.95106
  Beta virt. eigenvalues --    0.97204   0.99276   1.04070   1.08951   1.10030
  Beta virt. eigenvalues --    1.14130   1.20691   1.23572   1.24459   1.27529
  Beta virt. eigenvalues --    1.32806   1.35472   1.38379   1.41568   1.41736
  Beta virt. eigenvalues --    1.42849   1.45651   1.46365   1.49278   1.50873
  Beta virt. eigenvalues --    1.52200   1.55892   1.57639   1.61517   1.64296
  Beta virt. eigenvalues --    1.67477   1.70392   1.71821   1.73113   1.76625
  Beta virt. eigenvalues --    1.79761   1.80527   1.82572   1.83503   1.86096
  Beta virt. eigenvalues --    1.86523   1.89349   1.91072   1.93473   1.95490
  Beta virt. eigenvalues --    1.99143   2.01015   2.02235   2.09648   2.13269
  Beta virt. eigenvalues --    2.13632   2.17295   2.20310   2.28029   2.30157
  Beta virt. eigenvalues --    2.34934   2.37061   2.41604   2.42543   2.48088
  Beta virt. eigenvalues --    2.56831   2.63171   2.65171   2.75126   2.79455
  Beta virt. eigenvalues --    2.82102   2.83138   2.85862   2.87536   2.88891
  Beta virt. eigenvalues --    2.93140   2.96167   2.96738   2.99337   3.00127
  Beta virt. eigenvalues --    3.06219   3.13561   3.16082   3.18660   3.20560
  Beta virt. eigenvalues --    3.24353   3.25028   3.31048   3.35410   3.39106
  Beta virt. eigenvalues --    3.41594   3.44190   3.49397   3.51089   3.54033
  Beta virt. eigenvalues --    3.57239   3.62395   3.64991   3.69177   3.70391
  Beta virt. eigenvalues --    3.74201   3.79560   3.85465   4.02732   4.14568
  Beta virt. eigenvalues --    4.20525   4.22045   4.22299   4.27763   4.43260
  Beta virt. eigenvalues --    4.51778   4.54680   4.70852   5.57578   5.58914
  Beta virt. eigenvalues --    5.64652   5.66685   5.78170   5.93064   6.07297
  Beta virt. eigenvalues --    6.22708   6.43246  24.68217  25.00876  25.01789
  Beta virt. eigenvalues --   25.14246  26.07220  51.55922  51.61644  51.71382
          Condensed to atoms (all electrons):
               1          2          3          4          5          6
     1  C   13.149487   0.480560  -3.017318  -3.903722  -0.045758  -0.025577
     2  H    0.480560   0.401804  -0.085070  -0.013685  -0.001656  -0.002411
     3  C   -3.017318  -0.085070  11.813185  -3.223482   0.186038  -0.075821
     4  C   -3.903722  -0.013685  -3.223482  13.290969   0.272412  -0.074638
     5  O   -0.045758  -0.001656   0.186038   0.272412   8.059832  -0.111737
     6  O   -0.025577  -0.002411  -0.075821  -0.074638  -0.111737   8.415485
     7  C   -0.050296   0.000167  -0.378677   0.062983  -0.048722   0.175424
     8  C    0.007431   0.000455  -0.208549   0.210005   0.022837  -0.177669
     9  H    0.034589   0.000096   0.048611  -0.093923  -0.011355  -0.034541
    10  H   -0.031323  -0.000339  -0.029503   0.060144  -0.013567  -0.038817
    11  H    0.006785  -0.000019   0.011198  -0.013876  -0.001041  -0.007639
    12  H   -0.007226   0.000004   0.005648   0.008228  -0.001050  -0.008929
    13  H   -0.003380  -0.000020  -0.002012   0.006209   0.001546   0.021913
    14  O   -0.165105  -0.001179   0.249510  -0.216535  -0.010949   0.004633
    15  H   -0.055123  -0.002285   0.064772   0.018253  -0.000493  -0.000222
               7          8          9         10         11         12
     1  C   -0.050296   0.007431   0.034589  -0.031323   0.006785  -0.007226
     2  H    0.000167   0.000455   0.000096  -0.000339  -0.000019   0.000004
     3  C   -0.378677  -0.208549   0.048611  -0.029503   0.011198   0.005648
     4  C    0.062983   0.210005  -0.093923   0.060144  -0.013876   0.008228
     5  O   -0.048722   0.022837  -0.011355  -0.013567  -0.001041  -0.001050
     6  O    0.175424  -0.177669  -0.034541  -0.038817  -0.007639  -0.008929
     7  C    5.488644   0.022169   0.445512   0.427460  -0.027138  -0.042261
     8  C    0.022169   5.641258  -0.064252  -0.049828   0.392234   0.401425
     9  H    0.445512  -0.064252   0.555662  -0.054851   0.004531  -0.005625
    10  H    0.427460  -0.049828  -0.054851   0.557993  -0.006328   0.004614
    11  H   -0.027138   0.392234   0.004531  -0.006328   0.565574  -0.040019
    12  H   -0.042261   0.401425  -0.005625   0.004614  -0.040019   0.560127
    13  H   -0.045048   0.407917  -0.005119  -0.003712  -0.034722  -0.033477
    14  O   -0.003756  -0.003414   0.001309  -0.000395   0.000160   0.000388
    15  H   -0.000847  -0.000356  -0.000734   0.000224  -0.000026   0.000016
              13         14         15
     1  C   -0.003380  -0.165105  -0.055123
     2  H   -0.000020  -0.001179  -0.002285
     3  C   -0.002012   0.249510   0.064772
     4  C    0.006209  -0.216535   0.018253
     5  O    0.001546  -0.010949  -0.000493
     6  O    0.021913   0.004633  -0.000222
     7  C   -0.045048  -0.003756  -0.000847
     8  C    0.407917  -0.003414  -0.000356
     9  H   -0.005119   0.001309  -0.000734
    10  H   -0.003712  -0.000395   0.000224
    11  H   -0.034722   0.000160  -0.000026
    12  H   -0.033477   0.000388   0.000016
    13  H    0.552112  -0.000166   0.000071
    14  O   -0.000166   8.066162   0.252265
    15  H    0.000071   0.252265   0.474838
          Atomic-Atomic Spin Densities.
               1          2          3          4          5          6
     1  C    1.416974  -0.008186  -0.342940   0.491316   0.001055  -0.036249
     2  H   -0.008186  -0.078021  -0.001783   0.002191   0.000058  -0.000908
     3  C   -0.342940  -0.001783  -0.801977  -0.023411   0.021777   0.047623
     4  C    0.491316   0.002191  -0.023411  -0.447243  -0.000843  -0.016594
     5  O    0.001055   0.000058   0.021777  -0.000843  -0.108677   0.000687
     6  O   -0.036249  -0.000908   0.047623  -0.016594   0.000687   0.007337
     7  C   -0.022980  -0.000318  -0.011422   0.040058   0.004105  -0.003755
     8  C    0.009443   0.000021  -0.000307  -0.017332  -0.001510   0.002674
     9  H   -0.001114  -0.000022  -0.000693   0.003093   0.000390  -0.000408
    10  H    0.001889   0.000008   0.004640  -0.007203  -0.000622   0.000942
    11  H    0.000171  -0.000004   0.000859  -0.000346   0.000044  -0.000001
    12  H   -0.001442  -0.000020  -0.000641   0.002031  -0.000054   0.000070
    13  H   -0.000257  -0.000001   0.000389  -0.000010   0.000058  -0.000004
    14  O   -0.341403  -0.005532   0.079203   0.213838   0.001037   0.000604
    15  H    0.043839   0.000907  -0.022131  -0.026970  -0.000037   0.000740
               7          8          9         10         11         12
     1  C   -0.022980   0.009443  -0.001114   0.001889   0.000171  -0.001442
     2  H   -0.000318   0.000021  -0.000022   0.000008  -0.000004  -0.000020
     3  C   -0.011422  -0.000307  -0.000693   0.004640   0.000859  -0.000641
     4  C    0.040058  -0.017332   0.003093  -0.007203  -0.000346   0.002031
     5  O    0.004105  -0.001510   0.000390  -0.000622   0.000044  -0.000054
     6  O   -0.003755   0.002674  -0.000408   0.000942  -0.000001   0.000070
     7  C    0.001136  -0.001094  -0.001692   0.000722  -0.000153  -0.001231
     8  C   -0.001094   0.005484   0.001408  -0.000962  -0.000114   0.001133
     9  H   -0.001692   0.001408  -0.000180  -0.000157  -0.000049   0.000002
    10  H    0.000722  -0.000962  -0.000157   0.000185  -0.000047   0.000151
    11  H   -0.000153  -0.000114  -0.000049  -0.000047  -0.000132  -0.000052
    12  H   -0.001231   0.001133   0.000002   0.000151  -0.000052   0.000107
    13  H    0.000610  -0.000665  -0.000128   0.000014  -0.000092  -0.000157
    14  O   -0.004197   0.002819  -0.000609   0.000785  -0.000012   0.000073
    15  H    0.000572  -0.000251   0.000122  -0.000092   0.000000  -0.000035
              13         14         15
     1  C   -0.000257  -0.341403   0.043839
     2  H   -0.000001  -0.005532   0.000907
     3  C    0.000389   0.079203  -0.022131
     4  C   -0.000010   0.213838  -0.026970
     5  O    0.000058   0.001037  -0.000037
     6  O   -0.000004   0.000604   0.000740
     7  C    0.000610  -0.004197   0.000572
     8  C   -0.000665   0.002819  -0.000251
     9  H   -0.000128  -0.000609   0.000122
    10  H    0.000014   0.000785  -0.000092
    11  H   -0.000092  -0.000012   0.000000
    12  H   -0.000157   0.000073  -0.000035
    13  H    0.000265  -0.000031   0.000011
    14  O   -0.000031   0.867060   0.014946
    15  H    0.000011   0.014946  -0.042036
 Mulliken charges and spin densities:
               1          2
     1  C   -0.374024   1.210118
     2  H    0.223579  -0.091610
     3  C    0.641469  -1.050813
     4  C   -0.389342   0.212576
     5  O   -0.296336  -0.082530
     6  O   -0.059455   0.002756
     7  C   -0.025616   0.000359
     8  C   -0.601662   0.000747
     9  H    0.180089  -0.000037
    10  H    0.178229   0.000254
    11  H    0.150327   0.000072
    12  H    0.158136  -0.000065
    13  H    0.137888   0.000002
    14  O   -0.172928   0.828582
    15  H    0.249646  -0.030412
 Sum of Mulliken charges =  -0.00000   1.00000
 Mulliken charges and spin densities with hydrogens summed into heavy atoms:
               1          2
     1  C   -0.150445   1.118508
     3  C    0.641469  -1.050813
     4  C   -0.389342   0.212576
     5  O   -0.296336  -0.082530
     6  O   -0.059455   0.002756
     7  C    0.332702   0.000577
     8  C   -0.155311   0.000756
    14  O    0.076718   0.798170
 Electronic spatial extent (au):  <R**2>=           1166.6318
 Charge=             -0.0000 electrons
 Dipole moment (field-independent basis, Debye):
    X=              0.4564    Y=             -0.8749    Z=             -0.8112  Tot=              1.2774
 Quadrupole moment (field-independent basis, Debye-Ang):
   XX=            -30.1680   YY=            -55.8887   ZZ=            -44.4464
   XY=             -1.8636   XZ=             -1.8096   YZ=             -1.0306
 Traceless Quadrupole moment (field-independent basis, Debye-Ang):
   XX=             13.3331   YY=            -12.3877   ZZ=             -0.9454
   XY=             -1.8636   XZ=             -1.8096   YZ=             -1.0306
 Octapole moment (field-independent basis, Debye-Ang**2):
  XXX=             32.9270  YYY=             -7.2511  ZZZ=              8.4891  XYY=             -7.6823
  XXY=             -5.0834  XXZ=             -2.1568  XZZ=             12.4280  YZZ=             -1.7024
  YYZ=             -2.8327  XYZ=              2.6093
 Hexadecapole moment (field-independent basis, Debye-Ang**3):
 XXXX=           -913.0609 YYYY=           -274.4310 ZZZZ=           -170.5194 XXXY=            -40.5387
 XXXZ=            -19.5908 YYYX=             -3.3871 YYYZ=             -7.8228 ZZZX=             15.0128
 ZZZY=             -2.3072 XXYY=           -234.9616 XXZZ=           -163.8960 YYZZ=            -74.1173
 XXYZ=              7.2264 YYXZ=              1.1239 ZZXY=            -10.6139
 N-N= 3.568477817824D+02 E-N=-1.696849143003D+03  KE= 4.177113143731D+02
 1\1\GINC-AJ\SP\UCCSD(T)-FC\6-311++G(d,p)\C5H7O3(2)\AAYUSH\28-Apr-2025\
 0\\# ccsd(t)/6-311++g(d,p) sp\\Title Card Required\\0,2\C,0,-2.520774,
 0.212502,-1.137294\H,0,-3.408938,0.466086,-1.668934\C,0,-1.536317,0.03
 0588,-0.431567\C,0,-0.257971,-0.591268,-0.027874\O,0,-0.184842,-1.6613
 4,0.50366\O,0,0.760543,0.204811,-0.318274\C,0,2.052954,-0.25585,0.1249
 01\C,0,3.058213,0.802641,-0.262507\H,0,2.008184,-0.409576,1.204922\H,0
 ,2.258551,-1.218335,-0.347955\H,0,3.067976,0.947195,-1.343491\H,0,2.81
 6044,1.75272,0.214721\H,0,4.055607,0.495558,0.056477\O,0,-1.696574,1.1
 33416,1.138364\H,0,-2.48742,0.72954,1.525869\\Version=ES64L-G16RevA.03
 \State=2-A\HF=-417.9787926\MP2=-419.2337347\MP3=-419.2642314\MP4D=-419
 .2946459\MP4DQ=-419.2703615\PUHF=-418.0047893\PMP2-0=-419.2565182\PMP3
 -0=-419.2816372\MP4SDQ=-419.2923134\CCSD=-419.3000444\CCSD(T)=-419.354
 5142\S2=1.062569\S2-1=0.976339\S2A=0.811557\RMSD=8.969e-09\PG=C01 [X(C
 5H7O3)]\\@


 MARY HAD A LITTLE LAMB
      HIS FEET WERE BLACK AS SOOT,
           AND EVERYWHERE THAT MARY WENT
                HIS SOOTY FOOT HE PUT.

                    -- NONAME
 Job cpu time:       0 days 18 hours  9 minutes 48.8 seconds.
 Elapsed time:       0 days  0 hours 45 minutes 37.8 seconds.
 File lengths (MBytes):  RWF=  44733 Int=      0 D2E=      0 Chk=      7 Scr=      1
 Normal termination of Gaussian 16 at Mon Apr 28 11:27:14 2025.
