 Entering Gaussian System, Link 0=g16
 Initial command:
 /opt/g16/l1.exe "/home/aayush/scratches/g16/Gau-6583.inp" -scrdir="/home/aayush/scratches/g16/"
 Entering Link 1 = /opt/g16/l1.exe PID=      6591.
  
 Copyright (c) 1988,1990,1992,1993,1995,1998,2003,2009,2016,
            Gaussian, Inc.  All Rights Reserved.
  
 This is part of the Gaussian(R) 16 program.  It is based on
 the Gaussian(R) 09 system (copyright 2009, Gaussian, Inc.),
 the Gaussian(R) 03 system (copyright 2003, Gaussian, Inc.),
 the Gaussian(R) 98 system (copyright 1998, Gaussian, Inc.),
 the Gaussian(R) 94 system (copyright 1995, Gaussian, Inc.),
 the Gaussian 92(TM) system (copyright 1992, Gaussian, Inc.),
 the Gaussian 90(TM) system (copyright 1990, Gaussian, Inc.),
 the Gaussian 88(TM) system (copyright 1988, Gaussian, Inc.),
 the Gaussian 86(TM) system (copyright 1986, Carnegie Mellon
 University), and the Gaussian 82(TM) system (copyright 1983,
 Carnegie Mellon University). Gaussian is a federally registered
 trademark of Gaussian, Inc.
  
 This software contains proprietary and confidential information,
 including trade secrets, belonging to Gaussian, Inc.
  
 This software is provided under written license and may be
 used, copied, transmitted, or stored only in accord with that
 written license.
  
 The following legend is applicable only to US Government
 contracts under FAR:
  
                    RESTRICTED RIGHTS LEGEND
  
 Use, reproduction and disclosure by the US Government is
 subject to restrictions as set forth in subparagraphs (a)
 and (c) of the Commercial Computer Software - Restricted
 Rights clause in FAR 52.227-19.
  
 Gaussian, Inc.
 340 Quinnipiac St., Bldg. 40, Wallingford CT 06492
  
  
 ---------------------------------------------------------------
 Warning -- This program may not be used in any manner that
 competes with the business of Gaussian, Inc. or will provide
 assistance to any competitor of Gaussian, Inc.  The licensee
 of this program is prohibited from giving any competitor of
 Gaussian, Inc. access to this program.  By using this program,
 the user acknowledges that Gaussian, Inc. is engaged in the
 business of creating and licensing software in the field of
 computational chemistry and represents and warrants to the
 licensee that it is not a competitor of Gaussian, Inc. and that
 it will not use this program in any manner prohibited above.
 ---------------------------------------------------------------
  

 Cite this work as:
 Gaussian 16, Revision A.03,
 M. J. Frisch, G. W. Trucks, H. B. Schlegel, G. E. Scuseria, 
 M. A. Robb, J. R. Cheeseman, G. Scalmani, V. Barone, 
 G. A. Petersson, H. Nakatsuji, X. Li, M. Caricato, A. V. Marenich, 
 J. Bloino, B. G. Janesko, R. Gomperts, B. Mennucci, H. P. Hratchian, 
 J. V. Ortiz, A. F. Izmaylov, J. L. Sonnenberg, D. Williams-Young, 
 F. Ding, F. Lipparini, F. Egidi, J. Goings, B. Peng, A. Petrone, 
 T. Henderson, D. Ranasinghe, V. G. Zakrzewski, J. Gao, N. Rega, 
 G. Zheng, W. Liang, M. Hada, M. Ehara, K. Toyota, R. Fukuda, 
 J. Hasegawa, M. Ishida, T. Nakajima, Y. Honda, O. Kitao, H. Nakai, 
 T. Vreven, K. Throssell, J. A. Montgomery, Jr., J. E. Peralta, 
 F. Ogliaro, M. J. Bearpark, J. J. Heyd, E. N. Brothers, K. N. Kudin, 
 V. N. Staroverov, T. A. Keith, R. Kobayashi, J. Normand, 
 K. Raghavachari, A. P. Rendell, J. C. Burant, S. S. Iyengar, 
 J. Tomasi, M. Cossi, J. M. Millam, M. Klene, C. Adamo, R. Cammi, 
 J. W. Ochterski, R. L. Martin, K. Morokuma, O. Farkas, 
 J. B. Foresman, and D. J. Fox, Gaussian, Inc., Wallingford CT, 2016.
 
 ******************************************
 Gaussian 16:  ES64L-G16RevA.03 25-Dec-2016
                22-Apr-2025 
 ******************************************
 %chk=ethyl_propiolate.chk
 %nprocshared=24
 Will use up to   24 processors via shared memory.
 %mem=12GB
 --------------------------
 # ccsd(t)/6-311++g(d,p) sp
 --------------------------
 1/38=1,172=1/1;
 2/12=2,17=6,18=5,40=1/2;
 3/5=4,6=6,7=1111,11=9,25=1,30=1/1,2,3;
 4//1;
 5/5=2,38=5/2;
 8/6=4,9=120000,10=2/1,4;
 9/5=7,14=2/13;
 6/7=2,8=2,9=2,10=2/1;
 99/5=1,9=1/99;
 -------------------
 Title Card Required
 -------------------
 Symbolic Z-matrix:
 Charge =  0 Multiplicity = 2
 C                     2.57251   0.24122   0. 
 H                     3.62631   0.08332   0. 
 C                     1.43333   0.63882  0. 
 C                     0.01417   0.95339  -0.00001 
 O                    -0.4416    2.06039  -0.00001 
 O                    -0.70447  -0.17529   0. 
 C                    -2.13683  -0.00038  0. 
 C                    -2.75515  -1.37833   0.00001 
 H                    -2.41235   0.57835   0.88372 
 H                    -2.41235   0.57834  -0.88373 
 H                    -2.45345  -1.93719  -0.88685 
 H                    -2.45345  -1.93718   0.88686 
 H                    -3.84281  -1.29088   0.00001 
 O                     2.34078  -1.859     0.00001 
 H                     1.36966  -1.90324   0.00001 
 
                          Input orientation:                          
 ---------------------------------------------------------------------
 Center     Atomic      Atomic             Coordinates (Angstroms)
 Number     Number       Type             X           Y           Z
 ---------------------------------------------------------------------
      1          6           0        2.572513    0.241219    0.000000
      2          1           0        3.626306    0.083320    0.000001
      3          6           0        1.433328    0.638816   -0.000003
      4          6           0        0.014170    0.953388   -0.000005
      5          8           0       -0.441600    2.060390   -0.000010
      6          8           0       -0.704471   -0.175288    0.000000
      7          6           0       -2.136834   -0.000379   -0.000001
      8          6           0       -2.755152   -1.378329    0.000005
      9          1           0       -2.412345    0.578350    0.883723
     10          1           0       -2.412345    0.578342   -0.883730
     11          1           0       -2.453451   -1.937188   -0.886848
     12          1           0       -2.453451   -1.937180    0.886863
     13          1           0       -3.842814   -1.290879    0.000005
     14          8           0        2.340781   -1.858996    0.000010
     15          1           0        1.369664   -1.903239    0.000010
 ---------------------------------------------------------------------
                    Distance matrix (angstroms):
                    1          2          3          4          5
     1  C    0.000000
     2  H    1.065557   0.000000
     3  C    1.206576   2.262240   0.000000
     4  C    2.655617   3.715447   1.453604   0.000000
     5  O    3.520548   4.522904   2.352919   1.197155   0.000000
     6  O    3.303347   4.338491   2.287564   1.338041   2.251079
     7  C    4.715540   5.763748   3.626931   2.352975   2.668443
     8  C    5.568388   6.546711   4.648896   3.620228   4.144552
     9  H    5.073799   6.123016   3.946369   2.609522   2.619401
    10  H    5.073799   6.123017   3.946369   2.609522   2.619401
    11  H    5.549078   6.467797   4.746508   3.902701   4.562308
    12  H    5.549078   6.467796   4.746508   3.902701   4.562308
    13  H    6.595737   7.594483   5.617953   4.462405   4.774857
    14  O    2.112961   2.329199   2.657543   3.650017   4.806582
    15  H    2.458769   3.006468   2.542852   3.161911   4.357870
                    6          7          8          9         10
     6  O    0.000000
     7  C    1.443003   0.000000
     8  C    2.377520   1.510319   0.000000
     9  H    2.065374   1.091697   2.174182   0.000000
    10  H    2.065374   1.091697   2.174182   1.767453   0.000000
    11  H    2.636233   2.153595   1.090805   3.076450   2.515868
    12  H    2.636232   2.153595   1.090805   2.515868   3.076449
    13  H    3.330727   2.139102   1.091172   2.514203   2.514203
    14  O    3.479717   4.848040   5.118552   5.414223   5.414224
    15  H    2.699602   3.989537   4.158081   4.608994   4.608995
                   11         12         13         14         15
    11  H    0.000000
    12  H    1.773711   0.000000
    13  H    1.770467   1.770467   0.000000
    14  O    4.876196   4.876195   6.209638   0.000000
    15  H    3.924777   3.924776   5.248325   0.972124   0.000000
 Stoichiometry    C5H7O3(2)
 Framework group  C1[X(C5H7O3)]
 Deg. of freedom    39
 Full point group                 C1      NOp   1
 Largest Abelian subgroup         C1      NOp   1
 Largest concise Abelian subgroup C1      NOp   1
                         Standard orientation:                         
 ---------------------------------------------------------------------
 Center     Atomic      Atomic             Coordinates (Angstroms)
 Number     Number       Type             X           Y           Z
 ---------------------------------------------------------------------
      1          6           0       -2.642562   -0.285541    0.000000
      2          1           0       -3.696171   -0.126414    0.000001
      3          6           0       -1.503841   -0.684464   -0.000003
      4          6           0       -0.085050   -1.000689   -0.000005
      5          8           0        0.369430   -2.108221   -0.000010
      6          8           0        0.634905    0.127150    0.000000
      7          6           0        2.067063   -0.049427   -0.000001
      8          6           0        2.686985    1.327802    0.000005
      9          1           0        2.341900   -0.628477    0.883723
     10          1           0        2.341900   -0.628469   -0.883730
     11          1           0        2.385935    1.887012   -0.886848
     12          1           0        2.385935    1.887004    0.886863
     13          1           0        3.774545    1.239085    0.000005
     14          8           0       -2.408384    1.814403    0.000010
     15          1           0       -1.437217    1.857515    0.000010
 ---------------------------------------------------------------------
 Rotational constants (GHZ):           2.8173537           1.2447071           0.8727211
 Standard basis: 6-311++G(d,p) (5D, 7F)
 There are   233 symmetry adapted cartesian basis functions of A   symmetry.
 There are   225 symmetry adapted basis functions of A   symmetry.
   225 basis functions,   351 primitive gaussians,   233 cartesian basis functions
    31 alpha electrons       30 beta electrons
       nuclear repulsion energy       347.5191741682 Hartrees.
 NAtoms=   15 NActive=   15 NUniq=   15 SFac= 1.00D+00 NAtFMM=   60 NAOKFM=F Big=F
 Integral buffers will be    131072 words long.
 Raffenetti 2 integral format.
 Two-electron integral symmetry is turned on.
 One-electron integrals computed using PRISM.
 NBasis=   225 RedAO= T EigKep=  7.30D-06  NBF=   225
 NBsUse=   224 1.00D-06 EigRej=  8.72D-07 NBFU=   224
 ExpMin= 3.60D-02 ExpMax= 8.59D+03 ExpMxC= 1.30D+03 IAcc=3 IRadAn=         5 AccDes= 0.00D+00
 Harris functional with IExCor=  205 and IRadAn=       5 diagonalized for initial guess.
 HarFok:  IExCor=  205 AccDes= 0.00D+00 IRadAn=         5 IDoV= 1 UseB2=F ITyADJ=14
 ICtDFT=  3500011 ScaDFX=  1.000000  1.000000  1.000000  1.000000
 FoFCou: FMM=F IPFlag=           0 FMFlag=      100000 FMFlg1=           0
         NFxFlg=           0 DoJE=T BraDBF=F KetDBF=T FulRan=T
         wScrn=  0.000000 ICntrl=       500 IOpCl=  0 I1Cent=   200000004 NGrid=           0
         NMat0=    1 NMatS0=      1 NMatT0=    0 NMatD0=    1 NMtDS0=    0 NMtDT0=    0
 Petite list used in FoFCou.
 Initial guess <Sx>= 0.0000 <Sy>= 0.0000 <Sz>= 0.5000 <S**2>= 0.7500 S= 0.5000
 Requested convergence on RMS density matrix=1.00D-08 within 128 cycles.
 Requested convergence on MAX density matrix=1.00D-06.
 Requested convergence on             energy=1.00D-06.
 No special actions if energy rises.
 Initial convergence to 1.0D-05 achieved.  Increase integral accuracy.
 SCF Done:  E(UHF) =  -417.988040604     A.U. after   32 cycles
            NFock= 32  Conv=0.39D-08     -V/T= 2.0006
 <Sx>= 0.0000 <Sy>= 0.0000 <Sz>= 0.5000 <S**2>= 0.9258 S= 0.5844
 <L.S>=  0.00000000000    
 Annihilation of the first spin contaminant:
 S**2 before annihilation     0.9258,   after     0.7700
 ExpMin= 3.60D-02 ExpMax= 8.59D+03 ExpMxC= 1.30D+03 IAcc=3 IRadAn=         5 AccDes= 0.00D+00
 HarFok:  IExCor=  205 AccDes= 0.00D+00 IRadAn=         5 IDoV=-2 UseB2=F ITyADJ=14
 ICtDFT= 12500011 ScaDFX=  1.000000  1.000000  1.000000  1.000000
 Range of M.O.s used for correlation:     9   224
 NBasis=   225 NAE=    31 NBE=    30 NFC=     8 NFV=     0
 NROrb=    216 NOA=    23 NOB=    22 NVA=   193 NVB=   194

 **** Warning!!: The largest alpha MO coefficient is  0.11684259D+03


 **** Warning!!: The largest beta MO coefficient is  0.11328436D+03

 Semi-Direct transformation.
 ModeAB=           4 MOrb=            23 LenV=    1609188319
 LASXX=    107793295 LTotXX=   107793295 LenRXX=   218294035
 LTotAB=   110500740 MaxLAS=   124920360 LenRXY=           0
 NonZer=   326087330 LenScr=   491049984 LnRSAI=   124920360
 LnScr1=   188141568 LExtra=           0 Total=   1022405947
 MaxDsk=          -1 SrtSym=           T ITran=            4
 JobTyp=1 Pass  1:  I=   1 to  23.
 (rs|ai) integrals will be sorted in core.
 ModeAB=           4 MOrb=            22 LenV=    1609188319
 LASXX=    103454307 LTotXX=   103454307 LenRXX=   188091948
 LTotAB=    84637641 MaxLAS=   119489040 LenRXY=           0
 NonZer=   291546255 LenScr=   439034880 LnRSAI=   119489040
 LnScr1=   180009984 LExtra=           0 Total=    926625852
 MaxDsk=          -1 SrtSym=           T ITran=            4
 JobTyp=2 Pass  1:  I=   1 to  22.
 (rs|ai) integrals will be sorted in core.
 SymMOI:  orbitals are not symmetric.
 Spin components of T(2) and E(2):
     alpha-alpha T2 =       0.5117014402D-01 E2=     -0.1680749640D+00
     alpha-beta  T2 =       0.2830479363D+00 E2=     -0.9306337693D+00
     beta-beta   T2 =       0.5040987958D-01 E2=     -0.1568720385D+00
 ANorm=    0.1176702154D+01
 E2 =    -0.1255580772D+01 EUMP2 =    -0.41924362137556D+03
 (S**2,0)=  0.92585D+00           (S**2,1)=  0.87616D+00
 E(PUHF)=      -0.41800283356D+03        E(PMP2)=      -0.41925645615D+03
 Keep R2 and R3 ints in memory in canonical form, NReq=652883968.
 CIDS: In Core Option IDoMem=           1.
 Iterations=  50 Convergence= 0.100D-06
 Produce multiple copies of IABC intergrals
 Iteration Nr.   1
 **********************
 DD1Dir will call FoFMem   1 times, MxPair=      1496
 NAB=   506 NAA=   253 NBB=   231.
 E(PMP3)=      -0.41928220791D+03
 MP4(R+Q)=  0.24682271D-01
 E3=       -0.29137600D-01        EUMP3=      -0.41927275898D+03
 E4(DQ)=   -0.57658362D-02        UMP4(DQ)=   -0.41927852481D+03
 E4(SDQ)=  -0.25819328D-01        UMP4(SDQ)=  -0.41929857830D+03
 DE(Corr)=  -1.2596553     E(Corr)=     -419.24769587    
 NORM(A)=   0.11850826D+01
 Iteration Nr.   2
 **********************
 DD1Dir will call FoFMem   1 times, MxPair=      1496
 NAB=   506 NAA=   253 NBB=   231.
 DE(Corr)=  -1.3024066     E(CORR)=     -419.29044723     Delta=-4.28D-02
 NORM(A)=   0.12054693D+01
 Iteration Nr.   3
 **********************
 DD1Dir will call FoFMem   1 times, MxPair=      1496
 NAB=   506 NAA=   253 NBB=   231.
 DE(Corr)=  -1.3051810     E(CORR)=     -419.29322162     Delta=-2.77D-03
 NORM(A)=   0.12159375D+01
 Iteration Nr.   4
 **********************
 DD1Dir will call FoFMem   1 times, MxPair=      1496
 NAB=   506 NAA=   253 NBB=   231.
 DE(Corr)=  -1.3117967     E(CORR)=     -419.29983727     Delta=-6.62D-03
 NORM(A)=   0.12224230D+01
 Iteration Nr.   5
 **********************
 DD1Dir will call FoFMem   1 times, MxPair=      1496
 NAB=   506 NAA=   253 NBB=   231.
 DE(Corr)=  -1.3135498     E(CORR)=     -419.30159036     Delta=-1.75D-03
 NORM(A)=   0.12257684D+01
 Iteration Nr.   6
 **********************
 DD1Dir will call FoFMem   1 times, MxPair=      1496
 NAB=   506 NAA=   253 NBB=   231.
 DE(Corr)=  -1.3140893     E(CORR)=     -419.30212992     Delta=-5.40D-04
 NORM(A)=   0.12263099D+01
 Iteration Nr.   7
 **********************
 DD1Dir will call FoFMem   1 times, MxPair=      1496
 NAB=   506 NAA=   253 NBB=   231.
 DE(Corr)=  -1.3141663     E(CORR)=     -419.30220693     Delta=-7.70D-05
 NORM(A)=   0.12264271D+01
 Iteration Nr.   8
 **********************
 DD1Dir will call FoFMem   1 times, MxPair=      1496
 NAB=   506 NAA=   253 NBB=   231.
 DE(Corr)=  -1.3141510     E(CORR)=     -419.30219161     Delta= 1.53D-05
 NORM(A)=   0.12264483D+01
 Iteration Nr.   9
 **********************
 DD1Dir will call FoFMem   1 times, MxPair=      1496
 NAB=   506 NAA=   253 NBB=   231.
 DE(Corr)=  -1.3141582     E(CORR)=     -419.30219883     Delta=-7.22D-06
 NORM(A)=   0.12264451D+01
 Iteration Nr.  10
 **********************
 DD1Dir will call FoFMem   1 times, MxPair=      1496
 NAB=   506 NAA=   253 NBB=   231.
 DE(Corr)=  -1.3141582     E(CORR)=     -419.30219885     Delta=-1.82D-08
 NORM(A)=   0.12264466D+01
 Iteration Nr.  11
 **********************
 DD1Dir will call FoFMem   1 times, MxPair=      1496
 NAB=   506 NAA=   253 NBB=   231.
 DE(Corr)=  -1.3141653     E(CORR)=     -419.30220588     Delta=-7.04D-06
 NORM(A)=   0.12264592D+01
 Iteration Nr.  12
 **********************
 DD1Dir will call FoFMem   1 times, MxPair=      1496
 NAB=   506 NAA=   253 NBB=   231.
 DE(Corr)=  -1.3141693     E(CORR)=     -419.30220986     Delta=-3.98D-06
 NORM(A)=   0.12264748D+01
 Iteration Nr.  13
 **********************
 DD1Dir will call FoFMem   1 times, MxPair=      1496
 NAB=   506 NAA=   253 NBB=   231.
 DE(Corr)=  -1.3141734     E(CORR)=     -419.30221397     Delta=-4.11D-06
 NORM(A)=   0.12264885D+01
 Iteration Nr.  14
 **********************
 DD1Dir will call FoFMem   1 times, MxPair=      1496
 NAB=   506 NAA=   253 NBB=   231.
 DE(Corr)=  -1.3141766     E(CORR)=     -419.30221718     Delta=-3.21D-06
 NORM(A)=   0.12264979D+01
 Iteration Nr.  15
 **********************
 DD1Dir will call FoFMem   1 times, MxPair=      1496
 NAB=   506 NAA=   253 NBB=   231.
 DE(Corr)=  -1.3141781     E(CORR)=     -419.30221875     Delta=-1.57D-06
 NORM(A)=   0.12265027D+01
 Iteration Nr.  16
 **********************
 DD1Dir will call FoFMem   1 times, MxPair=      1496
 NAB=   506 NAA=   253 NBB=   231.
 DE(Corr)=  -1.3141792     E(CORR)=     -419.30221976     Delta=-1.01D-06
 NORM(A)=   0.12265050D+01
 Iteration Nr.  17
 **********************
 DD1Dir will call FoFMem   1 times, MxPair=      1496
 NAB=   506 NAA=   253 NBB=   231.
 DE(Corr)=  -1.3141796     E(CORR)=     -419.30222016     Delta=-3.97D-07
 NORM(A)=   0.12265056D+01
 Iteration Nr.  18
 **********************
 DD1Dir will call FoFMem   1 times, MxPair=      1496
 NAB=   506 NAA=   253 NBB=   231.
 DE(Corr)=  -1.3141796     E(CORR)=     -419.30222025     Delta=-9.11D-08
 NORM(A)=   0.12265058D+01
 Wavefunction amplitudes converged. E(Corr)=     -419.30222025    
 Largest amplitude= 7.13D-02
 Time for triples=    36141.38 seconds.
 T4(CCSD)= -0.56715288D-01
 T5(CCSD)=  0.37714736D-02
 CCSD(T)= -0.41935516406D+03

 S**2, projected HF & approx projected MPn energies after annihilation of
 unwanted spin states (see manual for definitions):

 spins       (S**2,0) (S**2,1)    PUHF        PMP2        PMP3        PMP4
 annihilated
 s+1         0.73818  0.74561 -418.002834 -419.256456 -419.282208
 s+1,s+2     0.75016  0.74997 -418.001978 -419.255647 -419.281459
 s+1 to s+3  0.75000  0.75000 -418.001992 -419.255658 -419.281464
 s+1 to s+4  0.75000  0.75000 -418.001992 -419.255658 -419.281463
 s+1 to s+5  0.75000  0.75000 -418.001992
 s+1 to s+6  0.75000  0.75000 -418.001992

 Discarding MO integrals.

 **********************************************************************

            Population analysis using the SCF density.

 **********************************************************************

 Orbital symmetries:
 Alpha Orbitals:
       Occupied  (A) (A) (A) (A) (A) (A) (A) (A) (A) (A) (A) (A)
                 (A) (A) (A) (A) (A) (A) (A) (A) (A) (A) (A) (A)
                 (A) (A) (A) (A) (A) (A) (A)
       Virtual   (A) (A) (A) (A) (A) (A) (A) (A) (A) (A) (A) (A)
                 (A) (A) (A) (A) (A) (A) (A) (A) (A) (A) (A) (A)
                 (A) (A) (A) (A) (A) (A) (A) (A) (A) (A) (A) (A)
                 (A) (A) (A) (A) (A) (A) (A) (A) (A) (A) (A) (A)
                 (A) (A) (A) (A) (A) (A) (A) (A) (A) (A) (A) (A)
                 (A) (A) (A) (A) (A) (A) (A) (A) (A) (A) (A) (A)
                 (A) (A) (A) (A) (A) (A) (A) (A) (A) (A) (A) (A)
                 (A) (A) (A) (A) (A) (A) (A) (A) (A) (A) (A) (A)
                 (A) (A) (A) (A) (A) (A) (A) (A) (A) (A) (A) (A)
                 (A) (A) (A) (A) (A) (A) (A) (A) (A) (A) (A) (A)
                 (A) (A) (A) (A) (A) (A) (A) (A) (A) (A) (A) (A)
                 (A) (A) (A) (A) (A) (A) (A) (A) (A) (A) (A) (A)
                 (A) (A) (A) (A) (A) (A) (A) (A) (A) (A) (A) (A)
                 (A) (A) (A) (A) (A) (A) (A) (A) (A) (A) (A) (A)
                 (A) (A) (A) (A) (A) (A) (A) (A) (A) (A) (A) (A)
                 (A) (A) (A) (A) (A) (A) (A) (A) (A) (A) (A) (A)
                 (A)
 Beta  Orbitals:
       Occupied  (A) (A) (A) (A) (A) (A) (A) (A) (A) (A) (A) (A)
                 (A) (A) (A) (A) (A) (A) (A) (A) (A) (A) (A) (A)
                 (A) (A) (A) (A) (A) (A)
       Virtual   (A) (A) (A) (A) (A) (A) (A) (A) (A) (A) (A) (A)
                 (A) (A) (A) (A) (A) (A) (A) (A) (A) (A) (A) (A)
                 (A) (A) (A) (A) (A) (A) (A) (A) (A) (A) (A) (A)
                 (A) (A) (A) (A) (A) (A) (A) (A) (A) (A) (A) (A)
                 (A) (A) (A) (A) (A) (A) (A) (A) (A) (A) (A) (A)
                 (A) (A) (A) (A) (A) (A) (A) (A) (A) (A) (A) (A)
                 (A) (A) (A) (A) (A) (A) (A) (A) (A) (A) (A) (A)
                 (A) (A) (A) (A) (A) (A) (A) (A) (A) (A) (A) (A)
                 (A) (A) (A) (A) (A) (A) (A) (A) (A) (A) (A) (A)
                 (A) (A) (A) (A) (A) (A) (A) (A) (A) (A) (A) (A)
                 (A) (A) (A) (A) (A) (A) (A) (A) (A) (A) (A) (A)
                 (A) (A) (A) (A) (A) (A) (A) (A) (A) (A) (A) (A)
                 (A) (A) (A) (A) (A) (A) (A) (A) (A) (A) (A) (A)
                 (A) (A) (A) (A) (A) (A) (A) (A) (A) (A) (A) (A)
                 (A) (A) (A) (A) (A) (A) (A) (A) (A) (A) (A) (A)
                 (A) (A) (A) (A) (A) (A) (A) (A) (A) (A) (A) (A)
                 (A) (A)
 The electronic state is 2-A.
 Alpha  occ. eigenvalues --  -20.62432 -20.62142 -20.57133 -11.41968 -11.30609
 Alpha  occ. eigenvalues --  -11.26864 -11.26396 -11.23843  -1.49200  -1.39345
 Alpha  occ. eigenvalues --   -1.37827  -1.09457  -1.04999  -0.92304  -0.84235
 Alpha  occ. eigenvalues --   -0.78187  -0.73620  -0.70464  -0.70203  -0.66460
 Alpha  occ. eigenvalues --   -0.64750  -0.61267  -0.60187  -0.56802  -0.55091
 Alpha  occ. eigenvalues --   -0.53544  -0.53184  -0.49333  -0.48355  -0.43105
 Alpha  occ. eigenvalues --   -0.42135
 Alpha virt. eigenvalues --    0.03632   0.04718   0.05676   0.06085   0.06907
 Alpha virt. eigenvalues --    0.08842   0.09368   0.09553   0.11244   0.12288
 Alpha virt. eigenvalues --    0.12526   0.13330   0.15549   0.15753   0.16214
 Alpha virt. eigenvalues --    0.16768   0.18322   0.18435   0.18771   0.19205
 Alpha virt. eigenvalues --    0.19267   0.20527   0.22048   0.22750   0.23504
 Alpha virt. eigenvalues --    0.24385   0.25574   0.27600   0.27786   0.28935
 Alpha virt. eigenvalues --    0.28978   0.30391   0.30457   0.31742   0.33138
 Alpha virt. eigenvalues --    0.34191   0.35868   0.36614   0.37797   0.39176
 Alpha virt. eigenvalues --    0.39185   0.40238   0.40564   0.42124   0.42742
 Alpha virt. eigenvalues --    0.44569   0.45752   0.46233   0.48329   0.50606
 Alpha virt. eigenvalues --    0.55293   0.56265   0.57236   0.61157   0.64634
 Alpha virt. eigenvalues --    0.65357   0.68304   0.69831   0.71147   0.76549
 Alpha virt. eigenvalues --    0.78945   0.79483   0.80613   0.83599   0.84440
 Alpha virt. eigenvalues --    0.84796   0.85561   0.85755   0.86826   0.88109
 Alpha virt. eigenvalues --    0.89715   0.91921   0.96269   0.96519   1.01658
 Alpha virt. eigenvalues --    1.07601   1.08430   1.10926   1.16343   1.21055
 Alpha virt. eigenvalues --    1.24508   1.24630   1.26012   1.29560   1.32913
 Alpha virt. eigenvalues --    1.34577   1.34694   1.38108   1.39339   1.39853
 Alpha virt. eigenvalues --    1.42446   1.42668   1.48238   1.48877   1.50813
 Alpha virt. eigenvalues --    1.52918   1.56949   1.63362   1.63760   1.67724
 Alpha virt. eigenvalues --    1.69469   1.70743   1.71474   1.77554   1.79282
 Alpha virt. eigenvalues --    1.79748   1.81985   1.83681   1.86505   1.88596
 Alpha virt. eigenvalues --    1.91419   1.92665   1.94967   1.99625   2.01269
 Alpha virt. eigenvalues --    2.05936   2.08870   2.10016   2.13288   2.15981
 Alpha virt. eigenvalues --    2.17627   2.27517   2.28019   2.36903   2.37709
 Alpha virt. eigenvalues --    2.38727   2.41978   2.48065   2.55322   2.63998
 Alpha virt. eigenvalues --    2.69411   2.75738   2.77332   2.81261   2.85039
 Alpha virt. eigenvalues --    2.87370   2.89420   2.92566   2.94366   2.95274
 Alpha virt. eigenvalues --    2.96733   2.98065   3.01208   3.03826   3.10783
 Alpha virt. eigenvalues --    3.14568   3.15556   3.17592   3.21071   3.26881
 Alpha virt. eigenvalues --    3.27557   3.30423   3.35395   3.36838   3.39924
 Alpha virt. eigenvalues --    3.43555   3.48179   3.48953   3.51391   3.55827
 Alpha virt. eigenvalues --    3.59629   3.61868   3.67882   3.77304   3.77638
 Alpha virt. eigenvalues --    3.89500   4.01759   4.10498   4.19160   4.20936
 Alpha virt. eigenvalues --    4.21079   4.24880   4.42954   4.50540   4.52923
 Alpha virt. eigenvalues --    4.68719   5.48458   5.54547   5.55432   5.60501
 Alpha virt. eigenvalues --    5.76368   5.90637   6.02657   6.20441   6.41875
 Alpha virt. eigenvalues --   24.70452  25.00334  25.01041  25.13258  26.22148
 Alpha virt. eigenvalues --   51.50890  51.59804  51.70726
  Beta  occ. eigenvalues --  -20.62404 -20.58188 -20.56750 -11.42274 -11.30599
  Beta  occ. eigenvalues --  -11.28253 -11.24763 -11.23842  -1.48971  -1.38694
  Beta  occ. eigenvalues --   -1.23284  -1.07958  -1.04916  -0.92876  -0.84080
  Beta  occ. eigenvalues --   -0.77916  -0.73300  -0.70372  -0.69682  -0.62554
  Beta  occ. eigenvalues --   -0.60730  -0.59800  -0.56683  -0.53129  -0.52982
  Beta  occ. eigenvalues --   -0.50667  -0.48515  -0.47509  -0.43805  -0.42657
  Beta virt. eigenvalues --    0.03590   0.04636   0.05397   0.06079   0.06858
  Beta virt. eigenvalues --    0.07712   0.08681   0.09332   0.10696   0.12132
  Beta virt. eigenvalues --    0.12178   0.12375   0.13796   0.15223   0.15845
  Beta virt. eigenvalues --    0.16226   0.17560   0.18309   0.18437   0.18749
  Beta virt. eigenvalues --    0.19249   0.19273   0.20408   0.22026   0.23070
  Beta virt. eigenvalues --    0.23924   0.24427   0.25671   0.27909   0.28159
  Beta virt. eigenvalues --    0.28905   0.29198   0.30980   0.31334   0.31826
  Beta virt. eigenvalues --    0.33307   0.34670   0.36693   0.37305   0.37853
  Beta virt. eigenvalues --    0.39252   0.40463   0.41108   0.41378   0.42521
  Beta virt. eigenvalues --    0.42942   0.44871   0.46038   0.46670   0.48580
  Beta virt. eigenvalues --    0.50871   0.56067   0.56258   0.57341   0.61158
  Beta virt. eigenvalues --    0.64721   0.65555   0.68731   0.69938   0.70233
  Beta virt. eigenvalues --    0.76285   0.77912   0.79988   0.80455   0.83807
  Beta virt. eigenvalues --    0.84304   0.85122   0.85764   0.86457   0.86637
  Beta virt. eigenvalues --    0.88426   0.89871   0.93677   0.96289   0.96850
  Beta virt. eigenvalues --    1.02075   1.07666   1.08871   1.11205   1.16980
  Beta virt. eigenvalues --    1.21070   1.25522   1.25723   1.28205   1.29700
  Beta virt. eigenvalues --    1.34056   1.35512   1.35668   1.38963   1.40704
  Beta virt. eigenvalues --    1.42184   1.42715   1.43697   1.48222   1.48964
  Beta virt. eigenvalues --    1.51121   1.56337   1.56553   1.63354   1.64263
  Beta virt. eigenvalues --    1.67292   1.70742   1.70744   1.73494   1.79007
  Beta virt. eigenvalues --    1.79273   1.79779   1.82431   1.83721   1.87014
  Beta virt. eigenvalues --    1.88644   1.91509   1.93093   1.95357   1.99641
  Beta virt. eigenvalues --    2.01449   2.06262   2.08923   2.10146   2.13423
  Beta virt. eigenvalues --    2.16105   2.17675   2.27765   2.28029   2.37099
  Beta virt. eigenvalues --    2.38510   2.39335   2.41964   2.48074   2.55326
  Beta virt. eigenvalues --    2.64010   2.69369   2.76157   2.77326   2.81255
  Beta virt. eigenvalues --    2.85095   2.87373   2.89164   2.92569   2.94328
  Beta virt. eigenvalues --    2.95282   2.96779   2.98033   3.01990   3.03221
  Beta virt. eigenvalues --    3.12936   3.16493   3.19966   3.21533   3.24266
  Beta virt. eigenvalues --    3.28503   3.30370   3.33406   3.35671   3.37136
  Beta virt. eigenvalues --    3.43504   3.43749   3.49667   3.50116   3.54241
  Beta virt. eigenvalues --    3.59622   3.60656   3.62163   3.68119   3.77843
  Beta virt. eigenvalues --    3.77910   3.89304   4.01990   4.10848   4.19167
  Beta virt. eigenvalues --    4.20937   4.21102   4.28129   4.43134   4.50669
  Beta virt. eigenvalues --    4.53036   4.68753   5.50871   5.55521   5.61454
  Beta virt. eigenvalues --    5.67062   5.76646   5.90700   6.05167   6.20588
  Beta virt. eigenvalues --    6.41968  24.70632  25.00168  25.00974  25.13259
  Beta virt. eigenvalues --   26.22168  51.53131  51.59869  51.70938
          Condensed to atoms (all electrons):
               1          2          3          4          5          6
     1  C    6.467232   0.454871  -1.616917   1.492505  -0.052708  -0.091787
     2  H    0.454871   0.396301  -0.080423   0.026461  -0.000830  -0.004277
     3  C   -1.616917  -0.080423  10.145502  -3.094069   0.037567  -0.126640
     4  C    1.492505   0.026461  -3.094069   7.741152   0.375077  -0.031731
     5  O   -0.052708  -0.000830   0.037567   0.375077   8.065743  -0.103695
     6  O   -0.091787  -0.004277  -0.126640  -0.031731  -0.103695   8.556083
     7  C    0.048776  -0.000375  -0.280025  -0.178602  -0.023174   0.204061
     8  C    0.052874   0.001972  -0.178198   0.160223   0.021536  -0.184176
     9  H    0.000309  -0.000149  -0.005964   0.001023  -0.015246  -0.035964
    10  H    0.000309  -0.000149  -0.005964   0.001023  -0.015246  -0.035964
    11  H   -0.002262  -0.000058   0.011976  -0.001548  -0.000645  -0.007476
    12  H   -0.002262  -0.000058   0.011976  -0.001548  -0.000645  -0.007476
    13  H   -0.000341   0.000016   0.001862   0.001067   0.001260   0.020853
    14  O    0.028798  -0.015635  -0.169930   0.051266  -0.001196   0.002146
    15  H   -0.017090  -0.000055   0.037271  -0.018367   0.000915   0.009346
               7          8          9         10         11         12
     1  C    0.048776   0.052874   0.000309   0.000309  -0.002262  -0.002262
     2  H   -0.000375   0.001972  -0.000149  -0.000149  -0.000058  -0.000058
     3  C   -0.280025  -0.178198  -0.005964  -0.005964   0.011976   0.011976
     4  C   -0.178602   0.160223   0.001023   0.001023  -0.001548  -0.001548
     5  O   -0.023174   0.021536  -0.015246  -0.015246  -0.000645  -0.000645
     6  O    0.204061  -0.184176  -0.035964  -0.035964  -0.007476  -0.007476
     7  C    5.533066  -0.049999   0.440295   0.440294  -0.034146  -0.034147
     8  C   -0.049999   5.677392  -0.054380  -0.054380   0.392775   0.392775
     9  H    0.440295  -0.054380   0.540012  -0.045180   0.004210  -0.006184
    10  H    0.440294  -0.054380  -0.045180   0.540012  -0.006184   0.004210
    11  H   -0.034146   0.392775   0.004210  -0.006184   0.567521  -0.044431
    12  H   -0.034147   0.392775  -0.006184   0.004210  -0.044431   0.567521
    13  H   -0.056273   0.423684  -0.004252  -0.004252  -0.032660  -0.032660
    14  O   -0.001869   0.002191   0.000191   0.000191  -0.000290  -0.000290
    15  H    0.003582   0.002551   0.000014   0.000014  -0.001024  -0.001024
              13         14         15
     1  C   -0.000341   0.028798  -0.017090
     2  H    0.000016  -0.015635  -0.000055
     3  C    0.001862  -0.169930   0.037271
     4  C    0.001067   0.051266  -0.018367
     5  O    0.001260  -0.001196   0.000915
     6  O    0.020853   0.002146   0.009346
     7  C   -0.056273  -0.001869   0.003582
     8  C    0.423684   0.002191   0.002551
     9  H   -0.004252   0.000191   0.000014
    10  H   -0.004252   0.000191   0.000014
    11  H   -0.032660  -0.000290  -0.001024
    12  H   -0.032660  -0.000290  -0.001024
    13  H    0.539446  -0.000016  -0.000032
    14  O   -0.000016   8.053877   0.295081
    15  H   -0.000032   0.295081   0.435425
          Atomic-Atomic Spin Densities.
               1          2          3          4          5          6
     1  C   -0.772336   0.013725  -0.083032   0.055164  -0.010624   0.015953
     2  H    0.013725   0.049417  -0.014284   0.004939  -0.000298   0.000391
     3  C   -0.083032  -0.014284   1.155133  -0.064173   0.012278  -0.091702
     4  C    0.055164   0.004939  -0.064173  -0.177849  -0.022845   0.072704
     5  O   -0.010624  -0.000298   0.012278  -0.022845   0.104561  -0.003053
     6  O    0.015953   0.000391  -0.091702   0.072704  -0.003053  -0.004176
     7  C    0.003689   0.000116  -0.012526   0.005729  -0.001028   0.000553
     8  C    0.002672   0.000193  -0.004234   0.000506  -0.001973   0.000046
     9  H    0.000224   0.000002  -0.001375   0.000992  -0.000160  -0.000107
    10  H    0.000224   0.000002  -0.001375   0.000992  -0.000160  -0.000107
    11  H    0.000148   0.000003  -0.000938   0.000508   0.000038   0.000123
    12  H    0.000148   0.000003  -0.000938   0.000508   0.000038   0.000123
    13  H    0.000463   0.000015  -0.001828   0.000459  -0.000011  -0.000021
    14  O    0.045398   0.008007  -0.110386   0.019690  -0.000678   0.006514
    15  H   -0.009612  -0.001330   0.021989  -0.005415   0.000267  -0.001763
               7          8          9         10         11         12
     1  C    0.003689   0.002672   0.000224   0.000224   0.000148   0.000148
     2  H    0.000116   0.000193   0.000002   0.000002   0.000003   0.000003
     3  C   -0.012526  -0.004234  -0.001375  -0.001375  -0.000938  -0.000938
     4  C    0.005729   0.000506   0.000992   0.000992   0.000508   0.000508
     5  O   -0.001028  -0.001973  -0.000160  -0.000160   0.000038   0.000038
     6  O    0.000553   0.000046  -0.000107  -0.000107   0.000123   0.000123
     7  C    0.010702  -0.003650  -0.000136  -0.000136  -0.000560  -0.000560
     8  C   -0.003650   0.002987   0.000350   0.000350   0.000797   0.000797
     9  H   -0.000136   0.000350  -0.000092   0.000273   0.000026  -0.000004
    10  H   -0.000136   0.000350   0.000273  -0.000092  -0.000004   0.000026
    11  H   -0.000560   0.000797   0.000026  -0.000004  -0.000076  -0.000080
    12  H   -0.000560   0.000797  -0.000004   0.000026  -0.000080  -0.000076
    13  H   -0.001428   0.002213   0.000014   0.000014  -0.000083  -0.000083
    14  O    0.000391   0.000469  -0.000083  -0.000083   0.000114   0.000114
    15  H    0.000657  -0.001933   0.000052   0.000052  -0.000011  -0.000011
              13         14         15
     1  C    0.000463   0.045398  -0.009612
     2  H    0.000015   0.008007  -0.001330
     3  C   -0.001828  -0.110386   0.021989
     4  C    0.000459   0.019690  -0.005415
     5  O   -0.000011  -0.000678   0.000267
     6  O   -0.000021   0.006514  -0.001763
     7  C   -0.001428   0.000391   0.000657
     8  C    0.002213   0.000469  -0.001933
     9  H    0.000014  -0.000083   0.000052
    10  H    0.000014  -0.000083   0.000052
    11  H   -0.000083   0.000114  -0.000011
    12  H   -0.000083   0.000114  -0.000011
    13  H    0.000466   0.000048  -0.000150
    14  O    0.000048   0.968974   0.002317
    15  H   -0.000150   0.002317  -0.036832
 Mulliken charges and spin densities:
               1          2
     1  C   -0.762307  -0.737796
     2  H    0.222387   0.060900
     3  C    1.311976   0.802612
     4  C   -0.523931  -0.108090
     5  O   -0.288712   0.076352
     6  O   -0.163305  -0.004522
     7  C   -0.011463   0.001813
     8  C   -0.606837  -0.000407
     9  H    0.181267  -0.000022
    10  H    0.181267  -0.000022
    11  H    0.154242   0.000006
    12  H    0.154242   0.000006
    13  H    0.142297   0.000085
    14  O   -0.244516   0.940807
    15  H    0.253392  -0.031722
 Sum of Mulliken charges =  -0.00000   1.00000
 Mulliken charges and spin densities with hydrogens summed into heavy atoms:
               1          2
     1  C   -0.539920  -0.676896
     3  C    1.311976   0.802612
     4  C   -0.523931  -0.108090
     5  O   -0.288712   0.076352
     6  O   -0.163305  -0.004522
     7  C    0.351071   0.001769
     8  C   -0.156057  -0.000310
    14  O    0.008876   0.909085
 Electronic spatial extent (au):  <R**2>=           1268.7148
 Charge=             -0.0000 electrons
 Dipole moment (field-independent basis, Debye):
    X=              1.7373    Y=              1.9599    Z=              0.0000  Tot=              2.6191
 Quadrupole moment (field-independent basis, Debye-Ang):
   XX=            -39.2901   YY=            -56.1431   ZZ=            -47.6489
   XY=              5.0795   XZ=              0.0000   YZ=             -0.0000
 Traceless Quadrupole moment (field-independent basis, Debye-Ang):
   XX=              8.4039   YY=             -8.4490   ZZ=              0.0451
   XY=              5.0795   XZ=              0.0000   YZ=             -0.0000
 Octapole moment (field-independent basis, Debye-Ang**2):
  XXX=             -6.0756  YYY=             26.4432  ZZZ=             -0.0000  XYY=              6.8081
  XXY=            -10.7376  XXZ=             -0.0000  XZZ=              5.0957  YZZ=             -0.4929
  YYZ=              0.0001  XYZ=              0.0000
 Hexadecapole moment (field-independent basis, Debye-Ang**3):
 XXXX=           -948.6434 YYYY=           -505.4578 ZZZZ=            -59.8253 XXXY=             21.1282
 XXXZ=              0.0003 YYYX=             -6.8291 YYYZ=             -0.0011 ZZZX=              0.0002
 ZZZY=             -0.0010 XXYY=           -299.4106 XXZZ=           -204.9168 YYZZ=            -87.5458
 XXYZ=             -0.0005 YYXZ=              0.0001 ZZXY=             -5.3615
 N-N= 3.475191741682D+02 E-N=-1.677815579332D+03  KE= 4.177371311862D+02
 1\1\GINC-AJ\SP\UCCSD(T)-FC\6-311++G(d,p)\C5H7O3(2)\AAYUSH\22-Apr-2025\
 0\\# ccsd(t)/6-311++g(d,p) sp\\Title Card Required\\0,2\C,0,2.572513,0
 .241219,0.\H,0,3.626306,0.08332,0.000001\C,0,1.433328,0.638816,-0.0000
 03\C,0,0.01417,0.953388,-0.000005\O,0,-0.4416,2.06039,-0.00001\O,0,-0.
 704471,-0.175288,0.\C,0,-2.136834,-0.000379,-0.000001\C,0,-2.755152,-1
 .378329,0.000005\H,0,-2.412345,0.57835,0.883723\H,0,-2.412345,0.578342
 ,-0.88373\H,0,-2.453451,-1.937188,-0.886848\H,0,-2.453451,-1.93718,0.8
 86863\H,0,-3.842814,-1.290879,0.000005\O,0,2.340781,-1.858996,0.00001\
 H,0,1.369664,-1.903239,0.00001\\Version=ES64L-G16RevA.03\State=2-A\HF=
 -417.9880406\MP2=-419.2436214\MP3=-419.272759\MP4D=-419.3032071\MP4DQ=
 -419.2785248\PUHF=-418.0028336\PMP2-0=-419.2564562\PMP3-0=-419.2822079
 \MP4SDQ=-419.2985783\CCSD=-419.3022202\CCSD(T)=-419.3551641\S2=0.92584
 9\S2-1=0.876165\S2A=0.770046\RMSD=3.886e-09\PG=C01 [X(C5H7O3)]\\@


 KNOWING HOW CONTENTED, FREE, AND JOYFUL IS LIFE IN
 THE REALMS OF SCIENCE, ONE FERVENTLY WISHES THAT
 MANY WOULD ENTER HER PORTALS.
   --  DMITRI IVANOVICH MENDELEEV
 "FIRST PRINCIPLES OF CHEMISTRY", LONGMANS, GREEN,
 AND CO.  LONDON, 1891
 Job cpu time:       0 days 16 hours 45 minutes 12.4 seconds.
 Elapsed time:       0 days  0 hours 42 minutes  7.8 seconds.
 File lengths (MBytes):  RWF=  44258 Int=      0 D2E=      0 Chk=      5 Scr=      1
 Normal termination of Gaussian 16 at Tue Apr 22 04:11:24 2025.
