 Entering Gaussian System, Link 0=g16
 Initial command:
 /opt/g16/l1.exe "/home/aayush/scratches/g16/Gau-96277.inp" -scrdir="/home/aayush/scratches/g16/"
 Entering Link 1 = /opt/g16/l1.exe PID=     96280.
  
 Copyright (c) 1988,1990,1992,1993,1995,1998,2003,2009,2016,
            Gaussian, Inc.  All Rights Reserved.
  
 This is part of the Gaussian(R) 16 program.  It is based on
 the Gaussian(R) 09 system (copyright 2009, Gaussian, Inc.),
 the Gaussian(R) 03 system (copyright 2003, Gaussian, Inc.),
 the Gaussian(R) 98 system (copyright 1998, Gaussian, Inc.),
 the Gaussian(R) 94 system (copyright 1995, Gaussian, Inc.),
 the Gaussian 92(TM) system (copyright 1992, Gaussian, Inc.),
 the Gaussian 90(TM) system (copyright 1990, Gaussian, Inc.),
 the Gaussian 88(TM) system (copyright 1988, Gaussian, Inc.),
 the Gaussian 86(TM) system (copyright 1986, Carnegie Mellon
 University), and the Gaussian 82(TM) system (copyright 1983,
 Carnegie Mellon University). Gaussian is a federally registered
 trademark of Gaussian, Inc.
  
 This software contains proprietary and confidential information,
 including trade secrets, belonging to Gaussian, Inc.
  
 This software is provided under written license and may be
 used, copied, transmitted, or stored only in accord with that
 written license.
  
 The following legend is applicable only to US Government
 contracts under FAR:
  
                    RESTRICTED RIGHTS LEGEND
  
 Use, reproduction and disclosure by the US Government is
 subject to restrictions as set forth in subparagraphs (a)
 and (c) of the Commercial Computer Software - Restricted
 Rights clause in FAR 52.227-19.
  
 Gaussian, Inc.
 340 Quinnipiac St., Bldg. 40, Wallingford CT 06492
  
  
 ---------------------------------------------------------------
 Warning -- This program may not be used in any manner that
 competes with the business of Gaussian, Inc. or will provide
 assistance to any competitor of Gaussian, Inc.  The licensee
 of this program is prohibited from giving any competitor of
 Gaussian, Inc. access to this program.  By using this program,
 the user acknowledges that Gaussian, Inc. is engaged in the
 business of creating and licensing software in the field of
 computational chemistry and represents and warrants to the
 licensee that it is not a competitor of Gaussian, Inc. and that
 it will not use this program in any manner prohibited above.
 ---------------------------------------------------------------
  

 Cite this work as:
 Gaussian 16, Revision A.03,
 M. J. Frisch, G. W. Trucks, H. B. Schlegel, G. E. Scuseria, 
 M. A. Robb, J. R. Cheeseman, G. Scalmani, V. Barone, 
 G. A. Petersson, H. Nakatsuji, X. Li, M. Caricato, A. V. Marenich, 
 J. Bloino, B. G. Janesko, R. Gomperts, B. Mennucci, H. P. Hratchian, 
 J. V. Ortiz, A. F. Izmaylov, J. L. Sonnenberg, D. Williams-Young, 
 F. Ding, F. Lipparini, F. Egidi, J. Goings, B. Peng, A. Petrone, 
 T. Henderson, D. Ranasinghe, V. G. Zakrzewski, J. Gao, N. Rega, 
 G. Zheng, W. Liang, M. Hada, M. Ehara, K. Toyota, R. Fukuda, 
 J. Hasegawa, M. Ishida, T. Nakajima, Y. Honda, O. Kitao, H. Nakai, 
 T. Vreven, K. Throssell, J. A. Montgomery, Jr., J. E. Peralta, 
 F. Ogliaro, M. J. Bearpark, J. J. Heyd, E. N. Brothers, K. N. Kudin, 
 V. N. Staroverov, T. A. Keith, R. Kobayashi, J. Normand, 
 K. Raghavachari, A. P. Rendell, J. C. Burant, S. S. Iyengar, 
 J. Tomasi, M. Cossi, J. M. Millam, M. Klene, C. Adamo, R. Cammi, 
 J. W. Ochterski, R. L. Martin, K. Morokuma, O. Farkas, 
 J. B. Foresman, and D. J. Fox, Gaussian, Inc., Wallingford CT, 2016.
 
 ******************************************
 Gaussian 16:  ES64L-G16RevA.03 25-Dec-2016
                20-Jun-2025 
 ******************************************
 %nprocshared=24
 Will use up to   24 processors via shared memory.
 %mem=12GB
 %chk=ethyl_propiolate_ts1.chk
 -------------------
 # freq 6-31+g m062x
 -------------------
 1/10=4,30=1,38=1/1,3;
 2/12=2,17=6,18=5,40=1/2;
 3/5=1,6=6,7=10,11=2,25=1,30=1,71=2,74=-55,140=1/1,2,3;
 4//1;
 5/5=2,38=5,98=1/2;
 8/6=4,10=90,11=11/1;
 11/6=1,8=1,9=11,15=111,16=1/1,2,10;
 10/6=1/2;
 6/7=2,8=2,9=2,10=2,28=1/1;
 7/8=1,10=1,25=1/1,2,3,16;
 1/10=4,30=1/3;
 99//99;
 -------------------
 Title Card Required
 -------------------
 Symbolic Z-matrix:
 Charge =  0 Multiplicity = 2
 O                     2.11534   1.38157  -0.01737 
 H                     2.75944   1.22085   0.69051 
 C                     2.39441  -1.17941  -0.56625 
 H                     3.27343  -1.66563  -0.92078 
 C                     1.43108  -0.55811  -0.18104 
 C                     0.09855  -0.19616   0.31613 
 O                    -0.23542  -0.34786   1.45707 
 O                    -0.65614   0.28464  -0.66272 
 C                    -1.98914   0.69292  -0.29278 
 C                    -2.92199  -0.49917  -0.20908 
 H                    -2.28275   1.38059  -1.08367 
 H                    -1.93717   1.22925   0.65532 
 H                    -3.93654  -0.15479   0.00071 
 H                    -2.93075  -1.04318  -1.15479 
 H                    -2.61494  -1.17311   0.59087 
 

 GradGradGradGradGradGradGradGradGradGradGradGradGradGradGradGradGradGrad
 Berny optimization.
 Initialization pass.
 Trust Radius=3.00D-01 FncErr=1.00D-07 GrdErr=1.00D-07 EigMax=2.50D+02 EigMin=1.00D-04
 Number of steps in this run=      2 maximum allowed number of steps=      2.
 GradGradGradGradGradGradGradGradGradGradGradGradGradGradGradGradGradGrad

                          Input orientation:                          
 ---------------------------------------------------------------------
 Center     Atomic      Atomic             Coordinates (Angstroms)
 Number     Number       Type             X           Y           Z
 ---------------------------------------------------------------------
      1          8           0        2.115341    1.381566   -0.017366
      2          1           0        2.759440    1.220854    0.690508
      3          6           0        2.394405   -1.179414   -0.566252
      4          1           0        3.273432   -1.665628   -0.920782
      5          6           0        1.431075   -0.558106   -0.181043
      6          6           0        0.098554   -0.196160    0.316126
      7          8           0       -0.235417   -0.347863    1.457070
      8          8           0       -0.656138    0.284642   -0.662723
      9          6           0       -1.989136    0.692923   -0.292782
     10          6           0       -2.921986   -0.499174   -0.209077
     11          1           0       -2.282750    1.380588   -1.083666
     12          1           0       -1.937173    1.229247    0.655324
     13          1           0       -3.936540   -0.154790    0.000712
     14          1           0       -2.930747   -1.043177   -1.154794
     15          1           0       -2.614941   -1.173106    0.590865
 ---------------------------------------------------------------------
                    Distance matrix (angstroms):
                    1          2          3          4          5
     1  O    0.000000
     2  H    0.970452   0.000000
     3  C    2.633965   2.733859   0.000000
     4  H    3.382710   3.345478   1.065262   0.000000
     5  C    2.063332   2.385132   1.209303   2.273345   0.000000
     6  C    2.582221   3.037829   2.648832   3.710678   1.467581
     7  O    3.269702   3.466650   3.420712   4.438773   2.346234
     8  O    3.049725   3.791293   3.385052   4.394504   2.301890
     9  C    4.170949   4.877965   4.774501   5.801014   3.643543
    10  C    5.380390   6.003861   5.371621   6.344316   4.353550
    11  H    4.525506   5.347606   5.356968   6.338543   4.285529
    12  H    4.110789   4.696752   5.104553   6.165616   3.903746
    13  H    6.243875   6.870543   6.438336   7.423980   5.385814
    14  H    5.712804   6.396030   5.359308   6.239715   4.495439
    15  H    5.410348   5.884296   5.141255   6.099229   4.164650
                    6          7          8          9         10
     6  C    0.000000
     7  O    1.198459   0.000000
     8  O    1.326226   2.251797   0.000000
     9  C    2.349401   2.687145   1.442371   0.000000
    10  C    3.080798   3.164900   2.440129   1.516018   0.000000
    11  H    3.180591   3.692486   2.006030   1.088389   2.169570
    12  H    2.508192   2.454801   2.066537   1.090527   2.168982
    13  H    4.047614   3.982031   3.375542   2.144094   1.091756
    14  H    3.472421   3.817080   2.679381   2.154934   1.091053
    15  H    2.897061   2.663357   2.744708   2.157436   1.090123
                   11         12         13         14         15
    11  H    0.000000
    12  H    1.779442   0.000000
    13  H    2.503654   2.518242   0.000000
    14  H    2.509900   3.070444   1.770888   0.000000
    15  H    3.071768   2.496963   1.769710   1.778747   0.000000
 Stoichiometry    C5H7O3(2)
 Framework group  C1[X(C5H7O3)]
 Deg. of freedom    39
 Full point group                 C1      NOp   1
 Largest Abelian subgroup         C1      NOp   1
 Largest concise Abelian subgroup C1      NOp   1
                         Standard orientation:                         
 ---------------------------------------------------------------------
 Center     Atomic      Atomic             Coordinates (Angstroms)
 Number     Number       Type             X           Y           Z
 ---------------------------------------------------------------------
      1          8           0        2.179857    1.379640   -0.016816
      2          1           0        2.823672    1.222752    0.692173
      3          6           0        2.454872   -1.185476   -0.548152
      4          1           0        3.333139   -1.675501   -0.899303
      5          6           0        1.492515   -0.560016   -0.167252
      6          6           0        0.160552   -0.192560    0.327362
      7          8           0       -0.173705   -0.335922    1.469300
      8          8           0       -0.593336    0.282732   -0.654792
      9          6           0       -1.925698    0.695653   -0.287721
     10          6           0       -2.860445   -0.494359   -0.195908
     11          1           0       -2.218188    1.378356   -1.083306
     12          1           0       -1.872920    1.238368    0.656696
     13          1           0       -3.874459   -0.146936    0.011469
     14          1           0       -2.870034   -1.044806   -1.137881
     15          1           0       -2.554504   -1.163289    0.608642
 ---------------------------------------------------------------------
 Rotational constants (GHZ):           4.0024985           1.1647550           1.1100053
 Standard basis: 6-31+G (6D, 7F)
 There are   118 symmetry adapted cartesian basis functions of A   symmetry.
 There are   118 symmetry adapted basis functions of A   symmetry.
   118 basis functions,   236 primitive gaussians,   118 cartesian basis functions
    31 alpha electrons       30 beta electrons
       nuclear repulsion energy       358.7813665171 Hartrees.
 NAtoms=   15 NActive=   15 NUniq=   15 SFac= 1.00D+00 NAtFMM=   60 NAOKFM=F Big=F
 Integral buffers will be    131072 words long.
 Raffenetti 2 integral format.
 Two-electron integral symmetry is turned on.
 One-electron integrals computed using PRISM.
 NBasis=   118 RedAO= T EigKep=  3.48D-06  NBF=   118
 NBsUse=   118 1.00D-06 EigRej= -1.00D+00 NBFU=   118
 ExpMin= 4.38D-02 ExpMax= 5.48D+03 ExpMxC= 8.25D+02 IAcc=3 IRadAn=         5 AccDes= 0.00D+00
 Harris functional with IExCor= 1009 and IRadAn=       5 diagonalized for initial guess.
 HarFok:  IExCor= 1009 AccDes= 0.00D+00 IRadAn=         5 IDoV= 1 UseB2=F ITyADJ=14
 ICtDFT=  3500011 ScaDFX=  1.000000  1.000000  1.000000  1.000000
 FoFCou: FMM=F IPFlag=           0 FMFlag=      100000 FMFlg1=           0
         NFxFlg=           0 DoJE=T BraDBF=F KetDBF=T FulRan=T
         wScrn=  0.000000 ICntrl=       500 IOpCl=  0 I1Cent=   200000004 NGrid=           0
         NMat0=    1 NMatS0=      1 NMatT0=    0 NMatD0=    1 NMtDS0=    0 NMtDT0=    0
 Petite list used in FoFCou.
 Initial guess <Sx>= 0.0000 <Sy>= 0.0000 <Sz>= 0.5000 <S**2>= 0.7500 S= 0.5000
 Requested convergence on RMS density matrix=1.00D-08 within 128 cycles.
 Requested convergence on MAX density matrix=1.00D-06.
 Requested convergence on             energy=1.00D-06.
 No special actions if energy rises.
 Restarting incremental Fock formation.
 SCF Done:  E(UM062X) =  -419.954028506     A.U. after   24 cycles
            NFock= 24  Conv=0.19D-08     -V/T= 2.0050
 <Sx>= 0.0000 <Sy>= 0.0000 <Sz>= 0.5000 <S**2>= 0.7668 S= 0.5084
 <L.S>=  0.00000000000    
 Annihilation of the first spin contaminant:
 S**2 before annihilation     0.7668,   after     0.7501
 DoSCS=F DFT=T ScalE2(SS,OS)=  1.000000  1.000000
 Range of M.O.s used for correlation:     1   118
 NBasis=   118 NAE=    31 NBE=    30 NFC=     0 NFV=     0
 NROrb=    118 NOA=    31 NOB=    30 NVA=    87 NVB=    88

 **** Warning!!: The largest alpha MO coefficient is  0.14810331D+03


 **** Warning!!: The largest beta MO coefficient is  0.14916610D+03

 Symmetrizing basis deriv contribution to polar:
 IMax=3 JMax=2 DiffMx= 0.00D+00
 G2DrvN: will do    16 centers at a time, making    1 passes.
 Calling FoFCou, ICntrl=  3107 FMM=F I1Cent=   0 AccDes= 0.00D+00.
 End of G2Drv F.D. properties file   721 does not exist.
 End of G2Drv F.D. properties file   722 does not exist.
 End of G2Drv F.D. properties file   788 does not exist.
          IDoAtm=111111111111111
          Differentiating once with respect to electric field.
                with respect to dipole field.
          Differentiating once with respect to nuclear coordinates.
 Keep R1 and R2 ints in memory in canonical form, NReq=71861356.
          There are    48 degrees of freedom in the 1st order CPHF.  IDoFFX=6 NUNeed=     3.
     45 vectors produced by pass  0 Test12= 1.11D-14 2.08D-09 XBig12= 7.64D+01 4.04D+00.
 AX will form    45 AO Fock derivatives at one time.
     45 vectors produced by pass  1 Test12= 1.11D-14 2.08D-09 XBig12= 1.07D+01 4.06D-01.
     45 vectors produced by pass  2 Test12= 1.11D-14 2.08D-09 XBig12= 2.71D-01 9.21D-02.
     45 vectors produced by pass  3 Test12= 1.11D-14 2.08D-09 XBig12= 1.85D-03 6.21D-03.
     45 vectors produced by pass  4 Test12= 1.11D-14 2.08D-09 XBig12= 1.93D-05 5.67D-04.
     45 vectors produced by pass  5 Test12= 1.11D-14 2.08D-09 XBig12= 1.57D-07 5.56D-05.
     32 vectors produced by pass  6 Test12= 1.11D-14 2.08D-09 XBig12= 1.08D-09 3.40D-06.
     15 vectors produced by pass  7 Test12= 1.11D-14 2.08D-09 XBig12= 6.03D-12 2.22D-07.
      3 vectors produced by pass  8 Test12= 1.11D-14 2.08D-09 XBig12= 4.41D-14 2.00D-08.
      2 vectors produced by pass  9 Test12= 1.11D-14 2.08D-09 XBig12= 5.88D-16 3.55D-09.
      1 vectors produced by pass 10 Test12= 1.11D-14 2.08D-09 XBig12= 2.58D-16 3.14D-09.
 InvSVY:  IOpt=1 It=  1 EMax= 1.07D-14
 Solved reduced A of dimension   323 with    48 vectors.
 Isotropic polarizability for W=    0.000000       70.77 Bohr**3.
 End of Minotr F.D. properties file   721 does not exist.
 End of Minotr F.D. properties file   722 does not exist.
 End of Minotr F.D. properties file   788 does not exist.

 **********************************************************************

            Population analysis using the SCF density.

 **********************************************************************

 Orbital symmetries:
 Alpha Orbitals:
       Occupied  (A) (A) (A) (A) (A) (A) (A) (A) (A) (A) (A) (A)
                 (A) (A) (A) (A) (A) (A) (A) (A) (A) (A) (A) (A)
                 (A) (A) (A) (A) (A) (A) (A)
       Virtual   (A) (A) (A) (A) (A) (A) (A) (A) (A) (A) (A) (A)
                 (A) (A) (A) (A) (A) (A) (A) (A) (A) (A) (A) (A)
                 (A) (A) (A) (A) (A) (A) (A) (A) (A) (A) (A) (A)
                 (A) (A) (A) (A) (A) (A) (A) (A) (A) (A) (A) (A)
                 (A) (A) (A) (A) (A) (A) (A) (A) (A) (A) (A) (A)
                 (A) (A) (A) (A) (A) (A) (A) (A) (A) (A) (A) (A)
                 (A) (A) (A) (A) (A) (A) (A) (A) (A) (A) (A) (A)
                 (A) (A) (A)
 Beta  Orbitals:
       Occupied  (A) (A) (A) (A) (A) (A) (A) (A) (A) (A) (A) (A)
                 (A) (A) (A) (A) (A) (A) (A) (A) (A) (A) (A) (A)
                 (A) (A) (A) (A) (A) (A)
       Virtual   (A) (A) (A) (A) (A) (A) (A) (A) (A) (A) (A) (A)
                 (A) (A) (A) (A) (A) (A) (A) (A) (A) (A) (A) (A)
                 (A) (A) (A) (A) (A) (A) (A) (A) (A) (A) (A) (A)
                 (A) (A) (A) (A) (A) (A) (A) (A) (A) (A) (A) (A)
                 (A) (A) (A) (A) (A) (A) (A) (A) (A) (A) (A) (A)
                 (A) (A) (A) (A) (A) (A) (A) (A) (A) (A) (A) (A)
                 (A) (A) (A) (A) (A) (A) (A) (A) (A) (A) (A) (A)
                 (A) (A) (A) (A)
 The electronic state is 2-A.
 Alpha  occ. eigenvalues --  -19.70478 -19.68823 -19.66182 -10.72998 -10.61413
 Alpha  occ. eigenvalues --  -10.60574 -10.59811 -10.54534  -1.28008  -1.18639
 Alpha  occ. eigenvalues --   -1.13475  -0.91712  -0.88210  -0.78637  -0.71367
 Alpha  occ. eigenvalues --   -0.64674  -0.62365  -0.58589  -0.57022  -0.54357
 Alpha  occ. eigenvalues --   -0.53690  -0.50542  -0.48336  -0.46611  -0.45235
 Alpha  occ. eigenvalues --   -0.42099  -0.41173  -0.39710  -0.38090  -0.36892
 Alpha  occ. eigenvalues --   -0.34656
 Alpha virt. eigenvalues --   -0.00880   0.01953   0.02560   0.03569   0.03799
 Alpha virt. eigenvalues --    0.04491   0.05325   0.05813   0.07833   0.08027
 Alpha virt. eigenvalues --    0.08375   0.08985   0.09616   0.11566   0.12258
 Alpha virt. eigenvalues --    0.13215   0.14412   0.15414   0.16030   0.16202
 Alpha virt. eigenvalues --    0.17467   0.18954   0.19882   0.21343   0.21482
 Alpha virt. eigenvalues --    0.23157   0.24136   0.24776   0.25633   0.26773
 Alpha virt. eigenvalues --    0.28288   0.29087   0.30076   0.30567   0.31244
 Alpha virt. eigenvalues --    0.32331   0.33800   0.34027   0.36401   0.37083
 Alpha virt. eigenvalues --    0.38269   0.39079   0.41157   0.42829   0.44187
 Alpha virt. eigenvalues --    0.47251   0.57934   0.59678   0.70018   0.70368
 Alpha virt. eigenvalues --    0.71313   0.72230   0.74582   0.75879   0.77899
 Alpha virt. eigenvalues --    0.80318   0.84548   0.85309   0.90079   0.91138
 Alpha virt. eigenvalues --    0.93739   0.96757   0.98424   1.06916   1.10052
 Alpha virt. eigenvalues --    1.11146   1.13188   1.15459   1.18026   1.20428
 Alpha virt. eigenvalues --    1.22631   1.25772   1.26672   1.27803   1.31914
 Alpha virt. eigenvalues --    1.36111   1.39080   1.40943   1.43099   1.45864
 Alpha virt. eigenvalues --    1.48112   1.53333   1.64632   1.71628   1.84269
 Alpha virt. eigenvalues --    2.02258   2.03449
  Beta  occ. eigenvalues --  -19.70482 -19.67302 -19.66202 -10.72971 -10.61413
  Beta  occ. eigenvalues --  -10.60621 -10.59597 -10.54534  -1.28015  -1.18671
  Beta  occ. eigenvalues --   -1.07376  -0.91249  -0.87868  -0.78475  -0.71178
  Beta  occ. eigenvalues --   -0.64596  -0.61895  -0.58424  -0.56858  -0.53989
  Beta  occ. eigenvalues --   -0.51436  -0.49276  -0.46864  -0.45230  -0.42037
  Beta  occ. eigenvalues --   -0.39522  -0.39401  -0.38168  -0.37927  -0.36172
  Beta virt. eigenvalues --   -0.09495   0.00098   0.02004   0.02634   0.03549
  Beta virt. eigenvalues --    0.03894   0.04569   0.05343   0.05904   0.07875
  Beta virt. eigenvalues --    0.08140   0.08377   0.09067   0.09662   0.11540
  Beta virt. eigenvalues --    0.12365   0.13413   0.14465   0.15440   0.16371
  Beta virt. eigenvalues --    0.16625   0.17550   0.19123   0.20194   0.21117
  Beta virt. eigenvalues --    0.21545   0.23131   0.24426   0.24950   0.25769
  Beta virt. eigenvalues --    0.26849   0.28350   0.29217   0.30163   0.30610
  Beta virt. eigenvalues --    0.31222   0.32402   0.33796   0.34057   0.36376
  Beta virt. eigenvalues --    0.37105   0.38085   0.39112   0.41273   0.42928
  Beta virt. eigenvalues --    0.44257   0.47282   0.57940   0.59782   0.70031
  Beta virt. eigenvalues --    0.70548   0.71606   0.72795   0.75167   0.76581
  Beta virt. eigenvalues --    0.78022   0.80340   0.84588   0.85224   0.89768
  Beta virt. eigenvalues --    0.91109   0.94094   0.97038   0.98468   1.06702
  Beta virt. eigenvalues --    1.10080   1.11252   1.13928   1.16850   1.18543
  Beta virt. eigenvalues --    1.20502   1.23331   1.26907   1.28041   1.28333
  Beta virt. eigenvalues --    1.32304   1.37472   1.39945   1.41548   1.43904
  Beta virt. eigenvalues --    1.46024   1.48243   1.53515   1.65322   1.71648
  Beta virt. eigenvalues --    1.86138   2.02373   2.03487
          Condensed to atoms (all electrons):
               1          2          3          4          5          6
     1  O    8.360597   0.137459  -0.126992   0.000002   0.471825  -0.394535
     2  H    0.137459   0.441888   0.035898  -0.000143  -0.013114  -0.004999
     3  C   -0.126992   0.035898  28.306955   0.547305  -6.705342 -15.619621
     4  H    0.000002  -0.000143   0.547305   0.359793  -0.195344  -0.033042
     5  C    0.471825  -0.013114  -6.705342  -0.195344  19.040614  -4.687729
     6  C   -0.394535  -0.004999 -15.619621  -0.033042  -4.687729  25.268532
     7  O   -0.016785  -0.000955   0.183107  -0.000069   0.251314  -0.246810
     8  O   -0.006640   0.000281  -0.432540  -0.000029  -1.041846   0.908615
     9  C   -0.000729  -0.000430  -0.106267   0.000528  -0.408442   0.284260
    10  C    0.002450  -0.000250  -0.130538  -0.000164  -0.249385   0.183799
    11  H    0.000011  -0.000001   0.000620   0.000000  -0.002433   0.017924
    12  H   -0.000245  -0.000000   0.010989  -0.000000   0.049455  -0.056330
    13  H    0.000003  -0.000000  -0.000166   0.000000   0.002089   0.005689
    14  H    0.000007   0.000000  -0.000400  -0.000000   0.004061   0.002448
    15  H    0.000021   0.000000  -0.000179   0.000000  -0.009238   0.007273
               7          8          9         10         11         12
     1  O   -0.016785  -0.006640  -0.000729   0.002450   0.000011  -0.000245
     2  H   -0.000955   0.000281  -0.000430  -0.000250  -0.000001  -0.000000
     3  C    0.183107  -0.432540  -0.106267  -0.130538   0.000620   0.010989
     4  H   -0.000069  -0.000029   0.000528  -0.000164   0.000000  -0.000000
     5  C    0.251314  -1.041846  -0.408442  -0.249385  -0.002433   0.049455
     6  C   -0.246810   0.908615   0.284260   0.183799   0.017924  -0.056330
     7  O    8.478513  -0.251123  -0.000093  -0.055452  -0.001047   0.001502
     8  O   -0.251123   9.054392   0.019570   0.041334  -0.070850  -0.033524
     9  C   -0.000093   0.019570   5.866098  -0.107907   0.427432   0.415301
    10  C   -0.055452   0.041334  -0.107907   5.824100  -0.059553  -0.076214
    11  H   -0.001047  -0.070850   0.427432  -0.059553   0.497863  -0.031176
    12  H    0.001502  -0.033524   0.415301  -0.076214  -0.031176   0.486993
    13  H   -0.000374   0.006964  -0.073837   0.401510  -0.000690  -0.000743
    14  H   -0.000129  -0.001830  -0.056225   0.395640  -0.004436   0.003753
    15  H    0.001057  -0.008369  -0.047673   0.404858   0.003567  -0.004612
              13         14         15
     1  O    0.000003   0.000007   0.000021
     2  H   -0.000000   0.000000   0.000000
     3  C   -0.000166  -0.000400  -0.000179
     4  H    0.000000  -0.000000   0.000000
     5  C    0.002089   0.004061  -0.009238
     6  C    0.005689   0.002448   0.007273
     7  O   -0.000374  -0.000129   0.001057
     8  O    0.006964  -0.001830  -0.008369
     9  C   -0.073837  -0.056225  -0.047673
    10  C    0.401510   0.395640   0.404858
    11  H   -0.000690  -0.004436   0.003567
    12  H   -0.000743   0.003753  -0.004612
    13  H    0.500770  -0.025403  -0.023061
    14  H   -0.025403   0.490375  -0.027192
    15  H   -0.023061  -0.027192   0.469171
          Atomic-Atomic Spin Densities.
               1          2          3          4          5          6
     1  O    0.951496   0.002696  -0.177591  -0.000716  -0.030117   0.080721
     2  H    0.002696  -0.034548   0.010122   0.000050  -0.004645  -0.003938
     3  C   -0.177591   0.010122   0.053347  -0.007666   0.055389   0.356982
     4  H   -0.000716   0.000050  -0.007666  -0.009578   0.004828   0.000828
     5  C   -0.030117  -0.004645   0.055389   0.004828  -0.384874   0.208770
     6  C    0.080721  -0.003938   0.356982   0.000828   0.208770  -0.563468
     7  O    0.001439   0.000040   0.007062  -0.000001   0.012323  -0.018974
     8  O    0.000772   0.000138   0.005052   0.000013   0.005070  -0.006686
     9  C   -0.001627   0.000243  -0.005127  -0.000016   0.000597   0.004417
    10  C   -0.000545   0.000031   0.002495   0.000014  -0.001627   0.001137
    11  H   -0.000002   0.000000   0.000164   0.000000   0.000570  -0.000810
    12  H   -0.000008  -0.000000   0.000026   0.000000  -0.000087   0.000223
    13  H   -0.000001   0.000000   0.000008   0.000000   0.000061  -0.000148
    14  H    0.000000  -0.000000  -0.000069  -0.000000  -0.000134   0.000130
    15  H    0.000000  -0.000000   0.000093  -0.000000   0.000154  -0.000284
               7          8          9         10         11         12
     1  O    0.001439   0.000772  -0.001627  -0.000545  -0.000002  -0.000008
     2  H    0.000040   0.000138   0.000243   0.000031   0.000000  -0.000000
     3  C    0.007062   0.005052  -0.005127   0.002495   0.000164   0.000026
     4  H   -0.000001   0.000013  -0.000016   0.000014   0.000000   0.000000
     5  C    0.012323   0.005070   0.000597  -0.001627   0.000570  -0.000087
     6  C   -0.018974  -0.006686   0.004417   0.001137  -0.000810   0.000223
     7  O   -0.011982  -0.000111   0.000698   0.000295   0.000013   0.000073
     8  O   -0.000111  -0.003130  -0.000539  -0.000959   0.000057  -0.000122
     9  C    0.000698  -0.000539   0.001067   0.000456  -0.000065  -0.000067
    10  C    0.000295  -0.000959   0.000456  -0.001811   0.000098  -0.000059
    11  H    0.000013   0.000057  -0.000065   0.000098  -0.000099  -0.000003
    12  H    0.000073  -0.000122  -0.000067  -0.000059  -0.000003  -0.000067
    13  H    0.000016  -0.000027  -0.000214   0.000293   0.000001   0.000002
    14  H   -0.000003  -0.000005   0.000060   0.000049  -0.000005  -0.000001
    15  H   -0.000036   0.000011   0.000020   0.000062  -0.000002  -0.000005
              13         14         15
     1  O   -0.000001   0.000000   0.000000
     2  H    0.000000  -0.000000  -0.000000
     3  C    0.000008  -0.000069   0.000093
     4  H    0.000000  -0.000000  -0.000000
     5  C    0.000061  -0.000134   0.000154
     6  C   -0.000148   0.000130  -0.000284
     7  O    0.000016  -0.000003  -0.000036
     8  O   -0.000027  -0.000005   0.000011
     9  C   -0.000214   0.000060   0.000020
    10  C    0.000293   0.000049   0.000062
    11  H    0.000001  -0.000005  -0.000002
    12  H    0.000002  -0.000001  -0.000005
    13  H    0.000103  -0.000018  -0.000017
    14  H   -0.000018  -0.000014  -0.000007
    15  H   -0.000017  -0.000007   0.000005
 Mulliken charges and spin densities:
               1          2
     1  O   -0.426448   0.826517
     2  H    0.404365  -0.029811
     3  C    0.037171   0.300286
     4  H    0.321164  -0.012244
     5  C   -0.506483  -0.133722
     6  C    0.364526   0.058899
     7  O   -0.342656  -0.009147
     8  O   -0.184404  -0.000468
     9  C   -0.211586  -0.000099
    10  C   -0.574227  -0.000070
    11  H    0.222767  -0.000082
    12  H    0.234850  -0.000094
    13  H    0.207251   0.000059
    14  H    0.219331  -0.000018
    15  H    0.234379  -0.000006
 Sum of Mulliken charges =  -0.00000   1.00000
 Mulliken charges and spin densities with hydrogens summed into heavy atoms:
               1          2
     1  O   -0.022082   0.796707
     3  C    0.358334   0.288042
     5  C   -0.506483  -0.133722
     6  C    0.364526   0.058899
     7  O   -0.342656  -0.009147
     8  O   -0.184404  -0.000468
     9  C    0.246031  -0.000275
    10  C    0.086734  -0.000034
 APT charges:
               1
     1  O   -0.143476
     2  H    0.250221
     3  C   -0.175278
     4  H    0.252184
     5  C   -0.466621
     6  C    1.453256
     7  O   -0.753780
     8  O   -0.927382
     9  C    0.501275
    10  C   -0.054171
    11  H   -0.002585
    12  H   -0.004246
    13  H    0.014447
    14  H    0.018040
    15  H    0.038114
 Sum of APT charges =  -0.00000
 APT charges with hydrogens summed into heavy atoms:
               1
     1  O    0.106745
     3  C    0.076907
     5  C   -0.466621
     6  C    1.453256
     7  O   -0.753780
     8  O   -0.927382
     9  C    0.494445
    10  C    0.016429
 Electronic spatial extent (au):  <R**2>=           1132.8404
 Charge=             -0.0000 electrons
 Dipole moment (field-independent basis, Debye):
    X=              0.3104    Y=             -0.9609    Z=             -0.5368  Tot=              1.1436
 Quadrupole moment (field-independent basis, Debye-Ang):
   XX=            -31.3097   YY=            -47.0573   ZZ=            -53.0936
   XY=             -5.9757   XZ=              2.7454   YZ=              4.5212
 Traceless Quadrupole moment (field-independent basis, Debye-Ang):
   XX=             12.5105   YY=             -3.2372   ZZ=             -9.2734
   XY=             -5.9757   XZ=              2.7454   YZ=              4.5212
 Octapole moment (field-independent basis, Debye-Ang**2):
  XXX=             30.3728  YYY=              3.0174  ZZZ=             -4.2711  XYY=              2.7692
  XXY=             -7.3114  XXZ=              2.2976  XZZ=              2.9909  YZZ=              4.4403
  YYZ=              0.8757  XYZ=             11.5901
 Hexadecapole moment (field-independent basis, Debye-Ang**3):
 XXXX=           -897.8767 YYYY=           -239.8425 ZZZZ=           -187.8004 XXXY=            -41.0163
 XXXZ=              6.2074 YYYX=             -5.4536 YYYZ=              6.0132 ZZZX=              7.3153
 ZZZY=              3.4122 XXYY=           -191.2948 XXZZ=           -198.4913 YYZZ=            -65.3301
 XXYZ=             34.0987 YYXZ=              1.1979 ZZXY=              1.2907
 N-N= 3.587813665171D+02 E-N=-1.700374258400D+03  KE= 4.178788853152D+02
  Exact polarizability:  81.524  -6.708  72.576  -3.290   4.485  58.200
 Approx polarizability:  80.477 -14.270  75.722  -7.823   3.681  73.547
                          Isotropic Fermi Contact Couplings
        Atom                 a.u.       MegaHertz       Gauss      10(-4) cm-1
     1  O(17)              0.12711     -77.05317     -27.49449     -25.70217
     2  H(1)              -0.01473     -65.82420     -23.48771     -21.95659
     3  C(13)              0.03259      36.63386      13.07187      12.21974
     4  H(1)              -0.00513     -22.94373      -8.18689      -7.65320
     5  C(13)              0.00692       7.77441       2.77410       2.59326
     6  C(13)              0.01338      15.03633       5.36534       5.01558
     7  O(17)             -0.00257       1.55816       0.55599       0.51975
     8  O(17)              0.00049      -0.29934      -0.10681      -0.09985
     9  C(13)              0.00003       0.03054       0.01090       0.01019
    10  C(13)             -0.00010      -0.10795      -0.03852      -0.03601
    11  H(1)              -0.00002      -0.08207      -0.02928      -0.02737
    12  H(1)              -0.00007      -0.30102      -0.10741      -0.10041
    13  H(1)               0.00003       0.14727       0.05255       0.04912
    14  H(1)               0.00000       0.00121       0.00043       0.00040
    15  H(1)               0.00001       0.05533       0.01974       0.01846
 --------------------------------------------------------
       Center         ----  Spin Dipole Couplings  ----
                      3XX-RR        3YY-RR        3ZZ-RR
 --------------------------------------------------------
     1   Atom       -1.472338      2.867840     -1.395503
     2   Atom        0.006576     -0.043168      0.036592
     3   Atom       -0.083448      0.213059     -0.129611
     4   Atom        0.012913      0.005056     -0.017969
     5   Atom        0.039356     -0.005599     -0.033758
     6   Atom        0.018389     -0.002224     -0.016165
     7   Atom        0.044877     -0.056863      0.011985
     8   Atom        0.012959     -0.014503      0.001544
     9   Atom        0.003870     -0.001868     -0.002002
    10   Atom        0.001447     -0.000611     -0.000836
    11   Atom        0.002402     -0.001213     -0.001190
    12   Atom        0.003263     -0.001601     -0.001662
    13   Atom        0.001007     -0.000447     -0.000560
    14   Atom        0.001166     -0.000430     -0.000736
    15   Atom        0.001222     -0.000392     -0.000830
 --------------------------------------------------------
                        XY            XZ            YZ
 --------------------------------------------------------
     1   Atom        0.295104      0.037562      0.698659
     2   Atom       -0.021485      0.128895     -0.017070
     3   Atom        0.188112      0.022441      0.006018
     4   Atom       -0.014907     -0.013543      0.009688
     5   Atom       -0.018847     -0.025257      0.016703
     6   Atom        0.014590     -0.008160     -0.001472
     7   Atom        0.005551     -0.003221     -0.020036
     8   Atom        0.002558      0.006181      0.002467
     9   Atom        0.000297     -0.000057      0.000026
    10   Atom        0.000461     -0.000006      0.000010
    11   Atom       -0.000154      0.000836     -0.000020
    12   Atom        0.000065     -0.000962      0.000099
    13   Atom        0.000276     -0.000058      0.000006
    14   Atom        0.000603      0.000333      0.000139
    15   Atom        0.000783     -0.000420     -0.000108
 --------------------------------------------------------


 ---------------------------------------------------------------------------------
              Anisotropic Spin Dipole Couplings in Principal Axis System
 ---------------------------------------------------------------------------------

       Atom             a.u.   MegaHertz   Gauss  10(-4) cm-1        Axes

              Baa    -1.5116   109.380    39.030    36.485  0.4339 -0.1704  0.8847
     1 O(17)  Bbb    -1.4876   107.639    38.408    35.904  0.8985  0.0095 -0.4388
              Bcc     2.9992  -217.019   -77.438   -72.390  0.0663  0.9853  0.1572
 
              Baa    -0.1085   -57.909   -20.663   -19.316  0.7499  0.0749 -0.6573
     2 H(1)   Bbb    -0.0465   -24.813    -8.854    -8.277  0.0336  0.9880  0.1509
              Bcc     0.1550    82.722    29.517    27.593  0.6607 -0.1352  0.7384
 
              Baa    -0.1808   -24.260    -8.657    -8.092  0.8546 -0.4032 -0.3273
     3 C(13)  Bbb    -0.1241   -16.648    -5.940    -5.553  0.2800 -0.1731  0.9443
              Bcc     0.3048    40.908    14.597    13.645  0.4374  0.8986  0.0350
 
              Baa    -0.0237   -12.667    -4.520    -4.225  0.2784 -0.1737  0.9446
     4 H(1)   Bbb    -0.0064    -3.422    -1.221    -1.142  0.5977  0.8012 -0.0288
              Bcc     0.0302    16.090     5.741     5.367  0.7518 -0.5727 -0.3269
 
              Baa    -0.0448    -6.015    -2.146    -2.006  0.2137 -0.2940  0.9316
     5 C(13)  Bbb    -0.0111    -1.494    -0.533    -0.498  0.4229  0.8875  0.1831
              Bcc     0.0560     7.509     2.679     2.505  0.8806 -0.3548 -0.3140
 
              Baa    -0.0183    -2.454    -0.876    -0.819  0.2759 -0.1638  0.9471
     6 C(13)  Bbb    -0.0091    -1.222    -0.436    -0.408 -0.3891  0.8820  0.2658
              Bcc     0.0274     3.676     1.312     1.226  0.8789  0.4419 -0.1796
 
              Baa    -0.0625     4.520     1.613     1.508 -0.0422  0.9652  0.2580
     7 O(17)  Bbb     0.0167    -1.206    -0.430    -0.402  0.1580 -0.2485  0.9557
              Bcc     0.0458    -3.314    -1.182    -1.105  0.9865  0.0811 -0.1420
 
              Baa    -0.0150     1.084     0.387     0.361 -0.0632  0.9902 -0.1243
     8 O(17)  Bbb    -0.0011     0.076     0.027     0.025 -0.4153  0.0871  0.9055
              Bcc     0.0160    -1.160    -0.414    -0.387  0.9075  0.1088  0.4058
 
              Baa    -0.0020    -0.270    -0.096    -0.090  0.0208 -0.2261  0.9739
     9 C(13)  Bbb    -0.0019    -0.252    -0.090    -0.084 -0.0480  0.9727  0.2269
              Bcc     0.0039     0.521     0.186     0.174  0.9986  0.0515 -0.0094
 
              Baa    -0.0008    -0.112    -0.040    -0.037  0.0194 -0.0830  0.9964
    10 C(13)  Bbb    -0.0007    -0.095    -0.034    -0.032 -0.2080  0.9744  0.0852
              Bcc     0.0015     0.207     0.074     0.069  0.9779  0.2089 -0.0016
 
              Baa    -0.0014    -0.734    -0.262    -0.245 -0.2184 -0.0843  0.9722
    11 H(1)   Bbb    -0.0012    -0.650    -0.232    -0.217  0.0213  0.9956  0.0911
              Bcc     0.0026     1.384     0.494     0.462  0.9756 -0.0406  0.2157
 
              Baa    -0.0019    -1.006    -0.359    -0.336  0.1758 -0.3598  0.9163
    12 H(1)   Bbb    -0.0016    -0.832    -0.297    -0.278  0.0584  0.9330  0.3551
              Bcc     0.0034     1.838     0.656     0.613  0.9827  0.0090 -0.1850
 
              Baa    -0.0006    -0.302    -0.108    -0.101  0.0756 -0.2287  0.9706
    13 H(1)   Bbb    -0.0005    -0.263    -0.094    -0.088 -0.1667  0.9568  0.2384
              Bcc     0.0011     0.565     0.202     0.189  0.9831  0.1798 -0.0342
 
              Baa    -0.0008    -0.427    -0.152    -0.142 -0.1064 -0.1922  0.9756
    14 H(1)   Bbb    -0.0006    -0.336    -0.120    -0.112 -0.3394  0.9292  0.1461
              Bcc     0.0014     0.762     0.272     0.254  0.9346  0.3155  0.1641
 
              Baa    -0.0009    -0.491    -0.175    -0.164  0.2512 -0.1768  0.9517
    15 H(1)   Bbb    -0.0007    -0.371    -0.132    -0.124 -0.3176  0.9137  0.2536
              Bcc     0.0016     0.862     0.307     0.287  0.9144  0.3659 -0.1734
 

 ---------------------------------------------------------------------------------

 Calling FoFJK, ICntrl=    100127 FMM=F ISym2X=0 I1Cent= 0 IOpClX= 1 NMat=1 NMatS=1 NMatT=0.
 Full mass-weighted force constant matrix:
 Low frequencies --- -470.9767 -364.7695 -138.3022 -110.4445  -77.0123  -56.0163
 Low frequencies ---  -33.1302   -0.0008    0.0004
 ******    4 imaginary frequencies (negative Signs) ****** 
 Diagonal vibrational polarizability:
       50.3541350      84.5486792      44.2983329
 Harmonic frequencies (cm**-1), IR intensities (KM/Mole), Raman scattering
 activities (A**4/AMU), depolarization ratios for plane and unpolarized
 incident light, reduced masses (AMU), force constants (mDyne/A),
 and normal coordinates:
                      1                      2                      3
                      A                      A                      A
 Frequencies --   -470.2539              -364.6694              -107.9466
 Red. masses --      1.0942                 9.0346                 6.9634
 Frc consts  --      0.1426                 0.7079                 0.0478
 IR Inten    --    113.0717                26.4377                13.2715
  Atom  AN      X      Y      Z        X      Y      Z        X      Y      Z
     1   8    -0.06  -0.00   0.04    -0.13  -0.40  -0.06     0.14  -0.09   0.35
     2   1     0.72  -0.08  -0.69    -0.26   0.34   0.21     0.12  -0.51   0.27
     3   6    -0.00  -0.01   0.01    -0.10  -0.06   0.02    -0.11  -0.01  -0.21
     4   1    -0.02  -0.04   0.00    -0.22  -0.25  -0.01    -0.16  -0.05  -0.30
     5   6     0.01   0.02   0.01     0.26   0.61   0.07    -0.01   0.07  -0.09
     6   6     0.00   0.01   0.01     0.04   0.11   0.01     0.01   0.08  -0.03
     7   8    -0.01  -0.01  -0.00     0.01  -0.08  -0.02     0.13   0.34   0.03
     8   8     0.01   0.00  -0.00     0.01   0.01   0.00    -0.08  -0.15  -0.08
     9   6     0.00  -0.00  -0.01    -0.01  -0.01  -0.00    -0.06  -0.10  -0.07
    10   6     0.00  -0.00  -0.01    -0.00  -0.01  -0.00    -0.05  -0.09   0.02
    11   1     0.00  -0.00  -0.01    -0.01  -0.01   0.00    -0.08  -0.15  -0.12
    12   1    -0.00   0.00  -0.01    -0.01  -0.02  -0.00    -0.04  -0.03  -0.12
    13   1     0.00   0.00  -0.01    -0.00  -0.01  -0.00    -0.05  -0.10   0.05
    14   1     0.00  -0.00  -0.01    -0.01  -0.01  -0.00    -0.08  -0.15   0.06
    15   1    -0.00   0.00  -0.01    -0.00  -0.01  -0.01    -0.01  -0.05   0.05
                      4                      5                      6
                      A                      A                      A
 Frequencies --    -57.5335                24.6755                89.8467
 Red. masses --      4.6589                 2.6847                 3.1403
 Frc consts  --      0.0091                 0.0010                 0.0149
 IR Inten    --      6.0109                 0.3806                 5.6668
  Atom  AN      X      Y      Z        X      Y      Z        X      Y      Z
     1   8     0.27   0.01  -0.07     0.02   0.01   0.09    -0.01   0.00   0.05
     2   1     0.22  -0.25  -0.08     0.01  -0.09   0.08    -0.00  -0.09   0.02
     3   6    -0.13  -0.10   0.07     0.02   0.02   0.04     0.11  -0.06   0.24
     4   1    -0.18  -0.22   0.13     0.04   0.02   0.09     0.18  -0.13   0.53
     5   6    -0.07   0.05  -0.01    -0.00   0.02  -0.03     0.01   0.02  -0.14
     6   6    -0.04   0.12  -0.00    -0.03  -0.01  -0.08     0.00   0.01  -0.15
     7   8    -0.06  -0.02  -0.02    -0.09  -0.09  -0.11     0.12   0.01  -0.11
     8   8    -0.03   0.24   0.05     0.02   0.04  -0.08    -0.09   0.00  -0.07
     9   6    -0.11  -0.04   0.05     0.00   0.02  -0.11    -0.05   0.00   0.11
    10   6     0.11  -0.22  -0.05     0.06   0.00   0.25    -0.08   0.02   0.03
    11   1    -0.23  -0.05   0.08    -0.08  -0.19  -0.26    -0.10   0.13   0.24
    12   1    -0.24  -0.09   0.08     0.03   0.27  -0.25     0.06  -0.14   0.18
    13   1     0.04  -0.43  -0.06     0.04   0.03   0.12    -0.02   0.01   0.33
    14   1     0.24  -0.17  -0.08     0.10  -0.29   0.42    -0.30   0.24  -0.10
    15   1     0.21  -0.21  -0.07     0.07   0.28   0.47     0.07  -0.18  -0.19
                      7                      8                      9
                      A                      A                      A
 Frequencies --    127.0703               185.5560               208.1858
 Red. masses --      5.5579                 1.2736                 4.8065
 Frc consts  --      0.0529                 0.0258                 0.1227
 IR Inten    --      0.3688                 2.1646                 0.1039
  Atom  AN      X      Y      Z        X      Y      Z        X      Y      Z
     1   8     0.35  -0.03  -0.09     0.01  -0.02  -0.00     0.06   0.33   0.03
     2   1     0.37  -0.16  -0.14     0.02   0.03  -0.00    -0.03   0.17   0.07
     3   6     0.09   0.25   0.04    -0.01   0.04  -0.03    -0.19  -0.26  -0.02
     4   1     0.15   0.37   0.01    -0.01   0.08  -0.09    -0.37  -0.56  -0.07
     5   6     0.02   0.13   0.06    -0.00  -0.01   0.05     0.09   0.13   0.04
     6   6    -0.05  -0.05   0.03    -0.02  -0.00   0.01     0.06   0.02   0.02
     7   8    -0.07  -0.11   0.01    -0.09   0.02  -0.01     0.01  -0.12  -0.01
     8   8    -0.09  -0.18   0.00     0.03  -0.01  -0.03     0.02  -0.12  -0.02
     9   6    -0.06  -0.04  -0.01     0.03  -0.00  -0.02     0.04  -0.05  -0.05
    10   6    -0.22   0.09  -0.00     0.05  -0.01   0.03    -0.08   0.05   0.01
    11   1     0.03  -0.02  -0.02     0.00  -0.01  -0.02     0.09  -0.05  -0.07
    12   1    -0.00  -0.04  -0.02     0.05   0.00  -0.02     0.07  -0.02  -0.07
    13   1    -0.18   0.26  -0.05     0.15  -0.06   0.62     0.00   0.18   0.20
    14   1    -0.28   0.05   0.02    -0.40   0.26  -0.12    -0.32   0.11  -0.02
    15   1    -0.35   0.07   0.03     0.40  -0.25  -0.30    -0.04  -0.04  -0.08
                     10                     11                     12
                      A                      A                      A
 Frequencies --    310.8580               403.3289               481.9220
 Red. masses --      2.9001                 3.2948                 1.2339
 Frc consts  --      0.1651                 0.3158                 0.1688
 IR Inten    --     17.6781                 2.5572               110.0744
  Atom  AN      X      Y      Z        X      Y      Z        X      Y      Z
     1   8     0.02   0.02   0.00     0.00   0.03  -0.02     0.04  -0.02   0.03
     2   1     0.04   0.15   0.01    -0.07  -0.41  -0.05     0.23   0.93   0.07
     3   6    -0.01  -0.02  -0.02    -0.10   0.05   0.06    -0.00  -0.02  -0.01
     4   1    -0.05  -0.03  -0.10    -0.06   0.04   0.15    -0.00  -0.01  -0.03
     5   6     0.04   0.00   0.08    -0.11   0.10  -0.07    -0.00  -0.04   0.02
     6   6     0.00  -0.00  -0.06    -0.09  -0.07   0.01    -0.02  -0.02  -0.02
     7   8    -0.19   0.09  -0.11     0.04  -0.05   0.06     0.03  -0.00  -0.00
     8   8     0.01  -0.07  -0.11    -0.10  -0.19  -0.01    -0.06  -0.02  -0.00
     9   6     0.09  -0.03   0.22     0.05   0.15   0.01    -0.05   0.05  -0.01
    10   6     0.05  -0.01   0.03     0.23   0.05  -0.03     0.02   0.00  -0.00
    11   1     0.01   0.22   0.46     0.09   0.17   0.01    -0.04   0.02  -0.04
    12   1     0.30  -0.32   0.36     0.15   0.13   0.01    -0.04   0.08  -0.02
    13   1    -0.01  -0.00  -0.29     0.12  -0.30  -0.04    -0.02  -0.13   0.00
    14   1     0.33  -0.03   0.03     0.46   0.09  -0.06     0.10   0.01  -0.01
    15   1    -0.18   0.01   0.13     0.44   0.09  -0.07     0.12   0.03  -0.01
                     13                     14                     15
                      A                      A                      A
 Frequencies --    584.7395               618.5635               695.0903
 Red. masses --      3.4938                 5.0201                 1.5919
 Frc consts  --      0.7038                 1.1317                 0.4532
 IR Inten    --     12.4347                11.5655                12.6015
  Atom  AN      X      Y      Z        X      Y      Z        X      Y      Z
     1   8    -0.01   0.04  -0.02    -0.02  -0.01  -0.01     0.01   0.03   0.00
     2   1    -0.13  -0.50  -0.03    -0.05  -0.27  -0.04     0.02   0.00  -0.02
     3   6     0.18  -0.10  -0.07    -0.14   0.06   0.07    -0.05  -0.14   0.04
     4   1     0.07  -0.14  -0.31    -0.19   0.41  -0.54     0.40   0.85  -0.24
     5   6     0.25  -0.05   0.13    -0.05  -0.07   0.40     0.03   0.06  -0.03
     6   6     0.03  -0.01  -0.02    -0.03   0.07  -0.11    -0.04  -0.13  -0.02
     7   8    -0.06   0.02  -0.05     0.25  -0.09  -0.05    -0.01   0.04   0.01
     8   8    -0.13  -0.03   0.06    -0.02   0.05  -0.18     0.02   0.03   0.02
     9   6    -0.18   0.15   0.01    -0.03   0.01  -0.01     0.00  -0.00   0.00
    10   6    -0.01   0.01  -0.01    -0.01  -0.00   0.01    -0.00  -0.00   0.00
    11   1    -0.09   0.04  -0.12    -0.14   0.14   0.14     0.00  -0.03  -0.02
    12   1    -0.22   0.26  -0.05     0.11  -0.14   0.07    -0.02   0.02  -0.01
    13   1    -0.12  -0.35   0.01    -0.02  -0.02   0.00     0.00   0.02  -0.00
    14   1     0.20   0.07  -0.04    -0.01  -0.05   0.04    -0.02   0.00  -0.00
    15   1     0.23   0.05  -0.07     0.01   0.04   0.04    -0.03  -0.01   0.00
                     16                     17                     18
                      A                      A                      A
 Frequencies --    731.1694               762.6903               815.0286
 Red. masses --      4.1772                 1.3663                 1.2594
 Frc consts  --      1.3157                 0.4683                 0.4929
 IR Inten    --     87.7716                48.9606                 6.6769
  Atom  AN      X      Y      Z        X      Y      Z        X      Y      Z
     1   8    -0.02  -0.03   0.01     0.00   0.01  -0.00    -0.00  -0.00  -0.00
     2   1    -0.00   0.04   0.01    -0.00  -0.04  -0.01     0.00  -0.00  -0.00
     3   6    -0.02  -0.09   0.01    -0.06  -0.01  -0.14    -0.04   0.02   0.01
     4   1     0.41   0.73  -0.06     0.40   0.08   0.89    -0.03   0.02   0.03
     5   6    -0.04  -0.09  -0.07     0.03  -0.00   0.09    -0.03  -0.00   0.03
     6   6     0.16   0.43   0.10    -0.01  -0.01  -0.01     0.03   0.00  -0.04
     7   8    -0.06  -0.10  -0.03     0.01  -0.00   0.00     0.01   0.01  -0.06
     8   8    -0.04  -0.12   0.01     0.00   0.01  -0.01    -0.01  -0.01   0.04
     9   6    -0.00   0.00  -0.00    -0.01   0.01  -0.00     0.03  -0.02   0.08
    10   6     0.01   0.01  -0.00    -0.01  -0.00   0.00     0.02   0.00   0.03
    11   1     0.03   0.02   0.00    -0.02   0.02   0.01    -0.06  -0.46  -0.27
    12   1     0.03  -0.01   0.00     0.00  -0.01   0.01    -0.00   0.47  -0.21
    13   1    -0.01  -0.06  -0.01    -0.01  -0.02   0.01     0.00   0.07  -0.17
    14   1     0.06   0.02  -0.01     0.00  -0.01   0.01     0.16   0.36  -0.19
    15   1     0.07   0.02  -0.02     0.01   0.01   0.00    -0.26  -0.34  -0.15
                     19                     20                     21
                      A                      A                      A
 Frequencies --    897.7285               943.8149              1113.0242
 Red. masses --      3.4073                 2.5733                 4.1289
 Frc consts  --      1.6179                 1.3505                 3.0136
 IR Inten    --     21.9766                 6.9248                 5.5666
  Atom  AN      X      Y      Z        X      Y      Z        X      Y      Z
     1   8    -0.00  -0.01  -0.00     0.00   0.01  -0.00     0.00   0.00   0.00
     2   1     0.00  -0.02  -0.01    -0.00  -0.01   0.00     0.00  -0.00  -0.00
     3   6    -0.07   0.04   0.02     0.08  -0.05  -0.04     0.05  -0.03  -0.03
     4   1    -0.06   0.05   0.03     0.10  -0.05  -0.04     0.06  -0.03  -0.04
     5   6    -0.03  -0.01   0.08     0.07  -0.01   0.00     0.04  -0.01   0.02
     6   6     0.07  -0.02  -0.12    -0.13   0.05   0.03    -0.15   0.07  -0.03
     7   8     0.00   0.04  -0.19     0.00  -0.02   0.09     0.01  -0.01   0.01
     8   8    -0.10  -0.03   0.26    -0.15   0.04  -0.06    -0.17   0.04   0.06
     9   6     0.06  -0.09  -0.04     0.00  -0.12  -0.02     0.34   0.16  -0.07
    10   6     0.10   0.04  -0.07     0.19   0.06  -0.01    -0.11  -0.22   0.02
    11   1     0.30   0.06   0.00    -0.32  -0.16   0.07     0.35   0.24  -0.01
    12   1    -0.31  -0.27   0.09    -0.06  -0.13  -0.01     0.45   0.18  -0.08
    13   1     0.25   0.35   0.15     0.37   0.67  -0.08    -0.07  -0.07  -0.01
    14   1    -0.27  -0.30   0.15    -0.14   0.12  -0.04    -0.23  -0.24   0.02
    15   1     0.15   0.33   0.15    -0.25  -0.06   0.04    -0.28  -0.31   0.01
                     22                     23                     24
                      A                      A                      A
 Frequencies --   1157.9146              1227.4765              1328.1237
 Red. masses --      2.0941                 1.7547                 1.8922
 Frc consts  --      1.6543                 1.5577                 1.9665
 IR Inten    --     18.1527                 4.7911               317.6086
  Atom  AN      X      Y      Z        X      Y      Z        X      Y      Z
     1   8    -0.00  -0.00  -0.00     0.00   0.00  -0.00     0.00   0.00   0.00
     2   1     0.00   0.00   0.00     0.00   0.00   0.00     0.00   0.01  -0.00
     3   6    -0.02   0.01   0.01     0.02  -0.01  -0.01     0.03  -0.02  -0.02
     4   1    -0.02   0.01   0.01     0.02  -0.01  -0.01     0.04  -0.02  -0.03
     5   6    -0.01   0.00  -0.01     0.01   0.00  -0.00     0.01   0.00   0.00
     6   6     0.06  -0.02   0.01    -0.07   0.03  -0.01    -0.20   0.08  -0.06
     7   8    -0.01   0.00  -0.01     0.01  -0.01   0.03     0.02  -0.01  -0.01
     8   8     0.06  -0.06  -0.03    -0.00   0.01  -0.07     0.10  -0.04   0.02
     9   6    -0.09   0.20   0.07     0.05  -0.04   0.18    -0.08  -0.01   0.01
    10   6     0.07  -0.15  -0.05    -0.03   0.03  -0.13     0.03  -0.01   0.07
    11   1    -0.12   0.09  -0.03     0.28  -0.39  -0.20     0.77   0.15  -0.16
    12   1    -0.26   0.21   0.07    -0.19   0.38  -0.06    -0.37  -0.17   0.11
    13   1     0.28   0.50   0.02     0.01  -0.09   0.25     0.01   0.03  -0.09
    14   1    -0.47  -0.24   0.02    -0.12  -0.38   0.13     0.06   0.21  -0.06
    15   1    -0.36  -0.09   0.16     0.25   0.40   0.09    -0.11  -0.16  -0.01
                     25                     26                     27
                      A                      A                      A
 Frequencies --   1373.8102              1443.6883              1455.4172
 Red. masses --      1.8000                 1.3733                 1.2775
 Frc consts  --      2.0016                 1.6865                 1.5944
 IR Inten    --    304.0801                43.8924                13.6828
  Atom  AN      X      Y      Z        X      Y      Z        X      Y      Z
     1   8     0.00   0.00   0.00    -0.00  -0.00  -0.00     0.00   0.00   0.00
     2   1     0.00   0.01  -0.00    -0.00  -0.00   0.00     0.00   0.00  -0.00
     3   6     0.02  -0.01  -0.01    -0.01   0.01   0.01     0.00  -0.00  -0.00
     4   1     0.02  -0.02  -0.02    -0.01   0.01   0.01     0.01  -0.00  -0.00
     5   6     0.00  -0.00   0.00    -0.00  -0.00  -0.00     0.00   0.00   0.00
     6   6    -0.15   0.06  -0.05     0.08  -0.03   0.01    -0.03   0.01  -0.01
     7   8     0.02   0.00  -0.03    -0.01   0.00   0.02     0.00  -0.00  -0.00
     8   8     0.10  -0.04   0.10    -0.05   0.04  -0.03     0.02  -0.02   0.01
     9   6    -0.08  -0.01   0.01    -0.10  -0.05   0.01     0.05   0.03  -0.00
    10   6     0.00  -0.00  -0.05    -0.00  -0.07  -0.00    -0.10  -0.09   0.01
    11   1    -0.41  -0.07   0.08     0.60   0.20  -0.04    -0.25  -0.10  -0.01
    12   1     0.83   0.11  -0.11     0.52   0.20  -0.16    -0.23  -0.10   0.09
    13   1     0.04   0.04   0.04     0.13   0.30  -0.01     0.12   0.50   0.04
    14   1    -0.09  -0.09   0.00     0.08   0.19  -0.14     0.43   0.27  -0.19
    15   1     0.06   0.16   0.06     0.13   0.16   0.12     0.45   0.26   0.08
                     28                     29                     30
                      A                      A                      A
 Frequencies --   1527.8670              1537.4312              1545.4143
 Red. masses --      1.0420                 1.0691                 1.0743
 Frc consts  --      1.4331                 1.4888                 1.5118
 IR Inten    --     14.3335                 3.0909                20.5938
  Atom  AN      X      Y      Z        X      Y      Z        X      Y      Z
     1   8     0.00   0.00   0.00     0.00   0.00   0.00     0.00   0.00   0.00
     2   1    -0.00   0.00   0.00     0.00   0.00   0.00    -0.00   0.00   0.00
     3   6     0.00   0.00   0.00     0.00  -0.00  -0.00     0.00  -0.00  -0.00
     4   1    -0.00  -0.00  -0.00     0.00  -0.00  -0.00     0.00  -0.00  -0.00
     5   6    -0.00   0.00   0.00    -0.00   0.00   0.00    -0.00   0.00   0.00
     6   6    -0.00  -0.00   0.00    -0.02   0.00   0.00    -0.02   0.01   0.00
     7   8     0.00   0.00  -0.01     0.00   0.00  -0.01     0.00   0.00  -0.01
     8   8     0.00  -0.00   0.00     0.02  -0.01   0.00     0.01  -0.01   0.00
     9   6    -0.01  -0.01  -0.02     0.00  -0.06   0.00     0.03  -0.05  -0.01
    10   6    -0.02   0.02  -0.04    -0.02   0.02   0.02     0.02  -0.03  -0.01
    11   1     0.02   0.10   0.05    -0.05   0.40   0.39    -0.11   0.26   0.30
    12   1    -0.01   0.04  -0.04    -0.19   0.46  -0.27    -0.23   0.28  -0.18
    13   1     0.15   0.05   0.66     0.02   0.21  -0.18    -0.05  -0.28   0.11
    14   1     0.55  -0.14   0.06     0.06  -0.26   0.17    -0.15   0.40  -0.25
    15   1    -0.42  -0.14   0.01     0.24  -0.23  -0.28    -0.21   0.35   0.39
                     31                     32                     33
                      A                      A                      A
 Frequencies --   1911.4286              2240.9944              3107.2834
 Red. masses --     12.2187                 5.9119                 1.0351
 Frc consts  --     26.3021                17.4929                 5.8885
 IR Inten    --    311.2007                80.6571                13.8047
  Atom  AN      X      Y      Z        X      Y      Z        X      Y      Z
     1   8     0.00   0.01  -0.00    -0.00  -0.01  -0.00    -0.00  -0.00   0.00
     2   1    -0.02   0.01   0.02    -0.00  -0.00   0.00    -0.00   0.00  -0.00
     3   6     0.06  -0.04  -0.02    -0.31   0.19   0.12     0.00  -0.00  -0.00
     4   1     0.10  -0.07  -0.02    -0.60   0.37   0.24    -0.00   0.00   0.00
     5   6    -0.06   0.03   0.00     0.45  -0.23  -0.17    -0.00   0.00   0.00
     6   6    -0.19  -0.10   0.76    -0.09   0.02   0.05     0.00  -0.00   0.00
     7   8     0.15   0.06  -0.50     0.00   0.00  -0.02     0.00   0.00  -0.00
     8   8    -0.03   0.03  -0.07    -0.00   0.00  -0.00    -0.00   0.00  -0.00
     9   6    -0.02   0.00   0.02     0.00  -0.00   0.00     0.00   0.00   0.00
    10   6     0.01  -0.01  -0.00    -0.00  -0.00  -0.00    -0.04  -0.03  -0.00
    11   1     0.12  -0.08  -0.11     0.01  -0.01  -0.00     0.00  -0.00   0.00
    12   1     0.12  -0.06   0.07     0.00  -0.00   0.00    -0.00  -0.01  -0.02
    13   1     0.02   0.05  -0.03     0.00   0.00  -0.00     0.57  -0.20  -0.12
    14   1    -0.03   0.01  -0.01    -0.00   0.00  -0.00    -0.00   0.29   0.52
    15   1     0.05   0.03   0.02     0.00   0.00   0.00    -0.15   0.31  -0.38
                     34                     35                     36
                      A                      A                      A
 Frequencies --   3138.7336              3186.6798              3191.2118
 Red. masses --      1.0602                 1.1001                 1.1026
 Frc consts  --      6.1540                 6.5818                 6.6160
 IR Inten    --     16.6326                14.9710                 5.0168
  Atom  AN      X      Y      Z        X      Y      Z        X      Y      Z
     1   8    -0.00  -0.00  -0.00    -0.00  -0.00  -0.00     0.00   0.00   0.00
     2   1     0.00  -0.00   0.00     0.00  -0.00   0.00    -0.00   0.00  -0.00
     3   6     0.00  -0.00  -0.00    -0.00   0.00   0.00    -0.00  -0.00  -0.00
     4   1     0.00  -0.00  -0.00     0.00  -0.00  -0.00    -0.00   0.00   0.00
     5   6     0.00  -0.00   0.00     0.00   0.00  -0.00     0.00   0.00  -0.00
     6   6    -0.00   0.00  -0.00    -0.00   0.00  -0.00    -0.00   0.00   0.00
     7   8    -0.00   0.00   0.00     0.00  -0.00   0.00     0.00  -0.00  -0.00
     8   8     0.00  -0.00   0.00    -0.00   0.00   0.00     0.00  -0.00   0.00
     9   6     0.01  -0.06  -0.02     0.01  -0.02   0.03     0.01  -0.01   0.05
    10   6    -0.01   0.01   0.00     0.04  -0.04  -0.06    -0.05   0.04  -0.03
    11   1    -0.15   0.34  -0.42    -0.11   0.24  -0.29    -0.12   0.27  -0.32
    12   1     0.04   0.39   0.71    -0.00  -0.06  -0.10    -0.02  -0.20  -0.34
    13   1     0.11  -0.04  -0.02    -0.54   0.18   0.10     0.47  -0.16  -0.11
    14   1    -0.00  -0.03  -0.06     0.01   0.35   0.60    -0.01   0.01  -0.01
    15   1     0.01  -0.01   0.02     0.05  -0.08   0.07     0.17  -0.38   0.47
                     37                     38                     39
                      A                      A                      A
 Frequencies --   3212.2689              3524.2404              3822.0266
 Red. masses --      1.1053                 1.1642                 1.0673
 Frc consts  --      6.7198                 8.5196                 9.1857
 IR Inten    --     17.5628                61.6542                16.8585
  Atom  AN      X      Y      Z        X      Y      Z        X      Y      Z
     1   8    -0.00  -0.00   0.00    -0.00  -0.00  -0.00    -0.04   0.01  -0.05
     2   1    -0.00   0.00  -0.00     0.00   0.00   0.00     0.66  -0.16   0.73
     3   6     0.00  -0.00   0.00    -0.09   0.05   0.04     0.00  -0.00  -0.00
     4   1    -0.00   0.00   0.00     0.82  -0.46  -0.33    -0.00   0.00   0.00
     5   6    -0.00  -0.00   0.00     0.03  -0.01  -0.01    -0.00   0.00   0.00
     6   6     0.00   0.00  -0.00    -0.00   0.00   0.00    -0.00   0.00  -0.00
     7   8    -0.00  -0.00   0.00     0.00  -0.00   0.00     0.00  -0.00  -0.00
     8   8     0.00  -0.00  -0.00     0.00  -0.00   0.00     0.00  -0.00   0.00
     9   6    -0.02   0.01  -0.06    -0.00   0.00   0.00    -0.00   0.00   0.00
    10   6    -0.02   0.02  -0.06     0.00  -0.00  -0.00     0.00   0.00  -0.00
    11   1     0.15  -0.37   0.43     0.00  -0.00   0.00     0.00  -0.00   0.00
    12   1     0.02   0.20   0.33     0.00  -0.00  -0.00     0.00  -0.00  -0.00
    13   1     0.10  -0.03  -0.04     0.00  -0.00  -0.00     0.00  -0.00  -0.00
    14   1    -0.00   0.20   0.33    -0.00   0.00   0.00    -0.00   0.00  -0.00
    15   1     0.16  -0.36   0.42    -0.00  -0.00   0.00    -0.00  -0.00   0.00

 -------------------
 - Thermochemistry -
 -------------------
 Temperature   298.150 Kelvin.  Pressure   1.00000 Atm.
 Atom     1 has atomic number  8 and mass  15.99491
 Atom     2 has atomic number  1 and mass   1.00783
 Atom     3 has atomic number  6 and mass  12.00000
 Atom     4 has atomic number  1 and mass   1.00783
 Atom     5 has atomic number  6 and mass  12.00000
 Atom     6 has atomic number  6 and mass  12.00000
 Atom     7 has atomic number  8 and mass  15.99491
 Atom     8 has atomic number  8 and mass  15.99491
 Atom     9 has atomic number  6 and mass  12.00000
 Atom    10 has atomic number  6 and mass  12.00000
 Atom    11 has atomic number  1 and mass   1.00783
 Atom    12 has atomic number  1 and mass   1.00783
 Atom    13 has atomic number  1 and mass   1.00783
 Atom    14 has atomic number  1 and mass   1.00783
 Atom    15 has atomic number  1 and mass   1.00783
 Molecular mass:   115.03952 amu.
 Principal axes and moments of inertia in atomic units:
                           1         2         3
     Eigenvalues --   450.903661549.459891625.88523
           X            0.99998  -0.00363   0.00532
           Y            0.00308   0.99499   0.09995
           Z           -0.00566  -0.09993   0.99498
 This molecule is an asymmetric top.
 Rotational symmetry number  1.
 Warning -- assumption of classical behavior for rotation
           may cause significant error
 Rotational temperatures (Kelvin)      0.19209     0.05590     0.05327
 Rotational constants (GHZ):           4.00250     1.16476     1.11001
    4 imaginary frequencies ignored.
 Zero-point vibrational energy     292638.3 (Joules/Mol)
                                   69.94223 (Kcal/Mol)
 Warning -- explicit consideration of  10 degrees of freedom as
           vibrations may cause significant error
 Vibrational temperatures:     35.50   129.27   182.83   266.97   299.53
          (Kelvin)            447.26   580.30   693.38   841.31   889.97
                             1000.08  1051.99  1097.34  1172.64  1291.63
                             1357.94  1601.39  1665.98  1766.06  1910.87
                             1976.61  2077.15  2094.02  2198.26  2212.02
                             2223.51  2750.12  3224.29  4470.69  4515.94
                             4584.92  4591.44  4621.74  5070.60  5499.04
 
 Zero-point correction=                           0.111460 (Hartree/Particle)
 Thermal correction to Energy=                    0.119603
 Thermal correction to Enthalpy=                  0.120547
 Thermal correction to Gibbs Free Energy=         0.076516
 Sum of electronic and zero-point Energies=           -419.842568
 Sum of electronic and thermal Energies=              -419.834425
 Sum of electronic and thermal Enthalpies=            -419.833481
 Sum of electronic and thermal Free Energies=         -419.877512
 
                     E (Thermal)             CV                S
                      KCal/Mol        Cal/Mol-Kelvin    Cal/Mol-Kelvin
 Total                   75.052             27.215             92.672
 Electronic               0.000              0.000              1.377
 Translational            0.889              2.981             40.136
 Rotational               0.889              2.981             28.520
 Vibrational             73.275             21.253             22.638
 Vibration     1          0.593              1.985              6.217
 Vibration     2          0.602              1.956              3.663
 Vibration     3          0.611              1.926              2.990
 Vibration     4          0.632              1.860              2.272
 Vibration     5          0.641              1.828              2.060
 Vibration     6          0.700              1.653              1.358
 Vibration     7          0.769              1.463              0.950
 Vibration     8          0.838              1.290              0.705
 Vibration     9          0.942              1.064              0.477
 Vibration    10          0.978              0.993              0.419
                       Q            Log10(Q)             Ln(Q)
 Total Bot       0.638325D-35        -35.194958        -81.039386
 Total V=0       0.118319D+17         16.073056         37.009579
 Vib (Bot)       0.172490D-48        -48.763235       -112.281498
 Vib (Bot)    1  0.839303D+01          0.923919          2.127402
 Vib (Bot)    2  0.228846D+01          0.359543          0.827879
 Vib (Bot)    3  0.160551D+01          0.205614          0.473444
 Vib (Bot)    4  0.108032D+01          0.033553          0.077259
 Vib (Bot)    5  0.954723D+00         -0.020123         -0.046334
 Vib (Bot)    6  0.607990D+00         -0.216104         -0.497598
 Vib (Bot)    7  0.440833D+00         -0.355726         -0.819089
 Vib (Bot)    8  0.346468D+00         -0.460337         -1.059965
 Vib (Bot)    9  0.259360D+00         -0.586097         -1.349539
 Vib (Bot)   10  0.236778D+00         -0.625659         -1.440633
 Vib (V=0)       0.319727D+03          2.504779          5.767467
 Vib (V=0)    1  0.890791D+01          0.949776          2.186940
 Vib (V=0)    2  0.284244D+01          0.453692          1.044664
 Vib (V=0)    3  0.218157D+01          0.338769          0.780045
 Vib (V=0)    4  0.169042D+01          0.227994          0.524976
 Vib (V=0)    5  0.157773D+01          0.198032          0.455985
 Vib (V=0)    6  0.128718D+01          0.109639          0.252453
 Vib (V=0)    7  0.116658D+01          0.066916          0.154080
 Vib (V=0)    8  0.110831D+01          0.044661          0.102835
 Vib (V=0)    9  0.106327D+01          0.026642          0.061344
 Vib (V=0)   10  0.105323D+01          0.022523          0.051862
 Electronic      0.200000D+01          0.301030          0.693147
 Translational   0.484981D+08          7.685724         17.697035
 Rotational      0.381525D+06          5.581523         12.851931
 ***** Axes restored to original set *****
 -------------------------------------------------------------------
 Center     Atomic                   Forces (Hartrees/Bohr)
 Number     Number              X              Y              Z
 -------------------------------------------------------------------
      1        8          -0.008710296    0.011397760   -0.010433681
      2        1           0.012330733   -0.001304115    0.012354348
      3        6           0.018972412   -0.009098112   -0.006969939
      4        1           0.000474152   -0.000606747   -0.000318383
      5        6          -0.026851713   -0.001631677    0.006583842
      6        6           0.042062384   -0.004514811   -0.034802444
      7        8          -0.017025804   -0.004816275    0.047828151
      8        8          -0.002927182    0.003599133   -0.014560954
      9        6          -0.015944917    0.007779436   -0.001315438
     10        6          -0.000397429   -0.000048669    0.000082350
     11        1          -0.000270396    0.000594553   -0.000492170
     12        1          -0.000227679    0.000757045    0.001546163
     13        1          -0.001472583   -0.000059064    0.000377324
     14        1           0.000033193   -0.000731482   -0.001003452
     15        1          -0.000044875   -0.001316975    0.001124283
 -------------------------------------------------------------------
 Cartesian Forces:  Max     0.047828151 RMS     0.013368480

 GradGradGradGradGradGradGradGradGradGradGradGradGradGradGradGradGradGrad
 Berny optimization.
 Search for a local minimum.
 Step number   1 out of a maximum of    2
 All quantities printed in internal units (Hartrees-Bohrs-Radians)
 Second derivative matrix not updated -- analytic derivatives used.
 ITU=  0
     Eigenvalues ---   -0.06392  -0.01393  -0.00469  -0.00109  -0.00022
     Eigenvalues ---    0.00097   0.00228   0.00387   0.00846   0.01515
     Eigenvalues ---    0.01893   0.03104   0.03457   0.05437   0.06395
     Eigenvalues ---    0.06616   0.07736   0.08431   0.09660   0.10589
     Eigenvalues ---    0.11995   0.14919   0.17720   0.18397   0.20968
     Eigenvalues ---    0.25201   0.29923   0.43305   0.49920   0.64604
     Eigenvalues ---    0.73311   0.77793   0.80130   0.88383   0.94010
     Eigenvalues ---    0.96997   0.99223   1.86467   2.68395
 Eigenvalue     1 is  -6.39D-02 should be greater than     0.000000 Eigenvector:
                          Y5        Y1        X5        X1        Y6
   1                    0.69977  -0.56807   0.30100  -0.19956   0.11050
                          Y7        X4        X3        Y2        Z5
   1                   -0.09423  -0.07986  -0.07917   0.07489   0.06997
 Eigenvalue     2 is  -1.39D-02 should be greater than     0.000000 Eigenvector:
                          Z2        X2        X1        Z1        Y1
   1                    0.60104  -0.58307   0.38965  -0.31890  -0.08243
                          Y5        Y4        X12       Y2        Z11
   1                    0.06321   0.05753  -0.05563   0.05334   0.05074
 Eigenvalue     3 is  -4.69D-03 should be greater than     0.000000 Eigenvector:
                          Y7        Z1        Y8        Y2        X7
   1                    0.56863   0.33219  -0.27817  -0.27800   0.26334
                          Z2        Z4        Z3        X14       Y12
   1                    0.25684  -0.24593  -0.19338  -0.13694  -0.13332
 Eigenvalue     4 is  -1.09D-03 should be greater than     0.000000 Eigenvector:
                          Y2        X1        Y13       Y14       Y8
   1                    0.39504  -0.29484   0.25814   0.25663  -0.25042
                          X11       X2        X14       Z15       X15
   1                    0.24399  -0.23334  -0.19308  -0.19218  -0.18491
 Eigenvalue     5 is  -2.23D-04 should be greater than     0.000000 Eigenvector:
                          Z15       Z14       Y15       Z11       Y13
   1                    0.33797   0.31155   0.27087  -0.24278   0.24277
                          Z12       Z1        Z2        Y12       Y4
   1                   -0.23496   0.23002   0.22393   0.19816   0.18369
 Quadratic step=1.545D+00 exceeds max=3.000D-01 adjusted using Lamda=-1.146D-02.
 Angle between NR and scaled steps=  65.06 degrees.
 Angle between quadratic step and forces=  67.83 degrees.
 Linear search not attempted -- first point.
 B after Tr=     0.000063   -0.001953    0.002535
         Rot=    1.000000   -0.000738    0.000188    0.000106 Ang=  -0.09 deg.
 Variable       Old X    -DE/DX   Delta X   Delta X   Delta X     New X
                                 (Linear)    (Quad)   (Total)
    X1        3.99742  -0.00871   0.00000   0.00608   0.00673   4.00415
    Y1        2.61078   0.01140   0.00000   0.12734   0.12456   2.73534
    Z1       -0.03282  -0.01043   0.00000   0.01744   0.02552  -0.00729
    X2        5.21459   0.01233   0.00000   0.06448   0.06456   5.27915
    Y2        2.30708  -0.00130   0.00000   0.12121   0.11620   2.42328
    Z2        1.30487   0.01235   0.00000   0.00724   0.01534   1.32021
    X3        4.52477   0.01897   0.00000   0.04550   0.04549   4.57026
    Y3       -2.22877  -0.00910   0.00000  -0.02138  -0.02269  -2.25146
    Z3       -1.07006  -0.00697   0.00000  -0.01700  -0.01606  -1.08613
    X4        6.18589   0.00047   0.00000   0.01334   0.01339   6.19928
    Y4       -3.14758  -0.00061   0.00000  -0.06586  -0.06652  -3.21410
    Z4       -1.74003  -0.00032   0.00000  -0.02806  -0.02793  -1.76796
    X5        2.70434  -0.02685   0.00000  -0.04935  -0.04942   2.65492
    Y5       -1.05467  -0.00163   0.00000  -0.18202  -0.18402  -1.23869
    Z5       -0.34212   0.00658   0.00000  -0.00610  -0.00439  -0.34651
    X6        0.18624   0.04206   0.00000   0.04775   0.04750   0.23374
    Y6       -0.37069  -0.00451   0.00000  -0.02648  -0.02935  -0.40004
    Z6        0.59739  -0.03480   0.00000  -0.00544  -0.00340   0.59399
    X7       -0.44487  -0.01703   0.00000  -0.01071  -0.01184  -0.45671
    Y7       -0.65737  -0.00482   0.00000  -0.00557  -0.01154  -0.66891
    Z7        2.75346   0.04783   0.00000   0.03731   0.03869   2.79216
    X8       -1.23992  -0.00293   0.00000   0.01107   0.01173  -1.22819
    Y8        0.53790   0.00360   0.00000   0.02466   0.02483   0.56272
    Z8       -1.25236  -0.01456   0.00000  -0.00969  -0.00678  -1.25915
    X9       -3.75892  -0.01594   0.00000  -0.03724  -0.03668  -3.79561
    Y9        1.30943   0.00778   0.00000   0.02730   0.02697   1.33641
    Z9       -0.55328  -0.00132   0.00000  -0.00268   0.00040  -0.55288
   X10       -5.52175  -0.00040   0.00000  -0.01361  -0.01359  -5.53535
   Y10       -0.94330  -0.00005   0.00000   0.00240   0.00221  -0.94109
   Z10       -0.39510   0.00008   0.00000  -0.00421  -0.00515  -0.40025
   X11       -4.31377  -0.00027   0.00000  -0.02036  -0.01896  -4.33273
   Y11        2.60893   0.00059   0.00000   0.02034   0.02235   2.63128
   Z11       -2.04783  -0.00049   0.00000  -0.01502  -0.01023  -2.05807
   X12       -3.66073  -0.00023   0.00000  -0.02866  -0.02857  -3.68930
   Y12        2.32294   0.00076   0.00000   0.01913   0.01613   2.33907
   Z12        1.23838   0.00155   0.00000   0.00454   0.00914   1.24752
   X13       -7.43898  -0.00147   0.00000  -0.02543  -0.02543  -7.46441
   Y13       -0.29251  -0.00006   0.00000  -0.02065  -0.02102  -0.31353
   Z13        0.00135   0.00038   0.00000  -0.00222  -0.00295  -0.00161
   X14       -5.53831   0.00003   0.00000  -0.00238  -0.00191  -5.54022
   Y14       -1.97132  -0.00073   0.00000  -0.00176   0.00070  -1.97062
   Z14       -2.18224  -0.00100   0.00000  -0.00575  -0.00820  -2.19044
   X15       -4.94152  -0.00004   0.00000  -0.00218  -0.00301  -4.94453
   Y15       -2.21685  -0.00132   0.00000   0.00376   0.00121  -2.21564
   Z15        1.11657   0.00112   0.00000  -0.00140  -0.00399   1.11259
         Item               Value     Threshold  Converged?
 Maximum Force            0.047828     0.000450     NO 
 RMS     Force            0.013368     0.000300     NO 
 Maximum Displacement     0.184024     0.001800     NO 
 RMS     Displacement     0.044716     0.001200     NO 
 Predicted change in Energy=-8.534152D-03
 GradGradGradGradGradGradGradGradGradGradGradGradGradGradGradGradGradGrad


 ----------------------------------------------------------------------

 Electric dipole moment (input orientation):
 (Debye = 10**-18 statcoulomb cm , SI units = C m)
                  (au)            (Debye)         (10**-30 SI)
   Tot        0.449930D+00      0.114361D+01      0.381467D+01
   x          0.122714D+00      0.311907D+00      0.104041D+01
   y         -0.376398D+00     -0.956709D+00     -0.319124D+01
   z         -0.213782D+00     -0.543379D+00     -0.181252D+01

 Dipole polarizability, Alpha (input orientation).
 (esu units = cm**3 , SI units = C**2 m**2 J**-1)
 Alpha(0;0):
               (au)            (10**-24 esu)      (10**-40 SI)
   iso        0.707665D+02      0.104865D+02      0.116678D+02
   aniso      0.253607D+02      0.375808D+01      0.418142D+01
   xx         0.815447D+02      0.120837D+02      0.134449D+02
   yx        -0.667064D+01     -0.988487D+00     -0.109984D+01
   yy         0.724924D+02      0.107423D+02      0.119524D+02
   zx        -0.334451D+01     -0.495605D+00     -0.551435D+00
   zy         0.457752D+01      0.678319D+00      0.754732D+00
   zz         0.582623D+02      0.863358D+01      0.960615D+01

 ----------------------------------------------------------------------

 Dipole orientation:
     8          4.19070681         -2.01789924         -1.07825938
     1          5.66436497         -0.92747541         -1.12781627
     6          3.66002134         -0.42366698          3.60703964
     1          4.91253548         -0.75817043          5.14707313
     6          2.31152981         -0.15019585          1.78244095
     6          0.28244499          0.66577735          0.07705506
     8          0.22686017          2.71777019         -0.87969418
     8         -1.43576686         -1.13861166         -0.19310851
     6         -3.51773795         -0.56965178         -1.85775366
     6         -5.49697207          1.01931338         -0.52913058
     1         -4.25123431         -2.41711085         -2.38607664
     1         -2.77907531          0.38134204         -3.53013879
     1         -7.10873580          1.30547398         -1.78483545
     1         -6.15912481          0.06709545          1.17551555
     1         -4.73069214          2.86352698         -0.02372871

 Electric dipole moment (dipole orientation):
 (Debye = 10**-18 statcoulomb cm , SI units = C m)
                  (au)            (Debye)         (10**-30 SI)
   Tot        0.449930D+00      0.114361D+01      0.381467D+01
   x          0.000000D+00      0.000000D+00      0.000000D+00
   y          0.000000D+00      0.000000D+00      0.000000D+00
   z          0.449930D+00      0.114361D+01      0.381467D+01

 Dipole polarizability, Alpha (dipole orientation).
 (esu units = cm**3 , SI units = C**2 m**2 J**-1)
 Alpha(0;0):
               (au)            (10**-24 esu)      (10**-40 SI)
   iso        0.707665D+02      0.104865D+02      0.116678D+02
   aniso      0.253607D+02      0.375808D+01      0.418142D+01
   xx         0.762906D+02      0.113051D+02      0.125786D+02
   yx        -0.366727D+01     -0.543434D+00     -0.604652D+00
   yy         0.585057D+02      0.866966D+01      0.964629D+01
   zx         0.908553D+01      0.134634D+01      0.149800D+01
   zy         0.229816D+01      0.340552D+00      0.378915D+00
   zz         0.775031D+02      0.114848D+02      0.127785D+02

 ----------------------------------------------------------------------
 1\1\GINC-AJ\Freq\UM062X\6-31+G\C5H7O3(2)\AAYUSH\20-Jun-2025\0\\# freq 
 6-31+g m062x\\Title Card Required\\0,2\O,2.115341,1.381566,-0.017366\H
 ,2.75944,1.220854,0.690508\C,2.394405,-1.179414,-0.566252\H,3.273432,-
 1.665628,-0.920782\C,1.431075,-0.558106,-0.181043\C,0.098554,-0.19616,
 0.316126\O,-0.235417,-0.347863,1.45707\O,-0.656138,0.284642,-0.662723\
 C,-1.989136,0.692923,-0.292782\C,-2.921986,-0.499174,-0.209077\H,-2.28
 275,1.380588,-1.083666\H,-1.937173,1.229247,0.655324\H,-3.93654,-0.154
 79,0.000712\H,-2.930747,-1.043177,-1.154794\H,-2.614941,-1.173106,0.59
 0865\\Version=ES64L-G16RevA.03\State=2-A\HF=-419.9540285\S2=0.766823\S
 2-1=0.\S2A=0.750122\RMSD=1.888e-09\RMSF=1.337e-02\ZeroPoint=0.11146\Th
 ermal=0.1196033\Dipole=0.1227136,-0.3763985,-0.2137818\DipoleDeriv=-0.
 3279889,0.0170989,0.1772659,0.1355029,0.1449332,0.0515272,0.1512231,-0
 .0474537,-0.2473719,0.2395595,0.1205834,-0.1144617,0.0553868,0.3148526
 ,0.0482992,-0.1168986,0.0930904,0.1962512,-0.4064891,-0.2903263,-0.021
 5942,0.1117629,0.0341393,0.0358323,0.032299,0.1515283,-0.1534826,0.246
 9168,-0.0234253,-0.0061741,-0.0281084,0.2504361,0.0025657,0.0005253,-0
 .002366,0.2592001,-0.3664984,0.2090555,0.0885039,-0.1555688,-0.8747743
 ,-0.1645111,0.0981122,-0.1976803,-0.1585888,2.1003098,-0.2079798,0.005
 3068,-0.5568598,0.6245345,-0.2607727,0.3090822,-0.3856058,1.6349243,-0
 .7948381,-0.0005105,0.2000921,0.1125033,-0.3953555,0.0836953,0.0147689
 ,0.1995477,-1.071147,-1.5276372,0.2433879,-0.3283133,0.4387344,-0.4764
 155,0.210738,-0.4450509,0.1844508,-0.7780919,0.9010218,-0.0984043,0.07
 72776,-0.1268124,0.3579384,-0.0580891,-0.0487386,0.0158471,0.2448658,-
 0.1194898,-0.0262228,-0.0145992,-0.0569099,-0.0854458,0.054194,0.01337
 23,0.0114169,0.0424214,-0.0054838,0.0089263,-0.0102249,0.0378951,-0.00
 14971,0.0747796,-0.036739,0.1092526,-0.0007742,-0.0194614,-0.0325477,-
 0.0534075,-0.0027617,0.01886,-0.0375412,0.0336383,-0.1010669,-0.012135
 2,-0.1205122,0.0442125,0.0262617,0.0704607,0.0602509,-0.0284772,0.0430
 851,-0.0161233,0.103601,0.0976046,-0.0050694,0.0337454,-0.0405874,0.02
 09035,-0.0636845,-0.0165737,-0.0971038,-0.0643886,0.1029864,0.0412216,
 -0.0596785,0.0053622,0.0066397,0.0514444,-0.0321056,0.0822659,0.004716
 7\Polar=81.5447382,-6.6706413,72.492419,-3.3445107,4.5775247,58.262290
 3\Quadrupole=9.3155639,-2.4670939,-6.84847,-4.4378093,2.0046797,3.3951
 502\PG=C01 [X(C5H7O3)]\NImag=4\\0.23242527,-0.06183798,0.00975766,0.25
 916173,-0.06591358,0.27599886,-0.22667798,0.05459695,-0.25636061,0.228
 47703,0.06412854,-0.01651098,0.07007422,-0.05608150,0.02231130,-0.2588
 6786,0.06145594,-0.27415386,0.25768911,-0.06360655,0.27357765,0.009199
 46,0.02827406,0.00054013,0.00095150,-0.00178892,0.00156613,1.04649091,
 -0.00972620,-0.03828611,-0.00442252,-0.00023956,-0.00082265,-0.0006856
 9,-0.59374493,0.40100515,-0.00454080,-0.01472808,0.00035553,-0.0000300
 5,-0.00053063,-0.00014151,-0.39487371,0.23708202,0.21090890,-0.0000739
 4,-0.00043048,0.00010129,0.00034295,0.00013998,-0.00015988,-0.30547599
 ,0.15641612,0.11132986,0.29313352,-0.00021009,0.00036812,0.00030629,0.
 00036181,-0.00023878,-0.00044660,0.14971995,-0.10801491,-0.06060173,-0
 .15390056,0.10051370,0.00024566,-0.00001062,-0.00002379,-0.00000737,-0
 .00018084,-0.00016028,0.11071960,-0.06299397,-0.07346576,-0.11108706,0
 .06248428,0.06177999,-0.00620420,-0.00946903,-0.00402970,-0.00176737,-
 0.00517186,0.00060033,-0.75990488,0.45702566,0.28928508,0.01156621,0.0
 0310240,-0.00145788,1.05567570,0.01705440,0.05580531,0.00083919,0.0019
 7070,-0.00381464,0.00286438,0.40438631,-0.25048149,-0.15511221,-0.0037
 3796,0.00428902,0.00201583,-0.51670376,0.24279410,0.00163548,0.0181269
 1,-0.00228276,-0.00003087,-0.00614846,-0.00004821,0.28141497,-0.169818
 40,-0.14571652,-0.00166100,-0.00113835,0.00777870,-0.36303260,0.165076
 26,0.25659006,-0.01026610,-0.01504405,0.00184607,-0.00244195,-0.002455
 35,-0.00272112,0.01890328,-0.01645984,-0.00349852,0.00020667,0.0018602
 7,0.00179503,-0.23193838,0.07469372,0.05934853,0.62598157,-0.00788012,
 -0.01236343,-0.00091005,0.00031525,-0.00031732,0.00110722,0.01299143,-
 0.00422482,-0.00576354,0.00244506,0.00391482,-0.00130169,0.03997047,-0
 .07273293,-0.01509273,-0.12509661,0.26815522,0.00474935,0.00198223,-0.
 00364965,-0.00402940,0.00022250,0.00241293,0.00040432,0.00241908,0.006
 97429,0.00152293,-0.00026938,0.00416758,0.04489478,-0.02266245,-0.0841
 2420,-0.14668888,-0.14301015,1.03644107,0.00057717,0.00138333,-0.00060
 622,0.00034327,0.00069354,0.00072162,-0.00437132,0.00383504,-0.0000097
 8,-0.00021460,-0.00029378,-0.00131885,-0.01955737,-0.00261164,0.053827
 08,-0.15147059,-0.01763330,0.21642656,0.14831923,-0.00053460,0.0009554
 5,0.00091234,0.00025947,-0.00015925,-0.00035576,-0.00054262,0.00021854
 ,0.00049909,-0.00042076,-0.00053317,0.00022149,0.00716036,0.01971726,-
 0.00589008,-0.01488891,-0.07406687,0.08379091,0.00697466,0.03890016,-0
 .00201035,-0.00187215,0.00321587,0.00170567,-0.00006740,-0.00180074,0.
 00124594,-0.00091226,0.00073211,-0.00007869,-0.00037841,0.00042307,0.0
 3686312,0.00282942,-0.03542973,0.20779166,0.09068668,-0.75143099,-0.23
 317111,-0.12094177,0.88073021,0.00003107,0.00232483,-0.00059114,0.0008
 6118,0.00071452,0.00109815,-0.00612197,0.00365383,0.00274203,0.0006324
 2,-0.00075162,0.00098050,-0.05074112,0.02264112,-0.02959747,-0.1963816
 8,0.07250347,-0.11964369,0.02620100,0.00778777,-0.02070593,0.49835834,
 -0.00148127,-0.00094224,-0.00078229,-0.00127389,-0.00044400,-0.0003904
 4,0.00173701,-0.00028699,-0.00143743,-0.00038445,-0.00004650,-0.000176
 67,0.02240157,0.00160031,0.01283475,0.06850738,-0.09904938,0.07863114,
 0.00954340,0.01810319,0.03488319,-0.17054095,0.15726852,-0.00068663,0.
 00068878,0.00066591,0.00105272,0.00015396,0.00019407,-0.00016740,-0.00
 086797,-0.00024449,0.00000904,0.00005187,-0.00066174,-0.00063031,0.001
 60532,0.00572788,-0.08319573,0.06168076,-0.21794488,-0.03041171,0.0401
 5291,-0.09556246,0.08383020,-0.09840328,0.39764327,0.00094506,-0.00009
 579,0.00012733,-0.00016251,-0.00034141,-0.00012404,0.00157084,-0.00100
 928,-0.00091985,-0.00023903,0.00015009,0.00005786,0.00427350,0.0016041
 6,-0.00009787,-0.05239016,0.02607946,-0.01847768,0.00000757,-0.0053627
 4,0.01646294,-0.18235180,0.04423383,0.01970224,0.47189678,0.00029038,0
 .00129230,-0.00017886,0.00009820,0.00001387,0.00012445,-0.00143176,0.0
 0099057,0.00070969,-0.00011110,-0.00029708,-0.00005375,0.00190628,0.00
 322068,0.00173322,0.02978304,-0.01221883,0.00904581,0.00038471,-0.0038
 9417,-0.00708053,0.03779366,-0.07610912,-0.00583101,-0.02029954,0.5712
 4508,0.00044318,0.00039952,-0.00026401,-0.00000464,0.00011744,0.000165
 78,-0.00104709,0.00027602,0.00076956,0.00002495,-0.00002073,0.00017642
 ,-0.00309504,0.00301031,-0.00307599,-0.03418696,0.01053159,0.01300553,
 -0.00095445,0.00039621,-0.00390595,0.05320499,-0.01663745,-0.09536423,
 0.05658136,-0.01829018,0.64692748,0.00002103,0.00042572,-0.00009182,0.
 00003433,0.00004924,0.00008639,-0.00069176,0.00022951,0.00025807,0.000
 03484,-0.00007260,0.00002256,-0.00012288,0.00102985,-0.00025351,0.0017
 6436,-0.00430179,0.00591765,-0.00040596,-0.00065109,-0.00265765,-0.045
 27677,-0.02378253,0.00438824,-0.11538222,-0.05474253,-0.00051851,0.559
 57023,0.00009097,-0.00012394,0.00006463,-0.00002051,-0.00002025,-0.000
 04535,0.00044189,-0.00011388,-0.00010061,-0.00000206,0.00005456,-0.000
 01287,-0.00047107,-0.00052806,0.00011042,-0.00012288,0.00298572,-0.006
 16316,-0.00188355,-0.00087273,0.00199248,0.01317228,0.01156045,0.00223
 193,-0.06746206,-0.17932986,0.00548941,-0.04966782,0.54470091,-0.00000
 546,-0.00009742,0.00005960,-0.00001323,-0.00003079,-0.00003149,0.00018
 622,-0.00016674,-0.00013531,0.00001195,0.00003088,0.00001757,0.0001697
 0,-0.00028006,0.00000783,-0.00184600,0.00001605,-0.00034542,0.00097516
 ,0.00061391,0.00099481,0.01188729,0.00499572,0.00220003,-0.00210740,0.
 00433176,-0.08896689,0.00445992,0.00286906,0.60194273,-0.00001295,-0.0
 0002638,0.00004242,0.00008174,0.00008262,0.00006242,-0.00049358,0.0001
 0246,0.00024254,0.00005221,0.00000502,0.00004322,-0.00100202,0.0001879
 5,-0.00105653,-0.00340606,0.00234585,0.00510037,0.00098559,-0.00024070
 ,-0.00102840,-0.02850045,0.02656868,-0.02576459,-0.06151125,0.04002530
 ,-0.04890442,0.00680514,-0.01585707,0.01686245,0.08680769,0.00004386,0
 .00001738,-0.00000188,-0.00000711,-0.00001201,-0.00000666,0.00007411,-
 0.00012174,-0.00006735,-0.00000757,0.00001294,-0.00000062,0.00058884,0
 .00008201,0.00028896,-0.00023552,0.00006480,-0.00371001,-0.00103836,0.
 00073270,0.00057245,0.00944465,-0.00653933,0.00866888,0.04600644,-0.16
 053584,0.12524219,0.00467607,-0.01783279,0.02112622,-0.05151449,0.1736
 1835,-0.00000647,0.00005429,-0.00000003,0.00002668,0.00002304,0.000017
 65,-0.00002556,0.00016227,-0.00003919,-0.00001837,-0.00003360,-0.00001
 929,0.00020699,-0.00016093,0.00049626,0.00320404,-0.00063072,-0.002242
 10,-0.00188957,0.00070126,0.00123365,0.00874203,-0.00940474,0.00827615
 ,-0.06059173,0.13096935,-0.20925588,-0.00023533,-0.00164127,0.00098349
 ,0.05727538,-0.13912047,0.21728270,0.00004831,-0.00008305,-0.00014456,
 -0.00002825,0.00005883,0.00007316,-0.00012842,-0.00004571,0.00001749,0
 .00005614,0.00002230,0.00000435,-0.00022937,-0.00073515,-0.00035804,0.
 00235101,-0.00077811,0.00793590,0.00015432,0.00068411,-0.00306489,-0.0
 1818435,0.02529390,0.03313763,-0.05060101,-0.01153898,-0.02360200,-0.0
 0011695,-0.01230712,-0.01967390,0.00134009,-0.00527994,-0.00735808,0.0
 6671640,0.00007425,0.00002592,0.00003220,0.00004226,0.00002648,-0.0000
 0389,-0.00010717,0.00017082,0.00003724,-0.00001765,-0.00002044,-0.0000
 2424,-0.00012720,-0.00013017,0.00043907,0.00063341,0.00169998,-0.00559
 775,-0.00181429,-0.00019117,0.00232595,0.00679998,-0.00642874,-0.00924
 646,-0.00668055,-0.11610538,-0.11098095,-0.00407972,-0.01373936,-0.024
 06860,0.00060772,0.01184702,0.01916219,0.00687398,0.12452150,-0.000085
 06,-0.00012673,0.00005618,-0.00002383,-0.00004571,-0.00004351,0.000200
 00,-0.00016468,-0.00004478,0.00000860,0.00003063,-0.00000072,0.0002189
 9,-0.00018623,-0.00012533,-0.00284165,0.00186701,-0.00145635,-0.001608
 25,0.00132342,0.00068891,0.00794349,-0.00483848,-0.00617594,-0.0132143
 1,-0.11754269,-0.26188012,0.00003790,0.00369834,0.00419462,-0.00207812
 ,-0.01230533,-0.01861273,0.01152905,0.12744327,0.28194992,-0.00006235,
 0.00007843,-0.00001537,0.00002120,0.00003521,0.00002575,-0.00025106,0.
 00011502,0.00006241,0.00001977,-0.00002958,-0.00000490,-0.00008701,0.0
 0015554,0.00002110,0.00180826,-0.00099016,0.00211894,-0.00012647,-0.00
 012015,-0.00094842,-0.00383335,-0.00386459,-0.00101068,-0.01847393,0.0
 1100838,0.00409848,-0.28521807,0.08009591,0.04888483,0.00058372,-0.000
 02379,0.00047488,0.00030864,-0.00002129,-0.00068289,0.31262240,0.00000
 154,0.00004486,-0.00002297,-0.00000766,0.00000482,0.00000524,-0.000125
 81,0.00005437,0.00004942,-0.00000666,-0.00002354,0.00001317,-0.0000364
 7,0.00028597,-0.00016463,-0.00011485,-0.00151127,0.00253088,0.00061548
 ,0.00034525,-0.00098836,-0.00749029,-0.00333661,-0.00012970,-0.0251325
 3,0.00972041,0.00537163,0.08291951,-0.07771807,-0.01748054,0.00095067,
 0.00089705,0.00051484,0.00081438,0.00087739,-0.00070894,-0.08804069,0.
 08183448,0.00000810,0.00000983,0.00000284,-0.00000278,0.00000013,0.000
 00248,-0.00001515,0.00001920,0.00001101,-0.00000955,-0.00000306,-0.000
 00093,0.00004890,0.00008554,0.00005997,0.00007504,0.00053462,-0.001105
 43,-0.00054936,-0.00051096,0.00023561,0.00095418,0.00032016,0.00121595
 ,0.00117733,-0.00129482,-0.00136485,0.04889170,-0.01655926,-0.05763753
 ,-0.00007393,0.00006551,-0.00016701,-0.00000137,-0.00000769,-0.0000557
 4,-0.05476543,0.01855144,0.05845655,-0.00000940,-0.00004840,0.00002933
 ,-0.00000114,-0.00002510,-0.00002175,0.00008243,-0.00003185,-0.0000088
 3,-0.00002380,0.00000263,-0.00000736,0.00001224,0.00008067,0.00002235,
 -0.00080200,0.00040668,-0.00176294,-0.00037998,-0.00016251,0.00077365,
 0.00323142,0.00122094,0.00026226,-0.00283068,-0.01479129,-0.02038564,-
 0.04858857,0.00194607,-0.00008478,0.00059292,0.00107994,0.00026872,-0.
 00222382,-0.00340335,0.00067384,0.00100912,0.01609695,0.02861625,0.050
 10086,-0.00003665,-0.00000857,0.00004005,0.00001473,-0.00000293,-0.000
 01217,-0.00001542,0.00000066,0.00002258,0.00000797,0.00000318,-0.00000
 653,-0.00008698,-0.00004220,-0.00008473,0.00006491,0.00007871,0.000009
 05,0.00024432,0.00013493,0.00016652,0.00205911,0.00218752,0.00104941,-
 0.00093971,-0.01722656,-0.02746574,-0.00037582,-0.11555013,-0.11543499
 ,0.00069086,0.00072334,0.00007957,-0.00355275,-0.00333620,0.00156766,-
 0.00063203,-0.00524839,-0.00891089,0.00308853,0.12701482,-0.00004562,-
 0.00002169,0.00002274,0.00001047,0.00000123,-0.00001079,-0.00005673,0.
 00006321,0.00002650,-0.00000856,-0.00002225,-0.00001167,-0.00007215,0.
 00008861,0.00011190,0.00029776,-0.00029904,-0.00066302,-0.00063382,-0.
 00019990,0.00025912,-0.00136107,0.00078404,0.00036192,0.00211961,0.002
 84560,0.00297789,-0.00149599,-0.11822051,-0.26040060,-0.00047266,-0.00
 028871,0.00077219,0.00100759,0.00079091,0.00106656,-0.00129463,-0.0018
 4859,-0.00517930,0.00062431,0.12999899,0.28058395,0.00005955,-0.000048
 16,-0.00000890,-0.00003400,-0.00003834,-0.00002842,0.00024057,-0.00012
 029,-0.00005593,-0.00001738,0.00003375,0.00001463,0.00002695,-0.000015
 90,-0.00018161,-0.00191822,-0.00037758,0.00153178,-0.00006186,0.000057
 71,-0.00117752,0.00207607,0.00182097,-0.00051529,0.00524885,-0.0183747
 5,0.01834579,-0.07242674,0.05204703,-0.05970674,-0.00232279,-0.0038071
 2,-0.00007362,0.00053728,0.00121962,-0.00007775,-0.00832086,0.01955642
 ,-0.02435394,-0.00016957,-0.00053107,0.00138148,0.07708215,0.00002297,
 -0.00003174,-0.00003676,-0.00002913,-0.00001364,-0.00000411,0.00013187
 ,-0.00008753,-0.00005846,0.00001013,0.00001809,0.00002704,-0.00008919,
 -0.00006517,-0.00027221,-0.00112475,-0.00041440,0.00278131,0.00160044,
 0.00060988,-0.00121580,-0.00011236,0.00246292,-0.00180540,0.00924963,-
 0.02076607,0.02256074,0.04834400,-0.15347259,0.12357555,-0.00392850,-0
 .00295388,-0.00067507,0.00057331,0.00078236,-0.00001153,0.00223380,-0.
 00622673,0.00770024,-0.00545991,0.01127182,-0.01367191,-0.05142229,0.1
 6888668,0.00000475,0.00005278,-0.00000345,0.00001813,0.00001786,0.0000
 1983,-0.00009167,0.00001043,0.00000965,0.00001448,0.00001018,0.0000008
 6,0.00002980,-0.00001299,0.00003015,0.00062072,0.00058399,-0.00003936,
 -0.00079731,-0.00071307,-0.00038350,0.00051644,-0.00037821,-0.00033143
 ,-0.00069579,0.00051197,0.00005525,-0.05880961,0.12628677,-0.20288344,
 -0.00025015,-0.00046317,0.00127415,0.00049767,-0.00030124,0.00043903,0
 .00303593,-0.00569288,0.00552638,-0.00899943,0.01898120,-0.01991738,0.
 06490604,-0.13889361,0.21620325\\0.00871030,-0.01139776,0.01043368,-0.
 01233073,0.00130411,-0.01235435,-0.01897241,0.00909811,0.00696994,-0.0
 0047415,0.00060675,0.00031838,0.02685171,0.00163168,-0.00658384,-0.042
 06238,0.00451481,0.03480244,0.01702580,0.00481627,-0.04782815,0.002927
 18,-0.00359913,0.01456095,0.01594492,-0.00777944,0.00131544,0.00039743
 ,0.00004867,-0.00008235,0.00027040,-0.00059455,0.00049217,0.00022768,-
 0.00075705,-0.00154616,0.00147258,0.00005906,-0.00037732,-0.00003319,0
 .00073148,0.00100345,0.00004488,0.00131697,-0.00112428\\\@


 GOORD'S AXIOM:  A MEETING IS AN EVENT AT WHICH
 THE MINUTES ARE KEPT AND THE HOURS ARE LOST.
 Job cpu time:       0 days  0 hours 19 minutes 42.4 seconds.
 Elapsed time:       0 days  0 hours  0 minutes 49.3 seconds.
 File lengths (MBytes):  RWF=     59 Int=      0 D2E=      0 Chk=      8 Scr=      1
 Normal termination of Gaussian 16 at Fri Jun 20 14:43:22 2025.
