 Entering Gaussian System, Link 0=g16
 Initial command:
 /opt/g16/l1.exe "/home/aayush/scratches/g16/Gau-93876.inp" -scrdir="/home/aayush/scratches/g16/"
 Entering Link 1 = /opt/g16/l1.exe PID=     93879.
  
 Copyright (c) 1988,1990,1992,1993,1995,1998,2003,2009,2016,
            Gaussian, Inc.  All Rights Reserved.
  
 This is part of the Gaussian(R) 16 program.  It is based on
 the Gaussian(R) 09 system (copyright 2009, Gaussian, Inc.),
 the Gaussian(R) 03 system (copyright 2003, Gaussian, Inc.),
 the Gaussian(R) 98 system (copyright 1998, Gaussian, Inc.),
 the Gaussian(R) 94 system (copyright 1995, Gaussian, Inc.),
 the Gaussian 92(TM) system (copyright 1992, Gaussian, Inc.),
 the Gaussian 90(TM) system (copyright 1990, Gaussian, Inc.),
 the Gaussian 88(TM) system (copyright 1988, Gaussian, Inc.),
 the Gaussian 86(TM) system (copyright 1986, Carnegie Mellon
 University), and the Gaussian 82(TM) system (copyright 1983,
 Carnegie Mellon University). Gaussian is a federally registered
 trademark of Gaussian, Inc.
  
 This software contains proprietary and confidential information,
 including trade secrets, belonging to Gaussian, Inc.
  
 This software is provided under written license and may be
 used, copied, transmitted, or stored only in accord with that
 written license.
  
 The following legend is applicable only to US Government
 contracts under FAR:
  
                    RESTRICTED RIGHTS LEGEND
  
 Use, reproduction and disclosure by the US Government is
 subject to restrictions as set forth in subparagraphs (a)
 and (c) of the Commercial Computer Software - Restricted
 Rights clause in FAR 52.227-19.
  
 Gaussian, Inc.
 340 Quinnipiac St., Bldg. 40, Wallingford CT 06492
  
  
 ---------------------------------------------------------------
 Warning -- This program may not be used in any manner that
 competes with the business of Gaussian, Inc. or will provide
 assistance to any competitor of Gaussian, Inc.  The licensee
 of this program is prohibited from giving any competitor of
 Gaussian, Inc. access to this program.  By using this program,
 the user acknowledges that Gaussian, Inc. is engaged in the
 business of creating and licensing software in the field of
 computational chemistry and represents and warrants to the
 licensee that it is not a competitor of Gaussian, Inc. and that
 it will not use this program in any manner prohibited above.
 ---------------------------------------------------------------
  

 Cite this work as:
 Gaussian 16, Revision A.03,
 M. J. Frisch, G. W. Trucks, H. B. Schlegel, G. E. Scuseria, 
 M. A. Robb, J. R. Cheeseman, G. Scalmani, V. Barone, 
 G. A. Petersson, H. Nakatsuji, X. Li, M. Caricato, A. V. Marenich, 
 J. Bloino, B. G. Janesko, R. Gomperts, B. Mennucci, H. P. Hratchian, 
 J. V. Ortiz, A. F. Izmaylov, J. L. Sonnenberg, D. Williams-Young, 
 F. Ding, F. Lipparini, F. Egidi, J. Goings, B. Peng, A. Petrone, 
 T. Henderson, D. Ranasinghe, V. G. Zakrzewski, J. Gao, N. Rega, 
 G. Zheng, W. Liang, M. Hada, M. Ehara, K. Toyota, R. Fukuda, 
 J. Hasegawa, M. Ishida, T. Nakajima, Y. Honda, O. Kitao, H. Nakai, 
 T. Vreven, K. Throssell, J. A. Montgomery, Jr., J. E. Peralta, 
 F. Ogliaro, M. J. Bearpark, J. J. Heyd, E. N. Brothers, K. N. Kudin, 
 V. N. Staroverov, T. A. Keith, R. Kobayashi, J. Normand, 
 K. Raghavachari, A. P. Rendell, J. C. Burant, S. S. Iyengar, 
 J. Tomasi, M. Cossi, J. M. Millam, M. Klene, C. Adamo, R. Cammi, 
 J. W. Ochterski, R. L. Martin, K. Morokuma, O. Farkas, 
 J. B. Foresman, and D. J. Fox, Gaussian, Inc., Wallingford CT, 2016.
 
 ******************************************
 Gaussian 16:  ES64L-G16RevA.03 25-Dec-2016
                23-Jun-2025 
 ******************************************
 %nprocshared=24
 Will use up to   24 processors via shared memory.
 %mem=12GB
 %chk=ethyl_propiolate_ts1.chk
 --------------------------
 # freq 6-311++g(d,p) m062x
 --------------------------
 1/10=4,30=1,38=1/1,3;
 2/12=2,17=6,18=5,40=1/2;
 3/5=4,6=6,7=1111,11=2,25=1,30=1,71=2,74=-55,140=1/1,2,3;
 4//1;
 5/5=2,38=5,98=1/2;
 8/6=4,10=90,11=11/1;
 11/6=1,8=1,9=11,15=111,16=1/1,2,10;
 10/6=1/2;
 6/7=2,8=2,9=2,10=2,28=1/1;
 7/8=1,10=1,25=1/1,2,3,16;
 1/10=4,30=1/3;
 99//99;
 -------------------
 Title Card Required
 -------------------
 Symbolic Z-matrix:
 Charge =  0 Multiplicity = 2
 O                     2.19795   1.41412  -0.02772 
 H                     2.83049   1.23281   0.68647 
 C                     2.45713  -1.19837  -0.53734 
 H                     3.34589  -1.6739   -0.88136 
 C                     1.46777  -0.62107  -0.16603 
 C                     0.15669  -0.19862   0.32838 
 O                    -0.17586  -0.3161    1.47437 
 O                    -0.59286   0.27795  -0.65753 
 C                    -1.92383   0.69829  -0.29501 
 C                    -2.86129  -0.48911  -0.19143 
 H                    -2.21482   1.37321  -1.09774 
 H                    -1.87078   1.2506    0.64377 
 H                    -3.87464  -0.13751   0.01208 
 H                    -2.87156  -1.04917  -1.12769 
 H                    -2.55723  -1.1505    0.62009 
 

 GradGradGradGradGradGradGradGradGradGradGradGradGradGradGradGradGradGrad
 Berny optimization.
 Initialization pass.
 Trust Radius=3.00D-01 FncErr=1.00D-07 GrdErr=1.00D-07 EigMax=2.50D+02 EigMin=1.00D-04
 Number of steps in this run=      2 maximum allowed number of steps=      2.
 GradGradGradGradGradGradGradGradGradGradGradGradGradGradGradGradGradGrad

                          Input orientation:                          
 ---------------------------------------------------------------------
 Center     Atomic      Atomic             Coordinates (Angstroms)
 Number     Number       Type             X           Y           Z
 ---------------------------------------------------------------------
      1          8           0        2.197945    1.414116   -0.027722
      2          1           0        2.830493    1.232810    0.686470
      3          6           0        2.457127   -1.198373   -0.537342
      4          1           0        3.345888   -1.673903   -0.881355
      5          6           0        1.467772   -0.621065   -0.166030
      6          6           0        0.156692   -0.198620    0.328378
      7          8           0       -0.175856   -0.316099    1.474371
      8          8           0       -0.592863    0.277947   -0.657530
      9          6           0       -1.923829    0.698294   -0.295009
     10          6           0       -2.861287   -0.489111   -0.191425
     11          1           0       -2.214824    1.373211   -1.097741
     12          1           0       -1.870780    1.250597    0.643773
     13          1           0       -3.874639   -0.137507    0.012082
     14          1           0       -2.871564   -1.049172   -1.127694
     15          1           0       -2.557231   -1.150499    0.620089
 ---------------------------------------------------------------------
                    Distance matrix (angstroms):
                    1          2          3          4          5
     1  O    0.000000
     2  H    0.971112   0.000000
     3  C    2.674320   2.747320   0.000000
     4  H    3.403281   3.342557   1.065068   0.000000
     5  C    2.166620   2.453695   1.204151   2.268805   0.000000
     6  C    2.625726   3.053921   2.653484   3.716300   1.463499
     7  O    3.299221   3.472469   3.428993   4.449242   2.342100
     8  O    3.078335   3.799667   3.390635   4.401542   2.301306
     9  C    4.192000   4.883911   4.780047   5.808704   3.641470
    10  C    5.407855   6.010996   5.376638   6.356788   4.331144
    11  H    4.540831   5.353349   5.362296   6.344544   4.290307
    12  H    4.127005   4.701501   5.111092   6.171899   3.912139
    13  H    6.267806   6.876872   6.443490   7.436044   5.367207
    14  H    5.742617   6.404068   5.363369   6.253613   4.465189
    15  H    5.441379   5.891701   5.146428   6.113518   4.135086
                    6          7          8          9         10
     6  C    0.000000
     7  O    1.199037   0.000000
     8  O    1.327013   2.252063   0.000000
     9  C    2.349816   2.686095   1.442076   0.000000
    10  C    3.076163   3.164862   2.439545   1.516406   0.000000
    11  H    3.182539   3.691466   2.006028   1.088379   2.169693
    12  H    2.512040   2.452998   2.067005   1.090488   2.169157
    13  H    4.044182   3.981354   3.375061   2.144418   1.091752
    14  H    3.466110   3.817719   2.678577   2.155273   1.091042
    15  H    2.890769   2.664014   2.744360   2.157924   1.090156
                   11         12         13         14         15
    11  H    0.000000
    12  H    1.779402   0.000000
    13  H    2.503789   2.518197   0.000000
    14  H    2.510009   3.070603   1.770983   0.000000
    15  H    3.072018   2.497406   1.769573   1.778712   0.000000
 Stoichiometry    C5H7O3(2)
 Framework group  C1[X(C5H7O3)]
 Deg. of freedom    39
 Full point group                 C1      NOp   1
 Largest Abelian subgroup         C1      NOp   1
 Largest concise Abelian subgroup C1      NOp   1
                         Standard orientation:                         
 ---------------------------------------------------------------------
 Center     Atomic      Atomic             Coordinates (Angstroms)
 Number     Number       Type             X           Y           Z
 ---------------------------------------------------------------------
      1          8           0        2.197945    1.414116   -0.027722
      2          1           0        2.830493    1.232810    0.686470
      3          6           0        2.457127   -1.198373   -0.537342
      4          1           0        3.345888   -1.673903   -0.881355
      5          6           0        1.467772   -0.621065   -0.166030
      6          6           0        0.156692   -0.198620    0.328378
      7          8           0       -0.175856   -0.316099    1.474371
      8          8           0       -0.592863    0.277947   -0.657530
      9          6           0       -1.923829    0.698294   -0.295009
     10          6           0       -2.861287   -0.489111   -0.191425
     11          1           0       -2.214824    1.373211   -1.097741
     12          1           0       -1.870780    1.250597    0.643773
     13          1           0       -3.874639   -0.137507    0.012082
     14          1           0       -2.871564   -1.049172   -1.127694
     15          1           0       -2.557231   -1.150499    0.620089
 ---------------------------------------------------------------------
 Rotational constants (GHZ):           3.9183969           1.1626004           1.1024394
 Standard basis: 6-311++G(d,p) (5D, 7F)
 There are   233 symmetry adapted cartesian basis functions of A   symmetry.
 There are   225 symmetry adapted basis functions of A   symmetry.
   225 basis functions,   351 primitive gaussians,   233 cartesian basis functions
    31 alpha electrons       30 beta electrons
       nuclear repulsion energy       357.6492378075 Hartrees.
 NAtoms=   15 NActive=   15 NUniq=   15 SFac= 1.00D+00 NAtFMM=   60 NAOKFM=F Big=F
 Integral buffers will be    131072 words long.
 Raffenetti 2 integral format.
 Two-electron integral symmetry is turned on.
 One-electron integrals computed using PRISM.
 NBasis=   225 RedAO= T EigKep=  1.49D-06  NBF=   225
 NBsUse=   225 1.00D-06 EigRej= -1.00D+00 NBFU=   225
 ExpMin= 3.60D-02 ExpMax= 8.59D+03 ExpMxC= 1.30D+03 IAcc=3 IRadAn=         5 AccDes= 0.00D+00
 Harris functional with IExCor= 1009 and IRadAn=       5 diagonalized for initial guess.
 HarFok:  IExCor= 1009 AccDes= 0.00D+00 IRadAn=         5 IDoV= 1 UseB2=F ITyADJ=14
 ICtDFT=  3500011 ScaDFX=  1.000000  1.000000  1.000000  1.000000
 FoFCou: FMM=F IPFlag=           0 FMFlag=      100000 FMFlg1=           0
         NFxFlg=           0 DoJE=T BraDBF=F KetDBF=T FulRan=T
         wScrn=  0.000000 ICntrl=       500 IOpCl=  0 I1Cent=   200000004 NGrid=           0
         NMat0=    1 NMatS0=      1 NMatT0=    0 NMatD0=    1 NMtDS0=    0 NMtDT0=    0
 Petite list used in FoFCou.
 Initial guess <Sx>= 0.0000 <Sy>= 0.0000 <Sz>= 0.5000 <S**2>= 0.7500 S= 0.5000
 Requested convergence on RMS density matrix=1.00D-08 within 128 cycles.
 Requested convergence on MAX density matrix=1.00D-06.
 Requested convergence on             energy=1.00D-06.
 No special actions if energy rises.
 Restarting incremental Fock formation.
 SCF Done:  E(UM062X) =  -420.204433000     A.U. after   25 cycles
            NFock= 25  Conv=0.31D-08     -V/T= 2.0032
 <Sx>= 0.0000 <Sy>= 0.0000 <Sz>= 0.5000 <S**2>= 0.7613 S= 0.5056
 <L.S>=  0.00000000000    
 Annihilation of the first spin contaminant:
 S**2 before annihilation     0.7613,   after     0.7501
 DoSCS=F DFT=T ScalE2(SS,OS)=  1.000000  1.000000
 Range of M.O.s used for correlation:     1   225
 NBasis=   225 NAE=    31 NBE=    30 NFC=     0 NFV=     0
 NROrb=    225 NOA=    31 NOB=    30 NVA=   194 NVB=   195

 **** Warning!!: The largest alpha MO coefficient is  0.33923000D+03


 **** Warning!!: The largest beta MO coefficient is  0.31692961D+03

 Symmetrizing basis deriv contribution to polar:
 IMax=3 JMax=2 DiffMx= 0.00D+00
 G2DrvN: will do    16 centers at a time, making    1 passes.
 Calling FoFCou, ICntrl=  3107 FMM=F I1Cent=   0 AccDes= 0.00D+00.
 End of G2Drv F.D. properties file   721 does not exist.
 End of G2Drv F.D. properties file   722 does not exist.
 End of G2Drv F.D. properties file   788 does not exist.
          IDoAtm=111111111111111
          Differentiating once with respect to electric field.
                with respect to dipole field.
          Differentiating once with respect to nuclear coordinates.
 Keep R1 and R2 ints in memory in canonical form, NReq=671901991.
          There are    48 degrees of freedom in the 1st order CPHF.  IDoFFX=6 NUNeed=     3.
     45 vectors produced by pass  0 Test12= 2.47D-14 2.08D-09 XBig12= 7.99D+01 4.51D+00.
 AX will form    45 AO Fock derivatives at one time.
     45 vectors produced by pass  1 Test12= 2.47D-14 2.08D-09 XBig12= 1.36D+01 4.54D-01.
     45 vectors produced by pass  2 Test12= 2.47D-14 2.08D-09 XBig12= 4.63D-01 8.40D-02.
     45 vectors produced by pass  3 Test12= 2.47D-14 2.08D-09 XBig12= 6.45D-03 1.27D-02.
     45 vectors produced by pass  4 Test12= 2.47D-14 2.08D-09 XBig12= 7.22D-05 1.38D-03.
     45 vectors produced by pass  5 Test12= 2.47D-14 2.08D-09 XBig12= 7.57D-07 7.45D-05.
     39 vectors produced by pass  6 Test12= 2.47D-14 2.08D-09 XBig12= 6.20D-09 1.10D-05.
     21 vectors produced by pass  7 Test12= 2.47D-14 2.08D-09 XBig12= 4.86D-11 6.82D-07.
      3 vectors produced by pass  8 Test12= 2.47D-14 2.08D-09 XBig12= 4.69D-13 5.98D-08.
      3 vectors produced by pass  9 Test12= 2.47D-14 2.08D-09 XBig12= 9.16D-15 1.71D-08.
      1 vectors produced by pass 10 Test12= 2.47D-14 2.08D-09 XBig12= 1.68D-15 4.88D-09.
 InvSVY:  IOpt=1 It=  1 EMax= 5.33D-15
 Solved reduced A of dimension   337 with    48 vectors.
 Isotropic polarizability for W=    0.000000       72.84 Bohr**3.
 End of Minotr F.D. properties file   721 does not exist.
 End of Minotr F.D. properties file   722 does not exist.
 End of Minotr F.D. properties file   788 does not exist.

 **********************************************************************

            Population analysis using the SCF density.

 **********************************************************************

 Orbital symmetries:
 Alpha Orbitals:
       Occupied  (A) (A) (A) (A) (A) (A) (A) (A) (A) (A) (A) (A)
                 (A) (A) (A) (A) (A) (A) (A) (A) (A) (A) (A) (A)
                 (A) (A) (A) (A) (A) (A) (A)
       Virtual   (A) (A) (A) (A) (A) (A) (A) (A) (A) (A) (A) (A)
                 (A) (A) (A) (A) (A) (A) (A) (A) (A) (A) (A) (A)
                 (A) (A) (A) (A) (A) (A) (A) (A) (A) (A) (A) (A)
                 (A) (A) (A) (A) (A) (A) (A) (A) (A) (A) (A) (A)
                 (A) (A) (A) (A) (A) (A) (A) (A) (A) (A) (A) (A)
                 (A) (A) (A) (A) (A) (A) (A) (A) (A) (A) (A) (A)
                 (A) (A) (A) (A) (A) (A) (A) (A) (A) (A) (A) (A)
                 (A) (A) (A) (A) (A) (A) (A) (A) (A) (A) (A) (A)
                 (A) (A) (A) (A) (A) (A) (A) (A) (A) (A) (A) (A)
                 (A) (A) (A) (A) (A) (A) (A) (A) (A) (A) (A) (A)
                 (A) (A) (A) (A) (A) (A) (A) (A) (A) (A) (A) (A)
                 (A) (A) (A) (A) (A) (A) (A) (A) (A) (A) (A) (A)
                 (A) (A) (A) (A) (A) (A) (A) (A) (A) (A) (A) (A)
                 (A) (A) (A) (A) (A) (A) (A) (A) (A) (A) (A) (A)
                 (A) (A) (A) (A) (A) (A) (A) (A) (A) (A) (A) (A)
                 (A) (A) (A) (A) (A) (A) (A) (A) (A) (A) (A) (A)
                 (A) (A)
 Beta  Orbitals:
       Occupied  (A) (A) (A) (A) (A) (A) (A) (A) (A) (A) (A) (A)
                 (A) (A) (A) (A) (A) (A) (A) (A) (A) (A) (A) (A)
                 (A) (A) (A) (A) (A) (A)
       Virtual   (A) (A) (A) (A) (A) (A) (A) (A) (A) (A) (A) (A)
                 (A) (A) (A) (A) (A) (A) (A) (A) (A) (A) (A) (A)
                 (A) (A) (A) (A) (A) (A) (A) (A) (A) (A) (A) (A)
                 (A) (A) (A) (A) (A) (A) (A) (A) (A) (A) (A) (A)
                 (A) (A) (A) (A) (A) (A) (A) (A) (A) (A) (A) (A)
                 (A) (A) (A) (A) (A) (A) (A) (A) (A) (A) (A) (A)
                 (A) (A) (A) (A) (A) (A) (A) (A) (A) (A) (A) (A)
                 (A) (A) (A) (A) (A) (A) (A) (A) (A) (A) (A) (A)
                 (A) (A) (A) (A) (A) (A) (A) (A) (A) (A) (A) (A)
                 (A) (A) (A) (A) (A) (A) (A) (A) (A) (A) (A) (A)
                 (A) (A) (A) (A) (A) (A) (A) (A) (A) (A) (A) (A)
                 (A) (A) (A) (A) (A) (A) (A) (A) (A) (A) (A) (A)
                 (A) (A) (A) (A) (A) (A) (A) (A) (A) (A) (A) (A)
                 (A) (A) (A) (A) (A) (A) (A) (A) (A) (A) (A) (A)
                 (A) (A) (A) (A) (A) (A) (A) (A) (A) (A) (A) (A)
                 (A) (A) (A) (A) (A) (A) (A) (A) (A) (A) (A) (A)
                 (A) (A) (A)
 The electronic state is 2-A.
 Alpha  occ. eigenvalues --  -19.68089 -19.66904 -19.62949 -10.70563 -10.60401
 Alpha  occ. eigenvalues --  -10.58117 -10.57729 -10.53695  -1.25579  -1.16264
 Alpha  occ. eigenvalues --   -1.12813  -0.90730  -0.87340  -0.78090  -0.70644
 Alpha  occ. eigenvalues --   -0.64426  -0.61733  -0.58477  -0.56656  -0.54742
 Alpha  occ. eigenvalues --   -0.53479  -0.50605  -0.48397  -0.46356  -0.45230
 Alpha  occ. eigenvalues --   -0.42243  -0.41574  -0.39588  -0.38287  -0.36482
 Alpha  occ. eigenvalues --   -0.35301
 Alpha virt. eigenvalues --   -0.00873  -0.00333   0.00526   0.01541   0.02352
 Alpha virt. eigenvalues --    0.02786   0.03523   0.04190   0.05526   0.06716
 Alpha virt. eigenvalues --    0.07302   0.07790   0.08153   0.09174   0.10311
 Alpha virt. eigenvalues --    0.11104   0.11898   0.12541   0.13203   0.13467
 Alpha virt. eigenvalues --    0.14418   0.14691   0.14962   0.15276   0.16008
 Alpha virt. eigenvalues --    0.16590   0.18047   0.18924   0.19835   0.20959
 Alpha virt. eigenvalues --    0.21516   0.21746   0.21983   0.23675   0.24404
 Alpha virt. eigenvalues --    0.25665   0.26562   0.27324   0.28890   0.29814
 Alpha virt. eigenvalues --    0.30314   0.31383   0.33010   0.33139   0.34151
 Alpha virt. eigenvalues --    0.34964   0.36271   0.37295   0.38576   0.39249
 Alpha virt. eigenvalues --    0.40651   0.43478   0.44759   0.46889   0.48950
 Alpha virt. eigenvalues --    0.51705   0.53887   0.55507   0.56229   0.58706
 Alpha virt. eigenvalues --    0.60025   0.61607   0.63690   0.64965   0.67065
 Alpha virt. eigenvalues --    0.68779   0.70211   0.71483   0.72567   0.73163
 Alpha virt. eigenvalues --    0.74457   0.75840   0.77966   0.78692   0.81389
 Alpha virt. eigenvalues --    0.81956   0.87803   0.91381   0.95463   0.96887
 Alpha virt. eigenvalues --    1.01993   1.05364   1.06732   1.07916   1.09608
 Alpha virt. eigenvalues --    1.13602   1.17484   1.18647   1.20701   1.22536
 Alpha virt. eigenvalues --    1.24662   1.26446   1.29530   1.30954   1.34064
 Alpha virt. eigenvalues --    1.36118   1.36182   1.38372   1.40088   1.44150
 Alpha virt. eigenvalues --    1.45234   1.48174   1.51489   1.53210   1.56207
 Alpha virt. eigenvalues --    1.58394   1.60058   1.60360   1.61854   1.64715
 Alpha virt. eigenvalues --    1.66258   1.68411   1.70860   1.72610   1.74815
 Alpha virt. eigenvalues --    1.78013   1.81812   1.83635   1.85834   1.87410
 Alpha virt. eigenvalues --    1.92000   1.96285   1.99806   2.03721   2.05937
 Alpha virt. eigenvalues --    2.09719   2.10557   2.13427   2.21288   2.31850
 Alpha virt. eigenvalues --    2.35659   2.40374   2.47652   2.51206   2.52353
 Alpha virt. eigenvalues --    2.54415   2.55731   2.61374   2.62263   2.63043
 Alpha virt. eigenvalues --    2.64792   2.66251   2.72069   2.73313   2.76286
 Alpha virt. eigenvalues --    2.81213   2.81546   2.84291   2.91413   2.93438
 Alpha virt. eigenvalues --    2.94076   2.95360   3.00827   3.03375   3.05087
 Alpha virt. eigenvalues --    3.07280   3.13508   3.15159   3.16519   3.17834
 Alpha virt. eigenvalues --    3.25173   3.26547   3.31815   3.35960   3.38259
 Alpha virt. eigenvalues --    3.45009   3.52280   3.66054   3.77021   3.84993
 Alpha virt. eigenvalues --    3.86315   3.87852   3.91554   4.03454   4.14016
 Alpha virt. eigenvalues --    4.19857   4.28293   5.09045   5.12699   5.15344
 Alpha virt. eigenvalues --    5.20800   5.33524   5.47441   5.57250   5.74038
 Alpha virt. eigenvalues --    5.95047  23.62160  23.93711  23.94831  24.05935
 Alpha virt. eigenvalues --   25.10977  49.94675  50.00894  50.11594
  Beta  occ. eigenvalues --  -19.68094 -19.65372 -19.62965 -10.70547 -10.60401
  Beta  occ. eigenvalues --  -10.58117 -10.57597 -10.53695  -1.25587  -1.16297
  Beta  occ. eigenvalues --   -1.05791  -0.90381  -0.87019  -0.77946  -0.70494
  Beta  occ. eigenvalues --   -0.64374  -0.61407  -0.58385  -0.56412  -0.53501
  Beta  occ. eigenvalues --   -0.51932  -0.49210  -0.46613  -0.45229  -0.41970
  Beta  occ. eigenvalues --   -0.39509  -0.38982  -0.38285  -0.38052  -0.36046
  Beta virt. eigenvalues --   -0.08958  -0.00292  -0.00084   0.00648   0.01857
  Beta virt. eigenvalues --    0.02456   0.02823   0.03529   0.04276   0.05553
  Beta virt. eigenvalues --    0.06660   0.07407   0.07839   0.08243   0.09272
  Beta virt. eigenvalues --    0.10435   0.11204   0.12312   0.12584   0.13183
  Beta virt. eigenvalues --    0.13480   0.14447   0.14863   0.15060   0.15305
  Beta virt. eigenvalues --    0.16131   0.17117   0.18123   0.18917   0.19896
  Beta virt. eigenvalues --    0.20970   0.21294   0.21921   0.22356   0.23730
  Beta virt. eigenvalues --    0.24510   0.25744   0.26354   0.27459   0.28942
  Beta virt. eigenvalues --    0.29892   0.30351   0.31438   0.33040   0.33165
  Beta virt. eigenvalues --    0.34138   0.35020   0.36291   0.37210   0.38871
  Beta virt. eigenvalues --    0.39232   0.40693   0.43476   0.44781   0.46899
  Beta virt. eigenvalues --    0.49039   0.51707   0.53900   0.55531   0.56761
  Beta virt. eigenvalues --    0.59174   0.60234   0.61886   0.63787   0.65047
  Beta virt. eigenvalues --    0.67166   0.68799   0.70192   0.71502   0.72540
  Beta virt. eigenvalues --    0.73172   0.74508   0.75833   0.77972   0.78839
  Beta virt. eigenvalues --    0.81435   0.82037   0.87814   0.91863   0.95601
  Beta virt. eigenvalues --    0.96965   1.02016   1.05919   1.07098   1.08960
  Beta virt. eigenvalues --    1.10848   1.14199   1.17899   1.18843   1.21044
  Beta virt. eigenvalues --    1.23204   1.25011   1.26671   1.29621   1.31933
  Beta virt. eigenvalues --    1.34273   1.36215   1.36519   1.39064   1.40483
  Beta virt. eigenvalues --    1.44783   1.45760   1.48448   1.51623   1.53863
  Beta virt. eigenvalues --    1.56499   1.58421   1.60089   1.60404   1.61903
  Beta virt. eigenvalues --    1.64743   1.66224   1.68437   1.70915   1.73068
  Beta virt. eigenvalues --    1.74932   1.78594   1.81824   1.83881   1.85952
  Beta virt. eigenvalues --    1.87568   1.92066   1.96638   1.99886   2.03758
  Beta virt. eigenvalues --    2.06050   2.10407   2.11261   2.13446   2.21304
  Beta virt. eigenvalues --    2.31867   2.35663   2.40696   2.47710   2.51201
  Beta virt. eigenvalues --    2.52333   2.54415   2.55762   2.61599   2.62448
  Beta virt. eigenvalues --    2.63242   2.65274   2.66335   2.72267   2.73337
  Beta virt. eigenvalues --    2.76624   2.81325   2.82292   2.86473   2.91887
  Beta virt. eigenvalues --    2.95042   2.95365   2.98323   3.01123   3.04987
  Beta virt. eigenvalues --    3.05525   3.09060   3.13567   3.15600   3.19085
  Beta virt. eigenvalues --    3.19528   3.25848   3.27388   3.31825   3.36253
  Beta virt. eigenvalues --    3.38299   3.44977   3.52730   3.66045   3.77073
  Beta virt. eigenvalues --    3.84998   3.86316   3.91178   3.91642   4.03452
  Beta virt. eigenvalues --    4.13979   4.19830   4.28289   5.11150   5.15258
  Beta virt. eigenvalues --    5.20398   5.21301   5.33587   5.47487   5.59519
  Beta virt. eigenvalues --    5.74034   5.95037  23.62204  23.93713  23.94839
  Beta virt. eigenvalues --   24.05935  25.11223  49.94218  50.00872  50.11615
          Condensed to atoms (all electrons):
               1          2          3          4          5          6
     1  O    8.056949   0.241959  -0.183768  -0.001199   0.390335  -0.260106
     2  H    0.241959   0.505027  -0.134202  -0.002212   0.065310   0.088245
     3  C   -0.183768  -0.134202  38.757782   0.729558 -10.563584 -21.111351
     4  H   -0.001199  -0.002212   0.729558   0.432629  -0.224759  -0.114243
     5  C    0.390335   0.065310 -10.563584  -0.224759  20.031053  -4.142805
     6  C   -0.260106   0.088245 -21.111351  -0.114243  -4.142805  30.841429
     7  O   -0.014271  -0.001708   0.152770  -0.000854   0.334547  -0.077613
     8  O   -0.005364  -0.000766  -0.042315  -0.003852  -0.165360   0.070195
     9  C   -0.014813   0.002677  -0.569932  -0.001470  -0.842576   1.174359
    10  C    0.004500  -0.001208   0.099757  -0.000111   0.082781  -0.238368
    11  H   -0.001351   0.000308  -0.032382   0.000122  -0.041836   0.088628
    12  H    0.001039  -0.000497   0.031704  -0.000107   0.058556  -0.102218
    13  H   -0.000026  -0.000024   0.007457   0.000036   0.019842  -0.019690
    14  H    0.000328   0.000012  -0.006561  -0.000221  -0.001762   0.003981
    15  H   -0.000647   0.000204  -0.031661   0.000022  -0.064408   0.075833
               7          8          9         10         11         12
     1  O   -0.014271  -0.005364  -0.014813   0.004500  -0.001351   0.001039
     2  H   -0.001708  -0.000766   0.002677  -0.001208   0.000308  -0.000497
     3  C    0.152770  -0.042315  -0.569932   0.099757  -0.032382   0.031704
     4  H   -0.000854  -0.003852  -0.001470  -0.000111   0.000122  -0.000107
     5  C    0.334547  -0.165360  -0.842576   0.082781  -0.041836   0.058556
     6  C   -0.077613   0.070195   1.174359  -0.238368   0.088628  -0.102218
     7  O    7.994699  -0.142334   0.043476  -0.081560   0.001215  -0.014277
     8  O   -0.142334   8.246065   0.133507  -0.048290  -0.092639  -0.003924
     9  C    0.043476   0.133507   5.610816  -0.028345   0.449800   0.378940
    10  C   -0.081560  -0.048290  -0.028345   5.501986  -0.062400  -0.015019
    11  H    0.001215  -0.092639   0.449800  -0.062400   0.525784  -0.034439
    12  H   -0.014277  -0.003924   0.378940  -0.015019  -0.034439   0.512453
    13  H   -0.001573   0.017272  -0.050627   0.402315  -0.003365  -0.002626
    14  H    0.002917  -0.002050  -0.038099   0.422495  -0.008991   0.003072
    15  H    0.001449  -0.018611   0.007739   0.380295   0.010050  -0.010239
              13         14         15
     1  O   -0.000026   0.000328  -0.000647
     2  H   -0.000024   0.000012   0.000204
     3  C    0.007457  -0.006561  -0.031661
     4  H    0.000036  -0.000221   0.000022
     5  C    0.019842  -0.001762  -0.064408
     6  C   -0.019690   0.003981   0.075833
     7  O   -0.001573   0.002917   0.001449
     8  O    0.017272  -0.002050  -0.018611
     9  C   -0.050627  -0.038099   0.007739
    10  C    0.402315   0.422495   0.380295
    11  H   -0.003365  -0.008991   0.010050
    12  H   -0.002626   0.003072  -0.010239
    13  H    0.534722  -0.030505  -0.035074
    14  H   -0.030505   0.536369  -0.046861
    15  H   -0.035074  -0.046861   0.541122
          Atomic-Atomic Spin Densities.
               1          2          3          4          5          6
     1  O    0.970720   0.012674  -0.273819  -0.003445   0.012570   0.161014
     2  H    0.012674  -0.032993   0.019662   0.000211  -0.009137  -0.010294
     3  C   -0.273819   0.019662   0.948553   0.031639  -0.476632  -0.083510
     4  H   -0.003445   0.000211   0.031639  -0.006883  -0.018643  -0.013177
     5  C    0.012570  -0.009137  -0.476632  -0.018643  -0.035032   0.415562
     6  C    0.161014  -0.010294  -0.083510  -0.013177   0.415562  -0.373384
     7  O    0.001607  -0.000091   0.009417  -0.000010   0.009676  -0.019650
     8  O    0.001610   0.000256  -0.008289  -0.000192  -0.000617   0.013939
     9  C   -0.000710   0.000472   0.013814  -0.000098   0.040455  -0.056970
    10  C   -0.001054   0.000068  -0.005684   0.000089  -0.029591   0.037546
    11  H    0.000201   0.000009   0.002848  -0.000013   0.007303  -0.010139
    12  H    0.000138  -0.000059  -0.003498  -0.000012  -0.005837   0.009560
    13  H   -0.000112   0.000023   0.000274   0.000006  -0.001037   0.000131
    14  H    0.000184  -0.000030  -0.001795  -0.000013  -0.000338   0.002718
    15  H   -0.000043   0.000012   0.003523  -0.000004   0.006981  -0.010767
               7          8          9         10         11         12
     1  O    0.001607   0.001610  -0.000710  -0.001054   0.000201   0.000138
     2  H   -0.000091   0.000256   0.000472   0.000068   0.000009  -0.000059
     3  C    0.009417  -0.008289   0.013814  -0.005684   0.002848  -0.003498
     4  H   -0.000010  -0.000192  -0.000098   0.000089  -0.000013  -0.000012
     5  C    0.009676  -0.000617   0.040455  -0.029591   0.007303  -0.005837
     6  C   -0.019650   0.013939  -0.056970   0.037546  -0.010139   0.009560
     7  O   -0.010077   0.000018   0.001500   0.000510   0.000072  -0.000098
     8  O    0.000018  -0.004579   0.000327  -0.002269   0.000484  -0.000314
     9  C    0.001500   0.000327  -0.003553   0.008370  -0.001913   0.000088
    10  C    0.000510  -0.002269   0.008370  -0.012229   0.002142  -0.000519
    11  H    0.000072   0.000484  -0.001913   0.002142  -0.000825   0.000155
    12  H   -0.000098  -0.000314   0.000088  -0.000519   0.000155  -0.000016
    13  H    0.000346  -0.000279   0.002213  -0.002246   0.000358  -0.000349
    14  H   -0.000336   0.000066  -0.001076   0.001218  -0.000180   0.000162
    15  H   -0.000075   0.000311  -0.001870   0.002817  -0.000310   0.000031
              13         14         15
     1  O   -0.000112   0.000184  -0.000043
     2  H    0.000023  -0.000030   0.000012
     3  C    0.000274  -0.001795   0.003523
     4  H    0.000006  -0.000013  -0.000004
     5  C   -0.001037  -0.000338   0.006981
     6  C    0.000131   0.002718  -0.010767
     7  O    0.000346  -0.000336  -0.000075
     8  O   -0.000279   0.000066   0.000311
     9  C    0.002213  -0.001076  -0.001870
    10  C   -0.002246   0.001218   0.002817
    11  H    0.000358  -0.000180  -0.000310
    12  H   -0.000349   0.000162   0.000031
    13  H    0.000444  -0.000206   0.000615
    14  H   -0.000206   0.000135  -0.000458
    15  H    0.000615  -0.000458  -0.000648
 Mulliken charges and spin densities:
               1          2
     1  O   -0.213564   0.881535
     2  H    0.236874  -0.019215
     3  C   -1.103272   0.176502
     4  H    0.186659  -0.010545
     5  C    1.064667  -0.084318
     6  C   -0.276276   0.062578
     7  O   -0.196885  -0.007192
     8  O    0.058466   0.000470
     9  C   -0.255450   0.001049
    10  C   -0.418829  -0.000830
    11  H    0.201496   0.000191
    12  H    0.197582  -0.000569
    13  H    0.161866   0.000181
    14  H    0.165876   0.000050
    15  H    0.190788   0.000114
 Sum of Mulliken charges =  -0.00000   1.00000
 Mulliken charges and spin densities with hydrogens summed into heavy atoms:
               1          2
     1  O    0.023310   0.862320
     3  C   -0.916613   0.165957
     5  C    1.064667  -0.084318
     6  C   -0.276276   0.062578
     7  O   -0.196885  -0.007192
     8  O    0.058466   0.000470
     9  C    0.143628   0.000670
    10  C    0.099702  -0.000485
 APT charges:
               1
     1  O   -0.188550
     2  H    0.261696
     3  C   -0.189626
     4  H    0.232589
     5  C   -0.386641
     6  C    1.475266
     7  O   -0.779079
     8  O   -0.945173
     9  C    0.536812
    10  C   -0.037007
    11  H   -0.013649
    12  H   -0.011489
    13  H    0.007951
    14  H    0.008657
    15  H    0.028244
 Sum of APT charges =   0.00000
 APT charges with hydrogens summed into heavy atoms:
               1
     1  O    0.073145
     3  C    0.042963
     5  C   -0.386641
     6  C    1.475266
     7  O   -0.779079
     8  O   -0.945173
     9  C    0.511674
    10  C    0.007845
 Electronic spatial extent (au):  <R**2>=           1138.0924
 Charge=              0.0000 electrons
 Dipole moment (field-independent basis, Debye):
    X=              0.2506    Y=             -0.6845    Z=             -0.7247  Tot=              1.0279
 Quadrupole moment (field-independent basis, Debye-Ang):
   XX=            -31.8210   YY=            -46.5232   ZZ=            -51.9672
   XY=             -5.4179   XZ=              2.4445   YZ=              3.9672
 Traceless Quadrupole moment (field-independent basis, Debye-Ang):
   XX=             11.6161   YY=             -3.0860   ZZ=             -8.5301
   XY=             -5.4179   XZ=              2.4445   YZ=              3.9672
 Octapole moment (field-independent basis, Debye-Ang**2):
  XXX=             29.9202  YYY=              4.5772  ZZZ=             -3.3247  XYY=              3.4847
  XXY=             -7.1850  XXZ=              1.9468  XZZ=              2.5028  YZZ=              4.5027
  YYZ=              0.7113  XYZ=             11.0383
 Hexadecapole moment (field-independent basis, Debye-Ang**3):
 XXXX=           -898.9453 YYYY=           -243.2428 ZZZZ=           -184.2493 XXXY=            -41.7784
 XXXZ=              4.6770 YYYX=             -2.5185 YYYZ=              5.2201 ZZZX=              7.6029
 ZZZY=              2.3139 XXYY=           -191.3854 XXZZ=           -197.6410 YYZZ=            -65.6118
 XXYZ=             32.9497 YYXZ=              0.5634 ZZXY=              2.2345
 N-N= 3.576492378075D+02 E-N=-1.700166747204D+03  KE= 4.188765343828D+02
  Exact polarizability:  86.768  -7.087  71.471  -3.904   3.785  60.271
 Approx polarizability:  89.145 -13.071  79.184  -7.848   3.427  78.448
                          Isotropic Fermi Contact Couplings
        Atom                 a.u.       MegaHertz       Gauss      10(-4) cm-1
     1  O(17)              0.12975     -78.65180     -28.06492     -26.23541
     2  H(1)              -0.01463     -65.40638     -23.33862     -21.81722
     3  C(13)              0.03301      37.10872      13.24131      12.37814
     4  H(1)              -0.00346     -15.45797      -5.51579      -5.15622
     5  C(13)              0.01694      19.04570       6.79598       6.35296
     6  C(13)              0.00964      10.83190       3.86509       3.61313
     7  O(17)             -0.00269       1.63347       0.58286       0.54487
     8  O(17)             -0.00071       0.42749       0.15254       0.14260
     9  C(13)             -0.00002      -0.02477      -0.00884      -0.00826
    10  C(13)             -0.00017      -0.19346      -0.06903      -0.06453
    11  H(1)              -0.00001      -0.03052      -0.01089      -0.01018
    12  H(1)              -0.00005      -0.22148      -0.07903      -0.07388
    13  H(1)               0.00001       0.03547       0.01266       0.01183
    14  H(1)               0.00000       0.00299       0.00107       0.00100
    15  H(1)               0.00001       0.02841       0.01014       0.00948
 --------------------------------------------------------
       Center         ----  Spin Dipole Couplings  ----
                      3XX-RR        3YY-RR        3ZZ-RR
 --------------------------------------------------------
     1   Atom       -1.692960      3.267750     -1.574790
     2   Atom       -0.000311     -0.037818      0.038129
     3   Atom       -0.075912      0.177296     -0.101384
     4   Atom        0.008528      0.005301     -0.013829
     5   Atom        0.025975      0.008212     -0.034187
     6   Atom        0.015729     -0.002013     -0.013716
     7   Atom        0.031950     -0.043687      0.011737
     8   Atom        0.011475     -0.012893      0.001418
     9   Atom        0.003566     -0.001681     -0.001886
    10   Atom        0.001378     -0.000570     -0.000808
    11   Atom        0.002483     -0.001274     -0.001209
    12   Atom        0.003408     -0.001682     -0.001725
    13   Atom        0.001005     -0.000445     -0.000559
    14   Atom        0.001121     -0.000402     -0.000719
    15   Atom        0.001196     -0.000370     -0.000826
 --------------------------------------------------------
                        XY            XZ            YZ
 --------------------------------------------------------
     1   Atom        0.396581      0.063902      0.910338
     2   Atom       -0.024382      0.138359     -0.019671
     3   Atom        0.131407      0.016059      0.009012
     4   Atom       -0.011252     -0.009725      0.007304
     5   Atom       -0.003989     -0.018583      0.012022
     6   Atom        0.014137     -0.006458     -0.002094
     7   Atom        0.000404     -0.004721     -0.015677
     8   Atom        0.000431      0.004719      0.000914
     9   Atom        0.000490      0.000122      0.000032
    10   Atom        0.000523     -0.000005      0.000014
    11   Atom       -0.000064      0.000882      0.000011
    12   Atom        0.000150     -0.000942      0.000049
    13   Atom        0.000313     -0.000043      0.000003
    14   Atom        0.000659      0.000334      0.000138
    15   Atom        0.000845     -0.000385     -0.000105
 --------------------------------------------------------


 ---------------------------------------------------------------------------------
              Anisotropic Spin Dipole Couplings in Principal Axis System
 ---------------------------------------------------------------------------------

       Atom             a.u.   MegaHertz   Gauss  10(-4) cm-1        Axes

              Baa    -1.7436   126.166    45.019    42.084  0.3819 -0.1944  0.9035
     1 O(17)  Bbb    -1.7209   124.523    44.433    41.537  0.9209 -0.0021 -0.3897
              Bcc     3.4645  -250.689   -89.452   -83.621  0.0776  0.9809  0.1782
 
              Baa    -0.1212   -64.642   -23.066   -21.562  0.7573  0.0683 -0.6494
     2 H(1)   Bbb    -0.0422   -22.503    -8.030    -7.506  0.0477  0.9861  0.1593
              Bcc     0.1633    87.145    31.096    29.068  0.6513 -0.1517  0.7435
 
              Baa    -0.1356   -18.190    -6.491    -6.067  0.8775 -0.3594 -0.3176
     3 C(13)  Bbb    -0.0982   -13.184    -4.704    -4.398  0.2762 -0.1627  0.9472
              Bcc     0.2338    31.374    11.195    10.465  0.3921  0.9189  0.0435
 
              Baa    -0.0179    -9.575    -3.417    -3.194  0.2786 -0.1625  0.9465
     4 H(1)   Bbb    -0.0044    -2.352    -0.839    -0.784  0.6322  0.7729 -0.0534
              Bcc     0.0224    11.927     4.256     3.978  0.7229 -0.6133 -0.3181
 
              Baa    -0.0417    -5.595    -1.996    -1.866  0.2476 -0.2082  0.9462
     5 C(13)  Bbb     0.0083     1.114     0.397     0.372  0.3350  0.9348  0.1180
              Bcc     0.0334     4.481     1.599     1.495  0.9091 -0.2878 -0.3012
 
              Baa    -0.0152    -2.036    -0.727    -0.679  0.2566 -0.1231  0.9586
     6 C(13)  Bbb    -0.0095    -1.279    -0.456    -0.427 -0.4307  0.8734  0.2275
              Bcc     0.0247     3.315     1.183     1.106  0.8653  0.4712 -0.1711
 
              Baa    -0.0478     3.460     1.235     1.154  0.0102  0.9668  0.2553
     7 O(17)  Bbb     0.0146    -1.057    -0.377    -0.353  0.2598 -0.2491  0.9330
              Bcc     0.0332    -2.403    -0.858    -0.802  0.9656  0.0568 -0.2537
 
              Baa    -0.0130     0.937     0.334     0.313 -0.0057  0.9981 -0.0616
     8 O(17)  Bbb    -0.0004     0.030     0.011     0.010 -0.3701  0.0552  0.9273
              Bcc     0.0134    -0.967    -0.345    -0.323  0.9290  0.0281  0.3691
 
              Baa    -0.0019    -0.254    -0.091    -0.085 -0.0110 -0.1249  0.9921
     9 C(13)  Bbb    -0.0017    -0.231    -0.083    -0.077 -0.0943  0.9879  0.1233
              Bcc     0.0036     0.485     0.173     0.162  0.9955  0.0922  0.0227
 
              Baa    -0.0008    -0.109    -0.039    -0.036  0.0337 -0.1309  0.9908
    10 C(13)  Bbb    -0.0007    -0.094    -0.034    -0.031 -0.2417  0.9609  0.1351
              Bcc     0.0015     0.203     0.072     0.068  0.9698  0.2440 -0.0007
 
              Baa    -0.0014    -0.754    -0.269    -0.252 -0.2200 -0.1762  0.9595
    11 H(1)   Bbb    -0.0013    -0.678    -0.242    -0.226 -0.0243  0.9842  0.1752
              Bcc     0.0027     1.432     0.511     0.478  0.9752 -0.0153  0.2208
 
              Baa    -0.0019    -1.023    -0.365    -0.341  0.1743 -0.3071  0.9356
    12 H(1)   Bbb    -0.0017    -0.887    -0.316    -0.296  0.0289  0.9513  0.3069
              Bcc     0.0036     1.910     0.681     0.637  0.9843  0.0265 -0.1746
 
              Baa    -0.0006    -0.300    -0.107    -0.100  0.0685 -0.2097  0.9754
    13 H(1)   Bbb    -0.0005    -0.271    -0.097    -0.090 -0.1919  0.9566  0.2192
              Bcc     0.0011     0.571     0.204     0.191  0.9790  0.2022 -0.0253
 
              Baa    -0.0008    -0.417    -0.149    -0.139 -0.1226 -0.1441  0.9819
    14 H(1)   Bbb    -0.0006    -0.345    -0.123    -0.115 -0.3629  0.9274  0.0907
              Bcc     0.0014     0.761     0.272     0.254  0.9237  0.3453  0.1660
 
              Baa    -0.0009    -0.485    -0.173    -0.162  0.2644 -0.2323  0.9360
    15 H(1)   Bbb    -0.0007    -0.384    -0.137    -0.128 -0.3294  0.8904  0.3140
              Bcc     0.0016     0.869     0.310     0.290  0.9064  0.3914 -0.1589
 

 ---------------------------------------------------------------------------------

 Calling FoFJK, ICntrl=    100127 FMM=F ISym2X=0 I1Cent= 0 IOpClX= 1 NMat=1 NMatS=1 NMatT=0.
 Full mass-weighted force constant matrix:
 Low frequencies ---  -67.8677  -44.3590  -17.3171   -0.0007   -0.0005    0.0007
 Low frequencies ---   15.8167   38.0909   89.3633
 ******    1 imaginary frequencies (negative Signs) ****** 
 Diagonal vibrational polarizability:
      202.3743857     378.6514666      87.3029859
 Harmonic frequencies (cm**-1), IR intensities (KM/Mole), Raman scattering
 activities (A**4/AMU), depolarization ratios for plane and unpolarized
 incident light, reduced masses (AMU), force constants (mDyne/A),
 and normal coordinates:
                      1                      2                      3
                      A                      A                      A
 Frequencies --    -40.9072                26.2480                88.8755
 Red. masses --      4.7173                 5.0066                 5.5386
 Frc consts  --      0.0047                 0.0020                 0.0258
 IR Inten    --      5.4433                11.1832                 6.5848
  Atom  AN      X      Y      Z        X      Y      Z        X      Y      Z
     1   8     0.19  -0.01   0.28    -0.21   0.22   0.07     0.26   0.26  -0.10
     2   1    -0.18  -0.20   0.56    -0.24   0.19   0.09    -0.05   0.08   0.13
     3   6    -0.03   0.01  -0.11     0.13   0.01   0.01    -0.02   0.01  -0.04
     4   1    -0.02   0.05  -0.11     0.23   0.15   0.05     0.04   0.16  -0.09
     5   6    -0.06  -0.04  -0.10    -0.01  -0.24  -0.03    -0.14  -0.27   0.01
     6   6    -0.02   0.04  -0.08     0.02  -0.15  -0.05    -0.03  -0.06   0.07
     7   8     0.05   0.21  -0.05     0.02  -0.05  -0.03     0.04   0.07   0.11
     8   8    -0.07  -0.08  -0.10     0.03  -0.16  -0.07    -0.05  -0.05   0.09
     9   6    -0.06  -0.06  -0.09     0.11   0.06  -0.05    -0.04  -0.03   0.09
    10   6    -0.02  -0.07   0.15    -0.06   0.21   0.13    -0.09  -0.02  -0.22
    11   1    -0.13  -0.20  -0.18     0.17   0.01  -0.11     0.05   0.15   0.21
    12   1    -0.02   0.09  -0.18     0.23   0.16  -0.12    -0.07  -0.23   0.21
    13   1    -0.02  -0.07   0.15    -0.00   0.39   0.13    -0.08  -0.04  -0.16
    14   1    -0.06  -0.22   0.24    -0.19   0.10   0.19    -0.08   0.21  -0.36
    15   1     0.04   0.07   0.24    -0.13   0.26   0.19    -0.13  -0.23  -0.37
                      4                      5                      6
                      A                      A                      A
 Frequencies --    110.9095               125.0418               158.5205
 Red. masses --      6.3571                 4.3361                 2.4143
 Frc consts  --      0.0461                 0.0399                 0.0357
 IR Inten    --      7.5471                 6.5770                18.3990
  Atom  AN      X      Y      Z        X      Y      Z        X      Y      Z
     1   8     0.32   0.02  -0.14    -0.02   0.19   0.03    -0.03  -0.00  -0.00
     2   1    -0.06   0.02   0.19     0.24   0.04  -0.24    -0.34   0.03   0.28
     3   6     0.11   0.19   0.18    -0.10  -0.18   0.00     0.06  -0.09   0.19
     4   1     0.23   0.31   0.30    -0.13  -0.24   0.02     0.12  -0.16   0.42
     5   6    -0.03   0.04   0.03    -0.10  -0.18  -0.02    -0.01  -0.02  -0.11
     6   6    -0.10  -0.07  -0.07    -0.03   0.02  -0.02     0.01   0.03  -0.11
     7   8    -0.19  -0.26  -0.11    -0.09  -0.04  -0.05     0.09   0.02  -0.09
     8   8    -0.05   0.04  -0.04     0.07   0.22  -0.00    -0.06   0.07  -0.04
     9   6    -0.05   0.03  -0.03     0.01   0.03  -0.03    -0.04   0.01   0.12
    10   6    -0.04   0.03   0.20     0.22  -0.13   0.09    -0.01  -0.03  -0.00
    11   1    -0.11  -0.09  -0.10    -0.11  -0.10  -0.10    -0.11   0.14   0.25
    12   1    -0.01   0.16  -0.10    -0.08   0.14  -0.09     0.03  -0.14   0.20
    13   1    -0.04   0.08   0.15     0.14  -0.29  -0.01     0.03  -0.09   0.29
    14   1    -0.07  -0.12   0.29     0.37  -0.26   0.17    -0.18   0.21  -0.14
    15   1    -0.03   0.17   0.30     0.30   0.05   0.20     0.16  -0.23  -0.23
                      7                      8                      9
                      A                      A                      A
 Frequencies --    191.1016               228.8218               253.1658
 Red. masses --      1.4126                 1.3086                 2.6457
 Frc consts  --      0.0304                 0.0404                 0.0999
 IR Inten    --     44.4975                 2.3207                15.2647
  Atom  AN      X      Y      Z        X      Y      Z        X      Y      Z
     1   8     0.04   0.07   0.07    -0.00  -0.02  -0.00     0.05   0.14  -0.02
     2   1     0.73  -0.05  -0.58     0.02  -0.01  -0.02    -0.47   0.25   0.47
     3   6    -0.01  -0.05   0.04    -0.01   0.04  -0.04    -0.14  -0.17  -0.04
     4   1    -0.04  -0.15   0.09    -0.01   0.10  -0.11    -0.30  -0.43  -0.10
     5   6     0.03   0.06  -0.01    -0.01  -0.02   0.06     0.10   0.18   0.05
     6   6     0.01   0.01  -0.02    -0.02  -0.01   0.02     0.04   0.02   0.02
     7   8     0.01  -0.01  -0.03    -0.08   0.03   0.00    -0.01  -0.09  -0.00
     8   8    -0.03  -0.05  -0.03     0.03  -0.01  -0.03     0.03  -0.06  -0.00
     9   6    -0.02  -0.03   0.01     0.04   0.00  -0.02     0.03  -0.04  -0.04
    10   6    -0.07   0.01   0.01     0.05  -0.01   0.02    -0.04   0.02   0.01
    11   1    -0.02   0.00   0.03     0.02  -0.00  -0.02     0.05  -0.05  -0.06
    12   1     0.02  -0.05   0.02     0.06   0.00  -0.03     0.03  -0.00  -0.06
    13   1    -0.03   0.06   0.12     0.16  -0.05   0.60     0.01   0.09   0.14
    14   1    -0.19   0.07  -0.03    -0.39   0.27  -0.14    -0.19   0.05  -0.01
    15   1    -0.04  -0.06  -0.06     0.41  -0.25  -0.31     0.00  -0.03  -0.04
                     10                     11                     12
                      A                      A                      A
 Frequencies --    337.8974               418.2106               557.5959
 Red. masses --      2.8855                 3.8187                 2.8868
 Frc consts  --      0.1941                 0.3935                 0.5288
 IR Inten    --     11.5717                 0.3327                19.7142
  Atom  AN      X      Y      Z        X      Y      Z        X      Y      Z
     1   8     0.01   0.01   0.00    -0.01  -0.02  -0.00     0.01  -0.02   0.01
     2   1     0.01   0.07   0.02    -0.03   0.11   0.05     0.13   0.62   0.07
     3   6    -0.02  -0.00  -0.03     0.11  -0.04  -0.07     0.11  -0.07  -0.07
     4   1    -0.06  -0.02  -0.11     0.08   0.01  -0.20     0.04  -0.05  -0.28
     5   6     0.04   0.02   0.08     0.12  -0.12   0.10     0.18  -0.07   0.18
     6   6    -0.02  -0.01  -0.06     0.09   0.07  -0.01     0.01  -0.02  -0.05
     7   8    -0.18   0.09  -0.09    -0.08   0.05  -0.07     0.01   0.01  -0.04
     8   8     0.00  -0.09  -0.11     0.13   0.20   0.00    -0.13  -0.02   0.02
     9   6     0.11  -0.02   0.21    -0.03  -0.16   0.02    -0.17   0.14   0.00
    10   6     0.07  -0.00   0.02    -0.23  -0.05   0.04     0.01   0.01  -0.01
    11   1     0.03   0.23   0.45    -0.09  -0.16   0.05    -0.12   0.07  -0.08
    12   1     0.31  -0.30   0.36    -0.12  -0.18   0.03    -0.17   0.21  -0.04
    13   1     0.00  -0.01  -0.31    -0.11   0.34   0.03    -0.11  -0.34   0.02
    14   1     0.36  -0.02   0.02    -0.48  -0.10   0.07     0.21   0.05  -0.03
    15   1    -0.16   0.01   0.11    -0.49  -0.11   0.09     0.25   0.06  -0.06
                     13                     14                     15
                      A                      A                      A
 Frequencies --    606.2048               616.6961               718.2448
 Red. masses --      3.3733                 1.4688                 1.3369
 Frc consts  --      0.7304                 0.3291                 0.4063
 IR Inten    --     31.1550                63.7668                35.8468
  Atom  AN      X      Y      Z        X      Y      Z        X      Y      Z
     1   8     0.00  -0.05   0.01     0.01  -0.04   0.02    -0.00  -0.01  -0.00
     2   1     0.19   0.74   0.05     0.21   0.93   0.10    -0.01  -0.02   0.00
     3   6    -0.18   0.08   0.05     0.01  -0.01  -0.01     0.00   0.10  -0.11
     4   1    -0.16   0.27  -0.14     0.07  -0.05   0.19    -0.07  -0.64   0.74
     5   6    -0.15  -0.04   0.21    -0.03   0.02  -0.15    -0.00  -0.04   0.06
     6   6    -0.03   0.02  -0.07    -0.00  -0.03   0.03     0.00   0.01  -0.00
     7   8     0.21  -0.07  -0.02    -0.06   0.03   0.02     0.01  -0.01   0.00
     8   8     0.02   0.04  -0.14     0.02  -0.01   0.04    -0.00  -0.00  -0.01
     9   6     0.05  -0.04  -0.02     0.03  -0.02   0.00    -0.00   0.00  -0.00
    10   6    -0.00  -0.01   0.01     0.01  -0.00  -0.00    -0.00  -0.00   0.00
    11   1    -0.05   0.08   0.12     0.05  -0.05  -0.02    -0.01   0.02   0.01
    12   1     0.14  -0.18   0.06    -0.00   0.00  -0.01     0.01  -0.01   0.01
    13   1     0.04   0.12  -0.01     0.02   0.06  -0.00    -0.00  -0.01   0.00
    14   1    -0.08  -0.06   0.04    -0.03   0.01  -0.00     0.00  -0.01   0.00
    15   1    -0.08   0.01   0.05    -0.03  -0.02  -0.00     0.01   0.01   0.00
                     16                     17                     18
                      A                      A                      A
 Frequencies --    745.4022               777.2089               799.6893
 Red. masses --      1.3227                 8.3319                 1.1955
 Frc consts  --      0.4330                 2.9653                 0.4504
 IR Inten    --     20.8937                55.2174                 4.9232
  Atom  AN      X      Y      Z        X      Y      Z        X      Y      Z
     1   8     0.00   0.01   0.00    -0.01  -0.03   0.00    -0.00  -0.00   0.00
     2   1     0.00  -0.04  -0.02     0.01   0.09   0.02     0.00   0.00  -0.00
     3   6    -0.08  -0.09  -0.09     0.00  -0.04  -0.02    -0.03   0.02   0.01
     4   1     0.54   0.60   0.56     0.28   0.38   0.13    -0.03   0.02   0.00
     5   6     0.04   0.04   0.04    -0.08  -0.17  -0.05    -0.02  -0.01   0.02
     6   6    -0.01  -0.03  -0.01     0.25   0.66   0.14     0.02   0.02  -0.03
     7   8     0.01   0.01  -0.00    -0.08  -0.19  -0.03     0.01  -0.00  -0.05
     8   8     0.00   0.01   0.00    -0.06  -0.18  -0.03    -0.01  -0.02   0.03
     9   6    -0.00   0.00   0.00    -0.02   0.01  -0.02     0.03  -0.02   0.07
    10   6    -0.00  -0.00   0.00    -0.00   0.02  -0.00     0.02   0.00   0.03
    11   1    -0.00  -0.01  -0.01     0.05   0.15   0.07    -0.08  -0.45  -0.26
    12   1    -0.01   0.01  -0.00     0.07  -0.12   0.05     0.02   0.46  -0.21
    13   1    -0.00  -0.00  -0.00    -0.04  -0.11   0.03    -0.01   0.06  -0.18
    14   1     0.00   0.00  -0.00     0.06  -0.05   0.04     0.17   0.37  -0.20
    15   1    -0.00  -0.01  -0.00     0.16   0.12   0.01    -0.25  -0.35  -0.16
                     19                     20                     21
                      A                      A                      A
 Frequencies --    895.8580               928.6262              1077.7234
 Red. masses --      3.1242                 2.8686                 4.1453
 Frc consts  --      1.4773                 1.4575                 2.8367
 IR Inten    --     14.7566                 6.6556                20.6973
  Atom  AN      X      Y      Z        X      Y      Z        X      Y      Z
     1   8    -0.00  -0.00   0.00     0.00   0.01  -0.00     0.00   0.00   0.00
     2   1     0.01  -0.02  -0.01    -0.01  -0.00   0.01     0.00  -0.00   0.00
     3   6    -0.03   0.02   0.01     0.10  -0.06  -0.04     0.06  -0.03  -0.03
     4   1    -0.04   0.02  -0.01     0.11  -0.06  -0.04     0.06  -0.03  -0.05
     5   6    -0.01  -0.01   0.06     0.08  -0.01  -0.02     0.04  -0.01   0.02
     6   6     0.03   0.01  -0.10    -0.14   0.05   0.07    -0.14   0.07  -0.02
     7   8     0.00   0.03  -0.15     0.01  -0.04   0.14     0.02  -0.01   0.01
     8   8    -0.13  -0.02   0.23    -0.13   0.06  -0.13    -0.20   0.07   0.06
     9   6     0.05  -0.12  -0.03    -0.01  -0.10  -0.02     0.36   0.10  -0.08
    10   6     0.15   0.06  -0.07     0.17   0.05   0.00    -0.12  -0.17   0.02
    11   1     0.19  -0.07  -0.04    -0.42  -0.14   0.09     0.40   0.20  -0.02
    12   1    -0.33  -0.21   0.06     0.02  -0.11  -0.01     0.47   0.17  -0.11
    13   1     0.34   0.53   0.10     0.33   0.60  -0.12    -0.14  -0.23   0.00
    14   1    -0.27  -0.21   0.10    -0.10   0.18  -0.07    -0.15  -0.24   0.05
    15   1     0.05   0.27   0.14    -0.27  -0.11   0.03    -0.18  -0.27  -0.03
                     22                     23                     24
                      A                      A                      A
 Frequencies --   1127.6582              1203.0361              1292.8645
 Red. masses --      2.0985                 1.7746                 3.5469
 Frc consts  --      1.5722                 1.5133                 3.4931
 IR Inten    --     21.0277                 5.1754               564.6764
  Atom  AN      X      Y      Z        X      Y      Z        X      Y      Z
     1   8    -0.00  -0.00  -0.00     0.00   0.00   0.00    -0.00  -0.00  -0.00
     2   1     0.00   0.00   0.00     0.00   0.00   0.00    -0.01  -0.02   0.00
     3   6    -0.01   0.01   0.01     0.02  -0.01  -0.01    -0.07   0.04   0.03
     4   1    -0.02   0.01   0.01     0.02  -0.01  -0.01    -0.07   0.04   0.05
     5   6    -0.01   0.00  -0.00     0.01   0.00  -0.00    -0.02  -0.00  -0.01
     6   6     0.03  -0.01   0.00    -0.06   0.03  -0.00     0.34  -0.16   0.11
     7   8    -0.00  -0.00  -0.01     0.00  -0.01   0.03    -0.05   0.01   0.01
     8   8     0.05  -0.06  -0.02     0.00   0.01  -0.08    -0.17   0.07  -0.07
     9   6    -0.05   0.22   0.05     0.04  -0.03   0.18     0.11   0.01  -0.01
    10   6     0.06  -0.17  -0.04    -0.03   0.02  -0.13    -0.02   0.02  -0.06
    11   1    -0.06   0.14  -0.02     0.19  -0.42  -0.19    -0.77  -0.12   0.17
    12   1    -0.15   0.23   0.06    -0.17   0.41  -0.06     0.11   0.15  -0.08
    13   1     0.26   0.44  -0.01     0.02  -0.06   0.28    -0.02  -0.08   0.10
    14   1    -0.51  -0.24   0.01    -0.12  -0.39   0.13    -0.07  -0.24   0.09
    15   1    -0.43  -0.15   0.16     0.23   0.40   0.09     0.04   0.09  -0.01
                     25                     26                     27
                      A                      A                      A
 Frequencies --   1348.2734              1400.6153              1430.2281
 Red. masses --      1.2584                 1.2865                 1.3915
 Frc consts  --      1.3478                 1.4869                 1.6770
 IR Inten    --    111.4260                34.7817                 8.4383
  Atom  AN      X      Y      Z        X      Y      Z        X      Y      Z
     1   8     0.00   0.00   0.00    -0.00  -0.00  -0.00    -0.00  -0.00  -0.00
     2   1     0.00   0.00   0.00    -0.00  -0.00  -0.00    -0.00  -0.00   0.00
     3   6     0.01  -0.00  -0.00    -0.01   0.01   0.00    -0.01   0.01   0.00
     4   1     0.01  -0.01  -0.01    -0.01   0.01   0.01    -0.01   0.01   0.01
     5   6     0.00  -0.00   0.00    -0.00  -0.00  -0.00    -0.00  -0.00  -0.00
     6   6    -0.06   0.03  -0.03     0.05  -0.02   0.01     0.06  -0.02   0.01
     7   8     0.01   0.00  -0.02    -0.01   0.00   0.01    -0.01   0.00   0.01
     8   8     0.05  -0.02   0.08    -0.03   0.03  -0.02    -0.03   0.03  -0.02
     9   6    -0.04  -0.00  -0.00    -0.05  -0.02   0.01    -0.11  -0.07   0.02
    10   6    -0.01  -0.01  -0.06    -0.06  -0.11   0.01     0.09   0.05  -0.01
    11   1    -0.54  -0.09   0.11     0.37   0.14  -0.01     0.54   0.17  -0.03
    12   1     0.76   0.10  -0.12     0.27   0.14  -0.10     0.49   0.18  -0.16
    13   1     0.03   0.04   0.06     0.16   0.51   0.01    -0.04  -0.31  -0.04
    14   1    -0.06  -0.10   0.00     0.29   0.29  -0.23    -0.34  -0.09   0.07
    15   1     0.09   0.17   0.05     0.34   0.26   0.14    -0.32  -0.09   0.03
                     28                     29                     30
                      A                      A                      A
 Frequencies --   1492.0945              1502.7374              1514.7164
 Red. masses --      1.0409                 1.0611                 1.0853
 Frc consts  --      1.3653                 1.4118                 1.4671
 IR Inten    --     10.4994                 1.8192                16.7741
  Atom  AN      X      Y      Z        X      Y      Z        X      Y      Z
     1   8     0.00   0.00   0.00     0.00   0.00   0.00     0.00   0.00   0.00
     2   1    -0.00   0.00   0.00     0.00   0.00   0.00    -0.00   0.00   0.00
     3   6     0.00  -0.00  -0.00     0.00  -0.00  -0.00     0.00  -0.00  -0.00
     4   1     0.00  -0.00  -0.00     0.00  -0.00  -0.00     0.00  -0.00  -0.00
     5   6    -0.00   0.00   0.00    -0.00   0.00   0.00    -0.00   0.00   0.00
     6   6    -0.00   0.00   0.00    -0.02   0.00   0.00    -0.02   0.01   0.01
     7   8     0.00   0.00  -0.01     0.00   0.00  -0.01     0.01   0.00  -0.01
     8   8     0.00  -0.00   0.00     0.01  -0.01   0.00     0.01  -0.01   0.01
     9   6    -0.02  -0.01  -0.02    -0.01  -0.05   0.01     0.04  -0.05  -0.01
    10   6    -0.01   0.02  -0.04    -0.02   0.03   0.02     0.02  -0.03  -0.01
    11   1     0.04   0.12   0.06    -0.03   0.36   0.34    -0.15   0.31   0.35
    12   1     0.01   0.04  -0.05    -0.14   0.42  -0.25    -0.27   0.33  -0.21
    13   1     0.15   0.06   0.65     0.02   0.22  -0.21    -0.05  -0.26   0.10
    14   1     0.55  -0.15   0.06     0.04  -0.32   0.21    -0.13   0.36  -0.23
    15   1    -0.42  -0.16  -0.01     0.25  -0.28  -0.33    -0.19   0.32   0.34
                     31                     32                     33
                      A                      A                      A
 Frequencies --   1842.8150              2220.5741              3075.1875
 Red. masses --     11.9853                 5.9365                 1.0354
 Frc consts  --     23.9808                17.2469                 5.7688
 IR Inten    --    332.3319                66.3442                10.7275
  Atom  AN      X      Y      Z        X      Y      Z        X      Y      Z
     1   8     0.00   0.00  -0.00    -0.00  -0.01  -0.00    -0.00  -0.00   0.00
     2   1    -0.03   0.01   0.02    -0.00  -0.00   0.00    -0.00   0.00  -0.00
     3   6     0.06  -0.03  -0.02    -0.32   0.18   0.12     0.00  -0.00  -0.00
     4   1     0.09  -0.06  -0.01    -0.61   0.35   0.24    -0.00   0.00   0.00
     5   6    -0.05   0.03   0.00     0.46  -0.23  -0.17    -0.00   0.00   0.00
     6   6    -0.21  -0.08   0.75    -0.09   0.02   0.05     0.00  -0.00   0.00
     7   8     0.15   0.04  -0.49     0.00   0.00  -0.01     0.00   0.00  -0.00
     8   8    -0.01   0.02  -0.07    -0.00   0.00  -0.00    -0.00   0.00  -0.00
     9   6    -0.03   0.01   0.02     0.00  -0.00   0.00     0.00   0.00   0.00
    10   6     0.01  -0.01  -0.00    -0.00  -0.00  -0.00    -0.04  -0.04  -0.00
    11   1     0.15  -0.09  -0.12     0.01  -0.00  -0.00     0.00  -0.01   0.01
    12   1     0.13  -0.07   0.08     0.00  -0.00   0.00    -0.00  -0.01  -0.02
    13   1     0.02   0.06  -0.04     0.00  -0.00  -0.00     0.57  -0.20  -0.12
    14   1    -0.04   0.01  -0.01    -0.00   0.00  -0.00    -0.00   0.30   0.51
    15   1     0.06   0.03   0.02     0.00   0.00   0.00    -0.15   0.31  -0.39
                     34                     35                     36
                      A                      A                      A
 Frequencies --   3108.2766              3150.2058              3154.9482
 Red. masses --      1.0609                 1.1014                 1.1048
 Frc consts  --      6.0390                 6.4395                 6.4789
 IR Inten    --     15.8420                15.0273                 1.9912
  Atom  AN      X      Y      Z        X      Y      Z        X      Y      Z
     1   8    -0.00  -0.00  -0.00     0.00  -0.00   0.00     0.00   0.00   0.00
     2   1     0.00  -0.00   0.00    -0.00   0.00  -0.00    -0.00   0.00  -0.00
     3   6    -0.00   0.00   0.00     0.00  -0.00  -0.00    -0.00  -0.00   0.00
     4   1     0.00  -0.00  -0.00    -0.00   0.00   0.00    -0.00   0.00   0.00
     5   6     0.00  -0.00  -0.00    -0.00   0.00   0.00    -0.00   0.00   0.00
     6   6    -0.00   0.00  -0.00     0.00  -0.00   0.00    -0.00   0.00   0.00
     7   8    -0.00   0.00   0.00     0.00   0.00  -0.00    -0.00  -0.00  -0.00
     8   8     0.00  -0.00   0.00     0.00  -0.00  -0.00     0.00   0.00  -0.00
     9   6     0.01  -0.06  -0.02    -0.01   0.02  -0.02     0.01  -0.01   0.05
    10   6    -0.01   0.01   0.01    -0.05   0.04   0.06    -0.05   0.04  -0.05
    11   1    -0.15   0.33  -0.41     0.08  -0.18   0.22    -0.12   0.27  -0.32
    12   1     0.04   0.40   0.71    -0.00   0.01   0.02    -0.02  -0.18  -0.31
    13   1     0.12  -0.05  -0.02     0.61  -0.21  -0.11     0.38  -0.13  -0.09
    14   1    -0.00  -0.03  -0.06    -0.01  -0.35  -0.60    -0.01   0.09   0.14
    15   1     0.00  -0.01   0.02    -0.02   0.02  -0.01     0.19  -0.42   0.52
                     37                     38                     39
                      A                      A                      A
 Frequencies --   3175.7805              3485.9746              3802.9070
 Red. masses --      1.1074                 1.1634                 1.0673
 Frc consts  --      6.5802                 8.3299                 9.0944
 IR Inten    --     14.9268                66.9906                40.4819
  Atom  AN      X      Y      Z        X      Y      Z        X      Y      Z
     1   8    -0.00  -0.00   0.00    -0.00  -0.00  -0.00    -0.04   0.01  -0.05
     2   1     0.00   0.00  -0.00     0.00   0.00   0.00     0.65  -0.19   0.73
     3   6     0.00  -0.00  -0.00    -0.10   0.05   0.04     0.00  -0.00  -0.00
     4   1    -0.00   0.00   0.00     0.83  -0.44  -0.32     0.00   0.00  -0.00
     5   6    -0.00  -0.00   0.00     0.03  -0.01  -0.01     0.00   0.00   0.00
     6   6     0.00   0.00  -0.00    -0.00   0.00   0.00    -0.00   0.00   0.00
     7   8    -0.00   0.00   0.00     0.00  -0.00   0.00     0.00   0.00  -0.00
     8   8    -0.00  -0.00   0.00     0.00  -0.00  -0.00     0.00  -0.00   0.00
     9   6    -0.02   0.02  -0.07    -0.00   0.00  -0.00    -0.00   0.00   0.00
    10   6    -0.02   0.01  -0.05    -0.00  -0.00  -0.00     0.00  -0.00  -0.00
    11   1     0.17  -0.40   0.48     0.00  -0.00   0.00     0.00  -0.00   0.00
    12   1     0.03   0.22   0.37     0.00  -0.00  -0.00     0.00  -0.00  -0.00
    13   1     0.08  -0.02  -0.02     0.00  -0.00  -0.00     0.00  -0.00  -0.00
    14   1     0.00   0.19   0.30    -0.00   0.00   0.00    -0.00   0.00   0.00
    15   1     0.14  -0.31   0.37    -0.00  -0.00   0.00    -0.00  -0.00   0.00

 -------------------
 - Thermochemistry -
 -------------------
 Temperature   298.150 Kelvin.  Pressure   1.00000 Atm.
 Atom     1 has atomic number  8 and mass  15.99491
 Atom     2 has atomic number  1 and mass   1.00783
 Atom     3 has atomic number  6 and mass  12.00000
 Atom     4 has atomic number  1 and mass   1.00783
 Atom     5 has atomic number  6 and mass  12.00000
 Atom     6 has atomic number  6 and mass  12.00000
 Atom     7 has atomic number  8 and mass  15.99491
 Atom     8 has atomic number  8 and mass  15.99491
 Atom     9 has atomic number  6 and mass  12.00000
 Atom    10 has atomic number  6 and mass  12.00000
 Atom    11 has atomic number  1 and mass   1.00783
 Atom    12 has atomic number  1 and mass   1.00783
 Atom    13 has atomic number  1 and mass   1.00783
 Atom    14 has atomic number  1 and mass   1.00783
 Atom    15 has atomic number  1 and mass   1.00783
 Molecular mass:   115.03952 amu.
 Principal axes and moments of inertia in atomic units:
                           1         2         3
     Eigenvalues --   460.581521552.331441637.04343
           X            0.99998  -0.00371   0.00544
           Y            0.00322   0.99618   0.08731
           Z           -0.00574  -0.08729   0.99617
 This molecule is an asymmetric top.
 Rotational symmetry number  1.
 Warning -- assumption of classical behavior for rotation
           may cause significant error
 Rotational temperatures (Kelvin)      0.18805     0.05580     0.05291
 Rotational constants (GHZ):           3.91840     1.16260     1.10244
    1 imaginary frequencies ignored.
 Zero-point vibrational energy     293030.9 (Joules/Mol)
                                   70.03606 (Kcal/Mol)
 Warning -- explicit consideration of  13 degrees of freedom as
           vibrations may cause significant error
 Vibrational temperatures:     37.77   127.87   159.57   179.91   228.08
          (Kelvin)            274.95   329.22   364.25   486.16   601.71
                              802.26   872.19   887.29  1033.39  1072.47
                             1118.23  1150.57  1288.94  1336.09  1550.60
                             1622.45  1730.90  1860.14  1939.86  2015.17
                             2057.78  2146.79  2162.10  2179.34  2651.40
                             3194.91  4424.51  4472.12  4532.44  4539.27
                             4569.24  5015.54  5471.53
 
 Zero-point correction=                           0.111610 (Hartree/Particle)
 Thermal correction to Energy=                    0.121432
 Thermal correction to Enthalpy=                  0.122377
 Thermal correction to Gibbs Free Energy=         0.075084
 Sum of electronic and zero-point Energies=           -420.092823
 Sum of electronic and thermal Energies=              -420.083001
 Sum of electronic and thermal Enthalpies=            -420.082056
 Sum of electronic and thermal Free Energies=         -420.129349
 
                     E (Thermal)             CV                S
                      KCal/Mol        Cal/Mol-Kelvin    Cal/Mol-Kelvin
 Total                   76.200             32.576             99.536
 Electronic               0.000              0.000              1.377
 Translational            0.889              2.981             40.136
 Rotational               0.889              2.981             28.550
 Vibrational             74.423             26.614             29.473
 Vibration     1          0.593              1.985              6.095
 Vibration     2          0.602              1.957              3.685
 Vibration     3          0.607              1.940              3.253
 Vibration     4          0.610              1.928              3.021
 Vibration     5          0.621              1.893              2.567
 Vibration     6          0.634              1.852              2.217
 Vibration     7          0.651              1.797              1.888
 Vibration     8          0.664              1.757              1.708
 Vibration     9          0.718              1.600              1.222
 Vibration    10          0.781              1.431              0.898
 Vibration    11          0.913              1.123              0.529
 Vibration    12          0.965              1.019              0.439
 Vibration    13          0.976              0.997              0.422
                       Q            Log10(Q)             Ln(Q)
 Total Bot       0.291034D-34        -34.536056        -79.522208
 Total V=0       0.632024D+17         16.800733         38.685118
 Vib (Bot)       0.774762D-48        -48.110832       -110.779284
 Vib (Bot)    1  0.788959D+01          0.897054          2.065544
 Vib (Bot)    2  0.231385D+01          0.364336          0.838914
 Vib (Bot)    3  0.184630D+01          0.266301          0.613182
 Vib (Bot)    4  0.163236D+01          0.212817          0.490030
 Vib (Bot)    5  0.127590D+01          0.105818          0.243655
 Vib (Bot)    6  0.104688D+01          0.019895          0.045811
 Vib (Bot)    7  0.861192D+00         -0.064900         -0.149438
 Vib (Bot)    8  0.769761D+00         -0.113644         -0.261675
 Vib (Bot)    9  0.550259D+00         -0.259433         -0.597367
 Vib (Bot)   10  0.420432D+00         -0.376305         -0.866473
 Vib (Bot)   11  0.279388D+00         -0.553792         -1.275152
 Vib (Bot)   12  0.244745D+00         -0.611286         -1.407537
 Vib (Bot)   13  0.237962D+00         -0.623493         -1.435646
 Vib (V=0)       0.168251D+04          3.225958          7.428042
 Vib (V=0)    1  0.840542D+01          0.924559          2.128877
 Vib (V=0)    2  0.286726D+01          0.457467          1.053356
 Vib (V=0)    3  0.241280D+01          0.382522          0.880789
 Vib (V=0)    4  0.220722D+01          0.343846          0.791736
 Vib (V=0)    5  0.187038D+01          0.271929          0.626139
 Vib (V=0)    6  0.166015D+01          0.220148          0.506909
 Vib (V=0)    7  0.149582D+01          0.174878          0.402672
 Vib (V=0)    8  0.141790D+01          0.151644          0.349174
 Vib (V=0)    9  0.124349D+01          0.094644          0.217926
 Vib (V=0)   10  0.115327D+01          0.061931          0.142602
 Vib (V=0)   11  0.107276D+01          0.030504          0.070238
 Vib (V=0)   12  0.105669D+01          0.023946          0.055138
 Vib (V=0)   13  0.105374D+01          0.022733          0.052344
 Electronic      0.200000D+01          0.301030          0.693147
 Translational   0.484981D+08          7.685724         17.697035
 Rotational      0.387277D+06          5.588021         12.866894
 ***** Axes restored to original set *****
 -------------------------------------------------------------------
 Center     Atomic                   Forces (Hartrees/Bohr)
 Number     Number              X              Y              Z
 -------------------------------------------------------------------
      1        8           0.003985447    0.010554566    0.000935325
      2        1          -0.000081776    0.000174160    0.000005284
      3        6           0.001008632   -0.000473901   -0.000469552
      4        1           0.000245745    0.000373715    0.000018331
      5        6          -0.004313132   -0.010366920   -0.000984873
      6        6          -0.000872451   -0.002152559   -0.000171017
      7        8          -0.000195244    0.001278218    0.000438890
      8        8          -0.000008721    0.000092804    0.000109299
      9        6           0.000069717    0.000308603    0.000099693
     10        6           0.000123050    0.000144570    0.000002465
     11        1           0.000005420    0.000016477    0.000006592
     12        1          -0.000001501    0.000022239    0.000007611
     13        1           0.000007605    0.000004144   -0.000001338
     14        1           0.000017705    0.000012733   -0.000000105
     15        1           0.000009503    0.000011150    0.000003395
 -------------------------------------------------------------------
 Cartesian Forces:  Max     0.010554566 RMS     0.002423773

 GradGradGradGradGradGradGradGradGradGradGradGradGradGradGradGradGradGrad
 Berny optimization.
 Search for a local minimum.
 Step number   1 out of a maximum of    2
 All quantities printed in internal units (Hartrees-Bohrs-Radians)
 Second derivative matrix not updated -- analytic derivatives used.
 ITU=  0
     Eigenvalues ---   -0.00041   0.00005   0.00138   0.00219   0.00273
     Eigenvalues ---    0.00374   0.00490   0.00576   0.00996   0.01986
     Eigenvalues ---    0.02436   0.03170   0.03406   0.05224   0.06300
     Eigenvalues ---    0.07616   0.07935   0.08348   0.09732   0.10271
     Eigenvalues ---    0.11364   0.14173   0.17080   0.17443   0.19955
     Eigenvalues ---    0.28594   0.29812   0.43751   0.49367   0.62873
     Eigenvalues ---    0.70968   0.76474   0.78770   0.86549   0.89972
     Eigenvalues ---    0.92751   0.97476   1.73129   2.62943
 Eigenvalue     1 is  -4.13D-04 should be greater than     0.000000 Eigenvector:
                          Z2        Z1        Y2        X1        Y7
   1                    0.53213   0.31748  -0.24096   0.24060   0.23049
                          Z14       Z15       Y14       Z12       Z11
   1                    0.21430   0.21415  -0.20279  -0.19279  -0.19107
 Quadratic step=9.355D+01 exceeds max=3.000D-01 adjusted using Lamda=-4.882D-02.
 Angle between NR and scaled steps=  70.11 degrees.
 Angle between quadratic step and forces=   8.02 degrees.
 Linear search not attempted -- first point.
 B after Tr=    -0.001073    0.000846   -0.000487
         Rot=    1.000000    0.000349   -0.000095   -0.000025 Ang=   0.04 deg.
 Variable       Old X    -DE/DX   Delta X   Delta X   Delta X     New X
                                 (Linear)    (Quad)   (Total)
    X1        4.15351   0.00399   0.00000   0.06587   0.06464   4.21816
    Y1        2.67229   0.01055   0.00000   0.19213   0.19316   2.86545
    Z1       -0.05239   0.00094   0.00000   0.01521   0.01192  -0.04047
    X2        5.34886  -0.00008   0.00000   0.01119   0.01025   5.35911
    Y2        2.32967   0.00017   0.00000   0.01191   0.01394   2.34362
    Z2        1.29724   0.00001   0.00000   0.01790   0.01476   1.31200
    X3        4.64330   0.00101   0.00000   0.00360   0.00245   4.64574
    Y3       -2.26460  -0.00047   0.00000  -0.02467  -0.02430  -2.28890
    Z3       -1.01543  -0.00047   0.00000  -0.01068  -0.01045  -1.02588
    X4        6.32281   0.00025   0.00000   0.02442   0.02319   6.34600
    Y4       -3.16322   0.00037   0.00000   0.01434   0.01435  -3.14887
    Z4       -1.66552   0.00002   0.00000  -0.00430  -0.00380  -1.66932
    X5        2.77369  -0.00431   0.00000  -0.08050  -0.08157   2.69211
    Y5       -1.17364  -0.01037   0.00000  -0.19149  -0.19074  -1.36438
    Z5       -0.31375  -0.00098   0.00000  -0.02013  -0.02018  -0.33393
    X6        0.29610  -0.00087   0.00000  -0.01556  -0.01650   0.27961
    Y6       -0.37534  -0.00215   0.00000  -0.04294  -0.04165  -0.41698
    Z6        0.62054  -0.00017   0.00000  -0.00371  -0.00396   0.61658
    X7       -0.33232  -0.00020   0.00000  -0.00170  -0.00221  -0.33453
    Y7       -0.59734   0.00128   0.00000   0.02213   0.02491  -0.57243
    Z7        2.78616   0.00044   0.00000   0.00880   0.00878   2.79494
    X8       -1.12035  -0.00001   0.00000  -0.00259  -0.00392  -1.12427
    Y8        0.52524   0.00009   0.00000  -0.00824  -0.00832   0.51693
    Z8       -1.24255   0.00011   0.00000   0.00046  -0.00017  -1.24273
    X9       -3.63551   0.00007   0.00000   0.00236   0.00111  -3.63440
    Y9        1.31958   0.00031   0.00000   0.00341   0.00369   1.32327
    Z9       -0.55749   0.00010   0.00000   0.00135   0.00064  -0.55685
   X10       -5.40705   0.00012   0.00000   0.00106  -0.00004  -5.40709
   Y10       -0.92429   0.00014   0.00000   0.00304   0.00336  -0.92093
   Z10       -0.36174   0.00000   0.00000  -0.00059   0.00059  -0.36115
   X11       -4.18541   0.00001   0.00000   0.00324   0.00164  -4.18377
   Y11        2.59499   0.00002   0.00000   0.00283   0.00202   2.59701
   Z11       -2.07443   0.00001   0.00000   0.00080  -0.00070  -2.07513
   X12       -3.53526  -0.00000   0.00000   0.00231   0.00135  -3.53392
   Y12        2.36329   0.00002   0.00000   0.00189   0.00341   2.36670
   Z12        1.21655   0.00001   0.00000   0.00168   0.00022   1.21677
   X13       -7.32201   0.00001   0.00000   0.00049  -0.00057  -7.32257
   Y13       -0.25985   0.00000   0.00000   0.00087   0.00136  -0.25849
   Z13        0.02283  -0.00000   0.00000  -0.00031   0.00079   0.02362
   X14       -5.42647   0.00002   0.00000   0.00201   0.00063  -5.42584
   Y14       -1.98265   0.00001   0.00000   0.00319   0.00228  -1.98037
   Z14       -2.13103  -0.00000   0.00000  -0.00089   0.00104  -2.12999
   X15       -4.83247   0.00001   0.00000   0.00029  -0.00045  -4.83292
   Y15       -2.17413   0.00001   0.00000   0.00111   0.00253  -2.17160
   Z15        1.17180   0.00000   0.00000  -0.00141   0.00054   1.17234
         Item               Value     Threshold  Converged?
 Maximum Force            0.010555     0.000450     NO 
 RMS     Force            0.002424     0.000300     NO 
 Maximum Displacement     0.193162     0.001800     NO 
 RMS     Displacement     0.044704     0.001200     NO 
 Predicted change in Energy=-4.612661D-03
 GradGradGradGradGradGradGradGradGradGradGradGradGradGradGradGradGradGrad


 ----------------------------------------------------------------------

 Electric dipole moment (input orientation):
 (Debye = 10**-18 statcoulomb cm , SI units = C m)
                  (au)            (Debye)         (10**-30 SI)
   Tot        0.404400D+00      0.102788D+01      0.342864D+01
   x          0.985968D-01      0.250608D+00      0.835938D+00
   y         -0.269307D+00     -0.684510D+00     -0.228328D+01
   z         -0.285117D+00     -0.724695D+00     -0.241732D+01

 Dipole polarizability, Alpha (input orientation).
 (esu units = cm**3 , SI units = C**2 m**2 J**-1)
 Alpha(0;0):
               (au)            (10**-24 esu)      (10**-40 SI)
   iso        0.728364D+02      0.107932D+02      0.120091D+02
   aniso      0.277509D+02      0.411225D+01      0.457550D+01
   xx         0.867677D+02      0.128576D+02      0.143061D+02
   yx        -0.708659D+01     -0.105012D+01     -0.116842D+01
   yy         0.714708D+02      0.105909D+02      0.117839D+02
   zx        -0.390352D+01     -0.578442D+00     -0.643604D+00
   zy         0.378490D+01      0.560864D+00      0.624046D+00
   zz         0.602707D+02      0.893120D+01      0.993730D+01

 ----------------------------------------------------------------------

 Dipole orientation:
     8          4.25040695         -2.40763922         -0.72998774
     1          5.70050247         -1.36918920         -1.16192470
     6          4.01819612          0.55719875          3.35608884
     1          5.39508688          0.62923403          4.82233950
     6          2.48873021          0.39531278          1.67903752
     6          0.40133502          0.66276230         -0.11536076
     8          0.30167744          2.32903745         -1.64757409
     8         -1.33421954         -1.10940958          0.25311118
     6         -3.51902611         -1.00142105         -1.37209234
     6         -5.39475259          0.95787164         -0.44773188
     1         -4.29815015         -2.90292854         -1.28600964
     1         -2.89035658         -0.60179446         -3.29346074
     1         -7.08591438          0.90471165         -1.62823143
     1         -5.94565090          0.56455799          1.49975795
     1         -4.58532660          2.84916410         -0.55652297

 Electric dipole moment (dipole orientation):
 (Debye = 10**-18 statcoulomb cm , SI units = C m)
                  (au)            (Debye)         (10**-30 SI)
   Tot        0.404400D+00      0.102788D+01      0.342864D+01
   x          0.000000D+00      0.000000D+00      0.000000D+00
   y          0.000000D+00      0.000000D+00      0.000000D+00
   z          0.404400D+00      0.102788D+01      0.342864D+01

 Dipole polarizability, Alpha (dipole orientation).
 (esu units = cm**3 , SI units = C**2 m**2 J**-1)
 Alpha(0;0):
               (au)            (10**-24 esu)      (10**-40 SI)
   iso        0.728364D+02      0.107932D+02      0.120091D+02
   aniso      0.277509D+02      0.411225D+01      0.457550D+01
   xx         0.820900D+02      0.121645D+02      0.135348D+02
   yx        -0.960542D+00     -0.142338D+00     -0.158372D+00
   yy         0.624091D+02      0.924808D+01      0.102899D+02
   zx         0.114704D+02      0.169975D+01      0.189122D+01
   zy         0.513248D+01      0.760555D+00      0.846232D+00
   zz         0.740101D+02      0.109672D+02      0.122026D+02

 ----------------------------------------------------------------------
 1\1\GINC-AJ\Freq\UM062X\6-311++G(d,p)\C5H7O3(2)\AAYUSH\23-Jun-2025\0\\
 # freq 6-311++g(d,p) m062x\\Title Card Required\\0,2\O,2.197945,1.4141
 16,-0.027722\H,2.830493,1.23281,0.68647\C,2.457127,-1.198373,-0.537342
 \H,3.345888,-1.673903,-0.881355\C,1.467772,-0.621065,-0.16603\C,0.1566
 92,-0.19862,0.328378\O,-0.175856,-0.316099,1.474371\O,-0.592863,0.2779
 47,-0.65753\C,-1.923829,0.698294,-0.295009\C,-2.861287,-0.489111,-0.19
 1425\H,-2.214824,1.373211,-1.097741\H,-1.87078,1.250597,0.643773\H,-3.
 874639,-0.137507,0.012082\H,-2.871564,-1.049172,-1.127694\H,-2.557231,
 -1.150499,0.620089\\Version=ES64L-G16RevA.03\State=2-A\HF=-420.204433\
 S2=0.761278\S2-1=0.\S2A=0.750066\RMSD=3.067e-09\RMSF=2.424e-03\ZeroPoi
 nt=0.1116096\Thermal=0.1214325\Dipole=0.0985968,-0.2693069,-0.285117\D
 ipoleDeriv=-0.3337716,-0.0221349,0.0894129,0.0864137,0.0253265,0.04452
 84,0.0745315,-0.0512796,-0.2572057,0.2619874,0.0999192,-0.0490605,0.04
 78888,0.2948286,0.0309496,-0.0446284,0.0907503,0.2282709,-0.3905374,-0
 .1839156,0.0093267,0.0798201,-0.0507572,0.0041817,0.0360036,0.0827953,
 -0.1275824,0.2455351,-0.0403944,-0.0170309,-0.0353269,0.2255747,0.0066
 491,-0.0110873,0.0065812,0.2266558,-0.3691987,0.2023324,0.092641,-0.02
 89969,-0.6254548,-0.1285398,0.0860394,-0.1413825,-0.1652699,2.0942218,
 -0.3028756,-0.0163663,-0.640909,0.6155838,-0.2422309,0.3278044,-0.3625
 555,1.7159928,-0.817581,0.0317431,0.2349365,0.1368578,-0.3866194,0.063
 8795,0.0396312,0.1676979,-1.1330354,-1.5869113,0.2948976,-0.3228877,0.
 4992426,-0.4529984,0.2282359,-0.4342417,0.1984732,-0.7956099,0.9978015
 ,-0.1022723,0.0504933,-0.132168,0.3664698,-0.0610783,-0.0892079,0.0112
 294,0.2461638,-0.0916992,-0.0202182,-0.016648,-0.0519086,-0.06562,0.05
 74933,0.0157469,0.0148279,0.0462975,-0.021874,0.0082492,-0.0093834,0.0
 320201,-0.0099089,0.0674823,-0.0327696,0.1011011,-0.0091634,-0.0304204
 ,-0.0309086,-0.0478103,-0.0043527,0.0063619,-0.0317013,0.0359201,-0.09
 0695,-0.0104085,-0.1115169,0.040585,0.0216246,0.0511554,0.0461081,-0.0
 256069,0.0329822,-0.0140384,0.0892621,0.0719867,-0.0057845,0.0301861,-
 0.0397244,0.0103908,-0.0562026,-0.0110776,-0.0834628,-0.0564053,0.0819
 781,0.0307774,-0.0494342,-0.0000122,0.0007146,0.04196,-0.0256468,0.069
 9573,0.0020378\Polar=86.7676841,-7.0865918,71.4708302,-3.9035202,3.784
 8997,60.2707461\Quadrupole=8.6362977,-2.2943956,-6.3419021,-4.0280797,
 1.8174405,2.9495356\PG=C01 [X(C5H7O3)]\NImag=1\\0.22558779,-0.06035671
 ,0.03553157,0.24919076,-0.07305773,0.28192970,-0.22018157,0.06041713,-
 0.24710672,0.22152928,0.06741979,-0.02794793,0.07639640,-0.06210356,0.
 03163044,-0.24858781,0.07000079,-0.28104517,0.24766854,-0.07162779,0.2
 8032735,0.00547568,0.01702571,-0.00009496,0.00084734,-0.00131948,0.000
 99504,1.06581676,-0.00508865,-0.02146797,-0.00214326,0.00029358,-0.000
 53172,-0.00047515,-0.55944067,0.37102566,-0.00262817,-0.00768537,0.000
 41366,0.00019041,-0.00067516,-0.00036096,-0.38081441,0.21354377,0.1983
 4354,-0.00013833,-0.00029047,0.00000408,0.00031703,0.00016050,0.000004
 91,-0.30444567,0.14950029,0.10696029,0.29350525,-0.00016718,0.00019719
 ,0.00017873,0.00029232,-0.00017489,-0.00030097,0.14464642,-0.10457874,
 -0.05678640,-0.14843254,0.09570369,0.00013721,-0.00002067,-0.00000880,
 0.00005297,-0.00016098,-0.00010782,0.10697982,-0.05855883,-0.06725075,
 -0.10686061,0.05800256,0.05739702,-0.00431109,-0.00985376,-0.00305378,
 -0.00148706,-0.00328310,0.00099431,-0.77252498,0.42003488,0.27622953,0
 .00962679,0.00260586,-0.00201268,1.05755539,0.00441778,0.02058124,-0.0
 0162284,0.00158669,-0.00285040,0.00230843,0.39082944,-0.24466197,-0.14
 454481,-0.00235660,0.00602430,0.00199149,-0.49174130,0.27916478,0.0000
 7083,0.00975734,-0.00062423,0.00014887,-0.00425897,0.00028809,0.272905
 90,-0.15342377,-0.13581968,-0.00154212,-0.00028012,0.00498715,-0.34963
 466,0.16185925,0.23663666,-0.00676773,-0.00910612,0.00202692,-0.002004
 09,-0.00209483,-0.00273841,0.01540189,-0.01074094,-0.00308010,0.000646
 21,0.00187829,0.00215800,-0.22704282,0.06955328,0.05887968,0.61110014,
 -0.00403847,-0.00726468,0.00017038,0.00009412,0.00062327,0.00057638,0.
 00625856,0.00012423,-0.00334538,0.00244641,0.00363539,-0.00114109,0.04
 988762,-0.08068583,-0.01970097,-0.12414746,0.28212583,0.00364398,0.002
 11138,-0.00420003,-0.00296521,0.00019317,0.00271134,-0.00083283,0.0020
 1428,0.00321348,0.00153835,-0.00046063,0.00492149,0.04390490,-0.022083
 99,-0.07479957,-0.14795174,-0.09929231,0.96708567,0.00018156,0.0006820
 8,-0.00020212,0.00047121,0.00076900,0.00068453,-0.00481921,0.00252250,
 0.00072790,-0.00006673,-0.00014208,-0.00155581,-0.01580698,0.00199125,
 0.04813003,-0.16489955,-0.00893029,0.19372190,0.15696398,-0.00100747,0
 .00029396,0.00098757,0.00028854,-0.00027233,-0.00036486,0.00056995,0.0
 0020770,-0.00001856,-0.00048052,-0.00058351,0.00027096,0.00664255,0.01
 870768,-0.00681989,-0.00622323,-0.08935628,0.05411674,-0.00232210,0.05
 450524,-0.00142348,-0.00147546,0.00292924,0.00121146,-0.00011494,-0.00
 188179,0.00135473,-0.00122521,0.00102884,-0.00007542,-0.00025779,0.000
 54066,0.04091891,-0.00158986,-0.03649880,0.18484599,0.06078024,-0.6987
 0322,-0.20920041,-0.08728559,0.83181387,-0.00066022,0.00137981,-0.0009
 0040,0.00059901,0.00061823,0.00109196,-0.00649692,0.00317931,0.0026132
 7,0.00076837,-0.00070936,0.00098299,-0.04723535,0.02408160,-0.02702761
 ,-0.18087866,0.05714367,-0.08645832,0.02867125,0.00828239,-0.02720498,
 0.45472131,-0.00138042,-0.00064121,-0.00075213,-0.00091920,-0.00047522
 ,-0.00017460,0.00216409,-0.00029804,-0.00069087,-0.00046618,-0.0000259
 8,-0.00030439,0.02314509,0.00025811,0.01048747,0.05636677,-0.09945169,
 0.06279480,0.00719021,0.02007671,0.03585783,-0.14890730,0.15739734,-0.
 00062008,0.00017660,0.00077325,0.00082344,0.00019023,-0.00004529,0.000
 28754,-0.00013106,-0.00022967,-0.00005916,-0.00003419,-0.00066670,-0.0
 0449398,0.00141911,0.00857076,-0.06466263,0.05238244,-0.21334922,-0.02
 718363,0.03712580,-0.09680381,0.06231350,-0.08543820,0.39972604,0.0008
 8943,0.00001582,0.00034229,-0.00014476,-0.00032709,-0.00029767,0.00186
 896,-0.00068802,-0.00059768,-0.00033193,0.00011993,0.00004287,0.003018
 86,0.00087826,-0.00040870,-0.04624143,0.02560043,-0.02675263,-0.000522
 35,-0.00546198,0.01851540,-0.16222061,0.03481415,0.02601581,0.44100926
 ,0.00001751,0.00070183,-0.00024828,0.00003399,0.00001847,0.00012554,-0
 .00106965,0.00023941,0.00021359,-0.00005319,-0.00023721,-0.00006456,0.
 00276011,0.00384197,0.00219727,0.02510097,-0.01259661,0.01038960,0.000
 43536,-0.00434832,-0.00757933,0.03164108,-0.07700831,-0.00671245,-0.00
 995807,0.56173904,0.00029287,0.00026292,-0.00027395,-0.00004924,0.0000
 8965,0.00015060,-0.00095027,0.00045966,0.00074174,0.00004388,-0.000060
 66,0.00021122,-0.00359585,0.00272106,-0.00304298,-0.02801682,0.0075032
 6,0.01949720,-0.00033525,0.00042567,-0.00546582,0.04738648,-0.01344724
 ,-0.10532129,0.05393994,-0.01632840,0.64358641,-0.00005423,0.00021405,
 -0.00010209,0.00001789,0.00003835,0.00007531,-0.00052053,0.00016813,0.
 00013784,0.00002457,-0.00008463,0.00001843,-0.00008533,0.00124718,-0.0
 0007162,0.00112206,-0.00436113,0.00613315,-0.00023824,-0.00076475,-0.0
 0256440,-0.04473354,-0.02163701,0.00402730,-0.11293354,-0.05689457,0.0
 0069916,0.54652801,0.00011334,-0.00002162,0.00006918,0.00000598,-0.000
 01856,-0.00004478,0.00035332,-0.00009088,-0.00008609,-0.00000082,0.000
 05954,-0.00000461,-0.00041455,-0.00063363,0.00014162,-0.00015144,0.003
 12581,-0.00608274,-0.00184718,-0.00086565,0.00228643,0.01257333,0.0123
 8619,0.00184845,-0.06884097,-0.17729732,0.00725153,-0.04888815,0.53280
 679,0.00001024,-0.00003797,0.00004031,-0.00000624,-0.00002743,-0.00001
 985,0.00015834,-0.00009005,-0.00007100,-0.00000248,0.00002207,0.000010
 21,0.00009219,-0.00031934,-0.00003585,-0.00189166,-0.00023072,-0.00011
 490,0.00107511,0.00081789,0.00093657,0.01101138,0.00483637,0.00113977,
 -0.00053068,0.00572436,-0.08520410,0.00508356,0.00403986,0.58824549,-0
 .00003009,-0.00004129,0.00002315,0.00006593,0.00008318,0.00005592,-0.0
 0049076,0.00016351,0.00024157,0.00005940,-0.00000534,0.00004628,-0.001
 16108,0.00014233,-0.00107477,-0.00283911,0.00198828,0.00565285,0.00096
 387,-0.00010523,-0.00136421,-0.02700555,0.02571527,-0.02625357,-0.0607
 6280,0.03764592,-0.04749693,0.00729180,-0.01377833,0.01693730,0.084289
 61,0.00004033,0.00001820,0.00001309,-0.00000238,-0.00001284,-0.0000133
 2,0.00011051,-0.00005889,-0.00002317,-0.00002067,0.00000178,-0.0000113
 3,0.00046087,0.00001877,0.00025609,0.00001088,0.00007189,-0.00379554,-
 0.00111963,0.00072655,0.00066376,0.01000246,-0.00685417,0.00809670,0.0
 4307111,-0.15365336,0.12292258,0.00516820,-0.01601527,0.02012187,-0.04
 953654,0.16489426,-0.00001228,0.00002671,0.00001342,0.00002159,0.00001
 994,0.00000681,-0.00002980,0.00000503,-0.00004666,-0.00000812,-0.00002
 347,-0.00002335,0.00044550,0.00007152,0.00039123,0.00235229,-0.0006345
 7,-0.00267375,-0.00188253,0.00077369,0.00145927,0.00688631,-0.00894166
 ,0.00943339,-0.05859920,0.12838586,-0.21096292,0.00031955,-0.00089406,
 0.00054920,0.05601320,-0.13619030,0.21718562,0.00003268,-0.00009479,-0
 .00012013,-0.00002109,0.00006163,0.00006933,-0.00012610,0.00004993,0.0
 0000501,0.00005035,0.00000895,0.00000667,-0.00044947,-0.00080002,-0.00
 028622,0.00267697,-0.00072772,0.00781691,0.00000585,0.00073559,-0.0032
 9952,-0.01602435,0.02475999,0.03140329,-0.05066295,-0.01259575,-0.0237
 5689,0.00016650,-0.01109820,-0.01904641,0.00087137,-0.00512078,-0.0064
 0877,0.06487957,0.00005363,0.00000766,0.00004634,0.00003600,0.00002335
 ,-0.00001568,-0.00010551,0.00005719,0.00005988,-0.00001466,-0.00000850
 ,-0.00002753,0.00005687,0.00008879,0.00029235,0.00007543,0.00148650,-0
 .00568771,-0.00141377,-0.00019031,0.00241811,0.00748379,-0.00700744,-0
 .00790095,-0.00797418,-0.11777833,-0.11202714,-0.00300185,-0.01287727,
 -0.02264930,0.00017571,0.01236997,0.01726077,0.00713550,0.12561637,-0.
 00004160,-0.00006559,0.00003057,-0.00001625,-0.00004403,-0.00002956,0.
 00018731,-0.00002794,-0.00001088,-0.00000261,0.00001460,0.00000538,0.0
 0013049,-0.00039720,-0.00018602,-0.00262223,0.00203365,-0.00150305,-0.
 00177445,0.00144306,0.00046213,0.00895666,-0.00479107,-0.00501892,-0.0
 1404315,-0.11818841,-0.25443096,-0.00063157,0.00298110,0.00491750,-0.0
 0193519,-0.01135092,-0.01730757,0.01193993,0.12753309,0.27152154,-0.00
 007070,0.00003040,-0.00002878,0.00002223,0.00003136,0.00003456,-0.0002
 1034,0.00007498,0.00004377,0.00002294,-0.00003251,-0.00000617,-0.00004
 434,0.00022980,0.00002857,0.00162915,-0.00108728,0.00228790,-0.0000685
 8,-0.00009558,-0.00096814,-0.00432320,-0.00355466,-0.00088448,-0.01666
 728,0.01059338,0.00326959,-0.28057923,0.08102432,0.04693540,0.00055194
 ,-0.00011869,0.00041195,0.00036022,-0.00007756,-0.00060687,0.30459741,
 -0.00001900,0.00001879,-0.00002937,-0.00000840,0.00000490,0.00001168,-
 0.00012162,0.00006917,0.00005572,-0.00000394,-0.00002849,0.00001003,-0
 .00007379,0.00029425,-0.00017444,0.00017535,-0.00150367,0.00286045,0.0
 0055284,0.00035358,-0.00115332,-0.00812415,-0.00302765,-0.00018922,-0.
 02154279,0.01149336,0.00473856,0.08314922,-0.07706914,-0.01703154,0.00
 094766,0.00079242,0.00051079,0.00079319,0.00077023,-0.00073843,-0.0883
 2095,0.07980589,0.00000035,0.00000192,0.00000764,0.00000419,0.00000295
 ,-0.00000081,-0.00002894,0.00001198,0.00001174,-0.00000537,-0.00000272
 ,-0.00000367,0.00005993,0.00006199,0.00005811,0.00011276,0.00062759,-0
 .00133326,-0.00063011,-0.00050991,0.00036447,0.00123264,0.00026989,0.0
 0149117,0.00118727,-0.00112906,-0.00251240,0.04680841,-0.01633439,-0.0
 5496662,-0.00013790,-0.00005245,-0.00005621,0.00008189,0.00009745,0.00
 000770,-0.05194229,0.01794693,0.05531041,-0.00000691,-0.00002314,0.000
 02937,-0.00000116,-0.00001539,-0.00002522,0.00002582,-0.00000495,0.000
 00840,-0.00001746,0.00000409,-0.00000737,0.00001138,0.00004444,0.00001
 561,-0.00053219,0.00044769,-0.00158112,-0.00042734,-0.00011364,0.00069
 567,0.00301855,0.00086713,0.00012484,-0.00230624,-0.01252745,-0.019565
 93,-0.04634529,0.00122781,-0.00048863,0.00057722,0.00092805,0.00039438
 ,-0.00228185,-0.00350974,0.00067884,0.00196040,0.01517996,0.02662428,0
 .04728314,-0.00003366,-0.00000484,0.00002825,0.00001363,-0.00000160,-0
 .00000759,-0.00002251,0.00000978,0.00001253,0.00000756,0.00000084,-0.0
 0000366,-0.00006326,-0.00004179,-0.00006080,-0.00005075,0.00004687,0.0
 0007883,0.00030352,0.00020138,0.00004445,0.00158682,0.00217799,0.00103
 229,0.00060285,-0.01626098,-0.02556241,-0.00076177,-0.11695029,-0.1168
 2692,0.00066680,0.00068897,0.00008747,-0.00371979,-0.00330670,0.001629
 87,-0.00063894,-0.00568376,-0.00758946,0.00326074,0.12736500,-0.000030
 03,-0.00001689,0.00001530,0.00000911,-0.00000275,-0.00000962,-0.000051
 50,0.00004814,0.00001722,-0.00000598,-0.00001618,-0.00000797,-0.000032
 63,0.00010280,0.00009664,0.00015122,-0.00022895,-0.00079934,-0.0005762
 8,-0.00020995,0.00037149,-0.00107073,0.00051867,0.00048970,0.00051185,
 0.00235766,0.00362928,-0.00147022,-0.11908044,-0.25224729,-0.00049938,
 -0.00034139,0.00074066,0.00109015,0.00078884,0.00105569,-0.00029482,-0
 .00122455,-0.00422486,0.00098923,0.13010782,0.26925413,0.00005375,0.00
 000126,-0.00000759,-0.00003019,-0.00003859,-0.00002531,0.00019808,-0.0
 0002389,-0.00003764,-0.00002079,0.00001778,0.00001742,-0.00006394,-0.0
 0010413,-0.00013377,-0.00137083,-0.00057445,0.00184190,-0.00040873,0.0
 0005548,-0.00144160,0.00179992,0.00184206,-0.00083820,0.00600739,-0.01
 512962,0.01813526,-0.06966089,0.04972155,-0.05933742,-0.00238176,-0.00
 387371,0.00009594,0.00052229,0.00108034,-0.00021933,-0.00718062,0.0174
 1641,-0.02336710,-0.00095806,-0.00115124,0.00128002,0.07349439,0.00002
 917,-0.00000219,-0.00003635,-0.00002844,-0.00001493,0.00000192,0.00012
 146,-0.00004493,-0.00002971,0.00000482,0.00001459,0.00002260,-0.000164
 10,-0.00010628,-0.00027245,-0.00064620,-0.00038104,0.00284367,0.001328
 29,0.00054360,-0.00136932,-0.00023169,0.00249338,-0.00186559,0.0096905
 7,-0.01885363,0.02105096,0.04640872,-0.14653869,0.12165086,-0.00406193
 ,-0.00298828,-0.00045771,0.00061227,0.00074848,-0.00003178,0.00194193,
 -0.00628989,0.00659730,-0.00576561,0.01175913,-0.01280283,-0.04923925,
 0.15966066,-0.00000279,0.00002201,-0.00000090,0.00001309,0.00001971,0.
 00001667,-0.00006597,-0.00000759,0.00001937,0.00001036,0.00000514,-0.0
 0000407,0.00004783,0.00002239,-0.00002151,0.00043674,0.00050005,0.0000
 4717,-0.00099889,-0.00075262,-0.00055309,0.00018686,-0.00022487,-0.000
 18918,0.00067427,0.00085659,-0.00060204,-0.05846280,0.12390893,-0.2031
 7944,-0.00020833,-0.00029568,0.00129087,0.00050475,-0.00018854,0.00048
 644,0.00171980,-0.00559330,0.00584661,-0.00789236,0.01702934,-0.018381
 02,0.06403743,-0.13530156,0.21522412\\-0.00398545,-0.01055457,-0.00093
 532,0.00008178,-0.00017416,-0.00000528,-0.00100863,0.00047390,0.000469
 55,-0.00024574,-0.00037371,-0.00001833,0.00431313,0.01036692,0.0009848
 7,0.00087245,0.00215256,0.00017102,0.00019524,-0.00127822,-0.00043889,
 0.00000872,-0.00009280,-0.00010930,-0.00006972,-0.00030860,-0.00009969
 ,-0.00012305,-0.00014457,-0.00000247,-0.00000542,-0.00001648,-0.000006
 59,0.00000150,-0.00002224,-0.00000761,-0.00000760,-0.00000414,0.000001
 34,-0.00001770,-0.00001273,0.00000011,-0.00000950,-0.00001115,-0.00000
 340\\\@


 ON A CLEAR DISK YOU CAN SEEK FOREVER.
 Job cpu time:       0 days  0 hours 58 minutes 25.0 seconds.
 Elapsed time:       0 days  0 hours  2 minutes 26.3 seconds.
 File lengths (MBytes):  RWF=    153 Int=      0 D2E=      0 Chk=      9 Scr=      1
 Normal termination of Gaussian 16 at Mon Jun 23 07:36:31 2025.
