 Entering Gaussian System, Link 0=g16
 Initial command:
 /opt/g16/l1.exe "/home/aayush/scratches/g16/Gau-94869.inp" -scrdir="/home/aayush/scratches/g16/"
 Entering Link 1 = /opt/g16/l1.exe PID=     94872.
  
 Copyright (c) 1988,1990,1992,1993,1995,1998,2003,2009,2016,
            Gaussian, Inc.  All Rights Reserved.
  
 This is part of the Gaussian(R) 16 program.  It is based on
 the Gaussian(R) 09 system (copyright 2009, Gaussian, Inc.),
 the Gaussian(R) 03 system (copyright 2003, Gaussian, Inc.),
 the Gaussian(R) 98 system (copyright 1998, Gaussian, Inc.),
 the Gaussian(R) 94 system (copyright 1995, Gaussian, Inc.),
 the Gaussian 92(TM) system (copyright 1992, Gaussian, Inc.),
 the Gaussian 90(TM) system (copyright 1990, Gaussian, Inc.),
 the Gaussian 88(TM) system (copyright 1988, Gaussian, Inc.),
 the Gaussian 86(TM) system (copyright 1986, Carnegie Mellon
 University), and the Gaussian 82(TM) system (copyright 1983,
 Carnegie Mellon University). Gaussian is a federally registered
 trademark of Gaussian, Inc.
  
 This software contains proprietary and confidential information,
 including trade secrets, belonging to Gaussian, Inc.
  
 This software is provided under written license and may be
 used, copied, transmitted, or stored only in accord with that
 written license.
  
 The following legend is applicable only to US Government
 contracts under FAR:
  
                    RESTRICTED RIGHTS LEGEND
  
 Use, reproduction and disclosure by the US Government is
 subject to restrictions as set forth in subparagraphs (a)
 and (c) of the Commercial Computer Software - Restricted
 Rights clause in FAR 52.227-19.
  
 Gaussian, Inc.
 340 Quinnipiac St., Bldg. 40, Wallingford CT 06492
  
  
 ---------------------------------------------------------------
 Warning -- This program may not be used in any manner that
 competes with the business of Gaussian, Inc. or will provide
 assistance to any competitor of Gaussian, Inc.  The licensee
 of this program is prohibited from giving any competitor of
 Gaussian, Inc. access to this program.  By using this program,
 the user acknowledges that Gaussian, Inc. is engaged in the
 business of creating and licensing software in the field of
 computational chemistry and represents and warrants to the
 licensee that it is not a competitor of Gaussian, Inc. and that
 it will not use this program in any manner prohibited above.
 ---------------------------------------------------------------
  

 Cite this work as:
 Gaussian 16, Revision A.03,
 M. J. Frisch, G. W. Trucks, H. B. Schlegel, G. E. Scuseria, 
 M. A. Robb, J. R. Cheeseman, G. Scalmani, V. Barone, 
 G. A. Petersson, H. Nakatsuji, X. Li, M. Caricato, A. V. Marenich, 
 J. Bloino, B. G. Janesko, R. Gomperts, B. Mennucci, H. P. Hratchian, 
 J. V. Ortiz, A. F. Izmaylov, J. L. Sonnenberg, D. Williams-Young, 
 F. Ding, F. Lipparini, F. Egidi, J. Goings, B. Peng, A. Petrone, 
 T. Henderson, D. Ranasinghe, V. G. Zakrzewski, J. Gao, N. Rega, 
 G. Zheng, W. Liang, M. Hada, M. Ehara, K. Toyota, R. Fukuda, 
 J. Hasegawa, M. Ishida, T. Nakajima, Y. Honda, O. Kitao, H. Nakai, 
 T. Vreven, K. Throssell, J. A. Montgomery, Jr., J. E. Peralta, 
 F. Ogliaro, M. J. Bearpark, J. J. Heyd, E. N. Brothers, K. N. Kudin, 
 V. N. Staroverov, T. A. Keith, R. Kobayashi, J. Normand, 
 K. Raghavachari, A. P. Rendell, J. C. Burant, S. S. Iyengar, 
 J. Tomasi, M. Cossi, J. M. Millam, M. Klene, C. Adamo, R. Cammi, 
 J. W. Ochterski, R. L. Martin, K. Morokuma, O. Farkas, 
 J. B. Foresman, and D. J. Fox, Gaussian, Inc., Wallingford CT, 2016.
 
 ******************************************
 Gaussian 16:  ES64L-G16RevA.03 25-Dec-2016
                23-Jun-2025 
 ******************************************
 %nprocshared=24
 Will use up to   24 processors via shared memory.
 %mem=12GB
 %chk=ethyl_propiolate_ts1.chk
 --------------------------
 # freq 6-311++g(d,p) m062x
 --------------------------
 1/10=4,30=1,38=1/1,3;
 2/12=2,17=6,18=5,40=1/2;
 3/5=4,6=6,7=1111,11=2,25=1,30=1,71=2,74=-55,140=1/1,2,3;
 4//1;
 5/5=2,38=5,98=1/2;
 8/6=4,10=90,11=11/1;
 11/6=1,8=1,9=11,15=111,16=1/1,2,10;
 10/6=1/2;
 6/7=2,8=2,9=2,10=2,28=1/1;
 7/8=1,10=1,25=1/1,2,3,16;
 1/10=4,30=1/3;
 99//99;
 -------------------
 Title Card Required
 -------------------
 Symbolic Z-matrix:
 Charge =  0 Multiplicity = 2
 O                     2.17986   1.37964  -0.01682 
 H                     2.82367   1.22275   0.69217 
 C                     2.45487  -1.18548  -0.54815 
 H                     3.33314  -1.6755   -0.8993 
 C                     1.49252  -0.56002  -0.16725 
 C                     0.16055  -0.19256   0.32736 
 O                    -0.17371  -0.33592   1.4693 
 O                    -0.59334   0.28273  -0.65479 
 C                    -1.9257    0.69565  -0.28772 
 C                    -2.86045  -0.49436  -0.19591 
 H                    -2.21819   1.37836  -1.08331 
 H                    -1.87292   1.23837   0.6567 
 H                    -3.87446  -0.14694   0.01147 
 H                    -2.87003  -1.04481  -1.13788 
 H                    -2.5545   -1.16329   0.60864 
 

 GradGradGradGradGradGradGradGradGradGradGradGradGradGradGradGradGradGrad
 Berny optimization.
 Initialization pass.
 Trust Radius=3.00D-01 FncErr=1.00D-07 GrdErr=1.00D-07 EigMax=2.50D+02 EigMin=1.00D-04
 Number of steps in this run=      2 maximum allowed number of steps=      2.
 GradGradGradGradGradGradGradGradGradGradGradGradGradGradGradGradGradGrad

                          Input orientation:                          
 ---------------------------------------------------------------------
 Center     Atomic      Atomic             Coordinates (Angstroms)
 Number     Number       Type             X           Y           Z
 ---------------------------------------------------------------------
      1          8           0        2.179857    1.379640   -0.016816
      2          1           0        2.823672    1.222752    0.692173
      3          6           0        2.454872   -1.185476   -0.548152
      4          1           0        3.333139   -1.675501   -0.899303
      5          6           0        1.492515   -0.560016   -0.167252
      6          6           0        0.160552   -0.192560    0.327362
      7          8           0       -0.173705   -0.335922    1.469300
      8          8           0       -0.593336    0.282732   -0.654792
      9          6           0       -1.925698    0.695653   -0.287721
     10          6           0       -2.860445   -0.494359   -0.195908
     11          1           0       -2.218188    1.378356   -1.083306
     12          1           0       -1.872920    1.238368    0.656696
     13          1           0       -3.874459   -0.146936    0.011469
     14          1           0       -2.870034   -1.044806   -1.137881
     15          1           0       -2.554504   -1.163289    0.608642
 ---------------------------------------------------------------------
                    Distance matrix (angstroms):
                    1          2          3          4          5
     1  O    0.000000
     2  H    0.970452   0.000000
     3  C    2.633965   2.733858   0.000000
     4  H    3.382710   3.345478   1.065263   0.000000
     5  C    2.063331   2.385131   1.209304   2.273346   0.000000
     6  C    2.582221   3.037829   2.648832   3.710678   1.467580
     7  O    3.269701   3.466650   3.420712   4.438773   2.346233
     8  O    3.049725   3.791292   3.385052   4.394504   2.301889
     9  C    4.170948   4.877965   4.774501   5.801015   3.643542
    10  C    5.380389   6.003861   5.371621   6.344316   4.353549
    11  H    4.525506   5.347606   5.356969   6.338543   4.285529
    12  H    4.110788   4.696752   5.104553   6.165616   3.903745
    13  H    6.243875   6.870543   6.438336   7.423980   5.385813
    14  H    5.712804   6.396030   5.359309   6.239716   4.495439
    15  H    5.410347   5.884297   5.141256   6.099229   4.164650
                    6          7          8          9         10
     6  C    0.000000
     7  O    1.198459   0.000000
     8  O    1.326226   2.251797   0.000000
     9  C    2.349402   2.687145   1.442371   0.000000
    10  C    3.080798   3.164900   2.440129   1.516018   0.000000
    11  H    3.180592   3.692487   2.006031   1.088388   2.169569
    12  H    2.508191   2.454801   2.066537   1.090527   2.168982
    13  H    4.047615   3.982031   3.375542   2.144094   1.091757
    14  H    3.472422   3.817080   2.679382   2.154934   1.091053
    15  H    2.897061   2.663357   2.744708   2.157436   1.090123
                   11         12         13         14         15
    11  H    0.000000
    12  H    1.779442   0.000000
    13  H    2.503654   2.518242   0.000000
    14  H    2.509900   3.070444   1.770888   0.000000
    15  H    3.071768   2.496963   1.769709   1.778747   0.000000
 Stoichiometry    C5H7O3(2)
 Framework group  C1[X(C5H7O3)]
 Deg. of freedom    39
 Full point group                 C1      NOp   1
 Largest Abelian subgroup         C1      NOp   1
 Largest concise Abelian subgroup C1      NOp   1
                         Standard orientation:                         
 ---------------------------------------------------------------------
 Center     Atomic      Atomic             Coordinates (Angstroms)
 Number     Number       Type             X           Y           Z
 ---------------------------------------------------------------------
      1          8           0        2.179857    1.379640   -0.016816
      2          1           0        2.823672    1.222752    0.692173
      3          6           0        2.454872   -1.185476   -0.548152
      4          1           0        3.333139   -1.675501   -0.899303
      5          6           0        1.492515   -0.560016   -0.167252
      6          6           0        0.160552   -0.192560    0.327362
      7          8           0       -0.173705   -0.335922    1.469300
      8          8           0       -0.593336    0.282732   -0.654792
      9          6           0       -1.925698    0.695653   -0.287721
     10          6           0       -2.860445   -0.494359   -0.195908
     11          1           0       -2.218188    1.378356   -1.083306
     12          1           0       -1.872920    1.238368    0.656696
     13          1           0       -3.874459   -0.146936    0.011469
     14          1           0       -2.870034   -1.044806   -1.137881
     15          1           0       -2.554504   -1.163289    0.608642
 ---------------------------------------------------------------------
 Rotational constants (GHZ):           4.0024990           1.1647552           1.1100054
 Standard basis: 6-311++G(d,p) (5D, 7F)
 There are   233 symmetry adapted cartesian basis functions of A   symmetry.
 There are   225 symmetry adapted basis functions of A   symmetry.
   225 basis functions,   351 primitive gaussians,   233 cartesian basis functions
    31 alpha electrons       30 beta electrons
       nuclear repulsion energy       358.7813888921 Hartrees.
 NAtoms=   15 NActive=   15 NUniq=   15 SFac= 1.00D+00 NAtFMM=   60 NAOKFM=F Big=F
 Integral buffers will be    131072 words long.
 Raffenetti 2 integral format.
 Two-electron integral symmetry is turned on.
 One-electron integrals computed using PRISM.
 NBasis=   225 RedAO= T EigKep=  2.13D-06  NBF=   225
 NBsUse=   225 1.00D-06 EigRej= -1.00D+00 NBFU=   225
 ExpMin= 3.60D-02 ExpMax= 8.59D+03 ExpMxC= 1.30D+03 IAcc=3 IRadAn=         5 AccDes= 0.00D+00
 Harris functional with IExCor= 1009 and IRadAn=       5 diagonalized for initial guess.
 HarFok:  IExCor= 1009 AccDes= 0.00D+00 IRadAn=         5 IDoV= 1 UseB2=F ITyADJ=14
 ICtDFT=  3500011 ScaDFX=  1.000000  1.000000  1.000000  1.000000
 FoFCou: FMM=F IPFlag=           0 FMFlag=      100000 FMFlg1=           0
         NFxFlg=           0 DoJE=T BraDBF=F KetDBF=T FulRan=T
         wScrn=  0.000000 ICntrl=       500 IOpCl=  0 I1Cent=   200000004 NGrid=           0
         NMat0=    1 NMatS0=      1 NMatT0=    0 NMatD0=    1 NMtDS0=    0 NMtDT0=    0
 Petite list used in FoFCou.
 Initial guess <Sx>= 0.0000 <Sy>= 0.0000 <Sz>= 0.5000 <S**2>= 0.7500 S= 0.5000
 Requested convergence on RMS density matrix=1.00D-08 within 128 cycles.
 Requested convergence on MAX density matrix=1.00D-06.
 Requested convergence on             energy=1.00D-06.
 No special actions if energy rises.
 Restarting incremental Fock formation.
 SCF Done:  E(UM062X) =  -420.202313666     A.U. after   24 cycles
            NFock= 24  Conv=0.31D-08     -V/T= 2.0032
 <Sx>= 0.0000 <Sy>= 0.0000 <Sz>= 0.5000 <S**2>= 0.7684 S= 0.5092
 <L.S>=  0.00000000000    
 Annihilation of the first spin contaminant:
 S**2 before annihilation     0.7684,   after     0.7501
 DoSCS=F DFT=T ScalE2(SS,OS)=  1.000000  1.000000
 Range of M.O.s used for correlation:     1   225
 NBasis=   225 NAE=    31 NBE=    30 NFC=     0 NFV=     0
 NROrb=    225 NOA=    31 NOB=    30 NVA=   194 NVB=   195

 **** Warning!!: The largest alpha MO coefficient is  0.25781589D+03


 **** Warning!!: The largest beta MO coefficient is  0.26352607D+03

 Symmetrizing basis deriv contribution to polar:
 IMax=3 JMax=2 DiffMx= 0.00D+00
 G2DrvN: will do    16 centers at a time, making    1 passes.
 Calling FoFCou, ICntrl=  3107 FMM=F I1Cent=   0 AccDes= 0.00D+00.
 End of G2Drv F.D. properties file   721 does not exist.
 End of G2Drv F.D. properties file   722 does not exist.
 End of G2Drv F.D. properties file   788 does not exist.
          IDoAtm=111111111111111
          Differentiating once with respect to electric field.
                with respect to dipole field.
          Differentiating once with respect to nuclear coordinates.
 Keep R1 and R2 ints in memory in canonical form, NReq=671901991.
          There are    48 degrees of freedom in the 1st order CPHF.  IDoFFX=6 NUNeed=     3.
     45 vectors produced by pass  0 Test12= 2.47D-14 2.08D-09 XBig12= 8.20D+01 3.65D+00.
 AX will form    45 AO Fock derivatives at one time.
     45 vectors produced by pass  1 Test12= 2.47D-14 2.08D-09 XBig12= 1.18D+01 3.94D-01.
     45 vectors produced by pass  2 Test12= 2.47D-14 2.08D-09 XBig12= 4.69D-01 9.96D-02.
     45 vectors produced by pass  3 Test12= 2.47D-14 2.08D-09 XBig12= 7.79D-03 1.02D-02.
     45 vectors produced by pass  4 Test12= 2.47D-14 2.08D-09 XBig12= 8.15D-05 1.60D-03.
     45 vectors produced by pass  5 Test12= 2.47D-14 2.08D-09 XBig12= 1.02D-06 9.05D-05.
     37 vectors produced by pass  6 Test12= 2.47D-14 2.08D-09 XBig12= 8.39D-09 8.49D-06.
     22 vectors produced by pass  7 Test12= 2.47D-14 2.08D-09 XBig12= 5.65D-11 8.08D-07.
      5 vectors produced by pass  8 Test12= 2.47D-14 2.08D-09 XBig12= 4.79D-13 5.35D-08.
      3 vectors produced by pass  9 Test12= 2.47D-14 2.08D-09 XBig12= 7.74D-15 1.46D-08.
      2 vectors produced by pass 10 Test12= 2.47D-14 2.08D-09 XBig12= 1.50D-15 6.32D-09.
      1 vectors produced by pass 11 Test12= 2.47D-14 2.08D-09 XBig12= 1.44D-16 2.11D-09.
 InvSVY:  IOpt=1 It=  1 EMax= 1.07D-14
 Solved reduced A of dimension   340 with    48 vectors.
 Isotropic polarizability for W=    0.000000       74.60 Bohr**3.
 End of Minotr F.D. properties file   721 does not exist.
 End of Minotr F.D. properties file   722 does not exist.
 End of Minotr F.D. properties file   788 does not exist.

 **********************************************************************

            Population analysis using the SCF density.

 **********************************************************************

 Orbital symmetries:
 Alpha Orbitals:
       Occupied  (A) (A) (A) (A) (A) (A) (A) (A) (A) (A) (A) (A)
                 (A) (A) (A) (A) (A) (A) (A) (A) (A) (A) (A) (A)
                 (A) (A) (A) (A) (A) (A) (A)
       Virtual   (A) (A) (A) (A) (A) (A) (A) (A) (A) (A) (A) (A)
                 (A) (A) (A) (A) (A) (A) (A) (A) (A) (A) (A) (A)
                 (A) (A) (A) (A) (A) (A) (A) (A) (A) (A) (A) (A)
                 (A) (A) (A) (A) (A) (A) (A) (A) (A) (A) (A) (A)
                 (A) (A) (A) (A) (A) (A) (A) (A) (A) (A) (A) (A)
                 (A) (A) (A) (A) (A) (A) (A) (A) (A) (A) (A) (A)
                 (A) (A) (A) (A) (A) (A) (A) (A) (A) (A) (A) (A)
                 (A) (A) (A) (A) (A) (A) (A) (A) (A) (A) (A) (A)
                 (A) (A) (A) (A) (A) (A) (A) (A) (A) (A) (A) (A)
                 (A) (A) (A) (A) (A) (A) (A) (A) (A) (A) (A) (A)
                 (A) (A) (A) (A) (A) (A) (A) (A) (A) (A) (A) (A)
                 (A) (A) (A) (A) (A) (A) (A) (A) (A) (A) (A) (A)
                 (A) (A) (A) (A) (A) (A) (A) (A) (A) (A) (A) (A)
                 (A) (A) (A) (A) (A) (A) (A) (A) (A) (A) (A) (A)
                 (A) (A) (A) (A) (A) (A) (A) (A) (A) (A) (A) (A)
                 (A) (A) (A) (A) (A) (A) (A) (A) (A) (A) (A) (A)
                 (A) (A)
 Beta  Orbitals:
       Occupied  (A) (A) (A) (A) (A) (A) (A) (A) (A) (A) (A) (A)
                 (A) (A) (A) (A) (A) (A) (A) (A) (A) (A) (A) (A)
                 (A) (A) (A) (A) (A) (A)
       Virtual   (A) (A) (A) (A) (A) (A) (A) (A) (A) (A) (A) (A)
                 (A) (A) (A) (A) (A) (A) (A) (A) (A) (A) (A) (A)
                 (A) (A) (A) (A) (A) (A) (A) (A) (A) (A) (A) (A)
                 (A) (A) (A) (A) (A) (A) (A) (A) (A) (A) (A) (A)
                 (A) (A) (A) (A) (A) (A) (A) (A) (A) (A) (A) (A)
                 (A) (A) (A) (A) (A) (A) (A) (A) (A) (A) (A) (A)
                 (A) (A) (A) (A) (A) (A) (A) (A) (A) (A) (A) (A)
                 (A) (A) (A) (A) (A) (A) (A) (A) (A) (A) (A) (A)
                 (A) (A) (A) (A) (A) (A) (A) (A) (A) (A) (A) (A)
                 (A) (A) (A) (A) (A) (A) (A) (A) (A) (A) (A) (A)
                 (A) (A) (A) (A) (A) (A) (A) (A) (A) (A) (A) (A)
                 (A) (A) (A) (A) (A) (A) (A) (A) (A) (A) (A) (A)
                 (A) (A) (A) (A) (A) (A) (A) (A) (A) (A) (A) (A)
                 (A) (A) (A) (A) (A) (A) (A) (A) (A) (A) (A) (A)
                 (A) (A) (A) (A) (A) (A) (A) (A) (A) (A) (A) (A)
                 (A) (A) (A) (A) (A) (A) (A) (A) (A) (A) (A) (A)
                 (A) (A) (A)
 The electronic state is 2-A.
 Alpha  occ. eigenvalues --  -19.68156 -19.66154 -19.63018 -10.70626 -10.60445
 Alpha  occ. eigenvalues --  -10.58874 -10.58213 -10.53720  -1.25668  -1.16348
 Alpha  occ. eigenvalues --   -1.12197  -0.90973  -0.87528  -0.78159  -0.70789
 Alpha  occ. eigenvalues --   -0.64545  -0.61978  -0.58533  -0.56755  -0.54396
 Alpha  occ. eigenvalues --   -0.53449  -0.50483  -0.48307  -0.46291  -0.45251
 Alpha  occ. eigenvalues --   -0.42075  -0.41185  -0.39707  -0.38346  -0.36614
 Alpha  occ. eigenvalues --   -0.34519
 Alpha virt. eigenvalues --   -0.00721  -0.00296   0.00522   0.01537   0.02345
 Alpha virt. eigenvalues --    0.02762   0.03402   0.04110   0.05501   0.06639
 Alpha virt. eigenvalues --    0.07273   0.07796   0.08151   0.09106   0.10383
 Alpha virt. eigenvalues --    0.11080   0.11803   0.12576   0.13174   0.13403
 Alpha virt. eigenvalues --    0.14094   0.14627   0.14968   0.15420   0.15671
 Alpha virt. eigenvalues --    0.16492   0.18052   0.18963   0.19868   0.20987
 Alpha virt. eigenvalues --    0.21447   0.21738   0.22325   0.23628   0.24094
 Alpha virt. eigenvalues --    0.25655   0.26765   0.27105   0.29234   0.29884
 Alpha virt. eigenvalues --    0.30542   0.31410   0.33046   0.33204   0.33935
 Alpha virt. eigenvalues --    0.35065   0.36116   0.37380   0.38631   0.39448
 Alpha virt. eigenvalues --    0.40557   0.43512   0.44474   0.46912   0.48415
 Alpha virt. eigenvalues --    0.51767   0.53931   0.55334   0.56201   0.58613
 Alpha virt. eigenvalues --    0.59819   0.61403   0.63496   0.64892   0.66742
 Alpha virt. eigenvalues --    0.68655   0.70115   0.71400   0.72323   0.72777
 Alpha virt. eigenvalues --    0.73517   0.75644   0.77998   0.78450   0.80263
 Alpha virt. eigenvalues --    0.81426   0.87285   0.92594   0.93603   0.96491
 Alpha virt. eigenvalues --    1.01915   1.05707   1.06123   1.07594   1.09754
 Alpha virt. eigenvalues --    1.14634   1.17683   1.18736   1.20743   1.22826
 Alpha virt. eigenvalues --    1.24730   1.26534   1.29485   1.31964   1.34644
 Alpha virt. eigenvalues --    1.35805   1.36073   1.38457   1.40358   1.45362
 Alpha virt. eigenvalues --    1.46422   1.48606   1.51764   1.53819   1.56875
 Alpha virt. eigenvalues --    1.58459   1.60051   1.60380   1.61840   1.64734
 Alpha virt. eigenvalues --    1.65990   1.68325   1.70873   1.72866   1.74857
 Alpha virt. eigenvalues --    1.78933   1.81706   1.83582   1.85641   1.87424
 Alpha virt. eigenvalues --    1.91688   1.95172   1.99818   2.03996   2.05804
 Alpha virt. eigenvalues --    2.10237   2.11097   2.13357   2.21017   2.31746
 Alpha virt. eigenvalues --    2.35574   2.38052   2.46704   2.51291   2.53135
 Alpha virt. eigenvalues --    2.54348   2.55432   2.60439   2.61902   2.62834
 Alpha virt. eigenvalues --    2.64942   2.66392   2.72633   2.72974   2.76010
 Alpha virt. eigenvalues --    2.80994   2.81189   2.84705   2.91236   2.92078
 Alpha virt. eigenvalues --    2.94900   2.95112   3.00828   3.03242   3.04976
 Alpha virt. eigenvalues --    3.12268   3.13682   3.15108   3.18082   3.18697
 Alpha virt. eigenvalues --    3.25497   3.26199   3.31949   3.36045   3.37925
 Alpha virt. eigenvalues --    3.45062   3.49898   3.65681   3.76699   3.84948
 Alpha virt. eigenvalues --    3.86286   3.88714   3.91473   4.02966   4.13355
 Alpha virt. eigenvalues --    4.19700   4.28200   5.10759   5.13514   5.15455
 Alpha virt. eigenvalues --    5.20739   5.33441   5.47417   5.58821   5.73980
 Alpha virt. eigenvalues --    5.94924  23.61216  23.93401  23.94767  24.05844
 Alpha virt. eigenvalues --   25.05594  49.95953  50.00996  50.11349
  Beta  occ. eigenvalues --  -19.68161 -19.64699 -19.63037 -10.70603 -10.60445
  Beta  occ. eigenvalues --  -10.58913 -10.58007 -10.53720  -1.25674  -1.16387
  Beta  occ. eigenvalues --   -1.05977  -0.90465  -0.87097  -0.77951  -0.70567
  Beta  occ. eigenvalues --   -0.64456  -0.61535  -0.58440  -0.56489  -0.53593
  Beta  occ. eigenvalues --   -0.51713  -0.49216  -0.46630  -0.45247  -0.42044
  Beta  occ. eigenvalues --   -0.39557  -0.39208  -0.38369  -0.37888  -0.35936
  Beta virt. eigenvalues --   -0.09439  -0.00244   0.00161   0.00820   0.01856
  Beta virt. eigenvalues --    0.02441   0.02803   0.03403   0.04188   0.05531
  Beta virt. eigenvalues --    0.06518   0.07393   0.07839   0.08190   0.09184
  Beta virt. eigenvalues --    0.10531   0.11213   0.12272   0.12609   0.13125
  Beta virt. eigenvalues --    0.13416   0.14179   0.14758   0.15050   0.15455
  Beta virt. eigenvalues --    0.16018   0.16926   0.18114   0.18948   0.19951
  Beta virt. eigenvalues --    0.20987   0.21574   0.22027   0.22324   0.23679
  Beta virt. eigenvalues --    0.24256   0.25633   0.26652   0.27241   0.29242
  Beta virt. eigenvalues --    0.29929   0.30589   0.31471   0.33031   0.33279
  Beta virt. eigenvalues --    0.33904   0.35122   0.36132   0.37308   0.38898
  Beta virt. eigenvalues --    0.39474   0.40616   0.43509   0.44492   0.46921
  Beta virt. eigenvalues --    0.48538   0.51750   0.53928   0.55361   0.56660
  Beta virt. eigenvalues --    0.59087   0.60110   0.61665   0.63607   0.64956
  Beta virt. eigenvalues --    0.66835   0.68702   0.70075   0.71426   0.72251
  Beta virt. eigenvalues --    0.72851   0.73589   0.75632   0.77942   0.78517
  Beta virt. eigenvalues --    0.80243   0.81452   0.87296   0.92806   0.93921
  Beta virt. eigenvalues --    0.96507   1.01965   1.06161   1.06378   1.07829
  Beta virt. eigenvalues --    1.11664   1.15166   1.18238   1.19255   1.21178
  Beta virt. eigenvalues --    1.23291   1.25129   1.26790   1.29653   1.32911
  Beta virt. eigenvalues --    1.34947   1.36041   1.36418   1.39090   1.40925
  Beta virt. eigenvalues --    1.46049   1.46871   1.48880   1.51925   1.54463
  Beta virt. eigenvalues --    1.57174   1.58533   1.60083   1.60454   1.61896
  Beta virt. eigenvalues --    1.64760   1.65940   1.68337   1.70905   1.73130
  Beta virt. eigenvalues --    1.74941   1.79401   1.81732   1.83965   1.85770
  Beta virt. eigenvalues --    1.87613   1.91788   1.95598   1.99917   2.04054
  Beta virt. eigenvalues --    2.05964   2.10538   2.12081   2.13383   2.21034
  Beta virt. eigenvalues --    2.31774   2.35580   2.38298   2.46786   2.51296
  Beta virt. eigenvalues --    2.53159   2.54348   2.55468   2.61020   2.62157
  Beta virt. eigenvalues --    2.62889   2.65412   2.66478   2.72915   2.72986
  Beta virt. eigenvalues --    2.76229   2.81252   2.81744   2.87206   2.91754
  Beta virt. eigenvalues --    2.94464   2.95082   2.96544   3.00862   3.04202
  Beta virt. eigenvalues --    3.06903   3.13649   3.14734   3.16115   3.19752
  Beta virt. eigenvalues --    3.20474   3.25870   3.27850   3.31965   3.36351
  Beta virt. eigenvalues --    3.38004   3.45028   3.50537   3.65666   3.76745
  Beta virt. eigenvalues --    3.84950   3.86286   3.91319   3.92056   4.02960
  Beta virt. eigenvalues --    4.13288   4.19639   4.28196   5.12562   5.15350
  Beta virt. eigenvalues --    5.20576   5.21922   5.33515   5.47437   5.61232
  Beta virt. eigenvalues --    5.73977   5.94912  23.61278  23.93405  23.94775
  Beta virt. eigenvalues --   24.05844  25.05950  49.95483  50.00946  50.11374
          Condensed to atoms (all electrons):
               1          2          3          4          5          6
     1  O    8.089092   0.237270  -0.250126  -0.002511   0.425790  -0.250250
     2  H    0.237270   0.506212  -0.111015  -0.002469   0.059337   0.075997
     3  C   -0.250126  -0.111015  27.455780   0.608948  -6.078543 -14.701531
     4  H   -0.002511  -0.002469   0.608948   0.428102  -0.147705  -0.075519
     5  C    0.425790   0.059337  -6.078543  -0.147705  15.915061  -4.254027
     6  C   -0.250250   0.075997 -14.701531  -0.075519  -4.254027  24.683381
     7  O   -0.014036  -0.001663   0.109204  -0.000809   0.280029   0.019312
     8  O   -0.000331  -0.001251  -0.011017  -0.003116  -0.163796   0.043518
     9  C   -0.014643   0.002039  -0.404815  -0.000976  -0.694627   0.869055
    10  C    0.003915  -0.000972   0.042630  -0.000106   0.024288  -0.119493
    11  H   -0.001555   0.000289  -0.028834   0.000119  -0.050783   0.092824
    12  H    0.001605  -0.000527   0.032233  -0.000069   0.063671  -0.105325
    13  H   -0.000034  -0.000014   0.005162   0.000033   0.016666  -0.014565
    14  H    0.000371   0.000000  -0.001488  -0.000220   0.004995  -0.006678
    15  H   -0.000938   0.000242  -0.034180   0.000052  -0.076080   0.089888
               7          8          9         10         11         12
     1  O   -0.014036  -0.000331  -0.014643   0.003915  -0.001555   0.001605
     2  H   -0.001663  -0.001251   0.002039  -0.000972   0.000289  -0.000527
     3  C    0.109204  -0.011017  -0.404815   0.042630  -0.028834   0.032233
     4  H   -0.000809  -0.003116  -0.000976  -0.000106   0.000119  -0.000069
     5  C    0.280029  -0.163796  -0.694627   0.024288  -0.050783   0.063671
     6  C    0.019312   0.043518   0.869055  -0.119493   0.092824  -0.105325
     7  O    7.995810  -0.144552   0.050935  -0.083357   0.001833  -0.014436
     8  O   -0.144552   8.246755   0.139586  -0.056172  -0.094996  -0.005390
     9  C    0.050935   0.139586   5.572218  -0.008968   0.451713   0.378704
    10  C   -0.083357  -0.056172  -0.008968   5.494163  -0.063525  -0.017465
    11  H    0.001833  -0.094996   0.451713  -0.063525   0.528102  -0.034521
    12  H   -0.014436  -0.005390   0.378704  -0.017465  -0.034521   0.514134
    13  H   -0.001606   0.017098  -0.047793   0.401047  -0.003703  -0.003199
    14  H    0.002871  -0.001375  -0.041723   0.423621  -0.009232   0.003492
    15  H    0.001602  -0.020667   0.009839   0.378843   0.010674  -0.010734
              13         14         15
     1  O   -0.000034   0.000371  -0.000938
     2  H   -0.000014   0.000000   0.000242
     3  C    0.005162  -0.001488  -0.034180
     4  H    0.000033  -0.000220   0.000052
     5  C    0.016666   0.004995  -0.076080
     6  C   -0.014565  -0.006678   0.089888
     7  O   -0.001606   0.002871   0.001602
     8  O    0.017098  -0.001375  -0.020667
     9  C   -0.047793  -0.041723   0.009839
    10  C    0.401047   0.423621   0.378843
    11  H   -0.003703  -0.009232   0.010674
    12  H   -0.003199   0.003492  -0.010734
    13  H    0.536034  -0.030886  -0.035755
    14  H   -0.030886   0.537263  -0.046515
    15  H   -0.035755  -0.046515   0.541623
          Atomic-Atomic Spin Densities.
               1          2          3          4          5          6
     1  O    0.926784   0.011541  -0.305803  -0.004102   0.007407   0.175023
     2  H    0.011541  -0.031795   0.026833   0.000419  -0.010321  -0.015169
     3  C   -0.305803   0.026833   1.168230   0.035371  -0.598620  -0.027020
     4  H   -0.004102   0.000419   0.035371  -0.009306  -0.024434  -0.012434
     5  C    0.007407  -0.010321  -0.598620  -0.024434  -0.045719   0.498204
     6  C    0.175023  -0.015169  -0.027020  -0.012434   0.498204  -0.524423
     7  O    0.001649  -0.000090   0.008571  -0.000012   0.013697  -0.022447
     8  O    0.002108   0.000243  -0.014861  -0.000261   0.000073   0.018962
     9  C   -0.000883   0.000521   0.019225   0.000022   0.043762  -0.062434
    10  C   -0.001064   0.000059  -0.007951   0.000072  -0.034414   0.044382
    11  H    0.000265   0.000007   0.003903   0.000002   0.008956  -0.012496
    12  H    0.000248  -0.000088  -0.004697  -0.000030  -0.006418   0.011007
    13  H   -0.000145   0.000025   0.000388   0.000010  -0.001308   0.000365
    14  H    0.000219  -0.000032  -0.002080  -0.000030   0.000493   0.002008
    15  H    0.000031   0.000005   0.005521   0.000015   0.009770  -0.015145
               7          8          9         10         11         12
     1  O    0.001649   0.002108  -0.000883  -0.001064   0.000265   0.000248
     2  H   -0.000090   0.000243   0.000521   0.000059   0.000007  -0.000088
     3  C    0.008571  -0.014861   0.019225  -0.007951   0.003903  -0.004697
     4  H   -0.000012  -0.000261   0.000022   0.000072   0.000002  -0.000030
     5  C    0.013697   0.000073   0.043762  -0.034414   0.008956  -0.006418
     6  C   -0.022447   0.018962  -0.062434   0.044382  -0.012496   0.011007
     7  O   -0.012017   0.000158   0.001456   0.000504   0.000040  -0.000091
     8  O    0.000158  -0.004369   0.000027  -0.002333   0.000580  -0.000300
     9  C    0.001456   0.000027  -0.004152   0.008136  -0.002124  -0.000256
    10  C    0.000504  -0.002333   0.008136  -0.012888   0.002343  -0.000160
    11  H    0.000040   0.000580  -0.002124   0.002343  -0.001105   0.000166
    12  H   -0.000091  -0.000300  -0.000256  -0.000160   0.000166   0.000094
    13  H    0.000408  -0.000249   0.002251  -0.002574   0.000390  -0.000417
    14  H   -0.000362   0.000042  -0.001192   0.001667  -0.000212   0.000182
    15  H   -0.000209   0.000498  -0.002447   0.003498  -0.000470   0.000033
              13         14         15
     1  O   -0.000145   0.000219   0.000031
     2  H    0.000025  -0.000032   0.000005
     3  C    0.000388  -0.002080   0.005521
     4  H    0.000010  -0.000030   0.000015
     5  C   -0.001308   0.000493   0.009770
     6  C    0.000365   0.002008  -0.015145
     7  O    0.000408  -0.000362  -0.000209
     8  O   -0.000249   0.000042   0.000498
     9  C    0.002251  -0.001192  -0.002447
    10  C   -0.002574   0.001667   0.003498
    11  H    0.000390  -0.000212  -0.000470
    12  H   -0.000417   0.000182   0.000033
    13  H    0.000578  -0.000172   0.000752
    14  H   -0.000172   0.000010  -0.000556
    15  H    0.000752  -0.000556  -0.001121
 Mulliken charges and spin densities:
               1          2
     1  O   -0.223619   0.813276
     2  H    0.236525  -0.017842
     3  C   -0.632407   0.307012
     4  H    0.196245  -0.014697
     5  C    0.675724  -0.138872
     6  C   -0.346586   0.058382
     7  O   -0.201136  -0.008746
     8  O    0.055704   0.000317
     9  C   -0.260545   0.001912
    10  C   -0.418450  -0.000723
    11  H    0.201594   0.000244
    12  H    0.197827  -0.000727
    13  H    0.161514   0.000302
    14  H    0.165503  -0.000015
    15  H    0.192106   0.000176
 Sum of Mulliken charges =  -0.00000   1.00000
 Mulliken charges and spin densities with hydrogens summed into heavy atoms:
               1          2
     1  O    0.012906   0.795434
     3  C   -0.436162   0.292315
     5  C    0.675724  -0.138872
     6  C   -0.346586   0.058382
     7  O   -0.201136  -0.008746
     8  O    0.055704   0.000317
     9  C    0.138877   0.001428
    10  C    0.100673  -0.000259
 APT charges:
               1
     1  O   -0.137430
     2  H    0.255669
     3  C   -0.152643
     4  H    0.235187
     5  C   -0.475208
     6  C    1.474260
     7  O   -0.776737
     8  O   -0.942385
     9  C    0.536376
    10  C   -0.036779
    11  H   -0.013660
    12  H   -0.011812
    13  H    0.007944
    14  H    0.008707
    15  H    0.028510
 Sum of APT charges =  -0.00000
 APT charges with hydrogens summed into heavy atoms:
               1
     1  O    0.118239
     3  C    0.082544
     5  C   -0.475208
     6  C    1.474260
     7  O   -0.776737
     8  O   -0.942385
     9  C    0.510904
    10  C    0.008382
 Electronic spatial extent (au):  <R**2>=           1132.1392
 Charge=             -0.0000 electrons
 Dipole moment (field-independent basis, Debye):
    X=              0.1791    Y=             -0.8900    Z=             -0.7833  Tot=              1.1991
 Quadrupole moment (field-independent basis, Debye-Ang):
   XX=            -32.0476   YY=            -46.6113   ZZ=            -51.8589
   XY=             -5.9527   XZ=              2.2431   YZ=              4.0661
 Traceless Quadrupole moment (field-independent basis, Debye-Ang):
   XX=             11.4583   YY=             -3.1054   ZZ=             -8.3530
   XY=             -5.9527   XZ=              2.2431   YZ=              4.0661
 Octapole moment (field-independent basis, Debye-Ang**2):
  XXX=             28.7595  YYY=              3.3161  ZZZ=             -3.2498  XYY=              3.2267
  XXY=             -8.3005  XXZ=              1.5398  XZZ=              2.5798  YZZ=              4.3225
  YYZ=              0.4142  XYZ=             11.0159
 Hexadecapole moment (field-independent basis, Debye-Ang**3):
 XXXX=           -901.3354 YYYY=           -237.8459 ZZZZ=           -183.6813 XXXY=            -44.3653
 XXXZ=              3.4474 YYYX=             -5.0914 YYYZ=              5.1588 ZZZX=              7.3995
 ZZZY=              2.6091 XXYY=           -190.8764 XXZZ=           -197.0600 YYZZ=            -64.4958
 XXYZ=             32.8944 YYXZ=             -0.1016 ZZXY=              1.5843
 N-N= 3.587813888921D+02 E-N=-1.702391137555D+03  KE= 4.188556164941D+02
  Exact polarizability:  86.420  -5.717  76.953  -3.577   4.895  60.434
 Approx polarizability:  87.742 -12.419  84.564  -7.435   4.288  78.554
                          Isotropic Fermi Contact Couplings
        Atom                 a.u.       MegaHertz       Gauss      10(-4) cm-1
     1  O(17)              0.13242     -80.27068     -28.64257     -26.77542
     2  H(1)              -0.01383     -61.83751     -22.06516     -20.62677
     3  C(13)              0.04454      50.06914      17.86591      16.70127
     4  H(1)              -0.00518     -23.16594      -8.26618      -7.72733
     5  C(13)              0.01415      15.91108       5.67747       5.30736
     6  C(13)              0.01390      15.62203       5.57433       5.21095
     7  O(17)             -0.00327       1.98504       0.70831       0.66214
     8  O(17)             -0.00013       0.07723       0.02756       0.02576
     9  C(13)             -0.00003      -0.03026      -0.01080      -0.01009
    10  C(13)             -0.00016      -0.17623      -0.06288      -0.05879
    11  H(1)              -0.00001      -0.05266      -0.01879      -0.01756
    12  H(1)              -0.00007      -0.29952      -0.10688      -0.09991
    13  H(1)               0.00002       0.10758       0.03839       0.03588
    14  H(1)              -0.00000      -0.00059      -0.00021      -0.00020
    15  H(1)               0.00001       0.04793       0.01710       0.01599
 --------------------------------------------------------
       Center         ----  Spin Dipole Couplings  ----
                      3XX-RR        3YY-RR        3ZZ-RR
 --------------------------------------------------------
     1   Atom       -1.585705      3.080559     -1.494854
     2   Atom        0.003436     -0.037514      0.034078
     3   Atom       -0.089094      0.232858     -0.143764
     4   Atom        0.013171      0.005509     -0.018680
     5   Atom        0.044436     -0.008075     -0.036361
     6   Atom        0.018751     -0.002943     -0.015808
     7   Atom        0.044896     -0.058096      0.013200
     8   Atom        0.013849     -0.016524      0.002676
     9   Atom        0.003684     -0.001767     -0.001917
    10   Atom        0.001416     -0.000608     -0.000808
    11   Atom        0.002356     -0.001172     -0.001185
    12   Atom        0.003209     -0.001555     -0.001654
    13   Atom        0.000993     -0.000440     -0.000553
    14   Atom        0.001171     -0.000438     -0.000733
    15   Atom        0.001226     -0.000407     -0.000819
 --------------------------------------------------------
                        XY            XZ            YZ
 --------------------------------------------------------
     1   Atom        0.311175      0.040931      0.773573
     2   Atom       -0.019591      0.130793     -0.013647
     3   Atom        0.210474      0.025049      0.007679
     4   Atom       -0.014593     -0.013858      0.009942
     5   Atom       -0.022280     -0.028613      0.016511
     6   Atom        0.014794     -0.007921     -0.002002
     7   Atom        0.006372     -0.003480     -0.020793
     8   Atom        0.001294      0.006617      0.001749
     9   Atom        0.000300      0.000026     -0.000004
    10   Atom        0.000412     -0.000012      0.000016
    11   Atom       -0.000156      0.000813     -0.000009
    12   Atom        0.000061     -0.000943      0.000090
    13   Atom        0.000258     -0.000055      0.000008
    14   Atom        0.000571      0.000324      0.000127
    15   Atom        0.000745     -0.000414     -0.000093
 --------------------------------------------------------


 ---------------------------------------------------------------------------------
              Anisotropic Spin Dipole Couplings in Principal Axis System
 ---------------------------------------------------------------------------------

       Atom             a.u.   MegaHertz   Gauss  10(-4) cm-1        Axes

              Baa    -1.6270   117.728    42.008    39.270  0.4350 -0.1739  0.8835
     1 O(17)  Bbb    -1.6013   115.866    41.344    38.649  0.8981  0.0130 -0.4396
              Bcc     3.2283  -233.594   -83.352   -77.919  0.0650  0.9847  0.1618
 
              Baa    -0.1134   -60.478   -21.580   -20.173  0.7494  0.0752 -0.6579
     2 H(1)   Bbb    -0.0399   -21.300    -7.600    -7.105  0.0239  0.9898  0.1403
              Bcc     0.1533    81.778    29.181    27.278  0.6617 -0.1209  0.7399
 
              Baa    -0.1997   -26.793    -9.560    -8.937  0.8524 -0.4090 -0.3258
     3 C(13)  Bbb    -0.1379   -18.501    -6.602    -6.171  0.2764 -0.1765  0.9447
              Bcc     0.3375    45.294    16.162    15.108  0.4439  0.8953  0.0374
 
              Baa    -0.0246   -13.137    -4.688    -4.382  0.2779 -0.1770  0.9442
     4 H(1)   Bbb    -0.0057    -3.058    -1.091    -1.020  0.5988  0.8005 -0.0262
              Bcc     0.0304    16.195     5.779     5.402  0.7512 -0.5726 -0.3284
 
              Baa    -0.0479    -6.429    -2.294    -2.144  0.2275 -0.2615  0.9380
     5 C(13)  Bbb    -0.0154    -2.064    -0.737    -0.689  0.4080  0.9002  0.1520
              Bcc     0.0633     8.493     3.031     2.833  0.8842 -0.3481 -0.3116
 
              Baa    -0.0177    -2.375    -0.847    -0.792  0.2615 -0.1325  0.9561
     6 C(13)  Bbb    -0.0100    -1.344    -0.479    -0.448 -0.3939  0.8896  0.2311
              Bcc     0.0277     3.719     1.327     1.240  0.8811  0.4370 -0.1805
 
              Baa    -0.0640     4.629     1.652     1.544 -0.0482  0.9650  0.2578
     7 O(17)  Bbb     0.0179    -1.295    -0.462    -0.432  0.1807 -0.2454  0.9524
              Bcc     0.0461    -3.334    -1.190    -1.112  0.9824  0.0925 -0.1625
 
              Baa    -0.0167     1.208     0.431     0.403 -0.0246  0.9964 -0.0816
     8 O(17)  Bbb    -0.0003     0.024     0.009     0.008 -0.4268  0.0633  0.9021
              Bcc     0.0170    -1.232    -0.440    -0.411  0.9040  0.0570  0.4237
 
              Baa    -0.0019    -0.257    -0.092    -0.086 -0.0069  0.0397  0.9992
     9 C(13)  Bbb    -0.0018    -0.239    -0.085    -0.080 -0.0545  0.9977 -0.0400
              Bcc     0.0037     0.497     0.177     0.166  0.9985  0.0548  0.0047
 
              Baa    -0.0008    -0.109    -0.039    -0.036  0.0314 -0.1419  0.9894
    10 C(13)  Bbb    -0.0007    -0.092    -0.033    -0.031 -0.1894  0.9711  0.1453
              Bcc     0.0015     0.201     0.072     0.067  0.9814  0.1920 -0.0036
 
              Baa    -0.0014    -0.729    -0.260    -0.243 -0.2169 -0.1313  0.9673
    11 H(1)   Bbb    -0.0012    -0.627    -0.224    -0.209  0.0122  0.9905  0.1372
              Bcc     0.0025     1.356     0.484     0.452  0.9761 -0.0416  0.2132
 
              Baa    -0.0019    -0.994    -0.355    -0.332  0.1776 -0.3067  0.9351
    12 H(1)   Bbb    -0.0015    -0.813    -0.290    -0.271  0.0482  0.9518  0.3030
              Bcc     0.0034     1.807     0.645     0.603  0.9829  0.0087 -0.1838
 
              Baa    -0.0006    -0.298    -0.106    -0.099  0.0714 -0.2208  0.9727
    13 H(1)   Bbb    -0.0005    -0.257    -0.092    -0.086 -0.1595  0.9601  0.2297
              Bcc     0.0010     0.555     0.198     0.185  0.9846  0.1715 -0.0333
 
              Baa    -0.0008    -0.423    -0.151    -0.141 -0.1119 -0.1714  0.9788
    14 H(1)   Bbb    -0.0006    -0.329    -0.118    -0.110 -0.3227  0.9379  0.1274
              Bcc     0.0014     0.752     0.268     0.251  0.9399  0.3016  0.1602
 
              Baa    -0.0009    -0.486    -0.173    -0.162  0.2534 -0.2005  0.9464
    15 H(1)   Bbb    -0.0007    -0.362    -0.129    -0.121 -0.2984  0.9144  0.2736
              Bcc     0.0016     0.848     0.302     0.283  0.9202  0.3517 -0.1719
 

 ---------------------------------------------------------------------------------

 Calling FoFJK, ICntrl=    100127 FMM=F ISym2X=0 I1Cent= 0 IOpClX= 1 NMat=1 NMatS=1 NMatT=0.
 Full mass-weighted force constant matrix:
 Low frequencies --- -392.5256  -54.1318  -32.5612  -13.8358   -0.0006   -0.0005
 Low frequencies ---    0.0006   24.7668   62.1741
 ******    2 imaginary frequencies (negative Signs) ****** 
 Diagonal vibrational polarizability:
      306.6297021     178.5515986      65.5502496
 Harmonic frequencies (cm**-1), IR intensities (KM/Mole), Raman scattering
 activities (A**4/AMU), depolarization ratios for plane and unpolarized
 incident light, reduced masses (AMU), force constants (mDyne/A),
 and normal coordinates:
                      1                      2                      3
                      A                      A                      A
 Frequencies --   -392.5248               -22.6816                60.5111
 Red. masses --     11.8891                 4.7636                 3.8452
 Frc consts  --      1.0793                 0.0014                 0.0083
 IR Inten    --     51.9981                 7.8701                 2.2678
  Atom  AN      X      Y      Z        X      Y      Z        X      Y      Z
     1   8    -0.18  -0.50  -0.04     0.20  -0.08   0.27     0.21  -0.03  -0.10
     2   1    -0.06  -0.14  -0.09    -0.13  -0.25   0.53     0.21  -0.08  -0.12
     3   6    -0.06   0.00   0.02    -0.07   0.01  -0.13    -0.13  -0.05  -0.02
     4   1    -0.19  -0.22   0.00    -0.08   0.00  -0.15    -0.18  -0.12  -0.06
     5   6     0.29   0.70   0.07    -0.03   0.04  -0.09    -0.06   0.03   0.02
     6   6     0.03   0.10   0.01    -0.01   0.08  -0.07    -0.02   0.09   0.07
     7   8     0.01  -0.05  -0.02     0.04   0.22  -0.04    -0.01   0.06   0.07
     8   8     0.00  -0.01  -0.00    -0.07  -0.05  -0.09    -0.02   0.15   0.10
     9   6    -0.01  -0.01  -0.00    -0.07  -0.07  -0.09    -0.09  -0.05   0.09
    10   6    -0.00  -0.01  -0.00    -0.00  -0.10   0.14     0.05  -0.18  -0.20
    11   1    -0.00  -0.01  -0.00    -0.15  -0.20  -0.18    -0.11   0.06   0.19
    12   1     0.00  -0.01  -0.01    -0.05   0.07  -0.17    -0.21  -0.21   0.19
    13   1    -0.00  -0.01  -0.00    -0.01  -0.13   0.13    -0.00  -0.35  -0.18
    14   1    -0.01  -0.01  -0.00    -0.02  -0.25   0.22     0.18   0.00  -0.31
    15   1    -0.00  -0.01  -0.00     0.07   0.04   0.22     0.10  -0.30  -0.31
                      4                      5                      6
                      A                      A                      A
 Frequencies --    113.1918               129.7680               162.4637
 Red. masses --      4.1122                 4.9483                 2.4870
 Frc consts  --      0.0310                 0.0491                 0.0387
 IR Inten    --      0.9033                17.7859                13.2103
  Atom  AN      X      Y      Z        X      Y      Z        X      Y      Z
     1   8     0.08   0.01  -0.04     0.32  -0.03  -0.13    -0.06  -0.01   0.02
     2   1     0.15  -0.01  -0.11    -0.25  -0.00   0.38    -0.31   0.01   0.25
     3   6    -0.01  -0.03   0.13     0.13   0.20   0.13     0.06  -0.11   0.18
     4   1    -0.00  -0.08   0.23     0.24   0.34   0.22     0.11  -0.18   0.40
     5   6    -0.03   0.02   0.00     0.01   0.09   0.01    -0.00  -0.02  -0.11
     6   6    -0.06   0.02  -0.07    -0.05  -0.06  -0.03     0.02   0.04  -0.12
     7   8    -0.16  -0.18  -0.13    -0.04  -0.12  -0.03     0.10   0.05  -0.09
     8   8     0.03   0.21  -0.04    -0.10  -0.11  -0.01    -0.05   0.06  -0.05
     9   6    -0.03   0.04  -0.05    -0.06  -0.02   0.04    -0.03   0.01   0.12
    10   6     0.16  -0.09   0.21    -0.19   0.08   0.01    -0.00  -0.03  -0.00
    11   1    -0.17  -0.14  -0.15    -0.02   0.05   0.09    -0.10   0.13   0.25
    12   1    -0.07   0.22  -0.14     0.01  -0.08   0.07     0.04  -0.15   0.20
    13   1     0.10  -0.19   0.12    -0.14   0.19   0.10     0.04  -0.10   0.31
    14   1     0.25  -0.29   0.33    -0.32   0.15  -0.02    -0.20   0.22  -0.15
    15   1     0.24   0.14   0.36    -0.23  -0.01  -0.05     0.18  -0.23  -0.24
                      7                      8                      9
                      A                      A                      A
 Frequencies --    195.8922               229.9948               255.8845
 Red. masses --      1.3874                 1.3201                 2.7531
 Frc consts  --      0.0314                 0.0411                 0.1062
 IR Inten    --     45.2103                 1.5947                12.8836
  Atom  AN      X      Y      Z        X      Y      Z        X      Y      Z
     1   8     0.04   0.07   0.07     0.00  -0.02  -0.01     0.06   0.19  -0.02
     2   1     0.72  -0.06  -0.59     0.00   0.01  -0.01    -0.46   0.27   0.47
     3   6    -0.01  -0.04   0.04    -0.01   0.04  -0.04    -0.16  -0.18  -0.03
     4   1    -0.05  -0.14   0.08    -0.02   0.09  -0.12    -0.32  -0.43  -0.08
     5   6     0.03   0.06  -0.01    -0.01  -0.02   0.06     0.07   0.13   0.04
     6   6     0.01   0.01  -0.02    -0.02  -0.01   0.02     0.04   0.01   0.02
     7   8     0.01  -0.01  -0.03    -0.09   0.02   0.01     0.00  -0.09  -0.00
     8   8    -0.03  -0.05  -0.03     0.03  -0.02  -0.02     0.03  -0.05  -0.00
     9   6    -0.02  -0.03   0.00     0.04  -0.00  -0.03     0.03  -0.03  -0.03
    10   6    -0.07   0.01   0.01     0.05  -0.01   0.02    -0.03   0.02   0.01
    11   1    -0.02  -0.00   0.02     0.02  -0.01  -0.03     0.05  -0.04  -0.05
    12   1     0.02  -0.05   0.01     0.06   0.01  -0.03     0.04  -0.00  -0.05
    13   1    -0.03   0.05   0.12     0.16  -0.05   0.60     0.01   0.08   0.10
    14   1    -0.18   0.07  -0.02    -0.39   0.27  -0.13    -0.15   0.04  -0.00
    15   1    -0.03  -0.05  -0.06     0.40  -0.24  -0.31    -0.00  -0.02  -0.03
                     10                     11                     12
                      A                      A                      A
 Frequencies --    338.1495               417.3909               562.4690
 Red. masses --      2.8889                 3.7748                 3.6486
 Frc consts  --      0.1946                 0.3875                 0.6801
 IR Inten    --     12.0101                 0.4600                 7.3655
  Atom  AN      X      Y      Z        X      Y      Z        X      Y      Z
     1   8     0.01   0.02  -0.00     0.02   0.03   0.00     0.01  -0.00   0.01
     2   1     0.01   0.07   0.01     0.05  -0.12  -0.05     0.07   0.41   0.04
     3   6    -0.02  -0.00  -0.03    -0.10   0.05   0.07     0.13  -0.09  -0.08
     4   1    -0.06  -0.01  -0.11    -0.06   0.03   0.20     0.04  -0.08  -0.34
     5   6     0.03   0.01   0.08    -0.13   0.10  -0.11     0.22  -0.08   0.21
     6   6    -0.02  -0.01  -0.06    -0.09  -0.07   0.01     0.01  -0.02  -0.05
     7   8    -0.18   0.09  -0.09     0.08  -0.05   0.07     0.01   0.01  -0.05
     8   8     0.00  -0.09  -0.11    -0.13  -0.20  -0.00    -0.15  -0.03   0.02
     9   6     0.11  -0.02   0.21     0.02   0.16  -0.02    -0.20   0.17   0.01
    10   6     0.08  -0.00   0.02     0.23   0.05  -0.04     0.00   0.01  -0.01
    11   1     0.04   0.22   0.45     0.09   0.16  -0.05    -0.13   0.08  -0.09
    12   1     0.32  -0.30   0.35     0.11   0.18  -0.03    -0.20   0.25  -0.04
    13   1     0.01  -0.01  -0.30     0.10  -0.34  -0.03    -0.13  -0.40   0.02
    14   1     0.37  -0.01   0.02     0.48   0.10  -0.07     0.24   0.06  -0.04
    15   1    -0.15   0.01   0.11     0.49   0.11  -0.09     0.29   0.07  -0.07
                     13                     14                     15
                      A                      A                      A
 Frequencies --    607.2301               698.0552               701.6576
 Red. masses --      6.4201                 1.1382                 1.3057
 Frc consts  --      1.3948                 0.3268                 0.3787
 IR Inten    --     11.7665                94.9167                16.7439
  Atom  AN      X      Y      Z        X      Y      Z        X      Y      Z
     1   8    -0.01  -0.05  -0.00     0.01  -0.04   0.02     0.00   0.03  -0.00
     2   1     0.07   0.17  -0.03     0.20   0.91   0.07    -0.04  -0.26  -0.03
     3   6    -0.23   0.11   0.08    -0.04  -0.04  -0.01    -0.03  -0.13   0.07
     4   1    -0.23   0.43  -0.35     0.18   0.26   0.13     0.25   0.77  -0.50
     5   6    -0.15  -0.06   0.40    -0.02   0.01  -0.05     0.02   0.04  -0.03
     6   6    -0.03   0.06  -0.12    -0.02  -0.04  -0.00     0.00  -0.01  -0.00
     7   8     0.31  -0.10  -0.04    -0.00   0.01   0.01    -0.01   0.01  -0.00
     8   8     0.01   0.06  -0.21     0.01   0.01   0.01     0.00   0.00   0.01
     9   6     0.03  -0.03  -0.02     0.02  -0.01  -0.00    -0.00   0.00   0.00
    10   6    -0.01  -0.01   0.01     0.00  -0.00  -0.00    -0.00  -0.00   0.00
    11   1    -0.11   0.14   0.17     0.01  -0.02  -0.00     0.00  -0.01  -0.01
    12   1     0.17  -0.22   0.08     0.00  -0.01  -0.00    -0.01   0.02  -0.01
    13   1     0.02   0.09  -0.01     0.02   0.04  -0.00    -0.00  -0.01  -0.00
    14   1    -0.06  -0.08   0.05    -0.02  -0.00   0.00     0.00   0.01  -0.00
    15   1    -0.07   0.03   0.06    -0.02  -0.01   0.00    -0.00  -0.01  -0.00
                     16                     17                     18
                      A                      A                      A
 Frequencies --    733.6814               772.1904               799.8192
 Red. masses --      1.3284                 9.0012                 1.1891
 Frc consts  --      0.4213                 3.1623                 0.4482
 IR Inten    --     23.8925                60.5766                 4.9274
  Atom  AN      X      Y      Z        X      Y      Z        X      Y      Z
     1   8    -0.00   0.02  -0.01    -0.02  -0.06   0.00    -0.00  -0.00  -0.00
     2   1    -0.05  -0.26  -0.03     0.02   0.22   0.03     0.00   0.00  -0.00
     3   6    -0.07  -0.04  -0.12     0.01  -0.03  -0.01    -0.03   0.02   0.01
     4   1     0.47   0.28   0.77     0.25   0.32   0.10    -0.03   0.02   0.00
     5   6     0.04   0.01   0.07    -0.07  -0.14  -0.07    -0.02  -0.01   0.02
     6   6    -0.00  -0.01  -0.01     0.25   0.69   0.16     0.02   0.02  -0.03
     7   8     0.01   0.00  -0.00    -0.09  -0.19  -0.05     0.01   0.00  -0.05
     8   8     0.00   0.00  -0.00    -0.07  -0.19  -0.02    -0.01  -0.01   0.03
     9   6    -0.01   0.01   0.00    -0.01   0.01  -0.01     0.03  -0.02   0.07
    10   6    -0.00  -0.00   0.00     0.00   0.02  -0.00     0.02   0.00   0.03
    11   1    -0.01   0.00  -0.00     0.05   0.11   0.05    -0.08  -0.45  -0.26
    12   1    -0.01   0.01   0.00     0.07  -0.09   0.03     0.02   0.46  -0.21
    13   1    -0.01  -0.02   0.00    -0.03  -0.10   0.02    -0.01   0.06  -0.18
    14   1     0.01   0.00  -0.00     0.08  -0.02   0.02     0.17   0.38  -0.19
    15   1     0.01   0.00  -0.00     0.14   0.09   0.00    -0.25  -0.35  -0.16
                     19                     20                     21
                      A                      A                      A
 Frequencies --    895.8260               927.6866              1077.7728
 Red. masses --      3.1478                 2.8740                 4.1130
 Frc consts  --      1.4883                 1.4573                 2.8149
 IR Inten    --     15.4951                 7.3082                20.3070
  Atom  AN      X      Y      Z        X      Y      Z        X      Y      Z
     1   8    -0.00  -0.00  -0.00     0.00   0.01  -0.00     0.00   0.01   0.00
     2   1     0.00  -0.03  -0.01    -0.01  -0.01   0.01    -0.00  -0.01  -0.00
     3   6    -0.03   0.02   0.01     0.10  -0.06  -0.04     0.06  -0.03  -0.03
     4   1    -0.04   0.02  -0.01     0.11  -0.06  -0.05     0.06  -0.04  -0.05
     5   6    -0.01  -0.01   0.07     0.08  -0.01  -0.01     0.04  -0.01   0.02
     6   6     0.03   0.01  -0.10    -0.14   0.05   0.06    -0.14   0.07  -0.02
     7   8     0.00   0.03  -0.15     0.01  -0.04   0.14     0.02  -0.01   0.01
     8   8    -0.13  -0.02   0.23    -0.14   0.06  -0.13    -0.20   0.07   0.06
     9   6     0.05  -0.12  -0.03    -0.01  -0.10  -0.02     0.36   0.10  -0.08
    10   6     0.15   0.06  -0.07     0.17   0.05   0.00    -0.12  -0.16   0.01
    11   1     0.20  -0.06  -0.04    -0.41  -0.14   0.09     0.40   0.19  -0.02
    12   1    -0.33  -0.21   0.06     0.02  -0.11  -0.01     0.47   0.17  -0.11
    13   1     0.34   0.53   0.11     0.33   0.61  -0.12    -0.15  -0.25   0.00
    14   1    -0.27  -0.21   0.10    -0.10   0.18  -0.07    -0.14  -0.24   0.05
    15   1     0.05   0.28   0.15    -0.27  -0.11   0.03    -0.17  -0.26  -0.03
                     22                     23                     24
                      A                      A                      A
 Frequencies --   1127.8625              1202.9582              1290.7208
 Red. masses --      2.0937                 1.7733                 3.6243
 Frc consts  --      1.5692                 1.5119                 3.5575
 IR Inten    --     20.2119                 6.0656               572.6930
  Atom  AN      X      Y      Z        X      Y      Z        X      Y      Z
     1   8    -0.00  -0.00   0.00     0.00   0.00   0.00    -0.00  -0.01  -0.00
     2   1     0.00   0.00   0.00     0.00   0.00   0.00    -0.00  -0.02   0.00
     3   6    -0.01   0.01   0.01     0.02  -0.01  -0.01    -0.06   0.04   0.03
     4   1    -0.01   0.01   0.01     0.02  -0.01  -0.01    -0.07   0.05   0.05
     5   6    -0.01   0.00  -0.00     0.01   0.00  -0.00    -0.01  -0.00  -0.01
     6   6     0.03  -0.01   0.00    -0.06   0.03  -0.00     0.35  -0.15   0.11
     7   8    -0.00  -0.00  -0.01     0.01  -0.01   0.03    -0.05   0.01   0.01
     8   8     0.04  -0.06  -0.02     0.00   0.01  -0.07    -0.17   0.07  -0.07
     9   6    -0.05   0.22   0.05     0.04  -0.04   0.18     0.11   0.01  -0.01
    10   6     0.06  -0.17  -0.04    -0.03   0.02  -0.13    -0.02   0.02  -0.06
    11   1    -0.05   0.14  -0.02     0.19  -0.41  -0.19    -0.76  -0.13   0.16
    12   1    -0.15   0.23   0.06    -0.17   0.41  -0.06     0.10   0.15  -0.08
    13   1     0.25   0.43  -0.00     0.03  -0.06   0.28    -0.02  -0.08   0.10
    14   1    -0.51  -0.24   0.01    -0.12  -0.39   0.12    -0.07  -0.24   0.09
    15   1    -0.43  -0.15   0.16     0.23   0.40   0.10     0.04   0.10  -0.01
                     25                     26                     27
                      A                      A                      A
 Frequencies --   1348.6505              1400.6971              1430.7727
 Red. masses --      1.2516                 1.2839                 1.3905
 Frc consts  --      1.3413                 1.4842                 1.6772
 IR Inten    --    107.3429                34.5097                 7.0280
  Atom  AN      X      Y      Z        X      Y      Z        X      Y      Z
     1   8     0.00   0.00   0.00    -0.00  -0.00  -0.00    -0.00  -0.00  -0.00
     2   1     0.00   0.00   0.00    -0.00  -0.00   0.00    -0.00  -0.00   0.00
     3   6     0.01  -0.01  -0.00    -0.01   0.01   0.00    -0.01   0.01   0.00
     4   1     0.01  -0.01  -0.01    -0.01   0.01   0.01    -0.01   0.01   0.01
     5   6     0.00  -0.00   0.00    -0.00  -0.00  -0.00    -0.00  -0.00  -0.00
     6   6    -0.06   0.03  -0.03     0.05  -0.02   0.01     0.06  -0.02   0.01
     7   8     0.01   0.00  -0.02    -0.01   0.00   0.01    -0.01   0.00   0.01
     8   8     0.05  -0.02   0.08    -0.03   0.03  -0.02    -0.03   0.03  -0.02
     9   6    -0.04  -0.00  -0.00    -0.05  -0.02   0.01    -0.11  -0.07   0.01
    10   6    -0.01  -0.01  -0.06    -0.06  -0.11   0.00     0.09   0.05  -0.01
    11   1    -0.55  -0.09   0.11     0.37   0.14  -0.01     0.54   0.17  -0.02
    12   1     0.76   0.10  -0.12     0.27   0.15  -0.10     0.49   0.18  -0.16
    13   1     0.03   0.04   0.06     0.16   0.51   0.01    -0.04  -0.31  -0.04
    14   1    -0.06  -0.10   0.00     0.29   0.30  -0.22    -0.34  -0.09   0.07
    15   1     0.09   0.17   0.05     0.34   0.26   0.15    -0.32  -0.09   0.03
                     28                     29                     30
                      A                      A                      A
 Frequencies --   1492.1033              1502.7758              1514.9949
 Red. masses --      1.0408                 1.0606                 1.0855
 Frc consts  --      1.3653                 1.4113                 1.4679
 IR Inten    --     10.5202                 1.5222                15.8897
  Atom  AN      X      Y      Z        X      Y      Z        X      Y      Z
     1   8     0.00   0.00   0.00     0.00   0.00   0.00     0.00   0.00   0.00
     2   1    -0.00   0.00   0.00     0.00   0.00   0.00    -0.00   0.00   0.00
     3   6     0.00  -0.00  -0.00     0.00  -0.00  -0.00     0.00  -0.00  -0.00
     4   1    -0.00  -0.00  -0.00     0.00  -0.00  -0.00     0.00  -0.00  -0.00
     5   6    -0.00   0.00   0.00    -0.00   0.00   0.00    -0.00   0.00   0.00
     6   6    -0.00   0.00   0.00    -0.02   0.00   0.00    -0.02   0.01   0.01
     7   8     0.00   0.00  -0.01     0.00   0.00  -0.01     0.01   0.00  -0.01
     8   8     0.00  -0.00   0.00     0.01  -0.01   0.00     0.02  -0.01   0.01
     9   6    -0.02  -0.01  -0.02    -0.01  -0.05   0.01     0.04  -0.05  -0.01
    10   6    -0.01   0.02  -0.04    -0.02   0.03   0.02     0.02  -0.03  -0.01
    11   1     0.04   0.12   0.06    -0.03   0.35   0.34    -0.15   0.31   0.35
    12   1     0.01   0.04  -0.05    -0.14   0.42  -0.25    -0.28   0.33  -0.21
    13   1     0.15   0.06   0.65     0.02   0.22  -0.20    -0.05  -0.26   0.10
    14   1     0.55  -0.15   0.06     0.04  -0.32   0.21    -0.13   0.36  -0.22
    15   1    -0.42  -0.16  -0.01     0.25  -0.28  -0.34    -0.18   0.31   0.34
                     31                     32                     33
                      A                      A                      A
 Frequencies --   1844.9735              2174.6270              3075.2698
 Red. masses --     11.9557                 6.1237                 1.0354
 Frc consts  --     23.9776                17.0620                 5.7693
 IR Inten    --    336.0039                82.8676                10.6859
  Atom  AN      X      Y      Z        X      Y      Z        X      Y      Z
     1   8     0.00   0.01  -0.00    -0.01  -0.01  -0.00    -0.00  -0.00   0.00
     2   1    -0.02   0.01   0.02    -0.01  -0.01   0.01    -0.00   0.00  -0.00
     3   6     0.06  -0.04  -0.02    -0.32   0.20   0.12     0.00  -0.00  -0.00
     4   1     0.10  -0.07  -0.01    -0.59   0.37   0.24    -0.00   0.00   0.00
     5   6    -0.06   0.03   0.01     0.46  -0.23  -0.17    -0.00   0.00   0.00
     6   6    -0.21  -0.09   0.75    -0.10   0.02   0.05     0.00  -0.00   0.00
     7   8     0.15   0.06  -0.49     0.01   0.00  -0.02     0.00   0.00  -0.00
     8   8    -0.01   0.02  -0.07    -0.00   0.00  -0.00    -0.00   0.00  -0.00
     9   6    -0.03   0.01   0.02     0.00  -0.00   0.00     0.00   0.00   0.00
    10   6     0.01  -0.01  -0.00    -0.00  -0.00  -0.00    -0.04  -0.04  -0.00
    11   1     0.15  -0.09  -0.12     0.01  -0.00  -0.00     0.00  -0.01   0.01
    12   1     0.14  -0.07   0.08     0.00  -0.00   0.00    -0.00  -0.01  -0.02
    13   1     0.02   0.06  -0.04     0.00   0.00  -0.00     0.57  -0.20  -0.12
    14   1    -0.04   0.01  -0.01    -0.00   0.00  -0.00    -0.00   0.30   0.52
    15   1     0.06   0.03   0.02     0.00   0.00   0.00    -0.15   0.31  -0.38
                     34                     35                     36
                      A                      A                      A
 Frequencies --   3108.1767              3150.1654              3155.1506
 Red. masses --      1.0609                 1.1014                 1.1048
 Frc consts  --      6.0386                 6.4394                 6.4798
 IR Inten    --     15.1875                14.8055                 1.9825
  Atom  AN      X      Y      Z        X      Y      Z        X      Y      Z
     1   8    -0.00  -0.00  -0.00     0.00   0.00   0.00     0.00   0.00   0.00
     2   1     0.00  -0.00   0.00    -0.00   0.00  -0.00    -0.00   0.00  -0.00
     3   6     0.00   0.00   0.00     0.00  -0.00  -0.00    -0.00   0.00   0.00
     4   1     0.00  -0.00  -0.00    -0.00   0.00   0.00    -0.00   0.00   0.00
     5   6     0.00  -0.00  -0.00    -0.00  -0.00   0.00    -0.00   0.00  -0.00
     6   6    -0.00   0.00  -0.00     0.00  -0.00   0.00    -0.00   0.00   0.00
     7   8    -0.00   0.00   0.00     0.00   0.00  -0.00    -0.00  -0.00  -0.00
     8   8     0.00  -0.00   0.00     0.00  -0.00  -0.00     0.00   0.00  -0.00
     9   6     0.01  -0.06  -0.02    -0.01   0.02  -0.02     0.01  -0.01   0.05
    10   6    -0.01   0.01   0.01    -0.05   0.04   0.06    -0.05   0.04  -0.05
    11   1    -0.15   0.33  -0.41     0.08  -0.19   0.22    -0.12   0.27  -0.32
    12   1     0.04   0.40   0.72    -0.00   0.01   0.02    -0.02  -0.18  -0.31
    13   1     0.12  -0.05  -0.02     0.60  -0.20  -0.11     0.38  -0.13  -0.09
    14   1    -0.00  -0.03  -0.06    -0.01  -0.34  -0.60    -0.01   0.08   0.13
    15   1     0.00  -0.01   0.02    -0.02   0.03  -0.01     0.19  -0.42   0.51
                     37                     38                     39
                      A                      A                      A
 Frequencies --   3175.9319              3480.7307              3810.5063
 Red. masses --      1.1073                 1.1568                 1.0674
 Frc consts  --      6.5807                 8.2578                 9.1317
 IR Inten    --     14.8672                68.2639                46.4020
  Atom  AN      X      Y      Z        X      Y      Z        X      Y      Z
     1   8    -0.00  -0.00   0.00    -0.00  -0.00  -0.00    -0.04   0.01  -0.05
     2   1    -0.00   0.00  -0.00     0.00   0.00   0.00     0.66  -0.17   0.73
     3   6     0.00  -0.00  -0.00    -0.09   0.05   0.04     0.00  -0.00  -0.00
     4   1    -0.00   0.00   0.00     0.82  -0.46  -0.33    -0.00   0.00   0.00
     5   6    -0.00  -0.00   0.00     0.03  -0.01  -0.01     0.00   0.00   0.00
     6   6     0.00   0.00  -0.00    -0.00   0.00   0.00    -0.00   0.00   0.00
     7   8    -0.00  -0.00   0.00     0.00  -0.00   0.00     0.00  -0.00  -0.00
     8   8    -0.00  -0.00   0.00     0.00  -0.00   0.00     0.00  -0.00   0.00
     9   6    -0.02   0.02  -0.07    -0.00   0.00   0.00    -0.00   0.00   0.00
    10   6    -0.02   0.01  -0.05    -0.00  -0.00  -0.00     0.00  -0.00  -0.00
    11   1     0.17  -0.41   0.48     0.00  -0.00   0.00     0.00  -0.00   0.00
    12   1     0.03   0.22   0.37     0.00  -0.00  -0.00     0.00  -0.00  -0.00
    13   1     0.08  -0.03  -0.03     0.00  -0.00  -0.00     0.00  -0.00  -0.00
    14   1     0.00   0.18   0.30    -0.00   0.00   0.00    -0.00   0.00   0.00
    15   1     0.14  -0.31   0.37    -0.00  -0.00   0.00    -0.00  -0.00   0.00

 -------------------
 - Thermochemistry -
 -------------------
 Temperature   298.150 Kelvin.  Pressure   1.00000 Atm.
 Atom     1 has atomic number  8 and mass  15.99491
 Atom     2 has atomic number  1 and mass   1.00783
 Atom     3 has atomic number  6 and mass  12.00000
 Atom     4 has atomic number  1 and mass   1.00783
 Atom     5 has atomic number  6 and mass  12.00000
 Atom     6 has atomic number  6 and mass  12.00000
 Atom     7 has atomic number  8 and mass  15.99491
 Atom     8 has atomic number  8 and mass  15.99491
 Atom     9 has atomic number  6 and mass  12.00000
 Atom    10 has atomic number  6 and mass  12.00000
 Atom    11 has atomic number  1 and mass   1.00783
 Atom    12 has atomic number  1 and mass   1.00783
 Atom    13 has atomic number  1 and mass   1.00783
 Atom    14 has atomic number  1 and mass   1.00783
 Atom    15 has atomic number  1 and mass   1.00783
 Molecular mass:   115.03952 amu.
 Principal axes and moments of inertia in atomic units:
                           1         2         3
     Eigenvalues --   450.903601549.459641625.88501
           X            0.99998  -0.00363   0.00532
           Y            0.00308   0.99499   0.09995
           Z           -0.00566  -0.09994   0.99498
 This molecule is an asymmetric top.
 Rotational symmetry number  1.
 Warning -- assumption of classical behavior for rotation
           may cause significant error
 Rotational temperatures (Kelvin)      0.19209     0.05590     0.05327
 Rotational constants (GHZ):           4.00250     1.16476     1.11001
    2 imaginary frequencies ignored.
 Zero-point vibrational energy     292885.9 (Joules/Mol)
                                   70.00142 (Kcal/Mol)
 Warning -- explicit consideration of  11 degrees of freedom as
           vibrations may cause significant error
 Vibrational temperatures:     87.06   162.86   186.71   233.75   281.85
          (Kelvin)            330.91   368.16   486.52   600.53   809.27
                              873.67  1004.35  1009.53  1055.60  1111.01
                             1150.76  1288.89  1334.73  1550.67  1622.74
                             1730.79  1857.06  1940.41  2015.29  2058.56
                             2146.80  2162.16  2179.74  2654.51  3128.80
                             4424.63  4471.97  4532.39  4539.56  4569.46
                             5008.00  5482.47
 
 Zero-point correction=                           0.111554 (Hartree/Particle)
 Thermal correction to Energy=                    0.120488
 Thermal correction to Enthalpy=                  0.121432
 Thermal correction to Gibbs Free Energy=         0.076841
 Sum of electronic and zero-point Energies=           -420.090759
 Sum of electronic and thermal Energies=              -420.081826
 Sum of electronic and thermal Enthalpies=            -420.080882
 Sum of electronic and thermal Free Energies=         -420.125473
 
                     E (Thermal)             CV                S
                      KCal/Mol        Cal/Mol-Kelvin    Cal/Mol-Kelvin
 Total                   75.607             30.472             93.850
 Electronic               0.000              0.000              1.377
 Translational            0.889              2.981             40.136
 Rotational               0.889              2.981             28.520
 Vibrational             73.830             24.510             23.816
 Vibration     1          0.597              1.973              4.440
 Vibration     2          0.607              1.939              3.213
 Vibration     3          0.612              1.924              2.949
 Vibration     4          0.623              1.888              2.521
 Vibration     5          0.636              1.846              2.171
 Vibration     6          0.652              1.795              1.879
 Vibration     7          0.666              1.753              1.690
 Vibration     8          0.718              1.599              1.221
 Vibration     9          0.780              1.432              0.901
 Vibration    10          0.918              1.112              0.519
 Vibration    11          0.966              1.016              0.437
                       Q            Log10(Q)             Ln(Q)
 Total Bot       0.452623D-35        -35.344263        -81.383174
 Total V=0       0.927114D+16         15.967133         36.765683
 Vib (Bot)       0.122309D-48        -48.912540       -112.625286
 Vib (Bot)    1  0.341243D+01          0.533064          1.227426
 Vib (Bot)    2  0.180818D+01          0.257241          0.592318
 Vib (Bot)    3  0.157109D+01          0.196200          0.451768
 Vib (Bot)    4  0.124342D+01          0.094619          0.217868
 Vib (Bot)    5  0.101947D+01          0.008372          0.019278
 Vib (Bot)    6  0.856361D+00         -0.067343         -0.155063
 Vib (Bot)    7  0.760585D+00         -0.118852         -0.273667
 Vib (Bot)    8  0.549761D+00         -0.259826         -0.598271
 Vib (Bot)    9  0.421520D+00         -0.375182         -0.863888
 Vib (Bot)   10  0.275656D+00         -0.559632         -1.288600
 Vib (Bot)   11  0.244072D+00         -0.612482         -1.410291
 Vib (V=0)       0.250528D+03          2.398856          5.523571
 Vib (V=0)    1  0.394887D+01          0.596473          1.373429
 Vib (V=0)    2  0.237603D+01          0.375852          0.865432
 Vib (V=0)    3  0.214873D+01          0.332182          0.764878
 Vib (V=0)    4  0.184019D+01          0.264862          0.609867
 Vib (V=0)    5  0.163548D+01          0.213645          0.491935
 Vib (V=0)    6  0.149164D+01          0.173665          0.399878
 Vib (V=0)    7  0.141021D+01          0.149285          0.343742
 Vib (V=0)    8  0.124313D+01          0.094515          0.217630
 Vib (V=0)    9  0.115397D+01          0.062195          0.143210
 Vib (V=0)   10  0.107095D+01          0.029770          0.068548
 Vib (V=0)   11  0.105639D+01          0.023825          0.054859
 Electronic      0.200000D+01          0.301030          0.693147
 Translational   0.484981D+08          7.685724         17.697035
 Rotational      0.381525D+06          5.581522         12.851931
 ***** Axes restored to original set *****
 -------------------------------------------------------------------
 Center     Atomic                   Forces (Hartrees/Bohr)
 Number     Number              X              Y              Z
 -------------------------------------------------------------------
      1        8           0.002795448    0.007297347    0.000704334
      2        1          -0.000015852    0.000139657   -0.000027425
      3        6           0.001077190   -0.000195035   -0.000383747
      4        1           0.000152584    0.000221809    0.000015978
      5        6          -0.003604679   -0.007590064   -0.000594558
      6        6          -0.000350741   -0.001058554   -0.000117526
      7        8          -0.000131168    0.000739167    0.000286312
      8        8          -0.000008582    0.000247823    0.000060309
      9        6           0.000030869    0.000142705    0.000047191
     10        6           0.000054295    0.000035768   -0.000003507
     11        1          -0.000005425    0.000005908    0.000006837
     12        1          -0.000010651    0.000008184    0.000004193
     13        1           0.000005131    0.000001081   -0.000000509
     14        1           0.000007566    0.000003018    0.000000399
     15        1           0.000004016    0.000001186    0.000001719
 -------------------------------------------------------------------
 Cartesian Forces:  Max     0.007590064 RMS     0.001738155

 GradGradGradGradGradGradGradGradGradGradGradGradGradGradGradGradGradGrad
 Berny optimization.
 Search for a local minimum.
 Step number   1 out of a maximum of    2
 All quantities printed in internal units (Hartrees-Bohrs-Radians)
 Second derivative matrix not updated -- analytic derivatives used.
 ITU=  0
     Eigenvalues ---   -0.07625  -0.00015   0.00058   0.00155   0.00234
     Eigenvalues ---    0.00321   0.00462   0.00687   0.01089   0.02036
     Eigenvalues ---    0.02807   0.03205   0.03404   0.05234   0.06307
     Eigenvalues ---    0.07516   0.07654   0.08367   0.09952   0.10328
     Eigenvalues ---    0.11368   0.14171   0.17063   0.17401   0.19994
     Eigenvalues ---    0.28294   0.29780   0.43592   0.49345   0.62780
     Eigenvalues ---    0.70648   0.76472   0.78804   0.86572   0.89848
     Eigenvalues ---    0.92995   0.97997   1.73607   2.52853
 Eigenvalue     1 is  -7.63D-02 should be greater than     0.000000 Eigenvector:
                          Y5        Y1        X5        X1        Y6
   1                    0.69293  -0.59984   0.29374  -0.20397   0.08454
                          Z5        X4        Z2        Y7        X2
   1                    0.06891  -0.05908  -0.05539  -0.05368  -0.05295
 Eigenvalue     2 is  -1.50D-04 should be greater than     0.000000 Eigenvector:
                          Z2        Z1        Y2        X1        Y7
   1                    0.52847   0.29807  -0.26694   0.22133   0.22117
                          Y14       Z15       Z14       Z11       Z12
   1                   -0.21568   0.21186   0.20578  -0.19615  -0.19186
 Angle between quadratic step and forces=  50.10 degrees.
 Linear search not attempted -- first point.
 B after Tr=    -0.001113    0.005379    0.003627
         Rot=    0.999999    0.001127   -0.000081   -0.000084 Ang=   0.13 deg.
 Variable       Old X    -DE/DX   Delta X   Delta X   Delta X     New X
                                 (Linear)    (Quad)   (Total)
    X1        4.11933   0.00280   0.00000   0.04335   0.04177   4.16110
    Y1        2.60714   0.00730   0.00000   0.10593   0.11183   2.71897
    Z1       -0.03178   0.00070   0.00000  -0.04282  -0.04598  -0.07776
    X2        5.33597  -0.00002   0.00000   0.04919   0.04788   5.38385
    Y2        2.31067   0.00014   0.00000   0.00436   0.01342   2.32409
    Z2        1.30802  -0.00003   0.00000  -0.07254  -0.07501   1.23301
    X3        4.63904   0.00108   0.00000  -0.00919  -0.01008   4.62895
    Y3       -2.24022  -0.00020   0.00000  -0.01336  -0.00949  -2.24972
    Z3       -1.03586  -0.00038   0.00000   0.01759   0.02555  -1.01031
    X4        6.29872   0.00015   0.00000  -0.02538  -0.02623   6.27249
    Y4       -3.16624   0.00022   0.00000  -0.03809  -0.03543  -3.20167
    Z4       -1.69944   0.00002   0.00000   0.01891   0.02874  -1.67069
    X5        2.82044  -0.00360   0.00000  -0.04994  -0.05091   2.76953
    Y5       -1.05828  -0.00759   0.00000  -0.09931  -0.09415  -1.15243
    Z5       -0.31606  -0.00059   0.00000   0.00750   0.01329  -0.30278
    X6        0.30340  -0.00035   0.00000  -0.00640  -0.00734   0.29606
    Y6       -0.36389  -0.00106   0.00000  -0.00221   0.00466  -0.35923
    Z6        0.61862  -0.00012   0.00000   0.01905   0.02345   0.64208
    X7       -0.32825  -0.00013   0.00000  -0.00972  -0.01028  -0.33853
    Y7       -0.63480   0.00074   0.00000  -0.00172   0.00991  -0.62490
    Z7        2.77657   0.00029   0.00000   0.01960   0.02471   2.80129
    X8       -1.12124  -0.00001   0.00000   0.00387   0.00247  -1.11878
    Y8        0.53429   0.00025   0.00000   0.03336   0.03582   0.57011
    Z8       -1.23738   0.00006   0.00000   0.02641   0.02894  -1.20843
    X9       -3.63904   0.00003   0.00000  -0.00474  -0.00616  -3.64520
    Y9        1.31459   0.00014   0.00000   0.00478   0.00837   1.32296
    Z9       -0.54371   0.00005   0.00000   0.02217   0.02342  -0.52030
   X10       -5.40546   0.00005   0.00000   0.01131   0.01029  -5.39516
   Y10       -0.93420   0.00004   0.00000  -0.01288  -0.00931  -0.94351
   Z10       -0.37021  -0.00000   0.00000  -0.02956  -0.02292  -0.39313
   X11       -4.19177  -0.00001   0.00000  -0.00452  -0.00640  -4.19817
   Y11        2.60472   0.00001   0.00000   0.02533   0.02547   2.63019
   Z11       -2.04715   0.00001   0.00000   0.03988   0.03826  -2.00889
   X12       -3.53931  -0.00001   0.00000  -0.02584  -0.02714  -3.56644
   Y12        2.34018   0.00001   0.00000  -0.02598  -0.01831   2.32186
   Z12        1.24098   0.00000   0.00000   0.04050   0.03948   1.28046
   X13       -7.32167   0.00001   0.00000   0.00349   0.00243  -7.31924
   Y13       -0.27767   0.00000   0.00000  -0.03581  -0.03168  -0.30935
   Z13        0.02167  -0.00000   0.00000  -0.02882  -0.02329  -0.00162
   X14       -5.42358   0.00001   0.00000   0.02988   0.02874  -5.39484
   Y14       -1.97440   0.00000   0.00000   0.01863   0.01815  -1.95625
   Z14       -2.15028   0.00000   0.00000  -0.04819  -0.03927  -2.18956
   X15       -4.82731   0.00000   0.00000   0.01151   0.01096  -4.81636
   Y15       -2.19830   0.00000   0.00000  -0.03629  -0.02924  -2.22754
   Z15        1.15017   0.00000   0.00000  -0.04881  -0.03937   1.11080
         Item               Value     Threshold  Converged?
 Maximum Force            0.007590     0.000450     NO 
 RMS     Force            0.001738     0.000300     NO 
 Maximum Displacement     0.111833     0.001800     NO 
 RMS     Displacement     0.035344     0.001200     NO 
 Predicted change in Energy=-2.646699D-03
 GradGradGradGradGradGradGradGradGradGradGradGradGradGradGradGradGradGrad


 ----------------------------------------------------------------------

 Electric dipole moment (input orientation):
 (Debye = 10**-18 statcoulomb cm , SI units = C m)
                  (au)            (Debye)         (10**-30 SI)
   Tot        0.471750D+00      0.119907D+01      0.399967D+01
   x          0.704705D-01      0.179118D+00      0.597474D+00
   y         -0.350149D+00     -0.889991D+00     -0.296869D+01
   z         -0.308185D+00     -0.783327D+00     -0.261290D+01

 Dipole polarizability, Alpha (input orientation).
 (esu units = cm**3 , SI units = C**2 m**2 J**-1)
 Alpha(0;0):
               (au)            (10**-24 esu)      (10**-40 SI)
   iso        0.746020D+02      0.110549D+02      0.123002D+02
   aniso      0.269670D+02      0.399610D+01      0.444626D+01
   xx         0.864196D+02      0.128061D+02      0.142487D+02
   yx        -0.571722D+01     -0.847205D+00     -0.942643D+00
   yy         0.769527D+02      0.114032D+02      0.126878D+02
   zx        -0.357741D+01     -0.530118D+00     -0.589836D+00
   zy         0.489491D+01      0.725351D+00      0.807062D+00
   zz         0.604337D+02      0.895534D+01      0.996416D+01

 ----------------------------------------------------------------------

 Dipole orientation:
     8          4.23383183         -2.03822602         -1.29900066
     1          5.61430168         -0.92769386         -1.77246454
     6          4.27144567          0.41376730          3.03245925
     1          5.74750032          0.42737430          4.40120552
     6          2.66419063          0.28189237          1.41328581
     6          0.36731132          0.68144749         -0.08872392
     8          0.04837067          2.50615311         -1.39174221
     8         -1.25511810         -1.19947825          0.24429508
     6         -3.58298333         -1.03605389         -1.16414320
     6         -5.45045318          0.71063221          0.12777729
     1         -4.26631317         -2.97511148         -1.22211819
     1         -3.14921513         -0.40191897         -3.07636749
     1         -7.23822830          0.69225058         -0.90178085
     1         -5.80399757          0.08419433          2.06002126
     1         -4.73777151          2.64320528          0.15916362

 Electric dipole moment (dipole orientation):
 (Debye = 10**-18 statcoulomb cm , SI units = C m)
                  (au)            (Debye)         (10**-30 SI)
   Tot        0.471750D+00      0.119907D+01      0.399967D+01
   x          0.000000D+00      0.000000D+00      0.000000D+00
   y          0.000000D+00      0.000000D+00      0.000000D+00
   z          0.471750D+00      0.119907D+01      0.399967D+01

 Dipole polarizability, Alpha (dipole orientation).
 (esu units = cm**3 , SI units = C**2 m**2 J**-1)
 Alpha(0;0):
               (au)            (10**-24 esu)      (10**-40 SI)
   iso        0.746020D+02      0.110549D+02      0.123002D+02
   aniso      0.269670D+02      0.399610D+01      0.444626D+01
   xx         0.840844D+02      0.124600D+02      0.138636D+02
   yx        -0.149901D+01     -0.222130D+00     -0.247153D+00
   yy         0.628946D+02      0.932001D+01      0.103699D+02
   zx         0.860460D+01      0.127507D+01      0.141871D+01
   zy         0.708202D+01      0.104945D+01      0.116767D+01
   zz         0.768270D+02      0.113846D+02      0.126671D+02

 ----------------------------------------------------------------------
 1\1\GINC-AJ\Freq\UM062X\6-311++G(d,p)\C5H7O3(2)\AAYUSH\23-Jun-2025\0\\
 # freq 6-311++g(d,p) m062x\\Title Card Required\\0,2\O,2.179857,1.3796
 4,-0.016816\H,2.823672,1.222752,0.692173\C,2.454872,-1.185476,-0.54815
 2\H,3.333139,-1.675501,-0.899303\C,1.492515,-0.560016,-0.167252\C,0.16
 0552,-0.19256,0.327362\O,-0.173705,-0.335922,1.4693\O,-0.593336,0.2827
 32,-0.654792\C,-1.925698,0.695653,-0.287721\C,-2.860445,-0.494359,-0.1
 95908\H,-2.218188,1.378356,-1.083306\H,-1.87292,1.238368,0.656696\H,-3
 .874459,-0.146936,0.011469\H,-2.870034,-1.044806,-1.137881\H,-2.554504
 ,-1.163289,0.608642\\Version=ES64L-G16RevA.03\State=2-A\HF=-420.202313
 7\S2=0.7684\S2-1=0.\S2A=0.750141\RMSD=3.053e-09\RMSF=1.738e-03\ZeroPoi
 nt=0.1115544\Thermal=0.1204876\Dipole=0.0704705,-0.3501493,-0.3081846\
 DipoleDeriv=-0.348153,0.040947,0.1054902,0.1489975,0.2137481,0.0743147
 ,0.0779176,-0.0444195,-0.2778842,0.2565182,0.1173605,-0.0455912,0.0424
 104,0.2823625,0.0312252,-0.0420358,0.0991642,0.2281268,-0.4165965,-0.2
 880927,-0.0056844,0.1174471,0.070297,0.0233159,0.0551466,0.1381932,-0.
 1116294,0.2427338,-0.0404954,-0.0163817,-0.0425749,0.2342368,0.0102825
 ,-0.011624,0.0076774,0.2285913,-0.3307303,0.193976,0.0840071,-0.140482
 7,-0.9301797,-0.1739069,0.060233,-0.2022202,-0.1647138,2.1305393,-0.21
 46049,-0.0052521,-0.6003597,0.5856768,-0.2736218,0.3211644,-0.4004554,
 1.7065629,-0.8299647,0.003492,0.2318302,0.1248683,-0.3764593,0.084958,
 0.0461472,0.2004231,-1.1237861,-1.6044957,0.2673068,-0.3269802,0.49157
 43,-0.4293664,0.2294032,-0.4302902,0.1946316,-0.7932921,1.0041869,-0.0
 971422,0.050647,-0.1277547,0.3595034,-0.0586858,-0.0922779,0.0087219,0
 .2454362,-0.092625,-0.0227648,-0.0169232,-0.0534384,-0.0648288,0.05627
 92,0.0157877,0.0149515,0.0471162,-0.0228852,0.0062611,-0.0098114,0.032
 4854,-0.0108322,0.0673769,-0.0320739,0.0998704,-0.0072616,-0.0314143,-
 0.0323342,-0.0488298,-0.0048499,0.0074592,-0.0314057,0.0355016,-0.0882
 928,-0.0114814,-0.1113589,0.0389704,0.0219191,0.0505681,0.0463604,-0.0
 259437,0.0335075,-0.0146214,0.088831,0.0723752,-0.0053531,0.0303945,-0
 .0393478,0.0117277,-0.0554625,-0.0112403,-0.0826574,-0.0579823,0.08187
 02,0.0324735,-0.0488342,0.000457,0.0002947,0.041871,-0.0258633,0.06903
 35,0.0033664\Polar=86.4196,-5.7172223,76.9526988,-3.5774149,4.8949101,
 60.4336522\Quadrupole=8.5189855,-2.3087628,-6.2102227,-4.425723,1.6676
 614,3.0230434\PG=C01 [X(C5H7O3)]\NImag=2\\0.23430983,-0.06330519,0.010
 34388,0.25285657,-0.06621633,0.28117992,-0.22958262,0.05137962,-0.2508
 8868,0.23077389,0.06120080,-0.02772585,0.06825870,-0.05432936,0.030982
 21,-0.25296605,0.05952697,-0.27863149,0.25156344,-0.06193980,0.2778103
 2,0.01125372,0.03185421,0.00108443,0.00154458,-0.00101185,0.00130314,0
 .99229040,-0.01036399,-0.03960310,-0.00379073,-0.00021785,-0.00062991,
 -0.00092282,-0.56023503,0.39385034,-0.00512601,-0.01568878,0.00034188,
 -0.00007375,-0.00071356,-0.00042802,-0.36895566,0.22319106,0.19947326,
 -0.00020208,-0.00054560,-0.00002612,0.00031298,0.00013741,-0.00000797,
 -0.29730599,0.15401955,0.10812350,0.28597366,-0.00018697,0.00021623,0.
 00017306,0.00026778,-0.00020211,-0.00029773,0.14645594,-0.10749944,-0.
 05920140,-0.15159674,0.09998941,0.00021795,0.00004298,0.00000490,0.000
 02556,-0.00013449,-0.00012529,0.10756814,-0.06174800,-0.06864346,-0.10
 763400,0.06100344,0.05892056,-0.00726944,-0.00793997,-0.00417662,-0.00
 192102,-0.00515061,0.00121693,-0.71372809,0.42520588,0.26707354,0.0100
 6329,0.00416709,-0.00185967,1.00248776,0.02157769,0.06709616,0.0015668
 3,0.00348323,-0.00198662,0.00354396,0.37105178,-0.24391617,-0.14236792
 ,-0.00331733,0.00501430,0.00218244,-0.48764694,0.22050765,0.00271890,0
 .02087071,-0.00289203,0.00029893,-0.00589849,0.00039914,0.25858197,-0.
 15826268,-0.13515440,-0.00188662,-0.00085164,0.00492519,-0.33823989,0.
 15204768,0.23684168,-0.00950988,-0.01536697,0.00224074,-0.00226502,-0.
 00195348,-0.00297020,0.01757296,-0.01495074,-0.00481233,0.00065849,0.0
 0167371,0.00215116,-0.22635841,0.07278914,0.06010869,0.61417176,-0.007
 08453,-0.01109856,0.00001415,0.00010685,0.00011111,0.00057945,0.010631
 47,-0.00274422,-0.00494598,0.00226404,0.00316821,-0.00119101,0.0426171
 1,-0.06957272,-0.01585948,-0.11169537,0.28075112,0.00408844,0.00253524
 ,-0.00390474,-0.00288825,0.00018985,0.00278276,-0.00021222,0.00235843,
 0.00300160,0.00158555,-0.00044928,0.00489987,0.04260527,-0.02106813,-0
 .07438536,-0.14815444,-0.11594497,0.96537011,0.00036919,0.00143061,-0.
 00042121,0.00051710,0.00068589,0.00076473,-0.00518311,0.00300142,0.001
 07817,-0.00007347,-0.00012288,-0.00157500,-0.01633062,-0.00105426,0.04
 770790,-0.16589351,-0.01454067,0.19491861,0.15866695,-0.00074733,0.000
 57786,0.00097499,0.00023933,-0.00014697,-0.00033145,0.00007364,0.00056
 398,0.00019117,-0.00045941,-0.00049237,0.00017235,0.00476447,0.0181664
 2,-0.00444976,-0.01116164,-0.09194474,0.06869493,0.00441447,0.05760738
 ,-0.00144965,-0.00185125,0.00326536,0.00115930,-0.00000178,-0.00194821
 ,0.00160378,-0.00149098,0.00082537,-0.00008870,-0.00024297,0.00049735,
 0.04016376,0.00126789,-0.03537155,0.18639717,0.07529482,-0.69763382,-0
 .21006348,-0.10545701,0.82895397,-0.00026358,0.00238938,-0.00083983,0.
 00068154,0.00057596,0.00121355,-0.00709511,0.00380619,0.00286420,0.000
 78224,-0.00070378,0.00098233,-0.04813433,0.02129314,-0.02732237,-0.182
 40039,0.05641921,-0.08744510,0.02862069,0.00890950,-0.02728955,0.45721
 026,-0.00154508,-0.00107664,-0.00085138,-0.00100295,-0.00039556,-0.000
 21395,0.00231538,-0.00053348,-0.00082231,-0.00043489,-0.00002030,-0.00
 029062,0.02157217,0.00196821,0.01024862,0.05624218,-0.09909130,0.06368
 088,0.00793927,0.01916776,0.03700624,-0.14667330,0.15628330,-0.0006294
 2,0.00052479,0.00079982,0.00081543,0.00016457,0.00001719,-0.00012843,0
 .00023572,-0.00008802,-0.00010910,-0.00009214,-0.00067378,-0.00382758,
 0.00066789,0.00833842,-0.06567083,0.05290852,-0.21313912,-0.02722746,0
 .03832055,-0.09616233,0.06259392,-0.08742307,0.39893342,0.00089893,-0.
 00022735,0.00037798,-0.00012377,-0.00028473,-0.00031647,0.00186754,-0.
 00083055,-0.00062272,-0.00032480,0.00014664,0.00004203,0.00299996,0.00
 149999,-0.00037951,-0.04682392,0.02565200,-0.02671032,-0.00045606,-0.0
 0585598,0.01852598,-0.16189481,0.03395951,0.02634353,0.44134836,0.0002
 7498,0.00135331,-0.00022618,0.00005345,-0.00001025,0.00012552,-0.00148
 278,0.00064839,0.00039646,-0.00004957,-0.00022475,-0.00002387,0.002583
 36,0.00290548,0.00195156,0.02506582,-0.01232949,0.00964423,0.00036995,
 -0.00420860,-0.00737473,0.03120544,-0.07680644,-0.00626497,-0.00995929
 ,0.56208031,0.00040052,0.00037810,-0.00027524,-0.00003006,0.00010207,0
 .00016085,-0.00103261,0.00052957,0.00075933,0.00006124,-0.00003639,0.0
 0021727,-0.00374374,0.00250356,-0.00299865,-0.02781810,0.00690605,0.01
 937492,-0.00038609,0.00048690,-0.00552574,0.04786745,-0.01299697,-0.10
 520117,0.05415411,-0.01700011,0.64329631,0.00002653,0.00042585,-0.0001
 0044,0.00002258,0.00002855,0.00008235,-0.00064526,0.00028361,0.0001886
 5,0.00002759,-0.00007770,0.00003035,-0.00014649,0.00094639,-0.00013208
 ,0.00118852,-0.00440381,0.00603375,-0.00026440,-0.00072020,-0.00257556
 ,-0.04454613,-0.02188899,0.00383152,-0.11295548,-0.05704995,0.00017177
 ,0.54696929,0.00009316,-0.00012931,0.00006804,0.00000712,-0.00000364,-
 0.00004464,0.00039665,-0.00015809,-0.00011273,0.00000304,0.00006309,-0
 .00001071,-0.00038142,-0.00045825,0.00018583,-0.00021002,0.00308158,-0
 .00599634,-0.00183015,-0.00091781,0.00224596,0.01233152,0.01240977,0.0
 0195292,-0.06903946,-0.17813709,0.00635136,-0.04859996,0.53297982,-0.0
 0001109,-0.00008932,0.00004254,-0.00001061,-0.00002416,-0.00002035,0.0
 0017873,-0.00013444,-0.00008406,-0.00000331,0.00002111,0.00001009,0.00
 013379,-0.00019840,-0.00002065,-0.00190836,-0.00023041,-0.00017286,0.0
 0105497,0.00078108,0.00097061,0.01109462,0.00498628,0.00118271,-0.0011
 6375,0.00485946,-0.08511799,0.00467199,0.00337410,0.58837956,-0.000020
 70,-0.00000612,0.00002760,0.00006882,0.00007489,0.00006220,-0.00049140
 ,0.00018732,0.00024185,0.00005754,-0.00000843,0.00004553,-0.00115388,0
 .00004580,-0.00106570,-0.00278039,0.00192139,0.00564441,0.00092587,-0.
 00008269,-0.00138121,-0.02718699,0.02594821,-0.02594403,-0.06095044,0.
 03836759,-0.04738418,0.00733383,-0.01390717,0.01676354,0.08454860,0.00
 004913,0.00002203,0.00001499,-0.00000098,-0.00000888,-0.00001384,0.000
 10144,-0.00005351,-0.00001815,-0.00001928,0.00000348,-0.00000936,0.000
 44521,0.00002407,0.00024275,-0.00002850,0.00008768,-0.00374898,-0.0010
 9424,0.00071016,0.00066000,0.00989445,-0.00671669,0.00785607,0.0438875
 8,-0.15612716,0.12339493,0.00521301,-0.01622929,0.01998522,-0.05028585
 ,0.16750291,0.00000779,0.00008552,0.00001558,0.00002248,0.00001608,0.0
 0000746,-0.00006787,0.00003768,-0.00002315,-0.00000838,-0.00002132,-0.
 00002242,0.00045444,-0.00001341,0.00036344,0.00236018,-0.00056805,-0.0
 0271522,-0.00189257,0.00075300,0.00149162,0.00702875,-0.00909552,0.009
 40809,-0.05841318,0.12880301,-0.20839287,0.00036658,-0.00105624,0.0007
 3881,0.05577873,-0.13659787,0.21437552,0.00002225,-0.00007103,-0.00012
 883,-0.00001812,0.00004645,0.00007216,-0.00011334,0.00006791,0.0000088
 5,0.00004546,-0.00000118,0.00000261,-0.00040257,-0.00088052,-0.0002947
 3,0.00270828,-0.00067899,0.00800597,0.00001913,0.00076477,-0.00328071,
 -0.01631184,0.02441095,0.03153521,-0.05064397,-0.01229459,-0.02392593,
 0.00019190,-0.01087460,-0.01913430,0.00088582,-0.00508034,-0.00650315,
 0.06501165,0.00006733,0.00003110,0.00005004,0.00003946,0.00002583,-0.0
 0001538,-0.00013798,0.00005706,0.00006126,-0.00001160,-0.00000243,-0.0
 0002477,0.00006328,0.00007619,0.00028725,0.00011893,0.00148987,-0.0056
 8288,-0.00141012,-0.00023953,0.00240386,0.00736198,-0.00678608,-0.0078
 2816,-0.00772493,-0.11545979,-0.11060563,-0.00297162,-0.01268148,-0.02
 285301,0.00019182,0.01229385,0.01754524,0.00692400,0.12300751,-0.00008
 505,-0.00015491,0.00003107,-0.00002060,-0.00003865,-0.00003239,0.00022
 597,-0.00008269,-0.00004049,-0.00000364,0.00000894,0.00000674,0.000165
 40,-0.00023797,-0.00016628,-0.00267239,0.00209868,-0.00146222,-0.00174
 969,0.00134558,0.00051662,0.00898117,-0.00478858,-0.00522479,-0.014067
 85,-0.11671883,-0.25680961,-0.00066929,0.00279114,0.00471930,-0.001918
 39,-0.01104047,-0.01722344,0.01198593,0.12599467,0.27411437,-0.0000593
 3,0.00008968,-0.00002873,0.00002251,0.00002576,0.00003612,-0.00023867,
 0.00011243,0.00006116,0.00002071,-0.00003533,-0.00000548,-0.00004638,0
 .00012733,0.00000815,0.00164559,-0.00105897,0.00225633,-0.00008485,-0.
 00008872,-0.00096619,-0.00426722,-0.00357820,-0.00091504,-0.01667449,0
 .01050555,0.00337958,-0.28090004,0.08010361,0.04786985,0.00055184,-0.0
 0012292,0.00040759,0.00035623,-0.00007540,-0.00060194,0.30495690,-0.00
 001081,0.00004520,-0.00002806,-0.00000860,0.00000215,0.00001085,-0.000
 13557,0.00007834,0.00005948,-0.00000290,-0.00002719,0.00001261,-0.0000
 8693,0.00025348,-0.00018348,0.00018960,-0.00152213,0.00284575,0.000557
 04,0.00038537,-0.00114601,-0.00812621,-0.00307468,-0.00022628,-0.02161
 287,0.01145210,0.00489963,0.08223277,-0.07640793,-0.01717285,0.0009505
 9,0.00079011,0.00051941,0.00078698,0.00077303,-0.00072874,-0.08730183,
 0.07907580,0.00000335,0.00000792,0.00000761,0.00000481,0.00000336,-0.0
 0000077,-0.00002570,0.00002108,0.00001666,-0.00000594,-0.00000263,-0.0
 0000496,0.00003868,0.00003672,0.00005530,0.00013741,0.00064378,-0.0013
 0093,-0.00063604,-0.00051876,0.00033782,0.00114525,0.00023171,0.001505
 76,0.00097152,-0.00099776,-0.00248474,0.04775696,-0.01646274,-0.055337
 14,-0.00012998,-0.00004382,-0.00004974,0.00009161,0.00010461,0.0000018
 7,-0.05295779,0.01811303,0.05570960,-0.00001795,-0.00005748,0.00003132
 ,-0.00000375,-0.00001309,-0.00002650,0.00004816,-0.00002086,-0.0000037
 7,-0.00001830,0.00000213,-0.00000753,0.00000777,0.00008788,0.00002777,
 -0.00054257,0.00046804,-0.00157414,-0.00042497,-0.00012758,0.00069012,
 0.00300608,0.00088273,0.00014497,-0.00228265,-0.01230839,-0.01965941,-
 0.04634757,0.00130481,-0.00034292,0.00057323,0.00092240,0.00040375,-0.
 00226741,-0.00351484,0.00064058,0.00193783,0.01492635,0.02679435,0.047
 27881,-0.00004130,-0.00001666,0.00003057,0.00001226,-0.00000076,-0.000
 00813,-0.00001414,0.00000288,0.00000819,0.00000716,-0.00000038,-0.0000
 0382,-0.00005925,-0.00002612,-0.00005827,-0.00004403,0.00005682,0.0000
 8751,0.00030502,0.00019338,0.00004417,0.00156783,0.00215729,0.00104762
 ,0.00063731,-0.01604017,-0.02582343,-0.00066752,-0.11455882,-0.1153751
 0,0.00066835,0.00069356,0.00008805,-0.00372936,-0.00333803,0.00158304,
 -0.00062332,-0.00556894,-0.00755180,0.00316593,0.12474495,-0.00003670,
 -0.00002425,0.00001526,0.00000717,-0.00000361,-0.00000940,-0.00004384,
 0.00004629,0.00001637,-0.00000749,-0.00001812,-0.00000902,-0.00003997,
 0.00009569,0.00009470,0.00015666,-0.00019151,-0.00078738,-0.00057376,-
 0.00021650,0.00036428,-0.00106082,0.00052742,0.00050658,0.00051198,0.0
 0215777,0.00339406,-0.00133463,-0.11765246,-0.25462774,-0.00049199,-0.
 00034360,0.00073978,0.00105374,0.00074769,0.00108322,-0.00030137,-0.00
 124831,-0.00433040,0.00087090,0.12861701,0.27188084,0.00004511,-0.0000
 4965,-0.00000817,-0.00002971,-0.00003258,-0.00002743,0.00022361,-0.000
 06528,-0.00004567,-0.00001730,0.00001972,0.00001603,-0.00006755,-0.000
 00331,-0.00013140,-0.00137149,-0.00061777,0.00184612,-0.00040794,0.000
 07735,-0.00144507,0.00179959,0.00185300,-0.00081267,0.00601560,-0.0152
 8157,0.01794547,-0.06995489,0.05060288,-0.05919316,-0.00236175,-0.0038
 8110,0.00005488,0.00051654,0.00107969,-0.00021022,-0.00722063,0.017642
 39,-0.02318849,-0.00094671,-0.00118492,0.00129012,0.07377751,0.0000221
 4,-0.00003566,-0.00003869,-0.00002935,-0.00001075,0.00000099,0.0001368
 5,-0.00006306,-0.00003678,0.00000611,0.00001427,0.00002281,-0.00015344
 ,-0.00005206,-0.00027060,-0.00066864,-0.00044324,0.00285376,0.00134864
 ,0.00057772,-0.00135823,-0.00025131,0.00251487,-0.00184402,0.00975211,
 -0.01909585,0.02091035,0.04724958,-0.14885256,0.12207046,-0.00406570,-
 0.00299232,-0.00049559,0.00060955,0.00075291,-0.00003122,0.00192034,-0
 .00625470,0.00641529,-0.00571802,0.01170101,-0.01249350,-0.05015885,0.
 16223944,0.00001047,0.00005261,-0.00000045,0.00001483,0.00001991,0.000
 01819,-0.00007983,0.00001250,0.00002712,0.00001099,0.00000707,-0.00000
 305,0.00003566,-0.00002683,-0.00002895,0.00045465,0.00048597,0.0000723
 7,-0.00099906,-0.00074710,-0.00058135,0.00018642,-0.00019875,-0.000202
 76,0.00074667,0.00066845,-0.00039673,-0.05832191,0.12436651,-0.2006628
 4,-0.00024838,-0.00033788,0.00128652,0.00051155,-0.00018478,0.00048604
 ,0.00175777,-0.00572706,0.00587406,-0.00798947,0.01731439,-0.01833117,
 0.06390964,-0.13570503,0.21244300\\-0.00279545,-0.00729735,-0.00070433
 ,0.00001585,-0.00013966,0.00002743,-0.00107719,0.00019504,0.00038375,-
 0.00015258,-0.00022181,-0.00001598,0.00360468,0.00759006,0.00059456,0.
 00035074,0.00105855,0.00011753,0.00013117,-0.00073917,-0.00028631,0.00
 000858,-0.00024782,-0.00006031,-0.00003087,-0.00014271,-0.00004719,-0.
 00005429,-0.00003577,0.00000351,0.00000543,-0.00000591,-0.00000684,0.0
 0001065,-0.00000818,-0.00000419,-0.00000513,-0.00000108,0.00000051,-0.
 00000757,-0.00000302,-0.00000040,-0.00000402,-0.00000119,-0.00000172\\
 \@


 OUR LITTLE SYSTEMS HAVE THEIR DAY,    
   THEY HAVE THEIR DAY AND CEASE TO BE.
   THEY ARE BUT BROKEN LIGHTS OF THEE, 
 AND THOU, OH LORD, ART MORE THAN THEY.
          -------------------          
 LET KNOWLEDGE GROW FROM MORE TO MORE, 
   BUT MORE OF REVERENCE IN US DWELL.  
   THAT MIND AND SOUL, ACCORDING WELL, 
 MAY MAKE ONE MUSIC AS BEFORE.....     
          -------------------          
                    LORD TENNYSON      
 Job cpu time:       0 days  0 hours 58 minutes 25.9 seconds.
 Elapsed time:       0 days  0 hours  2 minutes 26.4 seconds.
 File lengths (MBytes):  RWF=    153 Int=      0 D2E=      0 Chk=      9 Scr=      1
 Normal termination of Gaussian 16 at Mon Jun 23 07:41:21 2025.
