 Entering Gaussian System, Link 0=g16
 Initial command:
 /opt/g16/l1.exe "/home/aayush/scratches/g16/Gau-69991.inp" -scrdir="/home/aayush/scratches/g16/"
 Entering Link 1 = /opt/g16/l1.exe PID=     69994.
  
 Copyright (c) 1988,1990,1992,1993,1995,1998,2003,2009,2016,
            Gaussian, Inc.  All Rights Reserved.
  
 This is part of the Gaussian(R) 16 program.  It is based on
 the Gaussian(R) 09 system (copyright 2009, Gaussian, Inc.),
 the Gaussian(R) 03 system (copyright 2003, Gaussian, Inc.),
 the Gaussian(R) 98 system (copyright 1998, Gaussian, Inc.),
 the Gaussian(R) 94 system (copyright 1995, Gaussian, Inc.),
 the Gaussian 92(TM) system (copyright 1992, Gaussian, Inc.),
 the Gaussian 90(TM) system (copyright 1990, Gaussian, Inc.),
 the Gaussian 88(TM) system (copyright 1988, Gaussian, Inc.),
 the Gaussian 86(TM) system (copyright 1986, Carnegie Mellon
 University), and the Gaussian 82(TM) system (copyright 1983,
 Carnegie Mellon University). Gaussian is a federally registered
 trademark of Gaussian, Inc.
  
 This software contains proprietary and confidential information,
 including trade secrets, belonging to Gaussian, Inc.
  
 This software is provided under written license and may be
 used, copied, transmitted, or stored only in accord with that
 written license.
  
 The following legend is applicable only to US Government
 contracts under FAR:
  
                    RESTRICTED RIGHTS LEGEND
  
 Use, reproduction and disclosure by the US Government is
 subject to restrictions as set forth in subparagraphs (a)
 and (c) of the Commercial Computer Software - Restricted
 Rights clause in FAR 52.227-19.
  
 Gaussian, Inc.
 340 Quinnipiac St., Bldg. 40, Wallingford CT 06492
  
  
 ---------------------------------------------------------------
 Warning -- This program may not be used in any manner that
 competes with the business of Gaussian, Inc. or will provide
 assistance to any competitor of Gaussian, Inc.  The licensee
 of this program is prohibited from giving any competitor of
 Gaussian, Inc. access to this program.  By using this program,
 the user acknowledges that Gaussian, Inc. is engaged in the
 business of creating and licensing software in the field of
 computational chemistry and represents and warrants to the
 licensee that it is not a competitor of Gaussian, Inc. and that
 it will not use this program in any manner prohibited above.
 ---------------------------------------------------------------
  

 Cite this work as:
 Gaussian 16, Revision A.03,
 M. J. Frisch, G. W. Trucks, H. B. Schlegel, G. E. Scuseria, 
 M. A. Robb, J. R. Cheeseman, G. Scalmani, V. Barone, 
 G. A. Petersson, H. Nakatsuji, X. Li, M. Caricato, A. V. Marenich, 
 J. Bloino, B. G. Janesko, R. Gomperts, B. Mennucci, H. P. Hratchian, 
 J. V. Ortiz, A. F. Izmaylov, J. L. Sonnenberg, D. Williams-Young, 
 F. Ding, F. Lipparini, F. Egidi, J. Goings, B. Peng, A. Petrone, 
 T. Henderson, D. Ranasinghe, V. G. Zakrzewski, J. Gao, N. Rega, 
 G. Zheng, W. Liang, M. Hada, M. Ehara, K. Toyota, R. Fukuda, 
 J. Hasegawa, M. Ishida, T. Nakajima, Y. Honda, O. Kitao, H. Nakai, 
 T. Vreven, K. Throssell, J. A. Montgomery, Jr., J. E. Peralta, 
 F. Ogliaro, M. J. Bearpark, J. J. Heyd, E. N. Brothers, K. N. Kudin, 
 V. N. Staroverov, T. A. Keith, R. Kobayashi, J. Normand, 
 K. Raghavachari, A. P. Rendell, J. C. Burant, S. S. Iyengar, 
 J. Tomasi, M. Cossi, J. M. Millam, M. Klene, C. Adamo, R. Cammi, 
 J. W. Ochterski, R. L. Martin, K. Morokuma, O. Farkas, 
 J. B. Foresman, and D. J. Fox, Gaussian, Inc., Wallingford CT, 2016.
 
 ******************************************
 Gaussian 16:  ES64L-G16RevA.03 25-Dec-2016
                16-Aug-2025 
 ******************************************
 %chk=ethyl_propiolate.chk
 %nprocshared=24
 Will use up to   24 processors via shared memory.
 %mem=12GB
 --------------------------
 # freq 6-311++g(d,p) m062x
 --------------------------
 1/10=4,30=1,38=1/1,3;
 2/12=2,17=6,18=5,40=1/2;
 3/5=4,6=6,7=1111,11=2,25=1,30=1,71=2,74=-55,140=1/1,2,3;
 4//1;
 5/5=2,38=5,98=1/2;
 8/6=4,10=90,11=11/1;
 11/6=1,8=1,9=11,15=111,16=1/1,2,10;
 10/6=1/2;
 6/7=2,8=2,9=2,10=2,28=1/1;
 7/8=1,10=1,25=1/1,2,3,16;
 1/10=4,30=1/3;
 99//99;
 -------------------
 Title Card Required
 -------------------
 Symbolic Z-matrix:
 Charge =  0 Multiplicity = 2
 O                     2.15626   1.49372  -0.00643 
 H                     2.75831   1.24905   0.71612 
 C                     2.40493  -1.18649  -0.57262 
 H                     3.31849  -1.60891  -0.92081 
 C                     1.37353  -0.69869  -0.19744 
 C                     0.08668  -0.22844   0.31222 
 O                    -0.23739  -0.33497   1.46238 
 O                    -0.65693   0.28216  -0.66207 
 C                    -1.9872    0.69739  -0.29134 
 C                    -2.92045  -0.49567  -0.20874 
 H                    -2.27959   1.38485  -1.08275 
 H                    -1.93514   1.23373   0.65656 
 H                    -3.93552  -0.15287   0.00085 
 H                    -2.92747  -1.0391   -1.15477 
 H                    -2.61383  -1.1702    0.59103 
 

 GradGradGradGradGradGradGradGradGradGradGradGradGradGradGradGradGradGrad
 Berny optimization.
 Initialization pass.
 Trust Radius=3.00D-01 FncErr=1.00D-07 GrdErr=1.00D-07 EigMax=2.50D+02 EigMin=1.00D-04
 Number of steps in this run=      2 maximum allowed number of steps=      2.
 GradGradGradGradGradGradGradGradGradGradGradGradGradGradGradGradGradGrad

                          Input orientation:                          
 ---------------------------------------------------------------------
 Center     Atomic      Atomic             Coordinates (Angstroms)
 Number     Number       Type             X           Y           Z
 ---------------------------------------------------------------------
      1          8           0        2.156259    1.493721   -0.006425
      2          1           0        2.758306    1.249049    0.716124
      3          6           0        2.404934   -1.186486   -0.572617
      4          1           0        3.318492   -1.608907   -0.920811
      5          6           0        1.373525   -0.698687   -0.197437
      6          6           0        0.086680   -0.228442    0.312223
      7          8           0       -0.237390   -0.334973    1.462377
      8          8           0       -0.656925    0.282161   -0.662066
      9          6           0       -1.987199    0.697390   -0.291336
     10          6           0       -2.920451   -0.495666   -0.208743
     11          1           0       -2.279591    1.384846   -1.082751
     12          1           0       -1.935142    1.233728    0.656556
     13          1           0       -3.935524   -0.152872    0.000854
     14          1           0       -2.927469   -1.039100   -1.154773
     15          1           0       -2.613833   -1.170195    0.591026
 ---------------------------------------------------------------------
                    Distance matrix (angstroms):
                    1          2          3          4          5
     1  O    0.000000
     2  H    0.971803   0.000000
     3  C    2.750622   2.778049   0.000000
     4  H    3.437032   3.340850   1.065020   0.000000
     5  C    2.335768   2.558493   1.201046   2.265980   0.000000
     6  C    2.711188   3.079562   2.659904   3.724334   1.461798
     7  O    3.351277   3.469901   3.442114   4.466183   2.341435
     8  O    3.132371   3.807635   3.397044   4.409878   2.302318
     9  C    4.228896   4.882532   4.787373   5.819416   3.640373
    10  C    5.456334   6.012295   5.382319   6.377363   4.298788
    11  H    4.565862   5.351149   5.368124   6.350379   4.297691
    12  H    4.152915   4.693851   5.119039   6.178133   3.925660
    13  H    6.310399   6.876362   6.449700   7.455887   5.340715
    14  H    5.794668   6.408114   5.366111   6.276261   4.419380
    15  H    5.496105   5.893070   5.151927   6.137638   4.091823
                    6          7          8          9         10
     6  C    0.000000
     7  O    1.199677   0.000000
     8  O    1.327744   2.251693   0.000000
     9  C    2.349984   2.683862   1.442042   0.000000
    10  C    3.063601   3.165009   2.435994   1.516959   0.000000
    11  H    3.185575   3.688636   2.006473   1.088314   2.170465
    12  H    2.518784   2.447965   2.068353   1.090352   2.170341
    13  H    4.034946   3.980629   3.373118   2.145761   1.091701
    14  H    3.448817   3.818612   2.672800   2.155233   1.091028
    15  H    2.873569   2.665395   2.740268   2.158496   1.090245
                   11         12         13         14         15
    11  H    0.000000
    12  H    1.779514   0.000000
    13  H    2.506170   2.520741   0.000000
    14  H    2.510069   3.071054   1.771172   0.000000
    15  H    3.072699   2.498752   1.769213   1.778586   0.000000
 Stoichiometry    C5H7O3(2)
 Framework group  C1[X(C5H7O3)]
 Deg. of freedom    39
 Full point group                 C1      NOp   1
 Largest Abelian subgroup         C1      NOp   1
 Largest concise Abelian subgroup C1      NOp   1
                         Standard orientation:                         
 ---------------------------------------------------------------------
 Center     Atomic      Atomic             Coordinates (Angstroms)
 Number     Number       Type             X           Y           Z
 ---------------------------------------------------------------------
      1          8           0        2.231333    1.473970   -0.047126
      2          1           0        2.830854    1.249288    0.683965
      3          6           0        2.456420   -1.226437   -0.519422
      4          1           0        3.366342   -1.668820   -0.851996
      5          6           0        1.429220   -0.716732   -0.162246
      6          6           0        0.146378   -0.217619    0.329745
      7          8           0       -0.179145   -0.281135    1.482666
      8          8           0       -0.592218    0.265307   -0.662304
      9          6           0       -1.918914    0.704985   -0.307274
     10          6           0       -2.862775   -0.476143   -0.183882
     11          1           0       -2.204825    1.367018   -1.122378
     12          1           0       -1.862517    1.273538    0.621399
     13          1           0       -3.874854   -0.117264    0.012875
     14          1           0       -2.874199   -1.052123   -1.110413
     15          1           0       -2.562528   -1.125093    0.639131
 ---------------------------------------------------------------------
 Rotational constants (GHZ):           3.7711847           1.1591805           1.0890482
 Standard basis: 6-311++G(d,p) (5D, 7F)
 There are   233 symmetry adapted cartesian basis functions of A   symmetry.
 There are   225 symmetry adapted basis functions of A   symmetry.
   225 basis functions,   351 primitive gaussians,   233 cartesian basis functions
    31 alpha electrons       30 beta electrons
       nuclear repulsion energy       355.7265057011 Hartrees.
 NAtoms=   15 NActive=   15 NUniq=   15 SFac= 1.00D+00 NAtFMM=   60 NAOKFM=F Big=F
 Integral buffers will be    131072 words long.
 Raffenetti 2 integral format.
 Two-electron integral symmetry is turned on.
 One-electron integrals computed using PRISM.
 NBasis=   225 RedAO= T EigKep=  7.38D-06  NBF=   225
 NBsUse=   224 1.00D-06 EigRej=  9.11D-07 NBFU=   224
 ExpMin= 3.60D-02 ExpMax= 8.59D+03 ExpMxC= 1.30D+03 IAcc=3 IRadAn=         5 AccDes= 0.00D+00
 Harris functional with IExCor= 1009 and IRadAn=       5 diagonalized for initial guess.
 HarFok:  IExCor= 1009 AccDes= 0.00D+00 IRadAn=         5 IDoV= 1 UseB2=F ITyADJ=14
 ICtDFT=  3500011 ScaDFX=  1.000000  1.000000  1.000000  1.000000
 FoFCou: FMM=F IPFlag=           0 FMFlag=      100000 FMFlg1=           0
         NFxFlg=           0 DoJE=T BraDBF=F KetDBF=T FulRan=T
         wScrn=  0.000000 ICntrl=       500 IOpCl=  0 I1Cent=   200000004 NGrid=           0
         NMat0=    1 NMatS0=      1 NMatT0=    0 NMatD0=    1 NMtDS0=    0 NMtDT0=    0
 Petite list used in FoFCou.
 Initial guess <Sx>= 0.0000 <Sy>= 0.0000 <Sz>= 0.5000 <S**2>= 0.7500 S= 0.5000
 Requested convergence on RMS density matrix=1.00D-08 within 128 cycles.
 Requested convergence on MAX density matrix=1.00D-06.
 Requested convergence on             energy=1.00D-06.
 No special actions if energy rises.
 Restarting incremental Fock formation.
 SCF Done:  E(UM062X) =  -420.207623047     A.U. after   22 cycles
            NFock= 22  Conv=0.85D-08     -V/T= 2.0032
 <Sx>= 0.0000 <Sy>= 0.0000 <Sz>= 0.5000 <S**2>= 0.7562 S= 0.5031
 <L.S>=  0.00000000000    
 Annihilation of the first spin contaminant:
 S**2 before annihilation     0.7562,   after     0.7500
 DoSCS=F DFT=T ScalE2(SS,OS)=  1.000000  1.000000
 Range of M.O.s used for correlation:     1   224
 NBasis=   225 NAE=    31 NBE=    30 NFC=     0 NFV=     0
 NROrb=    224 NOA=    31 NOB=    30 NVA=   193 NVB=   194

 **** Warning!!: The largest alpha MO coefficient is  0.10554535D+03


 **** Warning!!: The largest beta MO coefficient is  0.83580220D+02

 Symmetrizing basis deriv contribution to polar:
 IMax=3 JMax=2 DiffMx= 0.00D+00
 G2DrvN: will do    16 centers at a time, making    1 passes.
 Calling FoFCou, ICntrl=  3107 FMM=F I1Cent=   0 AccDes= 0.00D+00.
 End of G2Drv F.D. properties file   721 does not exist.
 End of G2Drv F.D. properties file   722 does not exist.
 End of G2Drv F.D. properties file   788 does not exist.
          IDoAtm=111111111111111
          Differentiating once with respect to electric field.
                with respect to dipole field.
          Differentiating once with respect to nuclear coordinates.
 Keep R1 and R2 ints in memory in canonical form, NReq=671901989.
          There are    48 degrees of freedom in the 1st order CPHF.  IDoFFX=6 NUNeed=     3.
     45 vectors produced by pass  0 Test12= 2.46D-14 2.08D-09 XBig12= 8.28D+01 4.28D+00.
 AX will form    45 AO Fock derivatives at one time.
     45 vectors produced by pass  1 Test12= 2.46D-14 2.08D-09 XBig12= 1.55D+01 8.06D-01.
     45 vectors produced by pass  2 Test12= 2.46D-14 2.08D-09 XBig12= 5.27D-01 1.42D-01.
     45 vectors produced by pass  3 Test12= 2.46D-14 2.08D-09 XBig12= 6.82D-03 1.79D-02.
     45 vectors produced by pass  4 Test12= 2.46D-14 2.08D-09 XBig12= 7.02D-05 1.13D-03.
     45 vectors produced by pass  5 Test12= 2.46D-14 2.08D-09 XBig12= 8.84D-07 1.10D-04.
     37 vectors produced by pass  6 Test12= 2.46D-14 2.08D-09 XBig12= 6.73D-09 7.62D-06.
     18 vectors produced by pass  7 Test12= 2.46D-14 2.08D-09 XBig12= 4.56D-11 6.00D-07.
      4 vectors produced by pass  8 Test12= 2.46D-14 2.08D-09 XBig12= 3.12D-13 5.18D-08.
      3 vectors produced by pass  9 Test12= 2.46D-14 2.08D-09 XBig12= 3.32D-15 6.38D-09.
 InvSVY:  IOpt=1 It=  1 EMax= 1.33D-14
 Solved reduced A of dimension   332 with    48 vectors.
 Isotropic polarizability for W=    0.000000       70.99 Bohr**3.
 End of Minotr F.D. properties file   721 does not exist.
 End of Minotr F.D. properties file   722 does not exist.
 End of Minotr F.D. properties file   788 does not exist.

 **********************************************************************

            Population analysis using the SCF density.

 **********************************************************************

 Orbital symmetries:
 Alpha Orbitals:
       Occupied  (A) (A) (A) (A) (A) (A) (A) (A) (A) (A) (A) (A)
                 (A) (A) (A) (A) (A) (A) (A) (A) (A) (A) (A) (A)
                 (A) (A) (A) (A) (A) (A) (A)
       Virtual   (A) (A) (A) (A) (A) (A) (A) (A) (A) (A) (A) (A)
                 (A) (A) (A) (A) (A) (A) (A) (A) (A) (A) (A) (A)
                 (A) (A) (A) (A) (A) (A) (A) (A) (A) (A) (A) (A)
                 (A) (A) (A) (A) (A) (A) (A) (A) (A) (A) (A) (A)
                 (A) (A) (A) (A) (A) (A) (A) (A) (A) (A) (A) (A)
                 (A) (A) (A) (A) (A) (A) (A) (A) (A) (A) (A) (A)
                 (A) (A) (A) (A) (A) (A) (A) (A) (A) (A) (A) (A)
                 (A) (A) (A) (A) (A) (A) (A) (A) (A) (A) (A) (A)
                 (A) (A) (A) (A) (A) (A) (A) (A) (A) (A) (A) (A)
                 (A) (A) (A) (A) (A) (A) (A) (A) (A) (A) (A) (A)
                 (A) (A) (A) (A) (A) (A) (A) (A) (A) (A) (A) (A)
                 (A) (A) (A) (A) (A) (A) (A) (A) (A) (A) (A) (A)
                 (A) (A) (A) (A) (A) (A) (A) (A) (A) (A) (A) (A)
                 (A) (A) (A) (A) (A) (A) (A) (A) (A) (A) (A) (A)
                 (A) (A) (A) (A) (A) (A) (A) (A) (A) (A) (A) (A)
                 (A) (A) (A) (A) (A) (A) (A) (A) (A) (A) (A) (A)
                 (A)
 Beta  Orbitals:
       Occupied  (A) (A) (A) (A) (A) (A) (A) (A) (A) (A) (A) (A)
                 (A) (A) (A) (A) (A) (A) (A) (A) (A) (A) (A) (A)
                 (A) (A) (A) (A) (A) (A)
       Virtual   (A) (A) (A) (A) (A) (A) (A) (A) (A) (A) (A) (A)
                 (A) (A) (A) (A) (A) (A) (A) (A) (A) (A) (A) (A)
                 (A) (A) (A) (A) (A) (A) (A) (A) (A) (A) (A) (A)
                 (A) (A) (A) (A) (A) (A) (A) (A) (A) (A) (A) (A)
                 (A) (A) (A) (A) (A) (A) (A) (A) (A) (A) (A) (A)
                 (A) (A) (A) (A) (A) (A) (A) (A) (A) (A) (A) (A)
                 (A) (A) (A) (A) (A) (A) (A) (A) (A) (A) (A) (A)
                 (A) (A) (A) (A) (A) (A) (A) (A) (A) (A) (A) (A)
                 (A) (A) (A) (A) (A) (A) (A) (A) (A) (A) (A) (A)
                 (A) (A) (A) (A) (A) (A) (A) (A) (A) (A) (A) (A)
                 (A) (A) (A) (A) (A) (A) (A) (A) (A) (A) (A) (A)
                 (A) (A) (A) (A) (A) (A) (A) (A) (A) (A) (A) (A)
                 (A) (A) (A) (A) (A) (A) (A) (A) (A) (A) (A) (A)
                 (A) (A) (A) (A) (A) (A) (A) (A) (A) (A) (A) (A)
                 (A) (A) (A) (A) (A) (A) (A) (A) (A) (A) (A) (A)
                 (A) (A) (A) (A) (A) (A) (A) (A) (A) (A) (A) (A)
                 (A) (A)
 The electronic state is 2-A.
 Alpha  occ. eigenvalues --  -19.68057 -19.67635 -19.62953 -10.70563 -10.60379
 Alpha  occ. eigenvalues --  -10.57653 -10.57372 -10.53707  -1.25536  -1.16224
 Alpha  occ. eigenvalues --   -1.13307  -0.90539  -0.87180  -0.78045  -0.70526
 Alpha  occ. eigenvalues --   -0.64347  -0.61539  -0.58452  -0.56558  -0.55172
 Alpha  occ. eigenvalues --   -0.53442  -0.50585  -0.48514  -0.46452  -0.45247
 Alpha  occ. eigenvalues --   -0.42610  -0.41747  -0.39539  -0.38263  -0.36439
 Alpha  occ. eigenvalues --   -0.36123
 Alpha virt. eigenvalues --   -0.01184  -0.00342   0.00511   0.01566   0.02346
 Alpha virt. eigenvalues --    0.02804   0.03597   0.04268   0.05534   0.06791
 Alpha virt. eigenvalues --    0.07391   0.07824   0.08414   0.09385   0.10280
 Alpha virt. eigenvalues --    0.11358   0.12047   0.12546   0.13184   0.13450
 Alpha virt. eigenvalues --    0.14619   0.14940   0.15120   0.15672   0.16508
 Alpha virt. eigenvalues --    0.17241   0.18205   0.18930   0.19577   0.20759
 Alpha virt. eigenvalues --    0.21027   0.21566   0.23718   0.24401   0.25476
 Alpha virt. eigenvalues --    0.25895   0.27328   0.28018   0.29382   0.30123
 Alpha virt. eigenvalues --    0.30561   0.32334   0.33054   0.34212   0.34663
 Alpha virt. eigenvalues --    0.36270   0.37159   0.38349   0.38566   0.40502
 Alpha virt. eigenvalues --    0.43290   0.44991   0.46825   0.48669   0.49948
 Alpha virt. eigenvalues --    0.53221   0.55463   0.56274   0.58556   0.59748
 Alpha virt. eigenvalues --    0.61753   0.63618   0.64374   0.67484   0.68713
 Alpha virt. eigenvalues --    0.70206   0.71337   0.71527   0.73403   0.74935
 Alpha virt. eigenvalues --    0.75988   0.77025   0.77883   0.81308   0.83911
 Alpha virt. eigenvalues --    0.89030   0.89858   0.95990   1.01503   1.03187
 Alpha virt. eigenvalues --    1.04988   1.07417   1.07700   1.10244   1.12355
 Alpha virt. eigenvalues --    1.16818   1.18717   1.20362   1.20714   1.24121
 Alpha virt. eigenvalues --    1.25782   1.27729   1.29489   1.33249   1.36209
 Alpha virt. eigenvalues --    1.36426   1.37229   1.40000   1.42182   1.42817
 Alpha virt. eigenvalues --    1.47099   1.51046   1.52465   1.55792   1.58297
 Alpha virt. eigenvalues --    1.59896   1.60449   1.61815   1.64595   1.66527
 Alpha virt. eigenvalues --    1.68238   1.69639   1.71184   1.74455   1.76613
 Alpha virt. eigenvalues --    1.81561   1.83854   1.85677   1.87236   1.92098
 Alpha virt. eigenvalues --    1.97811   1.99985   2.03066   2.05723   2.08495
 Alpha virt. eigenvalues --    2.10194   2.13482   2.21579   2.31547   2.35680
 Alpha virt. eigenvalues --    2.42100   2.48190   2.50768   2.51723   2.54442
 Alpha virt. eigenvalues --    2.55964   2.61179   2.62544   2.63544   2.65042
 Alpha virt. eigenvalues --    2.65901   2.71126   2.73841   2.76058   2.80774
 Alpha virt. eigenvalues --    2.81274   2.83417   2.89505   2.92336   2.93222
 Alpha virt. eigenvalues --    2.95316   3.00287   3.03274   3.04430   3.06248
 Alpha virt. eigenvalues --    3.13023   3.14555   3.15936   3.17266   3.24914
 Alpha virt. eigenvalues --    3.26893   3.31374   3.35252   3.38368   3.44884
 Alpha virt. eigenvalues --    3.56138   3.66429   3.76846   3.84967   3.86269
 Alpha virt. eigenvalues --    3.86438   3.91431   4.04086   4.14002   4.19823
 Alpha virt. eigenvalues --    4.28279   5.07131   5.10890   5.15300   5.21041
 Alpha virt. eigenvalues --    5.33643   5.46882   5.54854   5.73815   5.95116
 Alpha virt. eigenvalues --   23.62741  23.93847  23.94701  24.05930  25.15311
 Alpha virt. eigenvalues --   49.93314  50.00736  50.11725
  Beta  occ. eigenvalues --  -19.68061 -19.66052 -19.62964 -10.70553 -10.60379
  Beta  occ. eigenvalues --  -10.57617 -10.57315 -10.53708  -1.25543  -1.16248
  Beta  occ. eigenvalues --   -1.05643  -0.90326  -0.86970  -0.77959  -0.70439
  Beta  occ. eigenvalues --   -0.64322  -0.61337  -0.58380  -0.56374  -0.53408
  Beta  occ. eigenvalues --   -0.52172  -0.49201  -0.46625  -0.45250  -0.41920
  Beta  occ. eigenvalues --   -0.39504  -0.39069  -0.38284  -0.37964  -0.36157
  Beta virt. eigenvalues --   -0.08741  -0.00747  -0.00204   0.00557   0.01871
  Beta virt. eigenvalues --    0.02453   0.02839   0.03619   0.04378   0.05563
  Beta virt. eigenvalues --    0.06796   0.07458   0.07878   0.08543   0.09573
  Beta virt. eigenvalues --    0.10407   0.11440   0.12370   0.12611   0.13205
  Beta virt. eigenvalues --    0.13481   0.14639   0.14988   0.15276   0.15861
  Beta virt. eigenvalues --    0.16653   0.17599   0.18382   0.18962   0.19658
  Beta virt. eigenvalues --    0.20569   0.20961   0.21871   0.23775   0.24507
  Beta virt. eigenvalues --    0.25265   0.25748   0.27423   0.28274   0.29483
  Beta virt. eigenvalues --    0.30112   0.30605   0.32378   0.33057   0.34230
  Beta virt. eigenvalues --    0.34704   0.36280   0.37092   0.38504   0.38654
  Beta virt. eigenvalues --    0.40539   0.43318   0.45012   0.46836   0.48764
  Beta virt. eigenvalues --    0.49956   0.53219   0.55492   0.56958   0.58984
  Beta virt. eigenvalues --    0.59855   0.62032   0.63668   0.64417   0.67566
  Beta virt. eigenvalues --    0.68744   0.70217   0.71358   0.71609   0.73396
  Beta virt. eigenvalues --    0.74949   0.75989   0.77329   0.77887   0.81335
  Beta virt. eigenvalues --    0.84129   0.89134   0.90324   0.96013   1.01548
  Beta virt. eigenvalues --    1.03422   1.05506   1.07817   1.09623   1.10688
  Beta virt. eigenvalues --    1.12885   1.17023   1.18775   1.20563   1.21378
  Beta virt. eigenvalues --    1.24166   1.26297   1.28453   1.29987   1.33560
  Beta virt. eigenvalues --    1.36371   1.36617   1.37963   1.40094   1.43050
  Beta virt. eigenvalues --    1.43259   1.47400   1.51211   1.52920   1.56267
  Beta virt. eigenvalues --    1.58308   1.59926   1.60473   1.61864   1.64622
  Beta virt. eigenvalues --    1.66536   1.68355   1.70253   1.71441   1.74523
  Beta virt. eigenvalues --    1.76826   1.81576   1.83992   1.85756   1.87308
  Beta virt. eigenvalues --    1.92160   1.97978   2.00077   2.03094   2.05764
  Beta virt. eigenvalues --    2.09947   2.10285   2.13495   2.21589   2.31558
  Beta virt. eigenvalues --    2.35683   2.42419   2.48232   2.50775   2.51738
  Beta virt. eigenvalues --    2.54445   2.55999   2.61362   2.62582   2.63629
  Beta virt. eigenvalues --    2.65338   2.66230   2.71397   2.73878   2.76578
  Beta virt. eigenvalues --    2.81353   2.81917   2.84902   2.92145   2.93602
  Beta virt. eigenvalues --    2.94846   2.97342   3.00775   3.04332   3.05812
  Beta virt. eigenvalues --    3.06437   3.13182   3.15947   3.18370   3.18997
  Beta virt. eigenvalues --    3.25587   3.27196   3.31389   3.35466   3.38380
  Beta virt. eigenvalues --    3.44861   3.56358   3.66429   3.76897   3.84977
  Beta virt. eigenvalues --    3.86284   3.90101   3.91461   4.04086   4.13988
  Beta virt. eigenvalues --    4.19818   4.28277   5.09782   5.15223   5.18854
  Beta virt. eigenvalues --    5.21217   5.33695   5.46974   5.57021   5.73812
  Beta virt. eigenvalues --    5.95109  23.62769  23.93848  23.94708  24.05930
  Beta virt. eigenvalues --   25.15465  49.92863  50.00728  50.11739
          Condensed to atoms (all electrons):
               1          2          3          4          5          6
     1  O    8.022797   0.248051  -0.013133   0.003769   0.008441  -0.029775
     2  H    0.248051   0.504527   0.011714  -0.000009   0.012935  -0.010599
     3  C   -0.013133   0.011714   5.522453   0.437179  -0.280873   0.889711
     4  H    0.003769  -0.000009   0.437179   0.432429  -0.095056   0.027305
     5  C    0.008441   0.012935  -0.280873  -0.095056   8.497130  -2.641813
     6  C   -0.029775  -0.010599   0.889711   0.027305  -2.641813   8.050440
     7  O   -0.009789  -0.000957  -0.064123  -0.002307   0.082699   0.364289
     8  O   -0.011885  -0.001013  -0.057277  -0.004066  -0.300090   0.201905
     9  C   -0.009276   0.001549   0.044729   0.001754  -0.262691   0.054643
    10  C    0.004790  -0.001217  -0.009683  -0.001088  -0.020886  -0.055907
    11  H   -0.000178   0.000137   0.002207   0.000166  -0.002521   0.018433
    12  H    0.000200  -0.000387  -0.004790  -0.000321   0.010140  -0.024516
    13  H   -0.000053  -0.000010  -0.000322   0.000008   0.001608   0.002515
    14  H    0.000238   0.000017  -0.001429  -0.000110   0.007527  -0.007018
    15  H   -0.000064   0.000076   0.001822  -0.000026  -0.024527   0.001516
               7          8          9         10         11         12
     1  O   -0.009789  -0.011885  -0.009276   0.004790  -0.000178   0.000200
     2  H   -0.000957  -0.001013   0.001549  -0.001217   0.000137  -0.000387
     3  C   -0.064123  -0.057277   0.044729  -0.009683   0.002207  -0.004790
     4  H   -0.002307  -0.004066   0.001754  -0.001088   0.000166  -0.000321
     5  C    0.082699  -0.300090  -0.262691  -0.020886  -0.002521   0.010140
     6  C    0.364289   0.201905   0.054643  -0.055907   0.018433  -0.024516
     7  O    7.999192  -0.143090   0.060642  -0.083308   0.003534  -0.015463
     8  O   -0.143090   8.243801   0.155347  -0.048486  -0.087812  -0.002336
     9  C    0.060642   0.155347   5.489034  -0.006496   0.434507   0.388493
    10  C   -0.083308  -0.048486  -0.006496   5.503690  -0.057843  -0.016317
    11  H    0.003534  -0.087812   0.434507  -0.057843   0.529530  -0.033446
    12  H   -0.015463  -0.002336   0.388493  -0.016317  -0.033446   0.509956
    13  H   -0.001956   0.015798  -0.046446   0.401573  -0.002068  -0.002726
    14  H    0.002844  -0.002382  -0.037578   0.421307  -0.010563   0.002942
    15  H    0.002985  -0.014406  -0.002988   0.386887   0.009848  -0.009597
              13         14         15
     1  O   -0.000053   0.000238  -0.000064
     2  H   -0.000010   0.000017   0.000076
     3  C   -0.000322  -0.001429   0.001822
     4  H    0.000008  -0.000110  -0.000026
     5  C    0.001608   0.007527  -0.024527
     6  C    0.002515  -0.007018   0.001516
     7  O   -0.001956   0.002844   0.002985
     8  O    0.015798  -0.002382  -0.014406
     9  C   -0.046446  -0.037578  -0.002988
    10  C    0.401573   0.421307   0.386887
    11  H   -0.002068  -0.010563   0.009848
    12  H   -0.002726   0.002942  -0.009597
    13  H    0.531714  -0.029971  -0.032997
    14  H   -0.029971   0.537162  -0.049559
    15  H   -0.032997  -0.049559   0.543819
          Atomic-Atomic Spin Densities.
               1          2          3          4          5          6
     1  O    0.995282   0.011367  -0.032851  -0.000717  -0.017096  -0.016945
     2  H    0.011367  -0.033263   0.000701  -0.000139  -0.003986   0.003539
     3  C   -0.032851   0.000701   0.104707  -0.004540   0.116150  -0.053270
     4  H   -0.000717  -0.000139  -0.004540  -0.006446   0.009357  -0.004107
     5  C   -0.017096  -0.003986   0.116150   0.009357  -0.290255   0.153890
     6  C   -0.016945   0.003539  -0.053270  -0.004107   0.153890  -0.086208
     7  O    0.001315  -0.000049  -0.000649  -0.000077   0.000015  -0.000275
     8  O    0.000647   0.000192  -0.000414  -0.000156   0.003419   0.003078
     9  C   -0.002762   0.000520  -0.004459  -0.000185   0.018368  -0.021412
    10  C   -0.000615   0.000008   0.003131   0.000111  -0.014934   0.016066
    11  H   -0.000275   0.000042  -0.000520  -0.000024   0.002551  -0.002509
    12  H    0.000152  -0.000044   0.000343   0.000013  -0.002015   0.002283
    13  H   -0.000056   0.000017   0.000040  -0.000001  -0.000567   0.000095
    14  H    0.000135  -0.000025   0.000248   0.000017  -0.000221   0.000604
    15  H   -0.000202   0.000031  -0.000531  -0.000021   0.002332  -0.002668
               7          8          9         10         11         12
     1  O    0.001315   0.000647  -0.002762  -0.000615  -0.000275   0.000152
     2  H   -0.000049   0.000192   0.000520   0.000008   0.000042  -0.000044
     3  C   -0.000649  -0.000414  -0.004459   0.003131  -0.000520   0.000343
     4  H   -0.000077  -0.000156  -0.000185   0.000111  -0.000024   0.000013
     5  C    0.000015   0.003419   0.018368  -0.014934   0.002551  -0.002015
     6  C   -0.000275   0.003078  -0.021412   0.016066  -0.002509   0.002283
     7  O   -0.007126  -0.000088   0.001873   0.000073   0.000129  -0.000124
     8  O   -0.000088  -0.004220  -0.000278  -0.001487   0.000155  -0.000156
     9  C    0.001873  -0.000278   0.002314   0.004997  -0.000544  -0.000025
    10  C    0.000073  -0.001487   0.004997  -0.009189   0.001030  -0.000530
    11  H    0.000129   0.000155  -0.000544   0.001030  -0.000231   0.000043
    12  H   -0.000124  -0.000156  -0.000025  -0.000530   0.000043  -0.000155
    13  H    0.000234  -0.000276   0.001811  -0.001772   0.000220  -0.000175
    14  H   -0.000258   0.000129  -0.001055   0.000951  -0.000154   0.000079
    15  H    0.000100   0.000048  -0.000440   0.001476  -0.000082   0.000016
              13         14         15
     1  O   -0.000056   0.000135  -0.000202
     2  H    0.000017  -0.000025   0.000031
     3  C    0.000040   0.000248  -0.000531
     4  H   -0.000001   0.000017  -0.000021
     5  C   -0.000567  -0.000221   0.002332
     6  C    0.000095   0.000604  -0.002668
     7  O    0.000234  -0.000258   0.000100
     8  O   -0.000276   0.000129   0.000048
     9  C    0.001811  -0.001055  -0.000440
    10  C   -0.001772   0.000951   0.001476
    11  H    0.000220  -0.000154  -0.000082
    12  H   -0.000175   0.000079   0.000016
    13  H    0.000269  -0.000132   0.000382
    14  H   -0.000132   0.000140  -0.000345
    15  H    0.000382  -0.000345  -0.000179
 Mulliken charges and spin densities:
               1          2
     1  O   -0.214135   0.937379
     2  H    0.235187  -0.021090
     3  C   -0.478186   0.128084
     4  H    0.200374  -0.006915
     5  C    1.007975  -0.022994
     6  C   -0.841131  -0.007839
     7  O   -0.195194  -0.004909
     8  O    0.055991   0.000592
     9  C   -0.265220  -0.001278
    10  C   -0.417015  -0.000686
    11  H    0.196068  -0.000170
    12  H    0.198168  -0.000296
    13  H    0.163334   0.000090
    14  H    0.166573   0.000113
    15  H    0.187210  -0.000082
 Sum of Mulliken charges =  -0.00000   1.00000
 Mulliken charges and spin densities with hydrogens summed into heavy atoms:
               1          2
     1  O    0.021053   0.916289
     3  C   -0.277812   0.121170
     5  C    1.007975  -0.022994
     6  C   -0.841131  -0.007839
     7  O   -0.195194  -0.004909
     8  O    0.055991   0.000592
     9  C    0.129016  -0.001745
    10  C    0.100102  -0.000565
 APT charges:
               1
     1  O   -0.237919
     2  H    0.270714
     3  C   -0.210133
     4  H    0.231318
     5  C   -0.318476
     6  C    1.472469
     7  O   -0.779622
     8  O   -0.948140
     9  C    0.536065
    10  C   -0.037016
    11  H   -0.013120
    12  H   -0.010413
    13  H    0.008183
    14  H    0.008633
    15  H    0.027459
 Sum of APT charges =   0.00000
 APT charges with hydrogens summed into heavy atoms:
               1
     1  O    0.032795
     3  C    0.021185
     5  C   -0.318476
     6  C    1.472469
     7  O   -0.779622
     8  O   -0.948140
     9  C    0.512531
    10  C    0.007259
 Electronic spatial extent (au):  <R**2>=           1148.9197
 Charge=              0.0000 electrons
 Dipole moment (field-independent basis, Debye):
    X=              0.2821    Y=             -0.5594    Z=             -0.6520  Tot=              0.9042
 Quadrupole moment (field-independent basis, Debye-Ang):
   XX=            -31.6703   YY=            -46.5929   ZZ=            -52.0876
   XY=             -5.0219   XZ=              2.7060   YZ=              3.7954
 Traceless Quadrupole moment (field-independent basis, Debye-Ang):
   XX=             11.7799   YY=             -3.1426   ZZ=             -8.6373
   XY=             -5.0219   XZ=              2.7060   YZ=              3.7954
 Octapole moment (field-independent basis, Debye-Ang**2):
  XXX=             30.8293  YYY=              5.9870  ZZZ=             -3.4341  XYY=              3.2960
  XXY=             -6.4082  XXZ=              2.4398  XZZ=              2.4189  YZZ=              4.7733
  YYZ=              1.1471  XYZ=             11.1244
 Hexadecapole moment (field-independent basis, Debye-Ang**3):
 XXXX=           -897.2689 YYYY=           -255.0078 ZZZZ=           -185.0725 XXXY=            -40.5932
 XXXZ=              6.1404 YYYX=              0.3347 YYYZ=              5.2559 ZZZX=              7.8642
 ZZZY=              1.8195 XXYY=           -193.7609 XXZZ=           -198.3587 YYZZ=            -67.7156
 XXYZ=             33.0914 YYXZ=              1.6258 ZZXY=              3.2164
 N-N= 3.557265057011D+02 E-N=-1.696312347644D+03  KE= 4.188667354753D+02
  Exact polarizability:  87.222  -8.579  65.639  -4.189   2.610  60.106
 Approx polarizability:  90.840 -13.433  73.137  -8.183   2.508  78.320
                          Isotropic Fermi Contact Couplings
        Atom                 a.u.       MegaHertz       Gauss      10(-4) cm-1
     1  O(17)              0.13104     -79.43834     -28.34558     -26.49778
     2  H(1)              -0.01525     -68.16476     -24.32288     -22.73732
     3  C(13)              0.02231      25.07522       8.94746       8.36419
     4  H(1)              -0.00195      -8.70131      -3.10484      -2.90245
     5  C(13)              0.01526      17.14998       6.11954       5.72062
     6  C(13)              0.00560       6.29480       2.24614       2.09972
     7  O(17)             -0.00188       1.13982       0.40672       0.38020
     8  O(17)             -0.00111       0.67453       0.24069       0.22500
     9  C(13)             -0.00002      -0.02013      -0.00718      -0.00672
    10  C(13)             -0.00015      -0.17028      -0.06076      -0.05680
    11  H(1)              -0.00000      -0.00929      -0.00332      -0.00310
    12  H(1)              -0.00003      -0.13064      -0.04662      -0.04358
    13  H(1)              -0.00000      -0.01707      -0.00609      -0.00569
    14  H(1)               0.00000       0.00317       0.00113       0.00106
    15  H(1)               0.00000       0.01103       0.00394       0.00368
 --------------------------------------------------------
       Center         ----  Spin Dipole Couplings  ----
                      3XX-RR        3YY-RR        3ZZ-RR
 --------------------------------------------------------
     1   Atom       -1.748739      3.344247     -1.595508
     2   Atom       -0.012643     -0.034733      0.047376
     3   Atom       -0.056337      0.119629     -0.063292
     4   Atom        0.004351      0.005094     -0.009445
     5   Atom        0.008807      0.022945     -0.031752
     6   Atom        0.012203     -0.001208     -0.010996
     7   Atom        0.017980     -0.026636      0.008656
     8   Atom        0.008866     -0.008690     -0.000176
     9   Atom        0.003432     -0.001583     -0.001848
    10   Atom        0.001364     -0.000543     -0.000822
    11   Atom        0.002574     -0.001348     -0.001226
    12   Atom        0.003542     -0.001769     -0.001773
    13   Atom        0.001013     -0.000449     -0.000564
    14   Atom        0.001074     -0.000369     -0.000705
    15   Atom        0.001172     -0.000344     -0.000827
 --------------------------------------------------------
                        XY            XZ            YZ
 --------------------------------------------------------
     1   Atom        0.567892      0.114286      1.082909
     2   Atom       -0.030053      0.140931     -0.030360
     3   Atom        0.063950      0.007626      0.008113
     4   Atom       -0.008073     -0.005968      0.004873
     5   Atom        0.012279     -0.009934      0.006887
     6   Atom        0.012245     -0.005109     -0.002017
     7   Atom       -0.002911     -0.004923     -0.009254
     8   Atom        0.000335      0.003060      0.000424
     9   Atom        0.000671      0.000207      0.000056
    10   Atom        0.000636      0.000002      0.000013
    11   Atom        0.000024      0.000936      0.000028
    12   Atom        0.000218     -0.000929      0.000014
    13   Atom        0.000355     -0.000035     -0.000001
    14   Atom        0.000730      0.000337      0.000145
    15   Atom        0.000918     -0.000362     -0.000120
 --------------------------------------------------------


 ---------------------------------------------------------------------------------
              Anisotropic Spin Dipole Couplings in Principal Axis System
 ---------------------------------------------------------------------------------

       Atom             a.u.   MegaHertz   Gauss  10(-4) cm-1        Axes

              Baa    -1.8241   131.991    47.098    44.028  0.3318 -0.2282  0.9153
     1 O(17)  Bbb    -1.8094   130.930    46.719    43.674  0.9373 -0.0303 -0.3473
              Bcc     3.6336  -262.922   -93.817   -87.701  0.1070  0.9731  0.2039
 
              Baa    -0.1269   -67.726   -24.166   -22.591  0.7809  0.0495 -0.6227
     2 H(1)   Bbb    -0.0433   -23.123    -8.251    -7.713  0.0889  0.9779  0.1892
              Bcc     0.1703    90.850    32.417    30.304  0.6183 -0.2031  0.7592
 
              Baa    -0.0786   -10.552    -3.765    -3.520  0.9103 -0.2812 -0.3037
     3 C(13)  Bbb    -0.0623    -8.357    -2.982    -2.788  0.2746 -0.1390  0.9515
              Bcc     0.1409    18.909     6.747     6.307  0.3098  0.9495  0.0493
 
              Baa    -0.0119    -6.358    -2.269    -2.121  0.2793 -0.1396  0.9500
     4 H(1)   Bbb    -0.0033    -1.743    -0.622    -0.581  0.6874  0.7199 -0.0963
              Bcc     0.0152     8.101     2.891     2.702 -0.6704  0.6799  0.2970
 
              Baa    -0.0357    -4.784    -1.707    -1.596  0.2585 -0.1660  0.9516
     5 C(13)  Bbb     0.0056     0.750     0.268     0.250  0.8301 -0.4656 -0.3067
              Bcc     0.0301     4.034     1.439     1.346  0.4940  0.8693  0.0175
 
              Baa    -0.0121    -1.628    -0.581    -0.543  0.2576 -0.1114  0.9598
     6 C(13)  Bbb    -0.0083    -1.109    -0.396    -0.370 -0.4589  0.8601  0.2230
              Bcc     0.0204     2.737     0.977     0.913  0.8504  0.4979 -0.1704
 
              Baa    -0.0293     2.117     0.755     0.706  0.0852  0.9653  0.2467
     7 O(17)  Bbb     0.0091    -0.661    -0.236    -0.220  0.4030 -0.2598  0.8776
              Bcc     0.0201    -1.456    -0.520    -0.486  0.9112  0.0246 -0.4111
 
              Baa    -0.0087     0.630     0.225     0.210 -0.0111  0.9989 -0.0457
     8 O(17)  Bbb    -0.0011     0.080     0.028     0.027 -0.2945  0.0404  0.9548
              Bcc     0.0098    -0.710    -0.253    -0.237  0.9556  0.0240  0.2937
 
              Baa    -0.0019    -0.250    -0.089    -0.083 -0.0194 -0.1519  0.9882
     9 C(13)  Bbb    -0.0017    -0.224    -0.080    -0.075 -0.1350  0.9797  0.1480
              Bcc     0.0035     0.473     0.169     0.158  0.9907  0.1305  0.0395
 
              Baa    -0.0008    -0.110    -0.039    -0.037  0.0362 -0.1275  0.9912
    10 C(13)  Bbb    -0.0007    -0.098    -0.035    -0.033 -0.2876  0.9485  0.1325
              Bcc     0.0016     0.209     0.075     0.070  0.9571  0.2899  0.0024
 
              Baa    -0.0014    -0.773    -0.276    -0.258 -0.2200 -0.2163  0.9512
    11 H(1)   Bbb    -0.0013    -0.717    -0.256    -0.239 -0.0559  0.9763  0.2091
              Bcc     0.0028     1.490     0.531     0.497  0.9739  0.0072  0.2269
 
              Baa    -0.0019    -1.038    -0.370    -0.346  0.1710 -0.2852  0.9431
    12 H(1)   Bbb    -0.0018    -0.940    -0.336    -0.314  0.0111  0.9577  0.2876
              Bcc     0.0037     1.979     0.706     0.660  0.9852  0.0387 -0.1669
 
              Baa    -0.0006    -0.302    -0.108    -0.101  0.0628 -0.1843  0.9809
    13 H(1)   Bbb    -0.0005    -0.282    -0.101    -0.094 -0.2157  0.9571  0.1936
              Bcc     0.0011     0.584     0.208     0.195  0.9744  0.2237 -0.0204
 
              Baa    -0.0008    -0.409    -0.146    -0.137 -0.1392 -0.1030  0.9849
    14 H(1)   Bbb    -0.0007    -0.359    -0.128    -0.120 -0.3918  0.9192  0.0407
              Bcc     0.0014     0.769     0.274     0.256  0.9095  0.3802  0.1683
 
              Baa    -0.0009    -0.481    -0.172    -0.160  0.2730 -0.2503  0.9289
    15 H(1)   Bbb    -0.0008    -0.406    -0.145    -0.135 -0.3514  0.8729  0.3385
              Bcc     0.0017     0.887     0.316     0.296  0.8955  0.4189 -0.1503
 

 ---------------------------------------------------------------------------------

 Calling FoFJK, ICntrl=    100127 FMM=F ISym2X=0 I1Cent= 0 IOpClX= 1 NMat=1 NMatS=1 NMatT=0.
 Full mass-weighted force constant matrix:
 Low frequencies ---  -54.7449  -36.0192   -8.8096   -0.0002    0.0006    0.0008
 Low frequencies ---   24.0060   52.3124  100.2620
 ******    1 imaginary frequencies (negative Signs) ****** 
 Diagonal vibrational polarizability:
      276.5217769     171.0374645      81.7245893
 Harmonic frequencies (cm**-1), IR intensities (KM/Mole), Raman scattering
 activities (A**4/AMU), depolarization ratios for plane and unpolarized
 incident light, reduced masses (AMU), force constants (mDyne/A),
 and normal coordinates:
                      1                      2                      3
                      A                      A                      A
 Frequencies --    -23.2682                47.6678                99.9926
 Red. masses --      5.2359                 4.6333                 5.4943
 Frc consts  --      0.0017                 0.0062                 0.0324
 IR Inten    --      7.7395                 1.9468                 4.6962
  Atom  AN      X      Y      Z        X      Y      Z        X      Y      Z
     1   8     0.23  -0.08   0.27     0.29  -0.06  -0.15     0.27  -0.00  -0.11
     2   1    -0.11  -0.24   0.50     0.25  -0.09  -0.13    -0.04   0.03   0.15
     3   6    -0.05   0.02  -0.10    -0.10   0.02   0.00     0.14   0.24   0.13
     4   1    -0.06   0.01  -0.10    -0.13  -0.02  -0.04     0.25   0.41   0.20
     5   6    -0.05   0.03  -0.10    -0.05   0.08   0.05     0.01   0.06   0.03
     6   6    -0.02   0.08  -0.08    -0.04   0.08   0.08    -0.08  -0.10  -0.04
     7   8     0.05   0.23  -0.05    -0.05   0.00   0.07    -0.16  -0.22  -0.07
     8   8    -0.09  -0.06  -0.10    -0.04   0.15   0.10    -0.05  -0.07  -0.05
     9   6    -0.09  -0.08  -0.08    -0.10  -0.05   0.09    -0.02   0.02  -0.04
    10   6    -0.02  -0.12   0.14     0.03  -0.18  -0.19    -0.11   0.11   0.17
    11   1    -0.18  -0.21  -0.16    -0.12   0.06   0.18    -0.02  -0.07  -0.11
    12   1    -0.07   0.06  -0.17    -0.23  -0.20   0.19     0.06   0.13  -0.11
    13   1    -0.03  -0.14   0.15    -0.03  -0.34  -0.18    -0.07   0.23   0.13
    14   1    -0.04  -0.25   0.23     0.15  -0.01  -0.30    -0.19  -0.03   0.26
    15   1     0.07   0.02   0.22     0.06  -0.30  -0.29    -0.15   0.21   0.26
                      4                      5                      6
                      A                      A                      A
 Frequencies --    114.6816               158.4350               191.0684
 Red. masses --      3.4672                 2.5389                 2.1171
 Frc consts  --      0.0269                 0.0375                 0.0455
 IR Inten    --      3.2136                17.3901                27.1326
  Atom  AN      X      Y      Z        X      Y      Z        X      Y      Z
     1   8    -0.05  -0.00   0.01    -0.01  -0.01  -0.01     0.07   0.19   0.07
     2   1     0.20  -0.02  -0.19    -0.29   0.03   0.23     0.71   0.02  -0.51
     3   6    -0.06  -0.10   0.05     0.07  -0.08   0.22    -0.04  -0.13   0.03
     4   1    -0.09  -0.20   0.10     0.13  -0.15   0.46    -0.10  -0.28   0.06
     5   6    -0.02   0.02  -0.00     0.00   0.01  -0.11     0.03   0.03  -0.01
     6   6    -0.03   0.05  -0.05     0.01   0.03  -0.12     0.01  -0.01  -0.02
     7   8    -0.13  -0.11  -0.08     0.08  -0.00  -0.10     0.00  -0.03  -0.02
     8   8     0.06   0.21  -0.03    -0.06   0.06  -0.05    -0.03  -0.06  -0.02
     9   6    -0.00   0.04  -0.06    -0.05   0.01   0.12    -0.02  -0.03   0.00
    10   6     0.20  -0.10   0.17    -0.02  -0.02   0.01    -0.07   0.01   0.01
    11   1    -0.14  -0.15  -0.16    -0.11   0.14   0.25    -0.01  -0.01   0.02
    12   1    -0.07   0.20  -0.15     0.02  -0.14   0.21     0.02  -0.05   0.01
    13   1     0.13  -0.23   0.06     0.02  -0.07   0.30    -0.04   0.07   0.09
    14   1     0.32  -0.30   0.29    -0.21   0.21  -0.13    -0.17   0.05  -0.02
    15   1     0.28   0.12   0.32     0.14  -0.23  -0.21    -0.06  -0.04  -0.04
                      7                      8                      9
                      A                      A                      A
 Frequencies --    215.2527               229.8727               292.6747
 Red. masses --      1.9789                 1.3277                 3.8777
 Frc consts  --      0.0540                 0.0413                 0.1957
 IR Inten    --     37.4424                 0.5924                 8.7466
  Atom  AN      X      Y      Z        X      Y      Z        X      Y      Z
     1   8     0.08   0.19  -0.04     0.01   0.03  -0.01    -0.03  -0.10  -0.03
     2   1    -0.66   0.20   0.57    -0.10   0.04   0.09    -0.38   0.16   0.34
     3   6    -0.06  -0.11  -0.03    -0.03   0.01  -0.05    -0.08  -0.11  -0.03
     4   1    -0.08  -0.14  -0.04    -0.04   0.04  -0.12    -0.26  -0.45  -0.10
     5   6    -0.03  -0.08  -0.01    -0.02  -0.03   0.06     0.19   0.37   0.06
     6   6    -0.00  -0.03   0.01    -0.02  -0.01   0.02     0.07   0.10   0.04
     7   8     0.01  -0.04   0.02    -0.08   0.02   0.00     0.01  -0.11   0.01
     8   8     0.01   0.00   0.02     0.03  -0.02  -0.02     0.02  -0.03   0.01
     9   6     0.01   0.00  -0.00     0.04  -0.00  -0.02    -0.01  -0.05  -0.07
    10   6     0.02   0.00  -0.01     0.06  -0.01   0.02    -0.10   0.02   0.01
    11   1     0.02  -0.01  -0.02     0.03  -0.01  -0.02     0.02  -0.11  -0.13
    12   1    -0.01   0.02  -0.01     0.06   0.00  -0.03    -0.04   0.02  -0.11
    13   1    -0.02  -0.00  -0.20     0.16  -0.04   0.59    -0.03   0.14   0.15
    14   1     0.17  -0.10   0.05    -0.38   0.26  -0.14    -0.29   0.03   0.01
    15   1    -0.09   0.09   0.11     0.40  -0.25  -0.30    -0.07  -0.02  -0.03
                     10                     11                     12
                      A                      A                      A
 Frequencies --    339.6936               423.2597               495.7129
 Red. masses --      2.9392                 3.8728                 1.0820
 Frc consts  --      0.1998                 0.4088                 0.1567
 IR Inten    --     10.5899                 0.3779               122.4740
  Atom  AN      X      Y      Z        X      Y      Z        X      Y      Z
     1   8    -0.00  -0.02  -0.00    -0.00  -0.00   0.00     0.01  -0.04   0.01
     2   1    -0.02   0.10   0.05     0.01   0.16   0.04     0.25   0.95   0.13
     3   6    -0.02  -0.02  -0.04     0.11  -0.03  -0.06     0.00  -0.01  -0.01
     4   1    -0.08  -0.07  -0.13     0.12   0.07  -0.18     0.01   0.01  -0.02
     5   6     0.06   0.07   0.09     0.09  -0.17   0.10    -0.00  -0.02   0.01
     6   6    -0.00   0.01  -0.06     0.08   0.05  -0.02    -0.01  -0.02  -0.01
     7   8    -0.18   0.08  -0.10    -0.07   0.06  -0.06     0.01  -0.00  -0.00
     8   8     0.00  -0.09  -0.11     0.14   0.21   0.00    -0.03  -0.00   0.00
     9   6     0.10  -0.02   0.21    -0.03  -0.16   0.02    -0.02   0.03  -0.01
    10   6     0.06  -0.00   0.02    -0.23  -0.05   0.04     0.01   0.00  -0.00
    11   1     0.03   0.23   0.44    -0.10  -0.15   0.05    -0.02   0.01  -0.02
    12   1     0.31  -0.30   0.36    -0.13  -0.16   0.03    -0.03   0.04  -0.01
    13   1    -0.00  -0.00  -0.30    -0.10   0.33   0.02    -0.01  -0.06   0.00
    14   1     0.34  -0.02   0.02    -0.47  -0.09   0.07     0.04   0.01  -0.01
    15   1    -0.17   0.01   0.11    -0.48  -0.10   0.09     0.05   0.01  -0.01
                     13                     14                     15
                      A                      A                      A
 Frequencies --    564.6736               607.4849               725.1788
 Red. masses --      3.9532                 7.0874                 1.3269
 Frc consts  --      0.7427                 1.5410                 0.4111
 IR Inten    --      4.8533                 7.2364                37.6585
  Atom  AN      X      Y      Z        X      Y      Z        X      Y      Z
     1   8    -0.00   0.02  -0.00    -0.00   0.00   0.00     0.00  -0.00  -0.00
     2   1    -0.09  -0.30  -0.03     0.01  -0.08  -0.03    -0.01  -0.01   0.00
     3   6     0.17  -0.09  -0.08    -0.23   0.10   0.07    -0.01   0.08  -0.13
     4   1     0.09  -0.08  -0.34    -0.31   0.31  -0.39     0.05  -0.52   0.83
     5   6     0.24  -0.08   0.21    -0.12  -0.05   0.45     0.00  -0.04   0.07
     6   6     0.01  -0.02  -0.04    -0.03   0.05  -0.13    -0.00   0.01  -0.00
     7   8    -0.01   0.01  -0.05     0.32  -0.13  -0.05     0.01  -0.01   0.00
     8   8    -0.15  -0.02   0.04    -0.01   0.05  -0.22    -0.00  -0.00  -0.01
     9   6    -0.21   0.18   0.00     0.00  -0.01  -0.02    -0.00   0.00  -0.00
    10   6     0.00   0.02  -0.01    -0.01  -0.01   0.01    -0.00  -0.00   0.00
    11   1    -0.13   0.07  -0.11    -0.13   0.16   0.17    -0.00   0.01   0.01
    12   1    -0.22   0.27  -0.05     0.15  -0.20   0.08     0.00  -0.01   0.00
    13   1    -0.13  -0.41   0.03     0.00   0.05  -0.01    -0.00  -0.01   0.00
    14   1     0.25   0.07  -0.04    -0.04  -0.07   0.05     0.00  -0.00   0.00
    15   1     0.30   0.07  -0.07    -0.03   0.04   0.06     0.01   0.01   0.00
                     16                     17                     18
                      A                      A                      A
 Frequencies --    760.6193               782.0774               799.9330
 Red. masses --      1.3285                 7.4746                 1.2121
 Frc consts  --      0.4528                 2.6936                 0.4570
 IR Inten    --     24.1249                48.0426                 5.2094
  Atom  AN      X      Y      Z        X      Y      Z        X      Y      Z
     1   8    -0.00   0.00   0.00    -0.00  -0.00  -0.00     0.00   0.00  -0.00
     2   1     0.01  -0.01  -0.01     0.00   0.04   0.01    -0.00  -0.00   0.00
     3   6    -0.08  -0.11  -0.06     0.01  -0.03  -0.02     0.03  -0.02  -0.01
     4   1     0.51   0.72   0.43     0.27   0.40   0.12     0.03  -0.02  -0.00
     5   6     0.04   0.05   0.03    -0.08  -0.19  -0.05     0.02   0.01  -0.02
     6   6    -0.01  -0.03  -0.01     0.26   0.60   0.12    -0.03  -0.04   0.03
     7   8     0.01   0.01  -0.00    -0.08  -0.17  -0.01    -0.00   0.01   0.05
     8   8     0.00   0.01   0.00    -0.06  -0.16  -0.04     0.01   0.02  -0.03
     9   6    -0.00   0.00   0.00    -0.03   0.02  -0.03    -0.03   0.02  -0.07
    10   6    -0.00  -0.00   0.00    -0.01   0.02  -0.01    -0.02  -0.00  -0.03
    11   1    -0.00  -0.01  -0.01     0.05   0.20   0.10     0.08   0.46   0.25
    12   1    -0.01   0.01  -0.00     0.06  -0.16   0.08    -0.02  -0.46   0.22
    13   1    -0.00   0.00  -0.00    -0.05  -0.13   0.05     0.01  -0.05   0.18
    14   1    -0.00   0.01  -0.00     0.04  -0.09   0.06    -0.17  -0.37   0.20
    15   1    -0.01  -0.01  -0.00     0.19   0.16   0.03     0.25   0.35   0.15
                     19                     20                     21
                      A                      A                      A
 Frequencies --    895.8443               927.7718              1075.4040
 Red. masses --      3.1462                 2.8179                 4.1698
 Frc consts  --      1.4876                 1.4291                 2.8412
 IR Inten    --     14.9160                 6.1009                21.2647
  Atom  AN      X      Y      Z        X      Y      Z        X      Y      Z
     1   8    -0.00  -0.00   0.00     0.00   0.00  -0.00     0.00   0.00   0.00
     2   1     0.01  -0.01  -0.01    -0.01   0.01   0.01     0.00   0.00   0.00
     3   6    -0.04   0.02   0.01     0.10  -0.05  -0.04     0.06  -0.03  -0.02
     4   1    -0.04   0.03  -0.01     0.11  -0.05  -0.04     0.07  -0.03  -0.05
     5   6    -0.01  -0.01   0.06     0.07  -0.02  -0.01     0.04  -0.02   0.02
     6   6     0.04   0.01  -0.10    -0.13   0.06   0.06    -0.14   0.07  -0.02
     7   8     0.00   0.02  -0.16     0.01  -0.03   0.14     0.02  -0.01   0.02
     8   8    -0.13  -0.01   0.23    -0.14   0.05  -0.13    -0.20   0.07   0.06
     9   6     0.05  -0.12  -0.02    -0.01  -0.10  -0.02     0.36   0.09  -0.08
    10   6     0.15   0.06  -0.07     0.17   0.05   0.00    -0.12  -0.17   0.02
    11   1     0.20  -0.06  -0.03    -0.42  -0.14   0.09     0.40   0.19  -0.03
    12   1    -0.33  -0.21   0.06     0.01  -0.12  -0.01     0.48   0.16  -0.11
    13   1     0.34   0.52   0.10     0.33   0.60  -0.13    -0.14  -0.23   0.01
    14   1    -0.27  -0.21   0.11    -0.10   0.18  -0.07    -0.15  -0.24   0.05
    15   1     0.06   0.28   0.14    -0.27  -0.10   0.03    -0.19  -0.26  -0.02
                     22                     23                     24
                      A                      A                      A
 Frequencies --   1127.1152              1203.0754              1293.1292
 Red. masses --      2.0997                 1.7753                 3.4938
 Frc consts  --      1.5716                 1.5139                 3.4422
 IR Inten    --     22.1420                 4.8249               554.7631
  Atom  AN      X      Y      Z        X      Y      Z        X      Y      Z
     1   8    -0.00  -0.00  -0.00     0.00   0.00  -0.00    -0.00  -0.00  -0.00
     2   1     0.00   0.00   0.00     0.00   0.00   0.00    -0.01  -0.03  -0.00
     3   6    -0.01   0.01   0.01     0.02  -0.01  -0.01    -0.07   0.03   0.02
     4   1    -0.02   0.01   0.01     0.02  -0.01  -0.01    -0.07   0.04   0.05
     5   6    -0.01   0.01  -0.00     0.01  -0.00  -0.00    -0.02   0.00  -0.00
     6   6     0.03  -0.01   0.00    -0.06   0.03  -0.00     0.34  -0.16   0.11
     7   8    -0.00  -0.00  -0.01     0.00  -0.01   0.04    -0.04   0.02   0.00
     8   8     0.05  -0.06  -0.02     0.00   0.01  -0.08    -0.16   0.07  -0.07
     9   6    -0.05   0.22   0.04     0.04  -0.03   0.18     0.10   0.01  -0.02
    10   6     0.06  -0.17  -0.03    -0.03   0.02  -0.13    -0.02   0.02  -0.06
    11   1    -0.06   0.14  -0.03     0.18  -0.42  -0.18    -0.77  -0.11   0.17
    12   1    -0.16   0.23   0.05    -0.17   0.41  -0.07     0.12   0.15  -0.09
    13   1     0.26   0.44  -0.01     0.02  -0.06   0.28    -0.02  -0.07   0.10
    14   1    -0.51  -0.24   0.02    -0.12  -0.39   0.13    -0.07  -0.23   0.09
    15   1    -0.43  -0.14   0.17     0.23   0.40   0.08     0.04   0.09  -0.01
                     25                     26                     27
                      A                      A                      A
 Frequencies --   1346.3942              1400.2246              1429.0393
 Red. masses --      1.2657                 1.2890                 1.3898
 Frc consts  --      1.3518                 1.4890                 1.6722
 IR Inten    --    113.9769                33.5841                10.0311
  Atom  AN      X      Y      Z        X      Y      Z        X      Y      Z
     1   8     0.00   0.00   0.00    -0.00  -0.00  -0.00    -0.00  -0.00  -0.00
     2   1     0.00   0.01   0.00    -0.00  -0.00  -0.00    -0.00  -0.00   0.00
     3   6     0.01  -0.00  -0.00    -0.01   0.00   0.00    -0.01   0.00   0.00
     4   1     0.01  -0.00  -0.01    -0.01   0.01   0.01    -0.01   0.01   0.01
     5   6     0.00  -0.00   0.00    -0.00  -0.00  -0.00    -0.00  -0.00  -0.00
     6   6    -0.06   0.03  -0.03     0.06  -0.03   0.01     0.05  -0.02   0.01
     7   8     0.01   0.00  -0.02    -0.01   0.00   0.01    -0.01   0.00   0.01
     8   8     0.05  -0.02   0.08    -0.03   0.03  -0.02    -0.03   0.03  -0.02
     9   6    -0.04   0.00  -0.00    -0.05  -0.02   0.01    -0.11  -0.06   0.02
    10   6    -0.01  -0.01  -0.06    -0.06  -0.11   0.01     0.09   0.05  -0.01
    11   1    -0.54  -0.08   0.10     0.38   0.14  -0.02     0.53   0.16  -0.03
    12   1     0.77   0.09  -0.11     0.28   0.14  -0.11     0.49   0.16  -0.16
    13   1     0.03   0.04   0.06     0.17   0.50   0.00    -0.05  -0.32  -0.03
    14   1    -0.06  -0.10   0.00     0.28   0.29  -0.23    -0.35  -0.09   0.08
    15   1     0.09   0.17   0.05     0.34   0.26   0.14    -0.33  -0.09   0.03
                     28                     29                     30
                      A                      A                      A
 Frequencies --   1492.4201              1502.9656              1514.4806
 Red. masses --      1.0409                 1.0605                 1.0857
 Frc consts  --      1.3659                 1.4114                 1.4671
 IR Inten    --     10.4819                 1.9652                17.7423
  Atom  AN      X      Y      Z        X      Y      Z        X      Y      Z
     1   8    -0.00  -0.00   0.00     0.00   0.00   0.00     0.00   0.00   0.00
     2   1     0.00   0.00   0.00     0.00   0.00   0.00    -0.00   0.00   0.00
     3   6     0.00  -0.00  -0.00     0.00  -0.00  -0.00     0.00  -0.00  -0.00
     4   1     0.00  -0.00  -0.00     0.00  -0.00  -0.00     0.00  -0.00  -0.00
     5   6    -0.00   0.00   0.00    -0.00   0.00   0.00    -0.00   0.00   0.00
     6   6    -0.00   0.00   0.00    -0.02   0.00   0.00    -0.02   0.01   0.01
     7   8     0.00   0.00  -0.01     0.00   0.00  -0.01     0.01  -0.00  -0.01
     8   8     0.00  -0.00   0.00     0.01  -0.01   0.00     0.01  -0.01   0.01
     9   6    -0.02  -0.01  -0.02    -0.01  -0.05   0.01     0.04  -0.05  -0.01
    10   6    -0.01   0.02  -0.04    -0.02   0.03   0.02     0.02  -0.03  -0.01
    11   1     0.04   0.12   0.05    -0.03   0.36   0.33    -0.15   0.32   0.35
    12   1     0.01   0.04  -0.05    -0.13   0.42  -0.26    -0.26   0.33  -0.22
    13   1     0.15   0.07   0.64     0.02   0.22  -0.21    -0.05  -0.26   0.11
    14   1     0.55  -0.15   0.07     0.03  -0.32   0.22    -0.13   0.35  -0.23
    15   1    -0.42  -0.17  -0.01     0.25  -0.29  -0.33    -0.19   0.32   0.33
                     31                     32                     33
                      A                      A                      A
 Frequencies --   1839.5251              2247.0208              3075.1310
 Red. masses --     12.0019                 5.8244                 1.0353
 Frc consts  --     23.9282                17.3267                 5.7682
 IR Inten    --    328.7652                58.2303                10.6707
  Atom  AN      X      Y      Z        X      Y      Z        X      Y      Z
     1   8     0.00   0.00  -0.00    -0.00  -0.00  -0.00    -0.00  -0.00   0.00
     2   1    -0.03   0.01   0.02    -0.00   0.00   0.00    -0.00   0.00  -0.00
     3   6     0.06  -0.03  -0.02    -0.33   0.16   0.11     0.00  -0.00  -0.00
     4   1     0.09  -0.05  -0.00    -0.64   0.32   0.23    -0.00   0.00   0.00
     5   6    -0.04   0.02  -0.00     0.46  -0.21  -0.16    -0.00   0.00   0.00
     6   6    -0.21  -0.04   0.76    -0.08   0.03   0.04     0.00  -0.00   0.00
     7   8     0.15   0.02  -0.49     0.00   0.00  -0.01     0.00   0.00  -0.00
     8   8    -0.01   0.02  -0.07    -0.00   0.00  -0.00    -0.00   0.00  -0.00
     9   6    -0.03   0.01   0.02     0.00  -0.00   0.00     0.00   0.00   0.00
    10   6     0.01  -0.01  -0.00    -0.00  -0.00   0.00    -0.04  -0.04  -0.00
    11   1     0.15  -0.10  -0.12     0.00  -0.00   0.00     0.00  -0.01   0.01
    12   1     0.13  -0.07   0.08    -0.00  -0.00   0.00    -0.00  -0.01  -0.02
    13   1     0.02   0.06  -0.04     0.00  -0.00  -0.00     0.56  -0.21  -0.11
    14   1    -0.04   0.01  -0.01    -0.00   0.00  -0.00    -0.00   0.31   0.51
    15   1     0.06   0.03   0.02     0.00   0.00   0.00    -0.15   0.30  -0.40
                     34                     35                     36
                      A                      A                      A
 Frequencies --   3109.5375              3150.5356              3154.8368
 Red. masses --      1.0608                 1.1014                 1.1047
 Frc consts  --      6.0434                 6.4410                 6.4780
 IR Inten    --     16.3894                15.2081                 2.1575
  Atom  AN      X      Y      Z        X      Y      Z        X      Y      Z
     1   8    -0.00   0.00  -0.00     0.00  -0.00   0.00     0.00   0.00   0.00
     2   1     0.00  -0.00   0.00    -0.00   0.00  -0.00    -0.00   0.00  -0.00
     3   6    -0.00   0.00   0.00     0.00  -0.00  -0.00    -0.00  -0.00   0.00
     4   1     0.00  -0.00  -0.00    -0.00   0.00   0.00    -0.00   0.00   0.00
     5   6     0.00  -0.00  -0.00    -0.00   0.00   0.00     0.00   0.00   0.00
     6   6    -0.00   0.00  -0.00     0.00  -0.00   0.00    -0.00   0.00   0.00
     7   8    -0.00   0.00   0.00     0.00   0.00  -0.00    -0.00  -0.00  -0.00
     8   8     0.00  -0.00   0.00     0.00  -0.00  -0.00     0.00   0.00  -0.00
     9   6     0.01  -0.06  -0.02    -0.01   0.01  -0.02     0.01  -0.00   0.05
    10   6    -0.01   0.01   0.01    -0.05   0.05   0.06    -0.05   0.04  -0.05
    11   1    -0.15   0.33  -0.42     0.08  -0.17   0.22    -0.11   0.25  -0.31
    12   1     0.04   0.41   0.70    -0.00   0.01   0.02    -0.02  -0.19  -0.30
    13   1     0.12  -0.05  -0.02     0.61  -0.21  -0.11     0.37  -0.13  -0.08
    14   1    -0.00  -0.03  -0.06    -0.01  -0.36  -0.59    -0.01   0.11   0.16
    15   1     0.01  -0.01   0.02    -0.01   0.02   0.00     0.19  -0.42   0.54
                     37                     38                     39
                      A                      A                      A
 Frequencies --   3176.0855              3488.0337              3793.5518
 Red. masses --      1.1076                 1.1676                 1.0672
 Frc consts  --      6.5830                 8.3695                 9.0487
 IR Inten    --     14.6407                65.8515                33.4432
  Atom  AN      X      Y      Z        X      Y      Z        X      Y      Z
     1   8    -0.00  -0.00   0.00    -0.00  -0.00  -0.00    -0.04   0.01  -0.05
     2   1     0.00   0.00  -0.00     0.00   0.00   0.00     0.62  -0.23   0.75
     3   6     0.00  -0.00  -0.00    -0.10   0.05   0.04     0.00   0.00  -0.00
     4   1    -0.00   0.00   0.00     0.85  -0.41  -0.31     0.00  -0.00  -0.00
     5   6    -0.00  -0.00   0.00     0.03  -0.01  -0.01    -0.00   0.00   0.00
     6   6     0.00  -0.00  -0.00    -0.00   0.00   0.00    -0.00   0.00   0.00
     7   8    -0.00   0.00   0.00     0.00  -0.00   0.00     0.00   0.00  -0.00
     8   8    -0.00  -0.00   0.00     0.00  -0.00  -0.00     0.00  -0.00   0.00
     9   6    -0.02   0.01  -0.07    -0.00   0.00  -0.00    -0.00   0.00   0.00
    10   6    -0.02   0.01  -0.05    -0.00  -0.00  -0.00     0.00  -0.00  -0.00
    11   1     0.17  -0.40   0.50     0.00  -0.00   0.00     0.00  -0.00   0.00
    12   1     0.03   0.24   0.38     0.00  -0.00  -0.00     0.00  -0.00  -0.00
    13   1     0.07  -0.02  -0.02     0.00  -0.00  -0.00     0.00  -0.00  -0.00
    14   1     0.00   0.19   0.29    -0.00   0.00   0.00    -0.00   0.00   0.00
    15   1     0.13  -0.29   0.35    -0.00  -0.00   0.00    -0.00  -0.00   0.00

 -------------------
 - Thermochemistry -
 -------------------
 Temperature   298.150 Kelvin.  Pressure   1.00000 Atm.
 Atom     1 has atomic number  8 and mass  15.99491
 Atom     2 has atomic number  1 and mass   1.00783
 Atom     3 has atomic number  6 and mass  12.00000
 Atom     4 has atomic number  1 and mass   1.00783
 Atom     5 has atomic number  6 and mass  12.00000
 Atom     6 has atomic number  6 and mass  12.00000
 Atom     7 has atomic number  8 and mass  15.99491
 Atom     8 has atomic number  8 and mass  15.99491
 Atom     9 has atomic number  6 and mass  12.00000
 Atom    10 has atomic number  6 and mass  12.00000
 Atom    11 has atomic number  1 and mass   1.00783
 Atom    12 has atomic number  1 and mass   1.00783
 Atom    13 has atomic number  1 and mass   1.00783
 Atom    14 has atomic number  1 and mass   1.00783
 Atom    15 has atomic number  1 and mass   1.00783
 Molecular mass:   115.03952 amu.
 Principal axes and moments of inertia in atomic units:
                           1         2         3
     Eigenvalues --   478.560811556.911341657.17286
           X            0.99998  -0.00401   0.00565
           Y            0.00360   0.99755   0.06985
           Z           -0.00591  -0.06983   0.99754
 This molecule is an asymmetric top.
 Rotational symmetry number  1.
 Warning -- assumption of classical behavior for rotation
           may cause significant error
 Rotational temperatures (Kelvin)      0.18099     0.05563     0.05227
 Rotational constants (GHZ):           3.77118     1.15918     1.08905
    1 imaginary frequencies ignored.
 Zero-point vibrational energy     293625.8 (Joules/Mol)
                                   70.17825 (Kcal/Mol)
 Warning -- explicit consideration of  13 degrees of freedom as
           vibrations may cause significant error
 Vibrational temperatures:     68.58   143.87   165.00   227.95   274.90
          (Kelvin)            309.70   330.74   421.09   488.74   608.98
                              713.22   812.44   874.04  1043.37  1094.36
                             1125.23  1150.93  1288.92  1334.86  1547.27
                             1621.67  1730.96  1860.52  1937.16  2014.61
                             2056.07  2147.26  2162.43  2179.00  2646.67
                             3232.96  4424.43  4473.93  4532.92  4539.11
                             4569.68  5018.50  5458.07
 
 Zero-point correction=                           0.111836 (Hartree/Particle)
 Thermal correction to Energy=                    0.121436
 Thermal correction to Enthalpy=                  0.122380
 Thermal correction to Gibbs Free Energy=         0.076286
 Sum of electronic and zero-point Energies=           -420.095787
 Sum of electronic and thermal Energies=              -420.086187
 Sum of electronic and thermal Enthalpies=            -420.085243
 Sum of electronic and thermal Free Energies=         -420.131337
 
                     E (Thermal)             CV                S
                      KCal/Mol        Cal/Mol-Kelvin    Cal/Mol-Kelvin
 Total                   76.202             32.563             97.013
 Electronic               0.000              0.000              1.377
 Translational            0.889              2.981             40.136
 Rotational               0.889              2.981             28.603
 Vibrational             74.425             26.601             26.897
 Vibration     1          0.595              1.978              4.912
 Vibration     2          0.604              1.949              3.454
 Vibration     3          0.608              1.937              3.188
 Vibration     4          0.621              1.893              2.568
 Vibration     5          0.634              1.852              2.217
 Vibration     6          0.645              1.818              1.999
 Vibration     7          0.652              1.795              1.880
 Vibration     8          0.688              1.687              1.458
 Vibration     9          0.720              1.596              1.214
 Vibration    10          0.785              1.420              0.881
 Vibration    11          0.851              1.260              0.669
 Vibration    12          0.920              1.108              0.515
 Vibration    13          0.966              1.016              0.437
                       Q            Log10(Q)             Ln(Q)
 Total Bot       0.814423D-35        -35.089150        -80.795754
 Total V=0       0.224837D+17         16.351868         37.651568
 Vib (Bot)       0.211089D-48        -48.675534       -112.079560
 Vib (Bot)    1  0.433770D+01          0.637259          1.467343
 Vib (Bot)    2  0.205243D+01          0.312268          0.719025
 Vib (Bot)    3  0.178410D+01          0.251420          0.578915
 Vib (Bot)    4  0.127663D+01          0.106064          0.244221
 Vib (Bot)    5  0.104707D+01          0.019976          0.045997
 Vib (Bot)    6  0.920747D+00         -0.035860         -0.082570
 Vib (Bot)    7  0.856862D+00         -0.067089         -0.154479
 Vib (Bot)    8  0.652442D+00         -0.185458         -0.427033
 Vib (Bot)    9  0.546730D+00         -0.262227         -0.603800
 Vib (Bot)   10  0.413814D+00         -0.383195         -0.882339
 Vib (Bot)   11  0.332808D+00         -0.477806         -1.100190
 Vib (Bot)   12  0.273988D+00         -0.562268         -1.294670
 Vib (Bot)   13  0.243905D+00         -0.612779         -1.410975
 Vib (V=0)       0.582752D+03          2.765484          6.367761
 Vib (V=0)    1  0.486642D+01          0.687209          1.582358
 Vib (V=0)    2  0.261246D+01          0.417049          0.960291
 Vib (V=0)    3  0.235284D+01          0.371593          0.855623
 Vib (V=0)    4  0.187105D+01          0.272085          0.626499
 Vib (V=0)    5  0.166033D+01          0.220193          0.507014
 Vib (V=0)    6  0.154775D+01          0.189700          0.436801
 Vib (V=0)    7  0.149207D+01          0.173790          0.400167
 Vib (V=0)    8  0.132200D+01          0.121231          0.279144
 Vib (V=0)    9  0.124089D+01          0.093732          0.215827
 Vib (V=0)   10  0.114903D+01          0.060332          0.138919
 Vib (V=0)   11  0.110063D+01          0.041643          0.095886
 Vib (V=0)   12  0.107015D+01          0.029444          0.067798
 Vib (V=0)   13  0.105632D+01          0.023795          0.054789
 Electronic      0.200000D+01          0.301030          0.693147
 Translational   0.484981D+08          7.685724         17.697035
 Rotational      0.397768D+06          5.599630         12.893625
 ***** Axes restored to original set *****
 -------------------------------------------------------------------
 Center     Atomic                   Forces (Hartrees/Bohr)
 Number     Number              X              Y              Z
 -------------------------------------------------------------------
      1        8           0.002887675    0.007353983    0.000937524
      2        1          -0.000247966    0.000170691    0.000024897
      3        6           0.000025948   -0.000669953   -0.000361217
      4        1           0.000124605    0.000237661    0.000009821
      5        6          -0.002217604   -0.005749630   -0.000767124
      6        6          -0.000781506   -0.002054099   -0.000161195
      7        8          -0.000013519    0.000795120    0.000258243
      8        8          -0.000117317   -0.000900371   -0.000085383
      9        6           0.000234934    0.000267147    0.000061357
     10        6           0.000015821    0.000407296    0.000057605
     11        1           0.000036766    0.000018412   -0.000000527
     12        1           0.000045619    0.000021921    0.000004495
     13        1           0.000001985    0.000034656    0.000003354
     14        1           0.000001827    0.000031247    0.000005419
     15        1           0.000002732    0.000035920    0.000012731
 -------------------------------------------------------------------
 Cartesian Forces:  Max     0.007353983 RMS     0.001558497

 GradGradGradGradGradGradGradGradGradGradGradGradGradGradGradGradGradGrad
 Berny optimization.
 Search for a local minimum.
 Step number   1 out of a maximum of    2
 All quantities printed in internal units (Hartrees-Bohrs-Radians)
 Second derivative matrix not updated -- analytic derivatives used.
 ITU=  0
     Eigenvalues ---   -0.00018   0.00035   0.00153   0.00230   0.00248
     Eigenvalues ---    0.00373   0.00538   0.00821   0.01593   0.02143
     Eigenvalues ---    0.02869   0.03294   0.03621   0.05244   0.06289
     Eigenvalues ---    0.07614   0.08313   0.08525   0.09628   0.10241
     Eigenvalues ---    0.11388   0.14167   0.17113   0.17319   0.19937
     Eigenvalues ---    0.28957   0.29774   0.43800   0.49390   0.62911
     Eigenvalues ---    0.70989   0.76489   0.78783   0.86487   0.89893
     Eigenvalues ---    0.92298   0.96890   1.72470   2.68864
 Eigenvalue     1 is  -1.79D-04 should be greater than     0.000000 Eigenvector:
                          Z2        Z1        Y2        X1        Y7
   1                    0.49763   0.29770  -0.27911   0.27128   0.23944
                          Y14       Z15       Z14       Z11       Z12
   1                   -0.21949   0.20467   0.19998  -0.18545  -0.18274
 Quadratic step=2.187D+00 exceeds max=3.000D-01 adjusted using Lamda=-7.453D-03.
 Angle between NR and scaled steps=  63.10 degrees.
 Angle between quadratic step and forces=  22.54 degrees.
 Linear search not attempted -- first point.
 B after Tr=     0.000935   -0.001906   -0.001782
         Rot=    1.000000    0.000261   -0.000133   -0.000296 Ang=   0.05 deg.
 Variable       Old X    -DE/DX   Delta X   Delta X   Delta X     New X
                                 (Linear)    (Quad)   (Total)
    X1        4.07474   0.00289   0.00000   0.07928   0.07843   4.15317
    Y1        2.82272   0.00735   0.00000   0.20250   0.20306   3.02579
    Z1       -0.01214   0.00094   0.00000   0.03493   0.03046   0.01832
    X2        5.21244  -0.00025   0.00000  -0.00954  -0.00965   5.20280
    Y2        2.36036   0.00017   0.00000   0.03832   0.04023   2.40059
    Z2        1.35328   0.00002   0.00000   0.05362   0.04920   1.40248
    X3        4.54467   0.00003   0.00000  -0.00836  -0.00637   4.53830
    Y3       -2.24213  -0.00067   0.00000  -0.03710  -0.03690  -2.27903
    Z3       -1.08209  -0.00036   0.00000  -0.02044  -0.02224  -1.10433
    X4        6.27104   0.00012   0.00000   0.01718   0.01944   6.29048
    Y4       -3.04039   0.00024   0.00000   0.01484   0.01574  -3.02465
    Z4       -1.74008   0.00001   0.00000  -0.01553  -0.01741  -1.75749
    X5        2.59559  -0.00222   0.00000  -0.04858  -0.04690   2.54869
    Y5       -1.32033  -0.00575   0.00000  -0.13106  -0.13166  -1.45199
    Z5       -0.37310  -0.00077   0.00000  -0.02058  -0.02229  -0.39539
    X6        0.16380  -0.00078   0.00000  -0.01531  -0.01393   0.14987
    Y6       -0.43169  -0.00205   0.00000  -0.06124  -0.06275  -0.49444
    Z6        0.59002  -0.00016   0.00000  -0.00906  -0.01063   0.57939
    X7       -0.44860  -0.00001   0.00000   0.00880   0.01083  -0.43777
    Y7       -0.63301   0.00080   0.00000   0.01625   0.01553  -0.61748
    Z7        2.76349   0.00026   0.00000   0.00565   0.00431   2.76780
    X8       -1.24141  -0.00012   0.00000  -0.01355  -0.01323  -1.25464
    Y8        0.53321  -0.00090   0.00000  -0.06573  -0.06904   0.46417
    Z8       -1.25112  -0.00009   0.00000  -0.01373  -0.01542  -1.26654
    X9       -3.75526   0.00023   0.00000   0.00765   0.00767  -3.74760
    Y9        1.31788   0.00027   0.00000  -0.00668  -0.01110   1.30678
    Z9       -0.55055   0.00006   0.00000  -0.00573  -0.00720  -0.55774
   X10       -5.51885   0.00002   0.00000  -0.01977  -0.01839  -5.53725
   Y10       -0.93667   0.00041   0.00000   0.01670   0.01131  -0.92536
   Z10       -0.39447   0.00006   0.00000   0.00645   0.00663  -0.38784
   X11       -4.30780   0.00004   0.00000   0.02313   0.02197  -4.28583
   Y11        2.61698   0.00002   0.00000  -0.00323  -0.00874   2.60824
   Z11       -2.04610  -0.00000   0.00000  -0.00847  -0.01047  -2.05657
   X12       -3.65689   0.00005   0.00000   0.03159   0.03147  -3.62541
   Y12        2.33141   0.00002   0.00000  -0.00220  -0.00561   2.32579
   Z12        1.24071   0.00000   0.00000  -0.00966  -0.01169   1.22902
   X13       -7.43706   0.00000   0.00000  -0.01377  -0.01268  -7.44974
   Y13       -0.28889   0.00003   0.00000   0.03084   0.02453  -0.26436
   Z13        0.00161   0.00000   0.00000   0.00876   0.00910   0.01072
   X14       -5.53211   0.00000   0.00000  -0.02814  -0.02663  -5.55875
   Y14       -1.96361   0.00003   0.00000   0.01156   0.00523  -1.95838
   Z14       -2.18220   0.00001   0.00000   0.00921   0.00993  -2.17228
   X15       -4.93943   0.00000   0.00000  -0.02458  -0.02204  -4.96147
   Y15       -2.21135   0.00004   0.00000   0.01442   0.01016  -2.20119
   Z15        1.11688   0.00001   0.00000   0.00704   0.00773   1.12460
         Item               Value     Threshold  Converged?
 Maximum Force            0.007354     0.000450     NO 
 RMS     Force            0.001558     0.000300     NO 
 Maximum Displacement     0.203063     0.001800     NO 
 RMS     Displacement     0.044722     0.001200     NO 
 Predicted change in Energy=-1.787511D-03
 GradGradGradGradGradGradGradGradGradGradGradGradGradGradGradGradGradGrad


 ----------------------------------------------------------------------

 Electric dipole moment (input orientation):
 (Debye = 10**-18 statcoulomb cm , SI units = C m)
                  (au)            (Debye)         (10**-30 SI)
   Tot        0.355749D+00      0.904223D+00      0.301616D+01
   x          0.112729D+00      0.286529D+00      0.955756D+00
   y         -0.210020D+00     -0.533819D+00     -0.178063D+01
   z         -0.264085D+00     -0.671236D+00     -0.223900D+01

 Dipole polarizability, Alpha (input orientation).
 (esu units = cm**3 , SI units = C**2 m**2 J**-1)
 Alpha(0;0):
               (au)            (10**-24 esu)      (10**-40 SI)
   iso        0.709891D+02      0.105195D+02      0.117045D+02
   aniso      0.301624D+02      0.446961D+01      0.497311D+01
   xx         0.873666D+02      0.129464D+02      0.144048D+02
   yx        -0.823197D+01     -0.121985D+01     -0.135727D+01
   yy         0.653021D+02      0.967678D+01      0.107669D+02
   zx        -0.452209D+01     -0.670105D+00     -0.745592D+00
   zy         0.275970D+01      0.408945D+00      0.455013D+00
   zz         0.602985D+02      0.893531D+01      0.994187D+01

 ----------------------------------------------------------------------

 Dipole orientation:
     8          4.13913494         -2.70275032         -0.36621879
     1          5.59430062         -1.64893842         -0.74634277
     6          3.69912877          0.66684968          3.56704818
     1          5.03179979          0.73161841          5.07381066
     6          2.18601095          0.55726589          1.87892164
     6          0.29497426          0.67607502         -0.13122956
     8          0.38497610          2.18600965         -1.81988608
     8         -1.50906908         -1.03187383          0.22059261
     6         -3.57180072         -0.97607782         -1.55929499
     6         -5.42636551          1.10898149         -0.90300139
     1         -4.42692444         -2.83891014         -1.39111915
     1         -2.80266466         -0.73994182         -3.45618530
     1         -7.03896632          1.03056152         -2.18729350
     1         -6.11561998          0.87651160          1.02616328
     1         -4.53828250          2.95870533         -1.08879923

 Electric dipole moment (dipole orientation):
 (Debye = 10**-18 statcoulomb cm , SI units = C m)
                  (au)            (Debye)         (10**-30 SI)
   Tot        0.355749D+00      0.904223D+00      0.301616D+01
   x          0.000000D+00      0.000000D+00      0.000000D+00
   y          0.000000D+00      0.000000D+00      0.000000D+00
   z          0.355749D+00      0.904223D+00      0.301616D+01

 Dipole polarizability, Alpha (dipole orientation).
 (esu units = cm**3 , SI units = C**2 m**2 J**-1)
 Alpha(0;0):
               (au)            (10**-24 esu)      (10**-40 SI)
   iso        0.709891D+02      0.105195D+02      0.117045D+02
   aniso      0.301624D+02      0.446961D+01      0.497311D+01
   xx         0.802155D+02      0.118867D+02      0.132257D+02
   yx         0.245526D+00      0.363832D-01      0.404817D-01
   yy         0.603651D+02      0.894518D+01      0.995286D+01
   zx         0.140387D+02      0.208031D+01      0.231466D+01
   zy         0.247769D+01      0.367156D+00      0.408517D+00
   zz         0.723866D+02      0.107266D+02      0.119349D+02

 ----------------------------------------------------------------------
 1\1\GINC-AJ\Freq\UM062X\6-311++G(d,p)\C5H7O3(2)\AAYUSH\16-Aug-2025\0\\
 # freq 6-311++g(d,p) m062x\\Title Card Required\\0,2\O,2.156259,1.4937
 21,-0.006425\H,2.758306,1.249049,0.716124\C,2.404934,-1.186486,-0.5726
 17\H,3.318492,-1.608907,-0.920811\C,1.373525,-0.698687,-0.197437\C,0.0
 8668,-0.228442,0.312223\O,-0.23739,-0.334973,1.462377\O,-0.656925,0.28
 2161,-0.662066\C,-1.987199,0.69739,-0.291336\C,-2.920451,-0.495666,-0.
 208743\H,-2.279591,1.384846,-1.082751\H,-1.935142,1.233728,0.656556\H,
 -3.935524,-0.152872,0.000854\H,-2.927469,-1.0391,-1.154773\H,-2.613833
 ,-1.170195,0.591026\\Version=ES64L-G16RevA.03\State=2-A\HF=-420.207623
 \S2=0.756201\S2-1=0.\S2A=0.750027\RMSD=8.519e-09\RMSF=1.558e-03\ZeroPo
 int=0.1118362\Thermal=0.1214358\Dipole=0.112729,-0.2100204,-0.2640847\
 DipoleDeriv=-0.3239154,-0.0669881,0.0748562,0.0136708,-0.1522199,0.017
 1412,0.0730138,-0.0526437,-0.2376219,0.2715105,0.0874527,-0.0496099,0.
 060985,0.3121929,0.0394131,-0.0453326,0.0862123,0.228438,-0.3612375,-0
 .0988094,0.0125021,0.047531,-0.1276639,-0.0113377,0.0184441,0.0437462,
 -0.141498,0.2521914,-0.0355403,-0.0176655,-0.025258,0.2159922,0.003560
 8,-0.0114743,0.0044238,0.2257698,-0.4060095,0.2004368,0.1103978,0.0651
 093,-0.3791456,-0.0978231,0.1093115,-0.1093647,-0.1702736,2.0411812,-0
 .3939317,-0.0359509,-0.6919587,0.6659479,-0.2364896,0.3225838,-0.33984
 23,1.7102793,-0.799032,0.0555004,0.2357601,0.1505192,-0.401733,0.05509
 3,0.0306613,0.1473431,-1.1381023,-1.56561,0.3271965,-0.306547,0.527093
 6,-0.4930386,0.2395925,-0.42082,0.207605,-0.7857725,0.9892569,-0.10590
 78,0.0470688,-0.136574,0.373666,-0.0615165,-0.091457,0.0177253,0.24527
 14,-0.0899066,-0.0173093,-0.0178501,-0.0493573,-0.0687868,0.0553053,0.
 0137874,0.0112688,0.0476452,-0.0205512,0.0103638,-0.0087293,0.0323139,
 -0.0128674,0.0670719,-0.0324677,0.101387,-0.0059422,-0.028269,-0.02801
 16,-0.0474036,-0.0046754,0.0088961,-0.0310678,0.0372823,-0.0919735,-0.
 0118663,-0.1122064,0.0404993,0.0227406,0.0491921,0.0480236,-0.0262548,
 0.0341064,-0.0142697,0.088733,0.0715818,-0.0063592,0.0302467,-0.039468
 ,0.012839,-0.0545209,-0.0113075,-0.0823702,-0.0585222,0.0810159,0.0314
 078,-0.0498159,0.0008765,-0.0021025,0.0418325,-0.0263315,0.0707527,0.0
 034624\Polar=87.3665825,-8.2319698,65.3021239,-4.5220897,2.7597002,60.
 2984522\Quadrupole=8.8264741,-2.6045859,-6.2218882,-3.6990888,1.847373
 ,2.9754323\PG=C01 [X(C5H7O3)]\NImag=1\\0.20278528,-0.07489780,0.054400
 15,0.23832239,-0.09618503,0.28627711,-0.19848691,0.07898417,-0.2366294
 9,0.19988258,0.08326017,-0.03895451,0.09956511,-0.07979970,0.04194212,
 -0.23737255,0.09544607,-0.28550684,0.23706012,-0.09629103,0.28503971,0
 .00177302,0.00652346,-0.00044872,0.00040685,-0.00105448,0.00069477,1.1
 5892573,-0.00202885,-0.00952111,-0.00146627,0.00052936,-0.00055931,-0.
 00013607,-0.51158873,0.29903755,-0.00117574,-0.00288311,0.00015996,0.0
 0034286,-0.00065317,-0.00038495,-0.40667033,0.19173170,0.20586731,-0.0
 0013847,-0.00015869,0.00001962,0.00028985,0.00017826,0.00002645,-0.319
 68760,0.13480975,0.11083968,0.30957171,-0.00020642,0.00028346,0.000211
 99,0.00029957,-0.00015767,-0.00031378,0.13324851,-0.08955136,-0.051775
 40,-0.13510156,0.07932818,0.00006292,-0.00002908,-0.00001706,0.0000944
 3,-0.00017703,-0.00009588,0.11145084,-0.05259514,-0.06865787,-0.111206
 38,0.05222453,0.05869566,-0.00171167,-0.00735990,-0.00203714,-0.001188
 57,-0.00163460,0.00071563,-0.84472833,0.37999275,0.29547703,0.00896019
 ,0.00061263,-0.00217007,1.12050159,-0.00264894,-0.00247294,-0.00234963
 ,0.00042670,-0.00228371,0.00131929,0.36941081,-0.20168885,-0.13440659,
 -0.00107524,0.00677427,0.00175559,-0.46327745,0.26812811,-0.00101805,0
 .00338709,0.00013966,0.00004506,-0.00273025,0.00018806,0.29542302,-0.1
 3811836,-0.14158597,-0.00114505,0.00051395,0.00509785,-0.37184669,0.15
 580128,0.24340591,-0.00414245,-0.00340004,0.00152874,-0.00171087,-0.00
 230886,-0.00257628,0.01280276,-0.00581500,-0.00139462,0.00047692,0.001
 99785,0.00221914,-0.22279751,0.06323963,0.05800960,0.60057210,-0.00115
 161,-0.00377411,0.00017120,0.00004670,0.00093262,0.00039378,0.00039186
 ,0.00291336,-0.00113619,0.00238480,0.00426599,-0.00109781,0.05632011,-
 0.08978748,-0.02352365,-0.13510990,0.28872996,0.00294573,0.00120967,-0
 .00419621,-0.00302892,0.00024076,0.00259482,-0.00155037,0.00133355,0.0
 0316532,0.00152930,-0.00051714,0.00487031,0.04585687,-0.02182567,-0.07
 582622,-0.14690775,-0.09425661,0.96546502,0.00002182,-0.00007797,-0.00
 003752,0.00042517,0.00084814,0.00059727,-0.00435673,0.00189090,0.00039
 975,-0.00003472,-0.00011837,-0.00152344,-0.01459802,0.00459752,0.04807
 274,-0.16122033,-0.00522687,0.18909173,0.15199230,-0.00117958,0.000031
 09,0.00091604,0.00034536,-0.00037870,-0.00037278,0.00119157,-0.0003256
 1,-0.00025761,-0.00045775,-0.00069767,0.00035746,0.00771259,0.01940776
 ,-0.00865055,-0.00311593,-0.08900773,0.04757892,-0.00730091,0.05525270
 ,-0.00131766,-0.00090804,0.00254091,0.00131912,-0.00021138,-0.00179150
 ,0.00110705,-0.00081109,0.00124125,-0.00006005,-0.00029359,0.00059316,
 0.04111454,-0.00433812,-0.03803241,0.17979112,0.05467437,-0.69966948,-
 0.20415262,-0.08048318,0.83349505,-0.00085665,0.00022773,-0.00083000,0
 .00050886,0.00070667,0.00097318,-0.00592462,0.00246999,0.00246548,0.00
 077015,-0.00074111,0.00095502,-0.04579779,0.02783545,-0.02579842,-0.17
 876108,0.06120173,-0.08369048,0.02845016,0.00829937,-0.02727452,0.4511
 7445,-0.00117937,-0.00018872,-0.00070587,-0.00086994,-0.00058342,-0.00
 011528,0.00213407,-0.00032614,-0.00060439,-0.00049076,-0.00000844,-0.0
 0030159,0.02492308,-0.00173536,0.01045524,0.05876374,-0.10406092,0.065
 40543,0.00696277,0.01938642,0.03730810,-0.15270816,0.16375003,-0.00057
 522,-0.00014654,0.00075522,0.00083052,0.00021365,-0.00014096,0.0007488
 5,-0.00026879,-0.00042632,-0.00001790,0.00004902,-0.00066003,-0.004497
 75,0.00144654,0.00917215,-0.06179372,0.05547164,-0.20991920,-0.0272759
 3,0.03875597,-0.09584901,0.05767289,-0.09008866,0.39580067,0.00086319,
 0.00032167,0.00029888,-0.00018597,-0.00040260,-0.00028908,0.00178296,-
 0.00061875,-0.00069159,-0.00032484,0.00011120,0.00005668,0.00317843,0.
 00036216,-0.00025023,-0.04569897,0.02609049,-0.02617395,-0.00054629,-0
 .00528858,0.01838713,-0.16224510,0.03464208,0.02669956,0.43972621,-0.0
 0012828,0.00009655,-0.00023556,0.00003345,0.00009253,0.00013499,-0.000
 55577,0.00001397,0.00003214,-0.00005006,-0.00026434,-0.00013321,0.0029
 2052,0.00414434,0.00264307,0.02625345,-0.01333201,0.01044203,0.0005625
 0,-0.00441010,-0.00776303,0.03004146,-0.07616134,-0.00634968,-0.012273
 99,0.56261443,0.00018223,0.00012106,-0.00026393,-0.00007458,0.00008836
 ,0.00014322,-0.00092868,0.00033765,0.00069325,0.00002658,-0.00010443,0
 .00019764,-0.00327674,0.00322972,-0.00284464,-0.02739562,0.00722239,0.
 02017441,-0.00031551,0.00037611,-0.00564379,0.04769794,-0.01292055,-0.
 10608392,0.05381297,-0.01768900,0.64337159,-0.00010911,0.00000800,-0.0
 0008986,0.00002266,0.00006147,0.00007131,-0.00034918,0.00015194,0.0001
 0281,0.00001831,-0.00011046,0.00000216,-0.00007272,0.00134094,0.000003
 90,0.00107597,-0.00446918,0.00619904,-0.00018212,-0.00074593,-0.002562
 07,-0.04539223,-0.02168604,0.00370847,-0.11205583,-0.05624614,-0.00043
 244,0.54734699,0.00010397,0.00007183,0.00006453,0.00000168,-0.00003831
 ,-0.00004776,0.00030141,-0.00003380,-0.00008013,-0.00001011,0.00005134
 ,0.00000783,-0.00043134,-0.00070786,0.00009168,-0.00002302,0.00334662,
 -0.00609400,-0.00190869,-0.00088140,0.00228073,0.01227553,0.01187929,0
 .00205364,-0.06824549,-0.17718483,0.00567162,-0.04925554,0.53122673,0.
 00002339,0.00000701,0.00004177,0.00000667,-0.00003440,-0.00002793,0.00
 017116,0.00000026,-0.00004680,-0.00000671,0.00001289,0.00001100,-0.000
 01324,-0.00050250,-0.00007117,-0.00188268,-0.00011459,-0.00022193,0.00
 104693,0.00082283,0.00098266,0.01136960,0.00504335,0.00128393,-0.00187
 570,0.00401065,-0.08498928,0.00382912,0.00321679,0.58822445,-0.0000345
 3,-0.00008486,0.00002336,0.00006691,0.00008945,0.00004898,-0.00048999,
 0.00015589,0.00026101,0.00005846,-0.00001130,0.00004576,-0.00118326,0.
 00026937,-0.00110660,-0.00294542,0.00190797,0.00571313,0.00101380,-0.0
 0009876,-0.00133384,-0.02677697,0.02612453,-0.02585152,-0.06101125,0.0
 3861275,-0.04715697,0.00731206,-0.01397877,0.01664254,0.08435279,0.000
 03246,0.00001809,0.00001379,-0.00000448,-0.00001896,-0.00001419,0.0001
 1606,-0.00005164,-0.00005086,-0.00001995,-0.00000061,-0.00000898,0.000
 45867,-0.00002217,0.00028529,-0.00001218,0.00019419,-0.00374141,-0.001
 09280,0.00071507,0.00063287,0.00979709,-0.00689286,0.00779352,0.044315
 35,-0.15773281,0.12374563,0.00524623,-0.01630398,0.01982110,-0.0507512
 5,0.16936231,-0.00002661,-0.00002003,0.00001512,0.00002131,0.00002141,
 0.00000644,0.00000022,-0.00003258,-0.00008633,-0.00000235,-0.00001820,
 -0.00002318,0.00046856,0.00011813,0.00045034,0.00234175,-0.00066653,-0
 .00276665,-0.00189840,0.00079644,0.00146150,0.00705829,-0.00922520,0.0
 0943078,-0.05823890,0.12926530,-0.20678836,0.00042763,-0.00119735,0.00
 087764,0.05552371,-0.13687085,0.21267435,0.00005402,-0.00010922,-0.000
 11217,-0.00002381,0.00007769,0.00006509,-0.00013496,0.00003514,0.00002
 849,0.00005356,0.00002160,0.00000958,-0.00051459,-0.00070825,-0.000333
 09,0.00266172,-0.00103208,0.00755071,-0.00005010,0.00078795,-0.0033375
 1,-0.01564794,0.02421512,0.03199082,-0.05066550,-0.01215797,-0.0236711
 9,0.00022307,-0.01068259,-0.01913565,0.00088343,-0.00503172,-0.0065266
 8,0.06453726,0.00004472,-0.00000913,0.00003374,0.00002801,0.00002143,-
 0.00001095,-0.00008205,0.00007407,0.00003889,-0.00001730,-0.00001537,-
 0.00002644,0.00005153,0.00007577,0.00032531,0.00008668,0.00153889,-0.0
 0556162,-0.00133593,-0.00022012,0.00240622,0.00730012,-0.00678623,-0.0
 0789746,-0.00774437,-0.11405530,-0.10986960,-0.00295118,-0.01253705,-0
 .02298149,0.00018052,0.01225483,0.01776101,0.00692475,0.12149039,-0.00
 001334,0.00001867,0.00003036,-0.00001228,-0.00005260,-0.00002911,0.000
 15779,0.00001953,0.00002180,-0.00000597,0.00001957,0.00000350,0.000081
 84,-0.00053069,-0.00021496,-0.00255310,0.00201822,-0.00167590,-0.00188
 431,0.00158540,0.00049029,0.00914052,-0.00483650,-0.00513796,-0.013953
 58,-0.11605097,-0.25852332,-0.00069205,0.00271823,0.00462477,-0.001922
 36,-0.01086210,-0.01720782,0.01184102,0.12514643,0.27606172,-0.0000754
 9,-0.00002667,-0.00002661,0.00002366,0.00004023,0.00003455,-0.00018297
 ,0.00003740,0.00002834,0.00002798,-0.00002628,-0.00000831,-0.00003858,
 0.00030542,0.00005423,0.00161985,-0.00118246,0.00228912,-0.00004653,-0
 .00007846,-0.00096503,-0.00436248,-0.00345562,-0.00094132,-0.01650781,
 0.01039505,0.00340111,-0.28147108,0.07918612,0.04842644,0.00054332,-0.
 00012892,0.00040722,0.00035694,-0.00007123,-0.00060659,0.30550745,-0.0
 0002356,-0.00000935,-0.00002861,-0.00000636,0.00001000,0.00001344,-0.0
 0011181,0.00005210,0.00005162,-0.00000262,-0.00002783,0.00000605,-0.00
 005378,0.00033987,-0.00014729,0.00017193,-0.00160137,0.00288735,0.0005
 6061,0.00035153,-0.00117511,-0.00821716,-0.00297934,-0.00027018,-0.021
 61030,0.01136931,0.00497203,0.08128266,-0.07567897,-0.01716651,0.00095
 233,0.00078099,0.00052628,0.00079774,0.00078118,-0.00073544,-0.0863126
 0,0.07827862,-0.00000224,-0.00000166,0.00000591,0.00000274,0.00000303,
 0.00000004,-0.00004141,-0.00000867,0.00001213,-0.00000369,-0.00000124,
 -0.00000247,0.00008952,0.00011569,0.00004387,0.00007009,0.00057578,-0.
 00126024,-0.00059329,-0.00048660,0.00036032,0.00110374,0.00018615,0.00
 147422,0.00080756,-0.00084839,-0.00243451,0.04834350,-0.01650489,-0.05
 556018,-0.00011863,-0.00003653,-0.00004986,0.00009443,0.00011202,-0.00
 000808,-0.05356857,0.01807929,0.05595237,0.00000095,0.00000766,0.00002
 608,0.00000269,-0.00001874,-0.00002509,0.00001692,0.00000709,0.0000308
 4,-0.00001848,0.00000473,-0.00000880,0.00000447,0.00001348,-0.00000415
 ,-0.00052814,0.00047082,-0.00159595,-0.00043198,-0.00011764,0.00070704
 ,0.00303458,0.00080803,0.00010278,-0.00230538,-0.01211531,-0.01962963,
 -0.04636480,0.00168095,0.00024866,0.00057726,0.00091880,0.00040894,-0.
 00225658,-0.00350135,0.00062083,0.00189005,0.01472774,0.02692337,0.047
 30637,-0.00002831,0.00000385,0.00002488,0.00001605,-0.00000327,-0.0000
 0698,-0.00003030,0.00000386,0.00001958,0.00000888,0.00000434,-0.000004
 18,-0.00006062,-0.00003965,-0.00006873,-0.00008343,0.00003943,0.000076
 85,0.00031814,0.00021871,0.00004909,0.00169270,0.00216938,0.00106104,0
 .00058915,-0.01593360,-0.02597374,-0.00032698,-0.11278825,-0.11441633,
 0.00068508,0.00070021,0.00008426,-0.00373680,-0.00337553,0.00157056,-0
 .00059565,-0.00544934,-0.00747103,0.00278769,0.12281423,-0.00002509,-0
 .00001157,0.00001717,0.00001279,-0.00000142,-0.00001068,-0.00006460,0.
 00004135,0.00001528,-0.00000410,-0.00001332,-0.00000713,-0.00002932,0.
 00010463,0.00009796,0.00014959,-0.00023669,-0.00083431,-0.00056937,-0.
 00020917,0.00038526,-0.00101656,0.00057935,0.00053536,0.00052896,0.002
 00265,0.00319594,-0.00080624,-0.11664982,-0.25643924,-0.00048768,-0.00
 033737,0.00073579,0.00102034,0.00070728,0.00108622,-0.00029823,-0.0012
 3529,-0.00435700,0.00027553,0.12751110,0.27388188,0.00005700,0.0000424
 5,-0.00000755,-0.00003311,-0.00004310,-0.00002432,0.00014613,-0.000028
 86,-0.00004401,-0.00002302,0.00001941,0.00002046,-0.00001364,-0.000091
 60,-0.00010628,-0.00140454,-0.00064239,0.00177181,-0.00043643,0.000046
 71,-0.00142270,0.00182667,0.00181649,-0.00080052,0.00599615,-0.0152916
 7,0.01776054,-0.07000200,0.05098590,-0.05885056,-0.00236660,-0.0038433
 7,0.00003532,0.00052347,0.00108707,-0.00019842,-0.00728430,0.01784516,
 -0.02310713,-0.00092793,-0.00123559,0.00131398,0.07394217,0.00003140,0
 .00002486,-0.00003030,-0.00003058,-0.00002085,0.00000125,0.00010538,-0
 .00003710,-0.00002649,0.00000236,0.00001573,0.00002200,-0.00017419,-0.
 00013209,-0.00026409,-0.00064492,-0.00039743,0.00282188,0.00132096,0.0
 0055805,-0.00136784,-0.00018142,0.00253766,-0.00182370,0.00975197,-0.0
 1925678,0.02079276,0.04770021,-0.15042136,0.12228093,-0.00405295,-0.00
 300267,-0.00054208,0.00059865,0.00076216,-0.00002831,0.00191367,-0.006
 21742,0.00628706,-0.00567394,0.01163562,-0.01225172,-0.05066661,0.1639
 5161,-0.00001015,-0.00000449,0.00000087,0.00000967,0.00001898,0.000015
 56,-0.00004960,-0.00002708,0.00001193,0.00001056,0.00000515,-0.0000055
 1,0.00006695,0.00006233,-0.00002041,0.00039375,0.00050470,0.00010028,-
 0.00095801,-0.00072929,-0.00056422,0.00017332,-0.00017960,-0.00023493,
 0.00088129,0.00053901,-0.00020428,-0.05810527,0.12446891,-0.19868969,-
 0.00028090,-0.00036991,0.00127023,0.00051579,-0.00018335,0.00047851,0.
 00177365,-0.00577763,0.00582347,-0.00808043,0.01754362,-0.01830251,0.0
 6365938,-0.13587135,0.21032071\\-0.00288767,-0.00735398,-0.00093752,0.
 00024797,-0.00017069,-0.00002490,-0.00002595,0.00066995,0.00036122,-0.
 00012460,-0.00023766,-0.00000982,0.00221760,0.00574963,0.00076712,0.00
 078151,0.00205410,0.00016119,0.00001352,-0.00079512,-0.00025824,0.0001
 1732,0.00090037,0.00008538,-0.00023493,-0.00026715,-0.00006136,-0.0000
 1582,-0.00040730,-0.00005760,-0.00003677,-0.00001841,0.00000053,-0.000
 04562,-0.00002192,-0.00000450,-0.00000199,-0.00003466,-0.00000335,-0.0
 0000183,-0.00003125,-0.00000542,-0.00000273,-0.00003592,-0.00001273\\\
 @


 KEEP CLOSE TO NATURES HEART, YOURSELF;
 AND BREAK CLEAR AWAY, ONCE IN A WHILE, AND
 CLIMB A MOUNTAIN OR SPEND A WEEK IN THE
 WOODS.  WASH YOUR SPIRIT CLEAN...
                                         -- JOHN MUIR
 Job cpu time:       0 days  0 hours 53 minutes 15.3 seconds.
 Elapsed time:       0 days  0 hours  2 minutes 13.2 seconds.
 File lengths (MBytes):  RWF=    153 Int=      0 D2E=      0 Chk=      6 Scr=      1
 Normal termination of Gaussian 16 at Sat Aug 16 18:37:59 2025.
