 Entering Gaussian System, Link 0=g16
 Initial command:
 /opt/g16/l1.exe "/home/aayush/scratches/g16/Gau-89424.inp" -scrdir="/home/aayush/scratches/g16/"
 Entering Link 1 = /opt/g16/l1.exe PID=     89427.
  
 Copyright (c) 1988,1990,1992,1993,1995,1998,2003,2009,2016,
            Gaussian, Inc.  All Rights Reserved.
  
 This is part of the Gaussian(R) 16 program.  It is based on
 the Gaussian(R) 09 system (copyright 2009, Gaussian, Inc.),
 the Gaussian(R) 03 system (copyright 2003, Gaussian, Inc.),
 the Gaussian(R) 98 system (copyright 1998, Gaussian, Inc.),
 the Gaussian(R) 94 system (copyright 1995, Gaussian, Inc.),
 the Gaussian 92(TM) system (copyright 1992, Gaussian, Inc.),
 the Gaussian 90(TM) system (copyright 1990, Gaussian, Inc.),
 the Gaussian 88(TM) system (copyright 1988, Gaussian, Inc.),
 the Gaussian 86(TM) system (copyright 1986, Carnegie Mellon
 University), and the Gaussian 82(TM) system (copyright 1983,
 Carnegie Mellon University). Gaussian is a federally registered
 trademark of Gaussian, Inc.
  
 This software contains proprietary and confidential information,
 including trade secrets, belonging to Gaussian, Inc.
  
 This software is provided under written license and may be
 used, copied, transmitted, or stored only in accord with that
 written license.
  
 The following legend is applicable only to US Government
 contracts under FAR:
  
                    RESTRICTED RIGHTS LEGEND
  
 Use, reproduction and disclosure by the US Government is
 subject to restrictions as set forth in subparagraphs (a)
 and (c) of the Commercial Computer Software - Restricted
 Rights clause in FAR 52.227-19.
  
 Gaussian, Inc.
 340 Quinnipiac St., Bldg. 40, Wallingford CT 06492
  
  
 ---------------------------------------------------------------
 Warning -- This program may not be used in any manner that
 competes with the business of Gaussian, Inc. or will provide
 assistance to any competitor of Gaussian, Inc.  The licensee
 of this program is prohibited from giving any competitor of
 Gaussian, Inc. access to this program.  By using this program,
 the user acknowledges that Gaussian, Inc. is engaged in the
 business of creating and licensing software in the field of
 computational chemistry and represents and warrants to the
 licensee that it is not a competitor of Gaussian, Inc. and that
 it will not use this program in any manner prohibited above.
 ---------------------------------------------------------------
  

 Cite this work as:
 Gaussian 16, Revision A.03,
 M. J. Frisch, G. W. Trucks, H. B. Schlegel, G. E. Scuseria, 
 M. A. Robb, J. R. Cheeseman, G. Scalmani, V. Barone, 
 G. A. Petersson, H. Nakatsuji, X. Li, M. Caricato, A. V. Marenich, 
 J. Bloino, B. G. Janesko, R. Gomperts, B. Mennucci, H. P. Hratchian, 
 J. V. Ortiz, A. F. Izmaylov, J. L. Sonnenberg, D. Williams-Young, 
 F. Ding, F. Lipparini, F. Egidi, J. Goings, B. Peng, A. Petrone, 
 T. Henderson, D. Ranasinghe, V. G. Zakrzewski, J. Gao, N. Rega, 
 G. Zheng, W. Liang, M. Hada, M. Ehara, K. Toyota, R. Fukuda, 
 J. Hasegawa, M. Ishida, T. Nakajima, Y. Honda, O. Kitao, H. Nakai, 
 T. Vreven, K. Throssell, J. A. Montgomery, Jr., J. E. Peralta, 
 F. Ogliaro, M. J. Bearpark, J. J. Heyd, E. N. Brothers, K. N. Kudin, 
 V. N. Staroverov, T. A. Keith, R. Kobayashi, J. Normand, 
 K. Raghavachari, A. P. Rendell, J. C. Burant, S. S. Iyengar, 
 J. Tomasi, M. Cossi, J. M. Millam, M. Klene, C. Adamo, R. Cammi, 
 J. W. Ochterski, R. L. Martin, K. Morokuma, O. Farkas, 
 J. B. Foresman, and D. J. Fox, Gaussian, Inc., Wallingford CT, 2016.
 
 ******************************************
 Gaussian 16:  ES64L-G16RevA.03 25-Dec-2016
                20-Jun-2025 
 ******************************************
 %nprocshared=24
 Will use up to   24 processors via shared memory.
 %mem=12GB
 %chk=ethyl_propiolate_ts1.chk
 -------------------
 # freq 6-31+g m062x
 -------------------
 1/10=4,30=1,38=1/1,3;
 2/12=2,17=6,18=5,40=1/2;
 3/5=1,6=6,7=10,11=2,25=1,30=1,71=2,74=-55,140=1/1,2,3;
 4//1;
 5/5=2,38=5,98=1/2;
 8/6=4,10=90,11=11/1;
 11/6=1,8=1,9=11,15=111,16=1/1,2,10;
 10/6=1/2;
 6/7=2,8=2,9=2,10=2,28=1/1;
 7/8=1,10=1,25=1/1,2,3,16;
 1/10=4,30=1/3;
 99//99;
 -------------------
 Title Card Required
 -------------------
 Symbolic Z-matrix:
 Charge =  0 Multiplicity = 2
 O                     2.12021   1.39482  -0.01615 
 H                     2.7613    1.22452   0.69256 
 C                     2.39622  -1.17944  -0.56688 
 H                     3.27875  -1.6596   -0.92072 
 C                     1.42325  -0.57683  -0.18295 
 C                     0.09772  -0.19869   0.3158 
 O                    -0.23571  -0.34654   1.45764 
 O                    -0.6562    0.28501  -0.66261 
 C                    -1.98906   0.69327  -0.29266 
 C                    -2.92184  -0.49905  -0.20908 
 H                    -2.28285   1.38087  -1.08353 
 H                    -1.93744   1.22955   0.65548 
 H                    -3.93644  -0.15479   0.00071 
 H                    -2.93047  -1.04302  -1.15481 
 H                    -2.61482  -1.17302   0.59085 
 

 GradGradGradGradGradGradGradGradGradGradGradGradGradGradGradGradGradGrad
 Berny optimization.
 Initialization pass.
 Trust Radius=3.00D-01 FncErr=1.00D-07 GrdErr=1.00D-07 EigMax=2.50D+02 EigMin=1.00D-04
 Number of steps in this run=      2 maximum allowed number of steps=      2.
 GradGradGradGradGradGradGradGradGradGradGradGradGradGradGradGradGradGrad

                          Input orientation:                          
 ---------------------------------------------------------------------
 Center     Atomic      Atomic             Coordinates (Angstroms)
 Number     Number       Type             X           Y           Z
 ---------------------------------------------------------------------
      1          8           0        2.120208    1.394819   -0.016148
      2          1           0        2.761300    1.224516    0.692561
      3          6           0        2.396216   -1.179441   -0.566884
      4          1           0        3.278746   -1.659595   -0.920718
      5          6           0        1.423248   -0.576829   -0.182946
      6          6           0        0.097720   -0.198685    0.315804
      7          8           0       -0.235706   -0.346538    1.457638
      8          8           0       -0.656200    0.285014   -0.662610
      9          6           0       -1.989060    0.693266   -0.292656
     10          6           0       -2.921843   -0.499050   -0.209077
     11          1           0       -2.282845    1.380873   -1.083528
     12          1           0       -1.937440    1.229549    0.655483
     13          1           0       -3.936438   -0.154786    0.000706
     14          1           0       -2.930465   -1.043017   -1.154812
     15          1           0       -2.614816   -1.173019    0.590854
 ---------------------------------------------------------------------
                    Distance matrix (angstroms):
                    1          2          3          4          5
     1  O    0.000000
     2  H    0.970706   0.000000
     3  C    2.646943   2.738338   0.000000
     4  H    3.389676   3.344924   1.065179   0.000000
     5  C    2.097849   2.408680   1.207152   2.271467   0.000000
     6  C    2.596133   3.043371   2.650303   3.712435   1.465868
     7  O    3.279436   3.469236   3.423365   4.442079   2.344500
     8  O    3.059088   3.794530   3.386892   4.396808   2.301511
     9  C    4.177884   4.880451   4.776283   5.803464   3.642667
    10  C    5.389456   6.006808   5.373333   6.348275   4.345866
    11  H    4.530604   5.349985   5.358707   6.340524   4.287047
    12  H    4.116177   4.698889   5.106661   6.167670   3.906429
    13  H    6.251761   6.873197   6.440076   7.427809   5.379413
    14  H    5.722665   6.399272   5.360765   6.244139   4.485161
    15  H    5.420581   5.887371   5.143038   6.103743   4.154536
                    6          7          8          9         10
     6  C    0.000000
     7  O    1.198674   0.000000
     8  O    1.326520   2.251916   0.000000
     9  C    2.349564   2.686814   1.442238   0.000000
    10  C    3.079526   3.164890   2.439997   1.516142   0.000000
    11  H    3.181230   3.692188   2.006004   1.088389   2.169584
    12  H    2.509404   2.454262   2.066662   1.090519   2.169002
    13  H    4.046683   3.981813   3.375407   2.144186   1.091755
    14  H    3.470665   3.817290   2.679218   2.155049   1.091050
    15  H    2.895312   2.663560   2.744669   2.157587   1.090133
                   11         12         13         14         15
    11  H    0.000000
    12  H    1.779428   0.000000
    13  H    2.503634   2.518156   0.000000
    14  H    2.509927   3.070476   1.770920   0.000000
    15  H    3.071827   2.497068   1.769677   1.778731   0.000000
 Stoichiometry    C5H7O3(2)
 Framework group  C1[X(C5H7O3)]
 Deg. of freedom    39
 Full point group                 C1      NOp   1
 Largest Abelian subgroup         C1      NOp   1
 Largest concise Abelian subgroup C1      NOp   1
                         Standard orientation:                         
 ---------------------------------------------------------------------
 Center     Atomic      Atomic             Coordinates (Angstroms)
 Number     Number       Type             X           Y           Z
 ---------------------------------------------------------------------
      1          8           0        2.185803    1.390990   -0.020440
      2          1           0        2.826422    1.226485    0.690064
      3          6           0        2.455701   -1.189475   -0.544519
      4          1           0        3.337111   -1.675368   -0.893273
      5          6           0        1.484143   -0.580604   -0.166939
      6          6           0        0.159479   -0.194158    0.327726
      7          8           0       -0.174402   -0.329408    1.470989
      8          8           0       -0.593194    0.281208   -0.655719
      9          6           0       -1.925107    0.696447   -0.290155
     10          6           0       -2.860747   -0.492708   -0.194368
     11          1           0       -2.217175    1.376547   -1.088122
     12          1           0       -1.872289    1.242372    0.652399
     13          1           0       -3.874535   -0.143869    0.011731
     14          1           0       -2.870586   -1.046394   -1.134434
     15          1           0       -2.555405   -1.159108    0.612518
 ---------------------------------------------------------------------
 Rotational constants (GHZ):           3.9749307           1.1640458           1.1075435
 Standard basis: 6-31+G (6D, 7F)
 There are   118 symmetry adapted cartesian basis functions of A   symmetry.
 There are   118 symmetry adapted basis functions of A   symmetry.
   118 basis functions,   236 primitive gaussians,   118 cartesian basis functions
    31 alpha electrons       30 beta electrons
       nuclear repulsion energy       358.4100379597 Hartrees.
 NAtoms=   15 NActive=   15 NUniq=   15 SFac= 1.00D+00 NAtFMM=   60 NAOKFM=F Big=F
 Integral buffers will be    131072 words long.
 Raffenetti 2 integral format.
 Two-electron integral symmetry is turned on.
 One-electron integrals computed using PRISM.
 NBasis=   118 RedAO= T EigKep=  3.11D-06  NBF=   118
 NBsUse=   118 1.00D-06 EigRej= -1.00D+00 NBFU=   118
 ExpMin= 4.38D-02 ExpMax= 5.48D+03 ExpMxC= 8.25D+02 IAcc=3 IRadAn=         5 AccDes= 0.00D+00
 Harris functional with IExCor= 1009 and IRadAn=       5 diagonalized for initial guess.
 HarFok:  IExCor= 1009 AccDes= 0.00D+00 IRadAn=         5 IDoV= 1 UseB2=F ITyADJ=14
 ICtDFT=  3500011 ScaDFX=  1.000000  1.000000  1.000000  1.000000
 FoFCou: FMM=F IPFlag=           0 FMFlag=      100000 FMFlg1=           0
         NFxFlg=           0 DoJE=T BraDBF=F KetDBF=T FulRan=T
         wScrn=  0.000000 ICntrl=       500 IOpCl=  0 I1Cent=   200000004 NGrid=           0
         NMat0=    1 NMatS0=      1 NMatT0=    0 NMatD0=    1 NMtDS0=    0 NMtDT0=    0
 Petite list used in FoFCou.
 Initial guess <Sx>= 0.0000 <Sy>= 0.0000 <Sz>= 0.5000 <S**2>= 0.7500 S= 0.5000
 Requested convergence on RMS density matrix=1.00D-08 within 128 cycles.
 Requested convergence on MAX density matrix=1.00D-06.
 Requested convergence on             energy=1.00D-06.
 No special actions if energy rises.
 Restarting incremental Fock formation.
 SCF Done:  E(UM062X) =  -419.954882272     A.U. after   24 cycles
            NFock= 24  Conv=0.23D-08     -V/T= 2.0049
 <Sx>= 0.0000 <Sy>= 0.0000 <Sz>= 0.5000 <S**2>= 0.7642 S= 0.5071
 <L.S>=  0.00000000000    
 Annihilation of the first spin contaminant:
 S**2 before annihilation     0.7642,   after     0.7501
 DoSCS=F DFT=T ScalE2(SS,OS)=  1.000000  1.000000
 Range of M.O.s used for correlation:     1   118
 NBasis=   118 NAE=    31 NBE=    30 NFC=     0 NFV=     0
 NROrb=    118 NOA=    31 NOB=    30 NVA=    87 NVB=    88

 **** Warning!!: The largest alpha MO coefficient is  0.13587163D+03


 **** Warning!!: The largest beta MO coefficient is  0.12545714D+03

 Symmetrizing basis deriv contribution to polar:
 IMax=3 JMax=2 DiffMx= 0.00D+00
 G2DrvN: will do    16 centers at a time, making    1 passes.
 Calling FoFCou, ICntrl=  3107 FMM=F I1Cent=   0 AccDes= 0.00D+00.
 End of G2Drv F.D. properties file   721 does not exist.
 End of G2Drv F.D. properties file   722 does not exist.
 End of G2Drv F.D. properties file   788 does not exist.
          IDoAtm=111111111111111
          Differentiating once with respect to electric field.
                with respect to dipole field.
          Differentiating once with respect to nuclear coordinates.
 Keep R1 and R2 ints in memory in canonical form, NReq=71861356.
          There are    48 degrees of freedom in the 1st order CPHF.  IDoFFX=6 NUNeed=     3.
     45 vectors produced by pass  0 Test12= 1.11D-14 2.08D-09 XBig12= 7.46D+01 4.05D+00.
 AX will form    45 AO Fock derivatives at one time.
     45 vectors produced by pass  1 Test12= 1.11D-14 2.08D-09 XBig12= 1.13D+01 4.04D-01.
     45 vectors produced by pass  2 Test12= 1.11D-14 2.08D-09 XBig12= 2.88D-01 8.54D-02.
     45 vectors produced by pass  3 Test12= 1.11D-14 2.08D-09 XBig12= 1.66D-03 5.41D-03.
     45 vectors produced by pass  4 Test12= 1.11D-14 2.08D-09 XBig12= 1.66D-05 5.83D-04.
     45 vectors produced by pass  5 Test12= 1.11D-14 2.08D-09 XBig12= 1.42D-07 5.42D-05.
     32 vectors produced by pass  6 Test12= 1.11D-14 2.08D-09 XBig12= 1.05D-09 3.51D-06.
     15 vectors produced by pass  7 Test12= 1.11D-14 2.08D-09 XBig12= 6.39D-12 2.63D-07.
      3 vectors produced by pass  8 Test12= 1.11D-14 2.08D-09 XBig12= 4.05D-14 1.89D-08.
      3 vectors produced by pass  9 Test12= 1.11D-14 2.08D-09 XBig12= 7.69D-16 3.94D-09.
      1 vectors produced by pass 10 Test12= 1.11D-14 2.08D-09 XBig12= 3.56D-16 2.92D-09.
 InvSVY:  IOpt=1 It=  1 EMax= 8.88D-15
 Solved reduced A of dimension   324 with    48 vectors.
 Isotropic polarizability for W=    0.000000       70.20 Bohr**3.
 End of Minotr F.D. properties file   721 does not exist.
 End of Minotr F.D. properties file   722 does not exist.
 End of Minotr F.D. properties file   788 does not exist.

 **********************************************************************

            Population analysis using the SCF density.

 **********************************************************************

 Orbital symmetries:
 Alpha Orbitals:
       Occupied  (A) (A) (A) (A) (A) (A) (A) (A) (A) (A) (A) (A)
                 (A) (A) (A) (A) (A) (A) (A) (A) (A) (A) (A) (A)
                 (A) (A) (A) (A) (A) (A) (A)
       Virtual   (A) (A) (A) (A) (A) (A) (A) (A) (A) (A) (A) (A)
                 (A) (A) (A) (A) (A) (A) (A) (A) (A) (A) (A) (A)
                 (A) (A) (A) (A) (A) (A) (A) (A) (A) (A) (A) (A)
                 (A) (A) (A) (A) (A) (A) (A) (A) (A) (A) (A) (A)
                 (A) (A) (A) (A) (A) (A) (A) (A) (A) (A) (A) (A)
                 (A) (A) (A) (A) (A) (A) (A) (A) (A) (A) (A) (A)
                 (A) (A) (A) (A) (A) (A) (A) (A) (A) (A) (A) (A)
                 (A) (A) (A)
 Beta  Orbitals:
       Occupied  (A) (A) (A) (A) (A) (A) (A) (A) (A) (A) (A) (A)
                 (A) (A) (A) (A) (A) (A) (A) (A) (A) (A) (A) (A)
                 (A) (A) (A) (A) (A) (A)
       Virtual   (A) (A) (A) (A) (A) (A) (A) (A) (A) (A) (A) (A)
                 (A) (A) (A) (A) (A) (A) (A) (A) (A) (A) (A) (A)
                 (A) (A) (A) (A) (A) (A) (A) (A) (A) (A) (A) (A)
                 (A) (A) (A) (A) (A) (A) (A) (A) (A) (A) (A) (A)
                 (A) (A) (A) (A) (A) (A) (A) (A) (A) (A) (A) (A)
                 (A) (A) (A) (A) (A) (A) (A) (A) (A) (A) (A) (A)
                 (A) (A) (A) (A) (A) (A) (A) (A) (A) (A) (A) (A)
                 (A) (A) (A) (A)
 The electronic state is 2-A.
 Alpha  occ. eigenvalues --  -19.70445 -19.69096 -19.66143 -10.72964 -10.61391
 Alpha  occ. eigenvalues --  -10.60282 -10.59634 -10.54520  -1.27962  -1.18596
 Alpha  occ. eigenvalues --   -1.13701  -0.91615  -0.88144  -0.78611  -0.71310
 Alpha  occ. eigenvalues --   -0.64626  -0.62268  -0.58559  -0.56974  -0.54398
 Alpha  occ. eigenvalues --   -0.53756  -0.50602  -0.48366  -0.46622  -0.45222
 Alpha  occ. eigenvalues --   -0.42129  -0.41331  -0.39663  -0.38063  -0.36849
 Alpha  occ. eigenvalues --   -0.34969
 Alpha virt. eigenvalues --   -0.00919   0.01977   0.02557   0.03627   0.03799
 Alpha virt. eigenvalues --    0.04524   0.05336   0.05813   0.07866   0.08039
 Alpha virt. eigenvalues --    0.08370   0.08989   0.09632   0.11603   0.12287
 Alpha virt. eigenvalues --    0.13197   0.14538   0.15410   0.16192   0.16219
 Alpha virt. eigenvalues --    0.17447   0.18989   0.19968   0.21213   0.21344
 Alpha virt. eigenvalues --    0.22997   0.24310   0.24820   0.25624   0.26754
 Alpha virt. eigenvalues --    0.28336   0.29158   0.29903   0.30614   0.31332
 Alpha virt. eigenvalues --    0.32255   0.33714   0.34065   0.36335   0.37100
 Alpha virt. eigenvalues --    0.38235   0.39039   0.41096   0.42898   0.44180
 Alpha virt. eigenvalues --    0.47327   0.58065   0.59871   0.70037   0.70399
 Alpha virt. eigenvalues --    0.71419   0.72288   0.74727   0.75984   0.77896
 Alpha virt. eigenvalues --    0.80367   0.84577   0.85543   0.90183   0.91426
 Alpha virt. eigenvalues --    0.94238   0.96926   0.98471   1.06956   1.10004
 Alpha virt. eigenvalues --    1.11148   1.13065   1.15259   1.17959   1.20395
 Alpha virt. eigenvalues --    1.22669   1.25865   1.26236   1.28043   1.31780
 Alpha virt. eigenvalues --    1.35972   1.39156   1.40827   1.43764   1.46054
 Alpha virt. eigenvalues --    1.48037   1.54542   1.64526   1.71712   1.84201
 Alpha virt. eigenvalues --    2.02365   2.03778
  Beta  occ. eigenvalues --  -19.70450 -19.67543 -19.66162 -10.72940 -10.61390
  Beta  occ. eigenvalues --  -10.60315 -10.59447 -10.54521  -1.27970  -1.18626
  Beta  occ. eigenvalues --   -1.07326  -0.91206  -0.87833  -0.78467  -0.71145
  Beta  occ. eigenvalues --   -0.64561  -0.61845  -0.58397  -0.56814  -0.53956
  Beta  occ. eigenvalues --   -0.51463  -0.49292  -0.46850  -0.45219  -0.42002
  Beta  occ. eigenvalues --   -0.39484  -0.39278  -0.38153  -0.37989  -0.36242
  Beta virt. eigenvalues --   -0.09339  -0.00036   0.02030   0.02625   0.03629
  Beta virt. eigenvalues --    0.03894   0.04610   0.05352   0.05917   0.07918
  Beta virt. eigenvalues --    0.08139   0.08382   0.09083   0.09673   0.11583
  Beta virt. eigenvalues --    0.12386   0.13389   0.14585   0.15399   0.16388
  Beta virt. eigenvalues --    0.16738   0.17568   0.19202   0.20235   0.20925
  Beta virt. eigenvalues --    0.21441   0.23026   0.24558   0.24982   0.25776
  Beta virt. eigenvalues --    0.26847   0.28409   0.29283   0.30013   0.30654
  Beta virt. eigenvalues --    0.31317   0.32318   0.33716   0.34093   0.36314
  Beta virt. eigenvalues --    0.37124   0.38020   0.39075   0.41228   0.42993
  Beta virt. eigenvalues --    0.44250   0.47362   0.58066   0.59971   0.70047
  Beta virt. eigenvalues --    0.70563   0.71666   0.72817   0.75278   0.76585
  Beta virt. eigenvalues --    0.78005   0.80395   0.84685   0.85436   0.89823
  Beta virt. eigenvalues --    0.91432   0.94747   0.97186   0.98498   1.06785
  Beta virt. eigenvalues --    1.10052   1.11251   1.13866   1.16698   1.18497
  Beta virt. eigenvalues --    1.20480   1.23441   1.26713   1.28004   1.28408
  Beta virt. eigenvalues --    1.32166   1.37395   1.40090   1.41447   1.44419
  Beta virt. eigenvalues --    1.46216   1.48177   1.54661   1.65278   1.71737
  Beta virt. eigenvalues --    1.86057   2.02493   2.03806
          Condensed to atoms (all electrons):
               1          2          3          4          5          6
     1  O    8.349272   0.137477  -0.097373   0.000143   0.471434  -0.417154
     2  H    0.137477   0.442405   0.036724  -0.000124  -0.015302  -0.004194
     3  C   -0.097373   0.036724  31.751229   0.544683  -7.809538 -17.825844
     4  H    0.000143  -0.000124   0.544683   0.356366  -0.191111  -0.034623
     5  C    0.471434  -0.015302  -7.809538  -0.191111  20.449164  -4.944527
     6  C   -0.417154  -0.004194 -17.825844  -0.034623  -4.944527  27.584853
     7  O   -0.016741  -0.001002   0.190563  -0.000096   0.263431  -0.269377
     8  O   -0.008011   0.000300  -0.483913  -0.000070  -1.076217   0.987167
     9  C   -0.001207  -0.000482  -0.163539   0.000453  -0.472662   0.389234
    10  C    0.002642  -0.000223  -0.121833  -0.000156  -0.244123   0.168877
    11  H    0.000007  -0.000001   0.001174   0.000000  -0.000973   0.016079
    12  H   -0.000247  -0.000000   0.011583  -0.000000   0.051043  -0.058238
    13  H    0.000003  -0.000000  -0.000141   0.000000   0.002323   0.005548
    14  H    0.000006   0.000000  -0.000433  -0.000000   0.003975   0.002678
    15  H    0.000020   0.000000   0.000285   0.000000  -0.008477   0.005851
               7          8          9         10         11         12
     1  O   -0.016741  -0.008011  -0.001207   0.002642   0.000007  -0.000247
     2  H   -0.001002   0.000300  -0.000482  -0.000223  -0.000001  -0.000000
     3  C    0.190563  -0.483913  -0.163539  -0.121833   0.001174   0.011583
     4  H   -0.000096  -0.000070   0.000453  -0.000156   0.000000  -0.000000
     5  C    0.263431  -1.076217  -0.472662  -0.244123  -0.000973   0.051043
     6  C   -0.269377   0.987167   0.389234   0.168877   0.016079  -0.058238
     7  O    8.478775  -0.249736  -0.002095  -0.054356  -0.001058   0.001581
     8  O   -0.249736   9.054931   0.025988   0.039454  -0.070715  -0.033196
     9  C   -0.002095   0.025988   5.872634  -0.100109   0.427226   0.414402
    10  C   -0.054356   0.039454  -0.100109   5.816646  -0.059580  -0.075892
    11  H   -0.001058  -0.070715   0.427226  -0.059580   0.498109  -0.031216
    12  H    0.001581  -0.033196   0.414402  -0.075892  -0.031216   0.486990
    13  H   -0.000380   0.007034  -0.074143   0.401649  -0.000699  -0.000739
    14  H   -0.000135  -0.001866  -0.056073   0.395396  -0.004437   0.003751
    15  H    0.001087  -0.008334  -0.047470   0.404737   0.003567  -0.004609
              13         14         15
     1  O    0.000003   0.000006   0.000020
     2  H   -0.000000   0.000000   0.000000
     3  C   -0.000141  -0.000433   0.000285
     4  H    0.000000  -0.000000   0.000000
     5  C    0.002323   0.003975  -0.008477
     6  C    0.005548   0.002678   0.005851
     7  O   -0.000380  -0.000135   0.001087
     8  O    0.007034  -0.001866  -0.008334
     9  C   -0.074143  -0.056073  -0.047470
    10  C    0.401649   0.395396   0.404737
    11  H   -0.000699  -0.004437   0.003567
    12  H   -0.000739   0.003751  -0.004609
    13  H    0.500813  -0.025417  -0.023089
    14  H   -0.025417   0.490376  -0.027194
    15  H   -0.023089  -0.027194   0.469273
          Atomic-Atomic Spin Densities.
               1          2          3          4          5          6
     1  O    0.969142   0.002650  -0.169253  -0.000692  -0.028556   0.079800
     2  H    0.002650  -0.035116   0.009744   0.000047  -0.004959  -0.003707
     3  C   -0.169253   0.009744  -0.062296  -0.007830   0.064118   0.403964
     4  H   -0.000692   0.000047  -0.007830  -0.008262   0.005174   0.000911
     5  C   -0.028556  -0.004959   0.064118   0.005174  -0.367995   0.207023
     6  C    0.079800  -0.003707   0.403964   0.000911   0.207023  -0.608799
     7  O    0.001441   0.000050   0.006735   0.000000   0.011095  -0.017496
     8  O    0.000589   0.000136   0.006106   0.000013   0.005100  -0.007094
     9  C   -0.001694   0.000258  -0.005262  -0.000011   0.000371   0.004478
    10  C   -0.000578   0.000026   0.001921   0.000013  -0.002094   0.001983
    11  H   -0.000001   0.000000   0.000139  -0.000000   0.000487  -0.000716
    12  H   -0.000008  -0.000000   0.000020   0.000000  -0.000128   0.000254
    13  H   -0.000001   0.000000  -0.000002   0.000000   0.000010  -0.000097
    14  H    0.000000  -0.000000  -0.000067  -0.000000  -0.000133   0.000136
    15  H    0.000000  -0.000000   0.000078  -0.000000   0.000111  -0.000228
               7          8          9         10         11         12
     1  O    0.001441   0.000589  -0.001694  -0.000578  -0.000001  -0.000008
     2  H    0.000050   0.000136   0.000258   0.000026   0.000000  -0.000000
     3  C    0.006735   0.006106  -0.005262   0.001921   0.000139   0.000020
     4  H    0.000000   0.000013  -0.000011   0.000013  -0.000000   0.000000
     5  C    0.011095   0.005100   0.000371  -0.002094   0.000487  -0.000128
     6  C   -0.017496  -0.007094   0.004478   0.001983  -0.000716   0.000254
     7  O   -0.011336  -0.000150   0.000673   0.000318   0.000014   0.000061
     8  O   -0.000150  -0.003611  -0.000455  -0.000910   0.000051  -0.000111
     9  C    0.000673  -0.000455   0.001137   0.000440  -0.000051  -0.000038
    10  C    0.000318  -0.000910   0.000440  -0.001631   0.000099  -0.000072
    11  H    0.000014   0.000051  -0.000051   0.000099  -0.000085  -0.000003
    12  H    0.000061  -0.000111  -0.000038  -0.000072  -0.000003  -0.000063
    13  H    0.000014  -0.000031  -0.000175   0.000278   0.000001   0.000002
    14  H   -0.000003  -0.000005   0.000068   0.000029  -0.000005  -0.000001
    15  H   -0.000033   0.000006   0.000028   0.000054  -0.000001  -0.000004
              13         14         15
     1  O   -0.000001   0.000000   0.000000
     2  H    0.000000  -0.000000  -0.000000
     3  C   -0.000002  -0.000067   0.000078
     4  H    0.000000  -0.000000  -0.000000
     5  C    0.000010  -0.000133   0.000111
     6  C   -0.000097   0.000136  -0.000228
     7  O    0.000014  -0.000003  -0.000033
     8  O   -0.000031  -0.000005   0.000006
     9  C   -0.000175   0.000068   0.000028
    10  C    0.000278   0.000029   0.000054
    11  H    0.000001  -0.000005  -0.000001
    12  H    0.000002  -0.000001  -0.000004
    13  H    0.000076  -0.000017  -0.000016
    14  H   -0.000017  -0.000010  -0.000007
    15  H   -0.000016  -0.000007   0.000008
 Mulliken charges and spin densities:
               1          2
     1  O   -0.420271   0.852839
     2  H    0.404423  -0.030871
     3  C   -0.033627   0.248115
     4  H    0.324535  -0.010637
     5  C   -0.478439  -0.110377
     6  C    0.393670   0.060413
     7  O   -0.340459  -0.008618
     8  O   -0.182815  -0.000367
     9  C   -0.212158  -0.000235
    10  C   -0.573129  -0.000123
    11  H    0.222517  -0.000073
    12  H    0.234787  -0.000090
    13  H    0.207239   0.000043
    14  H    0.219375  -0.000014
    15  H    0.234353  -0.000005
 Sum of Mulliken charges =  -0.00000   1.00000
 Mulliken charges and spin densities with hydrogens summed into heavy atoms:
               1          2
     1  O   -0.015849   0.821968
     3  C    0.290907   0.237478
     5  C   -0.478439  -0.110377
     6  C    0.393670   0.060413
     7  O   -0.340459  -0.008618
     8  O   -0.182815  -0.000367
     9  C    0.245147  -0.000397
    10  C    0.087838  -0.000099
 APT charges:
               1
     1  O   -0.158064
     2  H    0.253359
     3  C   -0.190903
     4  H    0.252089
     5  C   -0.437619
     6  C    1.452807
     7  O   -0.754221
     8  O   -0.928374
     9  C    0.501571
    10  C   -0.054206
    11  H   -0.002672
    12  H   -0.004157
    13  H    0.014412
    14  H    0.017991
    15  H    0.037988
 Sum of APT charges =   0.00000
 APT charges with hydrogens summed into heavy atoms:
               1
     1  O    0.095294
     3  C    0.061186
     5  C   -0.437619
     6  C    1.452807
     7  O   -0.754221
     8  O   -0.928374
     9  C    0.494742
    10  C    0.016184
 Electronic spatial extent (au):  <R**2>=           1134.7513
 Charge=             -0.0000 electrons
 Dipole moment (field-independent basis, Debye):
    X=              0.3416    Y=             -0.8846    Z=             -0.5161  Tot=              1.0796
 Quadrupole moment (field-independent basis, Debye-Ang):
   XX=            -31.2246   YY=            -47.0011   ZZ=            -53.1321
   XY=             -5.7735   XZ=              2.8215   YZ=              4.4878
 Traceless Quadrupole moment (field-independent basis, Debye-Ang):
   XX=             12.5613   YY=             -3.2152   ZZ=             -9.3462
   XY=             -5.7735   XZ=              2.8215   YZ=              4.4878
 Octapole moment (field-independent basis, Debye-Ang**2):
  XXX=             30.8126  YYY=              3.4415  ZZZ=             -4.3018  XYY=              2.9196
  XXY=             -6.8768  XXZ=              2.4590  XZZ=              2.9706  YZZ=              4.4896
  YYZ=              0.9828  XYZ=             11.6092
 Hexadecapole moment (field-independent basis, Debye-Ang**3):
 XXXX=           -897.0123 YYYY=           -241.4634 ZZZZ=           -188.0130 XXXY=            -39.9453
 XXXZ=              6.6928 YYYX=             -4.5730 YYYZ=              6.0585 ZZZX=              7.3908
 ZZZY=              3.3075 XXYY=           -191.3148 XXZZ=           -198.6909 YYZZ=            -65.6810
 XXYZ=             34.1380 YYXZ=              1.4334 ZZXY=              1.5026
 N-N= 3.584100379597D+02 E-N=-1.699651175808D+03  KE= 4.178879090695D+02
  Exact polarizability:  81.631  -7.145  70.822  -3.391   4.146  58.149
 Approx polarizability:  80.973 -14.500  73.785  -7.967   3.394  73.519
                          Isotropic Fermi Contact Couplings
        Atom                 a.u.       MegaHertz       Gauss      10(-4) cm-1
     1  O(17)              0.12871     -78.02585     -27.84156     -26.02662
     2  H(1)              -0.01506     -67.31037     -24.01802     -22.45232
     3  C(13)              0.02908      32.69451      11.66621      10.90571
     4  H(1)              -0.00446     -19.95100      -7.11901      -6.65494
     5  C(13)              0.00823       9.25273       3.30161       3.08638
     6  C(13)              0.01167      13.11911       4.68123       4.37607
     7  O(17)             -0.00243       1.47391       0.52593       0.49164
     8  O(17)              0.00019      -0.11805      -0.04212      -0.03938
     9  C(13)              0.00002       0.02472       0.00882       0.00825
    10  C(13)             -0.00011      -0.11949      -0.04264      -0.03986
    11  H(1)              -0.00002      -0.06988      -0.02493      -0.02331
    12  H(1)              -0.00006      -0.26903      -0.09599      -0.08974
    13  H(1)               0.00003       0.11359       0.04053       0.03789
    14  H(1)               0.00000       0.00237       0.00085       0.00079
    15  H(1)               0.00001       0.04683       0.01671       0.01562
 --------------------------------------------------------
       Center         ----  Spin Dipole Couplings  ----
                      3XX-RR        3YY-RR        3ZZ-RR
 --------------------------------------------------------
     1   Atom       -1.510985      2.936567     -1.425582
     2   Atom        0.005802     -0.043823      0.038021
     3   Atom       -0.079314      0.194423     -0.115109
     4   Atom        0.011137      0.005069     -0.016206
     5   Atom        0.033041      0.000245     -0.033287
     6   Atom        0.017336     -0.001944     -0.015392
     7   Atom        0.040115     -0.051697      0.011582
     8   Atom        0.012214     -0.013382      0.001167
     9   Atom        0.003811     -0.001828     -0.001983
    10   Atom        0.001429     -0.000595     -0.000834
    11   Atom        0.002453     -0.001251     -0.001202
    12   Atom        0.003340     -0.001649     -0.001692
    13   Atom        0.001011     -0.000449     -0.000562
    14   Atom        0.001149     -0.000417     -0.000732
    15   Atom        0.001211     -0.000379     -0.000832
 --------------------------------------------------------
                        XY            XZ            YZ
 --------------------------------------------------------
     1   Atom        0.319408      0.043963      0.743748
     2   Atom       -0.023056      0.131902     -0.019030
     3   Atom        0.160446      0.019372      0.006919
     4   Atom       -0.013578     -0.011977      0.008706
     5   Atom       -0.012229     -0.021817      0.015030
     6   Atom        0.014505     -0.007577     -0.001614
     7   Atom        0.003498     -0.003705     -0.018283
     8   Atom        0.002151      0.005538      0.002097
     9   Atom        0.000375     -0.000006      0.000036
    10   Atom        0.000500     -0.000005      0.000010
    11   Atom       -0.000119      0.000860     -0.000012
    12   Atom        0.000100     -0.000965      0.000082
    13   Atom        0.000296     -0.000053      0.000005
    14   Atom        0.000635      0.000336      0.000142
    15   Atom        0.000819     -0.000409     -0.000112
 --------------------------------------------------------


 ---------------------------------------------------------------------------------
              Anisotropic Spin Dipole Couplings in Principal Axis System
 ---------------------------------------------------------------------------------

       Atom             a.u.   MegaHertz   Gauss  10(-4) cm-1        Axes

              Baa    -1.5530   112.371    40.097    37.483  0.4150 -0.1774  0.8924
     1 O(17)  Bbb    -1.5295   110.677    39.492    36.918  0.9071  0.0052 -0.4208
              Bcc     3.0825  -223.048   -79.589   -74.401  0.0700  0.9841  0.1630
 
              Baa    -0.1113   -59.388   -21.191   -19.810  0.7521  0.0722 -0.6551
     2 H(1)   Bbb    -0.0478   -25.496    -9.098    -8.505  0.0410  0.9869  0.1559
              Bcc     0.1591    84.884    30.289    28.314  0.6578 -0.1441  0.7393
 
              Baa    -0.1584   -21.253    -7.584    -7.089  0.8633 -0.3863 -0.3247
     3 C(13)  Bbb    -0.1106   -14.842    -5.296    -4.951  0.2800 -0.1687  0.9451
              Bcc     0.2690    36.096    12.880    12.040  0.4198  0.9068  0.0375
 
              Baa    -0.0213   -11.359    -4.053    -3.789  0.2785 -0.1688  0.9455
     4 H(1)   Bbb    -0.0058    -3.086    -1.101    -1.029  0.6089  0.7923 -0.0379
              Bcc     0.0271    14.444     5.154     4.818  0.7427 -0.5863 -0.3235
 
              Baa    -0.0428    -5.742    -2.049    -1.915  0.2274 -0.2629  0.9377
     5 C(13)  Bbb    -0.0026    -0.355    -0.127    -0.119  0.4037  0.9017  0.1549
              Bcc     0.0454     6.097     2.176     2.034  0.8862 -0.3433 -0.3111
 
              Baa    -0.0173    -2.323    -0.829    -0.775  0.2740 -0.1590  0.9485
     6 C(13)  Bbb    -0.0091    -1.225    -0.437    -0.409 -0.4045  0.8757  0.2637
              Bcc     0.0264     3.548     1.266     1.183  0.8725  0.4559 -0.1756
 
              Baa    -0.0567     4.100     1.463     1.368 -0.0251  0.9660  0.2574
     7 O(17)  Bbb     0.0157    -1.133    -0.404    -0.378  0.1798 -0.2490  0.9517
              Bcc     0.0410    -2.966    -1.058    -0.989  0.9834  0.0701 -0.1675
 
              Baa    -0.0138     0.995     0.355     0.332 -0.0569  0.9914 -0.1182
     8 O(17)  Bbb    -0.0010     0.075     0.027     0.025 -0.3961  0.0862  0.9141
              Bcc     0.0148    -1.070    -0.382    -0.357  0.9164  0.0989  0.3878
 
              Baa    -0.0020    -0.267    -0.095    -0.089  0.0173 -0.2516  0.9677
     9 C(13)  Bbb    -0.0018    -0.247    -0.088    -0.083 -0.0638  0.9656  0.2522
              Bcc     0.0038     0.515     0.184     0.172  0.9978  0.0661 -0.0007
 
              Baa    -0.0008    -0.112    -0.040    -0.037  0.0204 -0.0824  0.9964
    10 C(13)  Bbb    -0.0007    -0.095    -0.034    -0.032 -0.2266  0.9703  0.0849
              Bcc     0.0015     0.207     0.074     0.069  0.9738  0.2275 -0.0011
 
              Baa    -0.0014    -0.745    -0.266    -0.248 -0.2200 -0.1036  0.9700
    11 H(1)   Bbb    -0.0013    -0.668    -0.238    -0.223  0.0070  0.9942  0.1078
              Bcc     0.0026     1.413     0.504     0.471  0.9755 -0.0305  0.2180
 
              Baa    -0.0019    -1.018    -0.363    -0.340  0.1754 -0.3583  0.9170
    12 H(1)   Bbb    -0.0016    -0.860    -0.307    -0.287  0.0504  0.9335  0.3551
              Bcc     0.0035     1.878     0.670     0.627  0.9832  0.0160 -0.1818
 
              Baa    -0.0006    -0.303    -0.108    -0.101  0.0751 -0.2268  0.9710
    13 H(1)   Bbb    -0.0005    -0.268    -0.096    -0.090 -0.1783  0.9551  0.2368
              Bcc     0.0011     0.571     0.204     0.191  0.9811  0.1909 -0.0313
 
              Baa    -0.0008    -0.424    -0.151    -0.142 -0.1094 -0.1823  0.9771
    14 H(1)   Bbb    -0.0006    -0.341    -0.122    -0.114 -0.3538  0.9258  0.1331
              Bcc     0.0014     0.766     0.273     0.255  0.9289  0.3312  0.1658
 
              Baa    -0.0009    -0.490    -0.175    -0.164  0.2550 -0.1899  0.9481
    15 H(1)   Bbb    -0.0007    -0.379    -0.135    -0.126 -0.3284  0.9052  0.2697
              Bcc     0.0016     0.869     0.310     0.290  0.9095  0.3802 -0.1684
 

 ---------------------------------------------------------------------------------

 Calling FoFJK, ICntrl=    100127 FMM=F ISym2X=0 I1Cent= 0 IOpClX= 1 NMat=1 NMatS=1 NMatT=0.
 Full mass-weighted force constant matrix:
 Low frequencies --- -471.5688 -282.4604 -138.5970 -112.4122  -78.1255  -56.5922
 Low frequencies ---  -31.2481   -0.0002    0.0005
 ******    4 imaginary frequencies (negative Signs) ****** 
 Diagonal vibrational polarizability:
       49.9790934      87.1721671      50.7221074
 Harmonic frequencies (cm**-1), IR intensities (KM/Mole), Raman scattering
 activities (A**4/AMU), depolarization ratios for plane and unpolarized
 incident light, reduced masses (AMU), force constants (mDyne/A),
 and normal coordinates:
                      1                      2                      3
                      A                      A                      A
 Frequencies --   -470.8335              -282.3016              -107.2752
 Red. masses --      1.0864                 8.2489                 6.5647
 Frc consts  --      0.1419                 0.3873                 0.0445
 IR Inten    --    115.3966                11.2203                16.8922
  Atom  AN      X      Y      Z        X      Y      Z        X      Y      Z
     1   8    -0.05   0.00   0.04    -0.13  -0.37  -0.08     0.15  -0.10   0.33
     2   1     0.72  -0.09  -0.68    -0.15   0.46   0.12     0.12  -0.52   0.26
     3   6    -0.00  -0.01   0.01    -0.10  -0.07   0.03    -0.12  -0.04  -0.19
     4   1    -0.02  -0.04   0.00    -0.24  -0.30   0.00    -0.19  -0.12  -0.26
     5   6     0.01   0.01   0.01     0.24   0.57   0.07    -0.00   0.11  -0.09
     6   6     0.00   0.01   0.01     0.05   0.13   0.02     0.01   0.11  -0.04
     7   8    -0.01  -0.00  -0.00    -0.00  -0.11  -0.03     0.13   0.32   0.02
     8   8     0.01   0.00  -0.00     0.02   0.04   0.01    -0.08  -0.11  -0.07
     9   6     0.00  -0.00  -0.01    -0.01  -0.01   0.00    -0.08  -0.10  -0.07
    10   6     0.00  -0.00  -0.01     0.01  -0.02  -0.01    -0.04  -0.12   0.02
    11   1     0.00  -0.00  -0.01    -0.02  -0.01   0.01    -0.11  -0.16  -0.11
    12   1    -0.00   0.00  -0.01    -0.02  -0.02   0.01    -0.06  -0.04  -0.10
    13   1     0.00   0.00  -0.01     0.00  -0.02  -0.01    -0.04  -0.14   0.05
    14   1     0.00  -0.00  -0.01     0.01  -0.02  -0.01    -0.05  -0.17   0.05
    15   1    -0.00   0.00  -0.01     0.01  -0.02  -0.01     0.01  -0.07   0.05
                      4                      5                      6
                      A                      A                      A
 Frequencies --    -58.8052                22.0700                87.8562
 Red. masses --      4.9128                 2.7081                 3.1025
 Frc consts  --      0.0100                 0.0008                 0.0141
 IR Inten    --      4.9710                 0.4335                 5.7160
  Atom  AN      X      Y      Z        X      Y      Z        X      Y      Z
     1   8     0.29   0.04  -0.10     0.01   0.01   0.09    -0.02   0.01   0.04
     2   1     0.23  -0.27  -0.11    -0.00  -0.09   0.08    -0.02  -0.08   0.02
     3   6    -0.12  -0.08   0.09     0.03   0.02   0.04     0.10  -0.07   0.24
     4   1    -0.16  -0.20   0.16     0.05   0.02   0.10     0.18  -0.15   0.53
     5   6    -0.08   0.04  -0.01     0.00   0.02  -0.03     0.01   0.02  -0.14
     6   6    -0.05   0.10   0.00    -0.03  -0.01  -0.08     0.01   0.01  -0.14
     7   8    -0.08  -0.06  -0.03    -0.09  -0.10  -0.11     0.12   0.01  -0.11
     8   8    -0.02   0.25   0.05     0.01   0.04  -0.09    -0.09   0.01  -0.07
     9   6    -0.11  -0.03   0.05     0.00   0.03  -0.11    -0.05   0.01   0.11
    10   6     0.11  -0.21  -0.04     0.06   0.01   0.25    -0.07   0.02   0.02
    11   1    -0.22  -0.04   0.08    -0.08  -0.19  -0.26    -0.10   0.13   0.24
    12   1    -0.24  -0.08   0.08     0.03   0.27  -0.25     0.06  -0.14   0.19
    13   1     0.04  -0.41  -0.06     0.04   0.04   0.12    -0.02   0.00   0.32
    14   1     0.24  -0.17  -0.07     0.09  -0.28   0.43    -0.29   0.24  -0.11
    15   1     0.20  -0.20  -0.06     0.07   0.28   0.47     0.08  -0.19  -0.20
                      7                      8                      9
                      A                      A                      A
 Frequencies --    121.4980               184.8892               202.7319
 Red. masses --      5.4474                 1.2958                 4.6030
 Frc consts  --      0.0474                 0.0261                 0.1115
 IR Inten    --      0.2979                 2.3096                 0.1891
  Atom  AN      X      Y      Z        X      Y      Z        X      Y      Z
     1   8     0.33  -0.05  -0.08     0.01  -0.04  -0.00     0.06   0.33   0.03
     2   1     0.36  -0.15  -0.13     0.02   0.03  -0.00    -0.03   0.12   0.06
     3   6     0.10   0.26   0.04    -0.00   0.04  -0.03    -0.17  -0.24  -0.03
     4   1     0.16   0.38   0.02     0.00   0.09  -0.08    -0.35  -0.52  -0.09
     5   6     0.03   0.14   0.05    -0.01  -0.02   0.05     0.09   0.13   0.05
     6   6    -0.04  -0.05   0.02    -0.02  -0.00   0.01     0.05   0.01   0.02
     7   8    -0.06  -0.10   0.01    -0.09   0.03  -0.01    -0.00  -0.12  -0.01
     8   8    -0.10  -0.18  -0.01     0.03  -0.00  -0.03     0.02  -0.12  -0.02
     9   6    -0.06  -0.04  -0.01     0.03  -0.00  -0.02     0.04  -0.05  -0.05
    10   6    -0.23   0.09   0.00     0.05  -0.01   0.03    -0.08   0.05   0.01
    11   1     0.03  -0.01  -0.01    -0.00  -0.01  -0.01     0.09  -0.05  -0.07
    12   1     0.01  -0.04  -0.01     0.05   0.00  -0.02     0.08  -0.02  -0.07
    13   1    -0.17   0.26  -0.01     0.15  -0.06   0.62     0.01   0.18   0.27
    14   1    -0.31   0.08   0.01    -0.39   0.26  -0.12    -0.37   0.15  -0.04
    15   1    -0.34   0.06   0.02     0.41  -0.25  -0.30     0.00  -0.07  -0.12
                     10                     11                     12
                      A                      A                      A
 Frequencies --    310.5277               400.9441               447.1992
 Red. masses --      2.8803                 2.7523                 1.2900
 Frc consts  --      0.1636                 0.2607                 0.1520
 IR Inten    --     18.2280                11.7916               108.9358
  Atom  AN      X      Y      Z        X      Y      Z        X      Y      Z
     1   8     0.02   0.02   0.01    -0.01   0.02  -0.03     0.05  -0.01   0.03
     2   1     0.05   0.18   0.02    -0.13  -0.60  -0.07     0.24   0.92   0.08
     3   6    -0.01  -0.02  -0.03    -0.08   0.05   0.05    -0.02  -0.01  -0.00
     4   1    -0.05  -0.04  -0.10    -0.06   0.03   0.13    -0.01  -0.00   0.01
     5   6     0.04   0.00   0.08    -0.08   0.11  -0.05    -0.03  -0.02  -0.01
     6   6     0.00  -0.00  -0.06    -0.07  -0.05   0.01    -0.03  -0.03  -0.02
     7   8    -0.19   0.09  -0.11     0.03  -0.04   0.05     0.04  -0.01   0.01
     8   8     0.01  -0.07  -0.11    -0.08  -0.16  -0.01    -0.06  -0.04  -0.00
     9   6     0.09  -0.03   0.21     0.05   0.13   0.01    -0.03   0.06  -0.01
    10   6     0.05  -0.01   0.03     0.20   0.04  -0.03     0.05   0.01  -0.01
    11   1     0.01   0.21   0.45     0.09   0.15   0.02    -0.02   0.03  -0.04
    12   1     0.29  -0.31   0.36     0.15   0.10   0.02    -0.02   0.08  -0.03
    13   1    -0.01  -0.00  -0.29     0.10  -0.25  -0.04     0.00  -0.14   0.00
    14   1     0.33  -0.03   0.03     0.40   0.08  -0.06     0.13   0.01  -0.01
    15   1    -0.18   0.01   0.13     0.37   0.08  -0.06     0.15   0.04  -0.02
                     13                     14                     15
                      A                      A                      A
 Frequencies --    580.0110               618.8947               709.4374
 Red. masses --      3.8727                 5.3224                 1.7190
 Frc consts  --      0.7676                 1.2011                 0.5097
 IR Inten    --      6.4693                11.9727                11.8529
  Atom  AN      X      Y      Z        X      Y      Z        X      Y      Z
     1   8    -0.01   0.03  -0.01    -0.01  -0.01  -0.01     0.01   0.02   0.00
     2   1    -0.09  -0.35  -0.03    -0.02  -0.16  -0.04     0.02  -0.00  -0.02
     3   6     0.19  -0.10  -0.07    -0.15   0.07   0.07    -0.05  -0.14   0.05
     4   1     0.07  -0.12  -0.35    -0.21   0.41  -0.54     0.36   0.84  -0.30
     5   6     0.26  -0.06   0.16    -0.07  -0.07   0.40     0.04   0.08  -0.03
     6   6     0.03  -0.01  -0.03    -0.03   0.06  -0.11    -0.05  -0.15  -0.03
     7   8    -0.04   0.02  -0.05     0.27  -0.09  -0.05    -0.00   0.05   0.01
     8   8    -0.15  -0.03   0.06    -0.01   0.05  -0.20     0.02   0.04   0.02
     9   6    -0.20   0.17   0.01    -0.02   0.00  -0.01     0.00  -0.00   0.00
    10   6    -0.01   0.01  -0.01    -0.01  -0.01   0.01    -0.00  -0.00   0.00
    11   1    -0.11   0.05  -0.12    -0.14   0.15   0.15     0.00  -0.03  -0.02
    12   1    -0.23   0.28  -0.05     0.12  -0.16   0.07    -0.02   0.03  -0.01
    13   1    -0.13  -0.39   0.02    -0.01   0.00   0.00     0.01   0.02  -0.00
    14   1     0.23   0.07  -0.05    -0.02  -0.06   0.04    -0.02   0.01  -0.00
    15   1     0.26   0.06  -0.07    -0.01   0.04   0.05    -0.03  -0.02   0.00
                     16                     17                     18
                      A                      A                      A
 Frequencies --    736.6527               768.5719               815.0537
 Red. masses --      3.5228                 1.3633                 1.2587
 Frc consts  --      1.1263                 0.4745                 0.4927
 IR Inten    --     90.2929                48.4732                 6.4255
  Atom  AN      X      Y      Z        X      Y      Z        X      Y      Z
     1   8    -0.01  -0.02   0.01     0.00   0.00  -0.00    -0.00  -0.00  -0.00
     2   1     0.00   0.03   0.01     0.00  -0.03  -0.01     0.00  -0.00  -0.00
     3   6    -0.02  -0.10   0.02    -0.06  -0.02  -0.14    -0.04   0.02   0.01
     4   1     0.41   0.77  -0.11     0.42   0.13   0.88    -0.03   0.02   0.04
     5   6    -0.04  -0.08  -0.07     0.03   0.00   0.09    -0.03  -0.00   0.03
     6   6     0.15   0.38   0.09    -0.01  -0.01  -0.01     0.03   0.00  -0.04
     7   8    -0.05  -0.09  -0.03     0.01  -0.00   0.00     0.01   0.01  -0.06
     8   8    -0.04  -0.10   0.01     0.00   0.01  -0.02    -0.01  -0.01   0.04
     9   6    -0.00   0.00  -0.00    -0.01   0.01  -0.00     0.03  -0.02   0.08
    10   6     0.01   0.01  -0.00    -0.01  -0.00   0.00     0.02   0.00   0.03
    11   1     0.03   0.02  -0.00    -0.02   0.03   0.02    -0.06  -0.46  -0.27
    12   1     0.02  -0.01   0.00     0.00  -0.01   0.01    -0.00   0.47  -0.21
    13   1    -0.01  -0.05  -0.00    -0.01  -0.02   0.01     0.00   0.07  -0.17
    14   1     0.05   0.02  -0.01     0.00  -0.01   0.01     0.16   0.36  -0.19
    15   1     0.06   0.02  -0.02     0.01   0.01   0.00    -0.26  -0.34  -0.15
                     19                     20                     21
                      A                      A                      A
 Frequencies --    898.0842               944.3870              1113.1131
 Red. masses --      3.4044                 2.5737                 4.1269
 Frc consts  --      1.6178                 1.3524                 3.0127
 IR Inten    --     21.4434                 6.8362                 5.7405
  Atom  AN      X      Y      Z        X      Y      Z        X      Y      Z
     1   8    -0.00  -0.00  -0.00     0.00   0.01  -0.00     0.00   0.00   0.00
     2   1     0.00  -0.02  -0.01    -0.00  -0.00   0.00     0.00  -0.00  -0.00
     3   6    -0.07   0.04   0.01     0.08  -0.05  -0.04     0.05  -0.03  -0.03
     4   1    -0.06   0.05   0.03     0.10  -0.05  -0.04     0.06  -0.03  -0.04
     5   6    -0.03  -0.01   0.08     0.07  -0.01   0.00     0.04  -0.01   0.02
     6   6     0.07  -0.02  -0.12    -0.13   0.05   0.03    -0.15   0.07  -0.03
     7   8     0.00   0.04  -0.19     0.00  -0.02   0.09     0.01  -0.01   0.01
     8   8    -0.10  -0.03   0.26    -0.15   0.04  -0.06    -0.17   0.04   0.06
     9   6     0.06  -0.09  -0.04     0.00  -0.12  -0.02     0.34   0.16  -0.07
    10   6     0.10   0.05  -0.07     0.19   0.06  -0.01    -0.11  -0.22   0.02
    11   1     0.30   0.06   0.00    -0.33  -0.16   0.07     0.35   0.24  -0.01
    12   1    -0.31  -0.27   0.09    -0.05  -0.13  -0.01     0.45   0.18  -0.08
    13   1     0.25   0.35   0.15     0.37   0.67  -0.09    -0.06  -0.06  -0.01
    14   1    -0.27  -0.30   0.15    -0.14   0.13  -0.04    -0.24  -0.24   0.02
    15   1     0.15   0.33   0.15    -0.25  -0.06   0.04    -0.28  -0.32   0.02
                     22                     23                     24
                      A                      A                      A
 Frequencies --   1157.9908              1227.5125              1328.7035
 Red. masses --      2.0987                 1.7565                 1.8649
 Frc consts  --      1.6581                 1.5594                 1.9398
 IR Inten    --     18.2090                 4.5521               310.8282
  Atom  AN      X      Y      Z        X      Y      Z        X      Y      Z
     1   8    -0.00  -0.00  -0.00     0.00   0.00  -0.00     0.00   0.00   0.00
     2   1     0.00   0.00   0.00     0.00   0.00   0.00     0.00   0.01  -0.00
     3   6    -0.02   0.01   0.01     0.02  -0.01  -0.01     0.03  -0.02  -0.02
     4   1    -0.03   0.01   0.01     0.02  -0.01  -0.01     0.04  -0.02  -0.02
     5   6    -0.01   0.00  -0.01     0.01   0.00  -0.00     0.01   0.00   0.00
     6   6     0.06  -0.02   0.01    -0.07   0.03  -0.01    -0.19   0.08  -0.06
     7   8    -0.01   0.00  -0.01     0.01  -0.01   0.03     0.02  -0.01  -0.01
     8   8     0.06  -0.06  -0.03    -0.00   0.01  -0.07     0.10  -0.04   0.02
     9   6    -0.09   0.20   0.07     0.05  -0.04   0.18    -0.07  -0.01   0.01
    10   6     0.07  -0.15  -0.05    -0.03   0.02  -0.13     0.03  -0.01   0.07
    11   1    -0.12   0.08  -0.03     0.28  -0.39  -0.20     0.77   0.15  -0.16
    12   1    -0.26   0.21   0.07    -0.18   0.38  -0.06    -0.37  -0.17   0.11
    13   1     0.28   0.50   0.02     0.01  -0.09   0.26     0.01   0.03  -0.09
    14   1    -0.47  -0.24   0.02    -0.12  -0.38   0.13     0.06   0.21  -0.06
    15   1    -0.36  -0.08   0.16     0.25   0.40   0.09    -0.11  -0.16  -0.01
                     25                     26                     27
                      A                      A                      A
 Frequencies --   1374.0335              1443.6656              1455.2940
 Red. masses --      1.8195                 1.3769                 1.2774
 Frc consts  --      2.0240                 1.6908                 1.5939
 IR Inten    --    309.3822                45.0079                13.9046
  Atom  AN      X      Y      Z        X      Y      Z        X      Y      Z
     1   8     0.00   0.00   0.00    -0.00  -0.00  -0.00     0.00   0.00   0.00
     2   1     0.00   0.01  -0.00    -0.00  -0.00   0.00     0.00   0.00  -0.00
     3   6     0.02  -0.01  -0.01    -0.01   0.01   0.01     0.00  -0.00  -0.00
     4   1     0.02  -0.02  -0.02    -0.01   0.01   0.01     0.01  -0.00  -0.00
     5   6     0.00  -0.00   0.00    -0.00  -0.00  -0.00     0.00   0.00   0.00
     6   6    -0.15   0.06  -0.05     0.08  -0.03   0.01    -0.03   0.01  -0.01
     7   8     0.02   0.00  -0.03    -0.01   0.00   0.02     0.00  -0.00  -0.00
     8   8     0.10  -0.04   0.10    -0.05   0.04  -0.03     0.02  -0.02   0.01
     9   6    -0.08  -0.01   0.01    -0.10  -0.05   0.01     0.05   0.03  -0.00
    10   6     0.01  -0.01  -0.05    -0.00  -0.07  -0.00    -0.10  -0.09   0.01
    11   1    -0.40  -0.07   0.08     0.60   0.20  -0.04    -0.25  -0.10  -0.01
    12   1     0.83   0.11  -0.11     0.52   0.20  -0.16    -0.23  -0.10   0.09
    13   1     0.04   0.04   0.04     0.13   0.30  -0.01     0.12   0.50   0.04
    14   1    -0.09  -0.09   0.00     0.08   0.19  -0.14     0.43   0.27  -0.19
    15   1     0.05   0.16   0.06     0.13   0.16   0.12     0.45   0.26   0.08
                     28                     29                     30
                      A                      A                      A
 Frequencies --   1527.8658              1537.3744              1545.3247
 Red. masses --      1.0420                 1.0696                 1.0740
 Frc consts  --      1.4331                 1.4895                 1.5110
 IR Inten    --     14.3191                 3.3600                20.7608
  Atom  AN      X      Y      Z        X      Y      Z        X      Y      Z
     1   8     0.00   0.00   0.00     0.00   0.00   0.00     0.00   0.00   0.00
     2   1    -0.00   0.00   0.00     0.00   0.00   0.00    -0.00   0.00   0.00
     3   6     0.00   0.00   0.00     0.00  -0.00  -0.00     0.00  -0.00  -0.00
     4   1    -0.00  -0.00  -0.00     0.00  -0.00  -0.00     0.00  -0.00  -0.00
     5   6    -0.00   0.00   0.00    -0.00   0.00   0.00    -0.00   0.00   0.00
     6   6    -0.00  -0.00   0.00    -0.02   0.01   0.00    -0.02   0.01   0.00
     7   8     0.00   0.00  -0.01     0.00   0.00  -0.01     0.00   0.00  -0.01
     8   8     0.00  -0.00   0.00     0.02  -0.01   0.00     0.01  -0.01   0.00
     9   6    -0.01  -0.01  -0.02     0.00  -0.06   0.00     0.03  -0.05  -0.01
    10   6    -0.02   0.02  -0.04    -0.02   0.02   0.02     0.02  -0.03  -0.01
    11   1     0.02   0.10   0.05    -0.05   0.40   0.39    -0.11   0.26   0.29
    12   1    -0.01   0.04  -0.04    -0.19   0.46  -0.27    -0.23   0.28  -0.18
    13   1     0.15   0.05   0.66     0.02   0.20  -0.18    -0.05  -0.28   0.11
    14   1     0.55  -0.14   0.06     0.06  -0.26   0.17    -0.15   0.40  -0.25
    15   1    -0.42  -0.14   0.01     0.24  -0.23  -0.28    -0.22   0.35   0.39
                     31                     32                     33
                      A                      A                      A
 Frequencies --   1910.8124              2259.6019              3107.2558
 Red. masses --     12.2313                 5.8379                 1.0351
 Frc consts  --     26.3123                17.5619                 5.8884
 IR Inten    --    309.9421                75.1645                13.8270
  Atom  AN      X      Y      Z        X      Y      Z        X      Y      Z
     1   8     0.00   0.00  -0.00    -0.00  -0.01  -0.00    -0.00  -0.00   0.00
     2   1    -0.02   0.01   0.02    -0.00  -0.00   0.00    -0.00   0.00  -0.00
     3   6     0.06  -0.04  -0.02    -0.31   0.19   0.12     0.00  -0.00  -0.00
     4   1     0.10  -0.06  -0.02    -0.61   0.37   0.24    -0.00   0.00   0.00
     5   6    -0.05   0.03   0.00     0.45  -0.23  -0.17    -0.00   0.00   0.00
     6   6    -0.19  -0.10   0.76    -0.09   0.02   0.05     0.00  -0.00   0.00
     7   8     0.15   0.05  -0.50     0.00   0.00  -0.02     0.00   0.00  -0.00
     8   8    -0.03   0.03  -0.07    -0.00   0.00  -0.00    -0.00   0.00  -0.00
     9   6    -0.02   0.00   0.02     0.00  -0.00   0.00     0.00   0.00   0.00
    10   6     0.01  -0.01  -0.00    -0.00  -0.00  -0.00    -0.04  -0.03  -0.00
    11   1     0.12  -0.08  -0.11     0.01  -0.01   0.00     0.00  -0.00   0.00
    12   1     0.12  -0.06   0.07     0.00  -0.00   0.00    -0.00  -0.01  -0.02
    13   1     0.02   0.05  -0.03     0.00   0.00  -0.00     0.57  -0.20  -0.12
    14   1    -0.03   0.01  -0.01    -0.00   0.00  -0.00    -0.00   0.29   0.52
    15   1     0.05   0.03   0.02     0.00   0.00   0.00    -0.15   0.31  -0.38
                     34                     35                     36
                      A                      A                      A
 Frequencies --   3138.6766              3186.6717              3191.1101
 Red. masses --      1.0602                 1.1001                 1.1026
 Frc consts  --      6.1537                 6.5821                 6.6153
 IR Inten    --     16.9150                14.8373                 5.2543
  Atom  AN      X      Y      Z        X      Y      Z        X      Y      Z
     1   8    -0.00  -0.00  -0.00    -0.00   0.00  -0.00     0.00   0.00  -0.00
     2   1     0.00  -0.00   0.00     0.00  -0.00   0.00    -0.00   0.00  -0.00
     3   6     0.00  -0.00  -0.00    -0.00   0.00   0.00    -0.00  -0.00  -0.00
     4   1     0.00   0.00  -0.00     0.00  -0.00  -0.00    -0.00   0.00   0.00
     5   6     0.00  -0.00  -0.00     0.00   0.00  -0.00     0.00   0.00  -0.00
     6   6    -0.00   0.00  -0.00    -0.00   0.00  -0.00    -0.00   0.00   0.00
     7   8    -0.00   0.00   0.00     0.00  -0.00   0.00     0.00  -0.00  -0.00
     8   8     0.00  -0.00   0.00    -0.00   0.00   0.00     0.00  -0.00   0.00
     9   6     0.01  -0.06  -0.02     0.01  -0.02   0.03     0.01  -0.01   0.05
    10   6    -0.01   0.01   0.00     0.04  -0.04  -0.06    -0.05   0.04  -0.03
    11   1    -0.15   0.33  -0.42    -0.11   0.25  -0.29    -0.12   0.27  -0.32
    12   1     0.04   0.39   0.71    -0.00  -0.06  -0.10    -0.02  -0.20  -0.34
    13   1     0.11  -0.04  -0.02    -0.53   0.18   0.09     0.47  -0.16  -0.11
    14   1    -0.00  -0.03  -0.06     0.01   0.35   0.60    -0.01   0.00  -0.02
    15   1     0.01  -0.01   0.02     0.05  -0.08   0.08     0.17  -0.37   0.47
                     37                     38                     39
                      A                      A                      A
 Frequencies --   3212.1448              3526.3007              3818.8012
 Red. masses --      1.1053                 1.1670                 1.0673
 Frc consts  --      6.7193                 8.5502                 9.1701
 IR Inten    --     17.6235                61.2762                15.9106
  Atom  AN      X      Y      Z        X      Y      Z        X      Y      Z
     1   8    -0.00  -0.00   0.00    -0.00  -0.00  -0.00    -0.04   0.01  -0.05
     2   1    -0.00   0.00  -0.00     0.00   0.00   0.00     0.66  -0.17   0.73
     3   6     0.00  -0.00   0.00    -0.10   0.05   0.04     0.00  -0.00  -0.00
     4   1    -0.00   0.00   0.00     0.82  -0.45  -0.32    -0.00   0.00   0.00
     5   6    -0.00  -0.00   0.00     0.03  -0.02  -0.01    -0.00   0.00   0.00
     6   6     0.00  -0.00  -0.00    -0.00   0.00   0.00    -0.00   0.00  -0.00
     7   8    -0.00  -0.00   0.00     0.00  -0.00   0.00     0.00  -0.00  -0.00
     8   8     0.00  -0.00  -0.00     0.00  -0.00   0.00     0.00  -0.00   0.00
     9   6    -0.02   0.01  -0.06    -0.00   0.00   0.00    -0.00   0.00   0.00
    10   6    -0.02   0.02  -0.06     0.00  -0.00  -0.00     0.00   0.00  -0.00
    11   1     0.15  -0.37   0.43     0.00  -0.00   0.00     0.00  -0.00   0.00
    12   1     0.02   0.20   0.33     0.00  -0.00  -0.00     0.00  -0.00  -0.00
    13   1     0.10  -0.03  -0.04     0.00  -0.00  -0.00     0.00  -0.00  -0.00
    14   1    -0.00   0.21   0.33    -0.00   0.00   0.00    -0.00   0.00  -0.00
    15   1     0.16  -0.36   0.42    -0.00  -0.00   0.00    -0.00  -0.00   0.00

 -------------------
 - Thermochemistry -
 -------------------
 Temperature   298.150 Kelvin.  Pressure   1.00000 Atm.
 Atom     1 has atomic number  8 and mass  15.99491
 Atom     2 has atomic number  1 and mass   1.00783
 Atom     3 has atomic number  6 and mass  12.00000
 Atom     4 has atomic number  1 and mass   1.00783
 Atom     5 has atomic number  6 and mass  12.00000
 Atom     6 has atomic number  6 and mass  12.00000
 Atom     7 has atomic number  8 and mass  15.99491
 Atom     8 has atomic number  8 and mass  15.99491
 Atom     9 has atomic number  6 and mass  12.00000
 Atom    10 has atomic number  6 and mass  12.00000
 Atom    11 has atomic number  1 and mass   1.00783
 Atom    12 has atomic number  1 and mass   1.00783
 Atom    13 has atomic number  1 and mass   1.00783
 Atom    14 has atomic number  1 and mass   1.00783
 Atom    15 has atomic number  1 and mass   1.00783
 Molecular mass:   115.03952 amu.
 Principal axes and moments of inertia in atomic units:
                           1         2         3
     Eigenvalues --   454.030861550.403961629.49918
           X            0.99998  -0.00365   0.00536
           Y            0.00312   0.99542   0.09557
           Z           -0.00568  -0.09555   0.99541
 This molecule is an asymmetric top.
 Rotational symmetry number  1.
 Warning -- assumption of classical behavior for rotation
           may cause significant error
 Rotational temperatures (Kelvin)      0.19077     0.05587     0.05315
 Rotational constants (GHZ):           3.97493     1.16405     1.10754
    4 imaginary frequencies ignored.
 Zero-point vibrational energy     292553.1 (Joules/Mol)
                                   69.92187 (Kcal/Mol)
 Warning -- explicit consideration of  10 degrees of freedom as
           vibrations may cause significant error
 Vibrational temperatures:     31.75   126.41   174.81   266.01   291.69
          (Kelvin)            446.78   576.87   643.42   834.51   890.45
                             1020.72  1059.88  1105.80  1172.68  1292.14
                             1358.76  1601.52  1666.09  1766.12  1911.71
                             1976.93  2077.11  2093.84  2198.26  2211.94
                             2223.38  2749.23  3251.06  4470.65  4515.86
                             4584.91  4591.30  4621.56  5073.56  5494.40
 
 Zero-point correction=                           0.111428 (Hartree/Particle)
 Thermal correction to Energy=                    0.119624
 Thermal correction to Enthalpy=                  0.120568
 Thermal correction to Gibbs Free Energy=         0.076296
 Sum of electronic and zero-point Energies=           -419.843455
 Sum of electronic and thermal Energies=              -419.835258
 Sum of electronic and thermal Enthalpies=            -419.834314
 Sum of electronic and thermal Free Energies=         -419.878586
 
                     E (Thermal)             CV                S
                      KCal/Mol        Cal/Mol-Kelvin    Cal/Mol-Kelvin
 Total                   75.065             27.273             93.178
 Electronic               0.000              0.000              1.377
 Translational            0.889              2.981             40.136
 Rotational               0.889              2.981             28.530
 Vibrational             73.288             21.311             23.135
 Vibration     1          0.593              1.985              6.439
 Vibration     2          0.601              1.958              3.707
 Vibration     3          0.609              1.931              3.076
 Vibration     4          0.631              1.860              2.278
 Vibration     5          0.639              1.836              2.108
 Vibration     6          0.699              1.654              1.360
 Vibration     7          0.767              1.468              0.959
 Vibration     8          0.806              1.367              0.804
 Vibration     9          0.937              1.075              0.485
 Vibration    10          0.979              0.992              0.418
                       Q            Log10(Q)             Ln(Q)
 Total Bot       0.805654D-35        -35.093851        -80.806579
 Total V=0       0.144291D+17         16.159240         37.208026
 Vib (Bot)       0.216649D-48        -48.664244       -112.053562
 Vib (Bot)    1  0.938498D+01          0.972433          2.239111
 Vib (Bot)    2  0.234111D+01          0.369421          0.850623
 Vib (Bot)    3  0.168139D+01          0.225669          0.519623
 Vib (Bot)    4  0.108447D+01          0.035219          0.081095
 Vib (Bot)    5  0.982507D+00         -0.007664         -0.017648
 Vib (Bot)    6  0.608753D+00         -0.215559         -0.496342
 Vib (Bot)    7  0.444234D+00         -0.352389         -0.811405
 Vib (Bot)    8  0.384339D+00         -0.415285         -0.956230
 Vib (Bot)    9  0.262719D+00         -0.580508         -1.336668
 Vib (Bot)   10  0.236569D+00         -0.626043         -1.441517
 Vib (V=0)       0.388015D+03          2.588848          5.961043
 Vib (V=0)    1  0.989829D+01          0.995560          2.292362
 Vib (V=0)    2  0.289390D+01          0.461484          1.062607
 Vib (V=0)    3  0.225416D+01          0.352985          0.812778
 Vib (V=0)    4  0.169419D+01          0.228962          0.527203
 Vib (V=0)    5  0.160242D+01          0.204775          0.471512
 Vib (V=0)    6  0.128777D+01          0.109838          0.252911
 Vib (V=0)    7  0.116884D+01          0.067754          0.156010
 Vib (V=0)    8  0.113065D+01          0.053327          0.122791
 Vib (V=0)    9  0.106482D+01          0.027276          0.062806
 Vib (V=0)   10  0.105314D+01          0.022486          0.051777
 Electronic      0.200000D+01          0.301030          0.693147
 Translational   0.484981D+08          7.685724         17.697035
 Rotational      0.383387D+06          5.583638         12.856801
 ***** Axes restored to original set *****
 -------------------------------------------------------------------
 Center     Atomic                   Forces (Hartrees/Bohr)
 Number     Number              X              Y              Z
 -------------------------------------------------------------------
      1        8          -0.008191742    0.012878999   -0.010360856
      2        1           0.012198265   -0.001580383    0.012368060
      3        6           0.019587102   -0.008895851   -0.007140701
      4        1           0.000530133   -0.000578046   -0.000309656
      5        6          -0.027689343   -0.002972917    0.006528768
      6        6           0.041789584   -0.005251866   -0.034911558
      7        8          -0.017088649   -0.004330106    0.047912370
      8        8          -0.002890671    0.003644117   -0.014458947
      9        6          -0.015922198    0.007853735   -0.001259751
     10        6          -0.000365774   -0.000024876    0.000083650
     11        1          -0.000260008    0.000602572   -0.000497557
     12        1          -0.000220697    0.000753296    0.001547245
     13        1          -0.001470770   -0.000056310    0.000378307
     14        1           0.000036001   -0.000728565   -0.001005352
     15        1          -0.000041233   -0.001313800    0.001125978
 -------------------------------------------------------------------
 Cartesian Forces:  Max     0.047912370 RMS     0.013444977

 GradGradGradGradGradGradGradGradGradGradGradGradGradGradGradGradGradGrad
 Berny optimization.
 Search for a local minimum.
 Step number   1 out of a maximum of    2
 All quantities printed in internal units (Hartrees-Bohrs-Radians)
 Second derivative matrix not updated -- analytic derivatives used.
 ITU=  0
     Eigenvalues ---   -0.03607  -0.01418  -0.00447  -0.00122  -0.00022
     Eigenvalues ---    0.00093   0.00226   0.00340   0.00853   0.01320
     Eigenvalues ---    0.01854   0.03104   0.03457   0.05453   0.06569
     Eigenvalues ---    0.06620   0.07736   0.08435   0.09631   0.10588
     Eigenvalues ---    0.11995   0.14924   0.17747   0.18476   0.21025
     Eigenvalues ---    0.25524   0.29943   0.43374   0.49930   0.64665
     Eigenvalues ---    0.73479   0.77796   0.80118   0.88381   0.93892
     Eigenvalues ---    0.97017   0.99103   1.86316   2.72570
 Eigenvalue     1 is  -3.61D-02 should be greater than     0.000000 Eigenvector:
                          Y5        Y1        X5        X1        Y7
   1                    0.67718  -0.55454   0.29103  -0.20688  -0.13977
                          Y6        Y2        X4        Z2        Y4
   1                    0.13456   0.12687  -0.11045  -0.09031  -0.08998
 Eigenvalue     2 is  -1.42D-02 should be greater than     0.000000 Eigenvector:
                          Z2        X2        X1        Z1        Y1
   1                    0.58849  -0.57398   0.39537  -0.33089  -0.09990
                          Y5        Y2        X12       Y4        Y7
   1                    0.08791   0.06169  -0.06016   0.05679  -0.05336
 Eigenvalue     3 is  -4.47D-03 should be greater than     0.000000 Eigenvector:
                          Y7        Z1        X7        Z2        Y2
   1                    0.56123   0.32978   0.27157   0.27040  -0.26394
                          Y8        Z4        Z3        Y12       X14
   1                   -0.26077  -0.23675  -0.18617  -0.13471  -0.13172
 Eigenvalue     4 is  -1.22D-03 should be greater than     0.000000 Eigenvector:
                          Y2        X1        Y14       Y8        Y13
   1                    0.41406  -0.30117   0.25332  -0.25049   0.24931
                          X11       X2        Z15       X14       X15
   1                    0.24392  -0.23311  -0.19605  -0.18477  -0.17875
 Eigenvalue     5 is  -2.25D-04 should be greater than     0.000000 Eigenvector:
                          Z15       Z14       Y15       Z2        Y13
   1                    0.33269   0.30943   0.26492   0.24117   0.24074
                          Z1        Z11       Z12       Y12       X1
   1                    0.24049  -0.23770  -0.23196   0.19364  -0.18989
 Quadratic step=3.471D+00 exceeds max=3.000D-01 adjusted using Lamda=-3.364D-02.
 Angle between NR and scaled steps=  72.85 degrees.
 Angle between quadratic step and forces=  66.00 degrees.
 Linear search not attempted -- first point.
 B after Tr=    -0.000493    0.000517    0.000851
         Rot=    1.000000   -0.000177    0.000074   -0.000041 Ang=  -0.02 deg.
 Variable       Old X    -DE/DX   Delta X   Delta X   Delta X     New X
                                 (Linear)    (Quad)   (Total)
    X1        4.00661  -0.00819   0.00000   0.03136   0.03064   4.03725
    Y1        2.63583   0.01288   0.00000   0.15731   0.15817   2.79400
    Z1       -0.03052  -0.01036   0.00000   0.00990   0.01234  -0.01818
    X2        5.21810   0.01220   0.00000   0.04690   0.04602   5.26412
    Y2        2.31400  -0.00158   0.00000   0.05448   0.05496   2.36896
    Z2        1.30875   0.01237   0.00000   0.01449   0.01696   1.32571
    X3        4.52819   0.01959   0.00000   0.04416   0.04401   4.57221
    Y3       -2.22882  -0.00890   0.00000  -0.01003  -0.00875  -2.23757
    Z3       -1.07126  -0.00714   0.00000  -0.01486  -0.01412  -1.08537
    X4        6.19593   0.00053   0.00000   0.02454   0.02457   6.22050
    Y4       -3.13618  -0.00058   0.00000  -0.03634  -0.03469  -3.17087
    Z4       -1.73990  -0.00031   0.00000  -0.01690  -0.01624  -1.75615
    X5        2.68955  -0.02769   0.00000  -0.06849  -0.06883   2.62072
    Y5       -1.09005  -0.00297   0.00000  -0.20166  -0.20080  -1.29085
    Z5       -0.34572   0.00653   0.00000  -0.01060  -0.00981  -0.35553
    X6        0.18466   0.04179   0.00000   0.03642   0.03588   0.22054
    Y6       -0.37546  -0.00525   0.00000  -0.03715  -0.03683  -0.41229
    Z6        0.59678  -0.03491   0.00000  -0.00832  -0.00758   0.58920
    X7       -0.44542  -0.01709   0.00000  -0.01883  -0.01969  -0.46511
    Y7       -0.65486  -0.00433   0.00000   0.00407   0.00356  -0.65130
    Z7        2.75454   0.04791   0.00000   0.03749   0.03804   2.79258
    X8       -1.24004  -0.00289   0.00000   0.00804   0.00769  -1.23234
    Y8        0.53860   0.00364   0.00000   0.01926   0.02012   0.55872
    Z8       -1.25215  -0.01446   0.00000  -0.01293  -0.01207  -1.26422
    X9       -3.75878  -0.01592   0.00000  -0.03335  -0.03387  -3.79265
    Y9        1.31008   0.00785   0.00000   0.02472   0.02512   1.33520
    Z9       -0.55304  -0.00126   0.00000  -0.00108  -0.00032  -0.55336
   X10       -5.52148  -0.00037   0.00000  -0.00945  -0.00981  -5.53129
   Y10       -0.94307  -0.00002   0.00000   0.00144   0.00164  -0.94143
   Z10       -0.39510   0.00008   0.00000  -0.00154  -0.00185  -0.39695
   X11       -4.31395  -0.00026   0.00000  -0.01730  -0.01770  -4.33166
   Y11        2.60947   0.00060   0.00000   0.01797   0.01886   2.62833
   Z11       -2.04757  -0.00050   0.00000  -0.01120  -0.01006  -2.05763
   X12       -3.66123  -0.00022   0.00000  -0.01898  -0.01985  -3.68108
   Y12        2.32351   0.00075   0.00000   0.01373   0.01350   2.33701
   Z12        1.23868   0.00155   0.00000   0.00667   0.00780   1.24648
   X13       -7.43879  -0.00147   0.00000  -0.01793  -0.01840  -7.45719
   Y13       -0.29250  -0.00006   0.00000  -0.01487  -0.01497  -0.30747
   Z13        0.00133   0.00038   0.00000   0.00102   0.00066   0.00199
   X14       -5.53778   0.00004   0.00000  -0.00049  -0.00050  -5.53828
   Y14       -1.97102  -0.00073   0.00000  -0.00207  -0.00124  -1.97226
   Z14       -2.18228  -0.00101   0.00000  -0.00325  -0.00392  -2.18620
   X15       -4.94129  -0.00004   0.00000   0.00031  -0.00017  -4.94146
   Y15       -2.21668  -0.00131   0.00000   0.00162   0.00134  -2.21535
   Z15        1.11655   0.00113   0.00000   0.00084   0.00017   1.11672
         Item               Value     Threshold  Converged?
 Maximum Force            0.047912     0.000450     NO 
 RMS     Force            0.013445     0.000300     NO 
 Maximum Displacement     0.200796     0.001800     NO 
 RMS     Displacement     0.044721     0.001200     NO 
 Predicted change in Energy=-9.357035D-03
 GradGradGradGradGradGradGradGradGradGradGradGradGradGradGradGradGradGrad


 ----------------------------------------------------------------------

 Electric dipole moment (input orientation):
 (Debye = 10**-18 statcoulomb cm , SI units = C m)
                  (au)            (Debye)         (10**-30 SI)
   Tot        0.424735D+00      0.107957D+01      0.360105D+01
   x          0.135185D+00      0.343606D+00      0.114615D+01
   y         -0.345585D+00     -0.878388D+00     -0.292999D+01
   z         -0.206630D+00     -0.525200D+00     -0.175188D+01

 Dipole polarizability, Alpha (input orientation).
 (esu units = cm**3 , SI units = C**2 m**2 J**-1)
 Alpha(0;0):
               (au)            (10**-24 esu)      (10**-40 SI)
   iso        0.702006D+02      0.104027D+02      0.115745D+02
   aniso      0.255657D+02      0.378844D+01      0.421521D+01
   xx         0.816642D+02      0.121014D+02      0.134646D+02
   yx        -0.708261D+01     -0.104953D+01     -0.116777D+01
   yy         0.707012D+02      0.104768D+02      0.116571D+02
   zx        -0.347675D+01     -0.515201D+00     -0.573239D+00
   zy         0.426790D+01      0.632438D+00      0.703682D+00
   zz         0.582365D+02      0.862976D+01      0.960191D+01

 ----------------------------------------------------------------------

 Dipole orientation:
     8          4.18305337         -2.18477577         -0.85455955
     1          5.68217627         -1.12764625         -0.85865345
     6          3.49034547         -0.42431010          3.77587090
     1          4.67353636         -0.75564246          5.37024483
     6          2.20632035         -0.14526728          1.91113805
     6          0.29661347          0.66164557          0.07393790
     8          0.34756594          2.68203516         -0.94899954
     8         -1.46023533         -1.10150585         -0.22374989
     6         -3.45040756         -0.52176905         -1.99324651
     6         -5.43524803          1.16351733         -0.79784763
     1         -4.21705468         -2.36176579         -2.50011665
     1         -2.61268143          0.35698078         -3.65843026
     1         -6.98237693          1.45926792         -2.13028214
     1         -6.19834094          0.28236183          0.90280252
     1         -4.63534396          2.99878919         -0.31231056

 Electric dipole moment (dipole orientation):
 (Debye = 10**-18 statcoulomb cm , SI units = C m)
                  (au)            (Debye)         (10**-30 SI)
   Tot        0.424735D+00      0.107957D+01      0.360105D+01
   x          0.000000D+00      0.000000D+00      0.000000D+00
   y          0.000000D+00      0.000000D+00      0.000000D+00
   z          0.424735D+00      0.107957D+01      0.360105D+01

 Dipole polarizability, Alpha (dipole orientation).
 (esu units = cm**3 , SI units = C**2 m**2 J**-1)
 Alpha(0;0):
               (au)            (10**-24 esu)      (10**-40 SI)
   iso        0.702006D+02      0.104027D+02      0.115745D+02
   aniso      0.255657D+02      0.378844D+01      0.421521D+01
   xx         0.750695D+02      0.111242D+02      0.123773D+02
   yx        -0.372390D+01     -0.551825D+00     -0.613988D+00
   yy         0.585469D+02      0.867575D+01      0.965308D+01
   zx         0.991583D+01      0.146937D+01      0.163490D+01
   zy         0.170349D+01      0.252431D+00      0.280868D+00
   zz         0.769855D+02      0.114081D+02      0.126932D+02

 ----------------------------------------------------------------------
 1\1\GINC-AJ\Freq\UM062X\6-31+G\C5H7O3(2)\AAYUSH\20-Jun-2025\0\\# freq 
 6-31+g m062x\\Title Card Required\\0,2\O,2.120208,1.394819,-0.016148\H
 ,2.7613,1.224516,0.692561\C,2.396216,-1.179441,-0.566884\H,3.278746,-1
 .659595,-0.920718\C,1.423248,-0.576829,-0.182946\C,0.09772,-0.198685,0
 .315804\O,-0.235706,-0.346538,1.457638\O,-0.6562,0.285014,-0.66261\C,-
 1.98906,0.693266,-0.292656\C,-2.921843,-0.49905,-0.209077\H,-2.282845,
 1.380873,-1.083528\H,-1.93744,1.229549,0.655483\H,-3.936438,-0.154786,
 0.000706\H,-2.930465,-1.043017,-1.154812\H,-2.614816,-1.173019,0.59085
 4\\Version=ES64L-G16RevA.03\State=2-A\HF=-419.9548823\S2=0.764154\S2-1
 =0.\S2A=0.750093\RMSD=2.310e-09\RMSF=1.344e-02\ZeroPoint=0.1114276\The
 rmal=0.119624\Dipole=0.1351851,-0.3455845,-0.2066297\DipoleDeriv=-0.32
 27888,-0.0052914,0.1717665,0.1149322,0.0883383,0.04468,0.1501127,-0.05
 00177,-0.239743,0.2423554,0.1178401,-0.1147351,0.0583941,0.3205543,0.0
 489439,-0.1168399,0.0934847,0.1971671,-0.4013774,-0.2602585,-0.0184047
 ,0.0977842,-0.0111657,0.0293142,0.0263291,0.133163,-0.1601651,0.248079
 8,-0.0234557,-0.0065025,-0.0253773,0.2488795,0.0014322,0.0007234,-0.00
 25881,0.2593068,-0.3785721,0.2131031,0.0931094,-0.1177144,-0.7749709,-
 0.1530458,0.1067792,-0.1799883,-0.1593134,2.0906057,-0.233191,0.000959
 7,-0.571489,0.6320574,-0.255133,0.3088977,-0.3783671,1.6357589,-0.7909
 286,0.0066298,0.2010482,0.1156048,-0.3983176,0.0803733,0.0129005,0.192
 6728,-1.0734166,-1.5228762,0.2514373,-0.3264027,0.4412964,-0.4845925,0
 .2111289,-0.4449494,0.1865301,-0.7776533,0.8990762,-0.0990725,0.076880
 2,-0.1273565,0.3606781,-0.0582539,-0.0486235,0.0168621,0.2449597,-0.11
 90577,-0.0253357,-0.0146071,-0.0565632,-0.0860118,0.0542735,0.0133524,
 0.011061,0.0424504,-0.0053107,0.0095342,-0.0101964,0.0379858,-0.001812
 8,0.0748095,-0.0371025,0.1096925,-0.0008938,-0.019063,-0.0320133,-0.05
 31205,-0.0027519,0.0188747,-0.0377191,0.034017,-0.1018178,-0.0122823,-
 0.12065,0.0445914,0.0263598,0.0704518,0.0603069,-0.0285144,0.0431238,-
 0.0160816,0.1035777,0.0975298,-0.0053395,0.0336593,-0.0406019,0.020847
 8,-0.0637111,-0.016656,-0.0971555,-0.0644039,0.1029775,0.0408216,-0.05
 98141,0.0054047,0.0063343,0.0514219,-0.0320645,0.0825498,0.0046509\Pol
 ar=81.6641955,-7.0826124,70.701204,-3.4767496,4.2679025,58.2365258\Qua
 drupole=9.3599933,-2.4804116,-6.8795817,-4.2853344,2.043691,3.3882177\
 PG=C01 [X(C5H7O3)]\NImag=4\\0.22966005,-0.06176646,0.01790073,0.257848
 95,-0.06884830,0.27541717,-0.22388582,0.05834580,-0.25501773,0.2256509
 0,0.06688490,-0.01698202,0.07334424,-0.05952866,0.02266250,-0.25729021
 ,0.06554993,-0.27419187,0.25621828,-0.06747780,0.27362269,0.00726061,0
 .02327885,0.00016550,0.00075110,-0.00181307,0.00149220,1.07574351,-0.0
 0767536,-0.03128103,-0.00380353,-0.00009043,-0.00080315,-0.00054153,-0
 .59207576,0.39116729,-0.00366841,-0.01185643,0.00032922,0.00003447,-0.
 00055742,-0.00015381,-0.40189968,0.23421070,0.21310716,-0.00006120,-0.
 00035614,0.00011227,0.00034769,0.00014797,-0.00015467,-0.30803337,0.15
 432621,0.11139049,0.29573143,-0.00021013,0.00033133,0.00031468,0.00036
 826,-0.00022586,-0.00045616,0.14845554,-0.10703133,-0.05988257,-0.1523
 8335,0.09884940,0.00022286,-0.00003751,-0.00002039,0.00000610,-0.00018
 545,-0.00015357,0.11092024,-0.06204310,-0.07367469,-0.11132781,0.06159
 910,0.06177900,-0.00515226,-0.01009879,-0.00363779,-0.00156829,-0.0044
 2662,0.00057281,-0.78433225,0.45406171,0.29487920,0.01155267,0.0027821
 8,-0.00141341,1.07997613,0.01108757,0.03973637,-0.00022608,0.00145553,
 -0.00386235,0.00250844,0.41009657,-0.24995509,-0.15635700,-0.00327017,
 0.00496415,0.00198504,-0.51663300,0.26236261,0.00071898,0.01426765,-0.
 00137283,0.00002986,-0.00548139,-0.00003276,0.28868226,-0.16848037,-0.
 14815566,-0.00148245,-0.00095978,0.00805683,-0.37010979,0.16870856,0.2
 5923496,-0.00915887,-0.01278455,0.00175283,-0.00238608,-0.00253032,-0.
 00270546,0.01859143,-0.01487177,-0.00282349,0.00016882,0.00192218,0.00
 178208,-0.23368206,0.07306858,0.05938458,0.62619599,-0.00664339,-0.010
 68950,-0.00084879,0.00035840,-0.00011307,0.00111908,0.01177849,-0.0024
 8949,-0.00512784,0.00247343,0.00393624,-0.00130949,0.04169457,-0.07792
 890,-0.01662009,-0.12835656,0.27027713,0.00457879,0.00190966,-0.003786
 01,-0.00404405,0.00022890,0.00240772,0.00032210,0.00240623,0.00747610,
 0.00148140,-0.00029905,0.00407152,0.04571074,-0.02339117,-0.08520864,-
 0.14733423,-0.13960622,1.03666277,0.00050599,0.00116052,-0.00052409,0.
 00034280,0.00072890,0.00071546,-0.00434226,0.00376154,-0.00018074,-0.0
 0022319,-0.00031023,-0.00129622,-0.01928830,-0.00183033,0.05414400,-0.
 15121435,-0.01655822,0.21588731,0.14783522,-0.00065330,0.00078115,0.00
 091601,0.00026527,-0.00020570,-0.00036726,-0.00046559,-0.00015321,0.00
 045920,-0.00041362,-0.00051844,0.00023312,0.00784240,0.02044288,-0.006
 52061,-0.01407723,-0.07390919,0.08115502,0.00550574,0.03853516,-0.0019
 9405,-0.00178317,0.00310793,0.00171004,-0.00010405,-0.00179465,0.00118
 129,-0.00079490,0.00075267,-0.00008266,-0.00039799,0.00045406,0.037192
 33,0.00219299,-0.03584465,0.20725057,0.08793996,-0.75135788,-0.2329199
 6,-0.11765698,0.88104524,-0.00012270,0.00203581,-0.00063057,0.00084700
 ,0.00072025,0.00108026,-0.00598136,0.00342446,0.00272612,0.00062350,-0
 .00075092,0.00097348,-0.05040745,0.02364676,-0.02951460,-0.19597538,0.
 07292674,-0.11905958,0.02618520,0.00773867,-0.02068328,0.49782918,-0.0
 0140994,-0.00081598,-0.00073609,-0.00125270,-0.00046912,-0.00039255,0.
 00165324,-0.00022268,-0.00142079,-0.00038787,-0.00004015,-0.00017101,0
 .02296805,0.00111660,0.01291869,0.06868340,-0.09965194,0.07860988,0.00
 940661,0.01816932,0.03488686,-0.17134147,0.15812415,-0.00070444,0.0005
 4274,0.00064598,0.00105699,0.00015808,0.00017921,-0.00002478,-0.001098
 28,-0.00026344,0.00004042,0.00008800,-0.00067169,-0.00077414,0.0019408
 7,0.00579883,-0.08263673,0.06182432,-0.21753346,-0.03038831,0.04013838
 ,-0.09547235,0.08320574,-0.09850361,0.39727916,0.00094045,-0.00003676,
 0.00012178,-0.00017207,-0.00035456,-0.00012392,0.00155802,-0.00104851,
 -0.00096838,-0.00023244,0.00016137,0.00006589,0.00430320,0.00152898,-0
 .00004976,-0.05230712,0.02605182,-0.01837945,0.00000730,-0.00529356,0.
 01643697,-0.18255790,0.04441567,0.01972199,0.47188589,0.00018522,0.001
 05968,-0.00018765,0.00008833,0.00002343,0.00012536,-0.00131491,0.00081
 558,0.00064180,-0.00011572,-0.00030320,-0.00006692,0.00205823,0.003632
 22,0.00185796,0.02981521,-0.01242614,0.00912531,0.00042099,-0.00389855
 ,-0.00712658,0.03773261,-0.07608048,-0.00586117,-0.02060235,0.57125935
 ,0.00040164,0.00036445,-0.00026709,-0.00001246,0.00011108,0.00016387,-
 0.00104011,0.00019284,0.00075762,0.00002267,-0.00001934,0.00017232,-0.
 00299883,0.00317230,-0.00306449,-0.03418119,0.01057848,0.01316426,-0.0
 0092697,0.00038425,-0.00391446,0.05318805,-0.01667801,-0.09555048,0.05
 645879,-0.01828526,0.64689112,-0.00001317,0.00035002,-0.00009318,0.000
 03305,0.00005138,0.00008477,-0.00064704,0.00018454,0.00023685,0.000033
 54,-0.00007813,0.00001858,-0.00009942,0.00114027,-0.00022963,0.0017428
 6,-0.00429536,0.00595423,-0.00038946,-0.00065594,-0.00265677,-0.045321
 05,-0.02376596,0.00437403,-0.11527417,-0.05465509,-0.00053705,0.559495
 00,0.00010180,-0.00008316,0.00006629,-0.00002205,-0.00002522,-0.000046
 41,0.00043133,-0.00008071,-0.00008575,-0.00000460,0.00005281,-0.000011
 28,-0.00048744,-0.00060463,0.00008530,-0.00010006,0.00302707,-0.006168
 50,-0.00189078,-0.00086829,0.00199374,0.01316072,0.01152569,0.00223498
 ,-0.06734050,-0.17921038,0.00547800,-0.04976618,0.54455895,0.00000298,
 -0.00007692,0.00005904,-0.00001190,-0.00003248,-0.00003133,0.00018665,
 -0.00014370,-0.00013526,0.00001243,0.00003033,0.00001791,0.00014009,-0
 .00034758,0.00000370,-0.00183136,0.00004673,-0.00033863,0.00097792,0.0
 0061842,0.00099366,0.01189656,0.00499562,0.00220297,-0.00213679,0.0043
 0113,-0.08894634,0.00441873,0.00290494,0.60189870,-0.00001675,-0.00003
 330,0.00003970,0.00008178,0.00008552,0.00006185,-0.00049909,0.00009171
 ,0.00024731,0.00005431,0.00000656,0.00004254,-0.00100791,0.00021737,-0
 .00106569,-0.00340928,0.00234289,0.00512061,0.00099910,-0.00024435,-0.
 00101952,-0.02847756,0.02656413,-0.02578488,-0.06152483,0.04003527,-0.
 04892349,0.00680149,-0.01585157,0.01685401,0.08681118,0.00004117,0.000
 01423,-0.00000178,-0.00000786,-0.00001264,-0.00000680,0.00007704,-0.00
 012579,-0.00007264,-0.00000671,0.00001318,-0.00000100,0.00058910,0.000
 07838,0.00029642,-0.00023209,0.00008671,-0.00370936,-0.00103679,0.0007
 2514,0.00057152,0.00944061,-0.00654889,0.00866387,0.04601222,-0.160499
 19,0.12522043,0.00468099,-0.01783841,0.02112982,-0.05153027,0.17359674
 ,-0.00001312,0.00003403,-0.00000010,0.00002677,0.00002454,0.00001750,-
 0.00001315,0.00015517,-0.00005006,-0.00001936,-0.00003464,-0.00001865,
 0.00021140,-0.00013126,0.00051418,0.00319718,-0.00065548,-0.00225795,-
 0.00189383,0.00070744,0.00122434,0.00873804,-0.00940250,0.00829261,-0.
 06061309,0.13095806,-0.20920348,-0.00023117,-0.00164056,0.00098485,0.0
 5729734,-0.13909709,0.21724115,0.00005282,-0.00008859,-0.00014262,-0.0
 0002822,0.00006476,0.00007327,-0.00013982,-0.00006213,0.00002209,0.000
 06023,0.00002834,0.00000439,-0.00023951,-0.00069734,-0.00036529,0.0023
 3523,-0.00082630,0.00786973,0.00015041,0.00068280,-0.00306446,-0.01810
 698,0.02528858,0.03318962,-0.05058953,-0.01150830,-0.02350350,-0.00011
 677,-0.01230422,-0.01966054,0.00133470,-0.00527857,-0.00735892,0.06666
 240,0.00006867,0.00001639,0.00003122,0.00004122,0.00002653,-0.00000381
 ,-0.00009137,0.00018885,0.00003154,-0.00002029,-0.00002615,-0.00002392
 ,-0.00013793,-0.00014989,0.00044932,0.00063198,0.00172264,-0.00558241,
 -0.00181119,-0.00018723,0.00232148,0.00680325,-0.00642710,-0.00924711,
 -0.00666548,-0.11609306,-0.11097835,-0.00407911,-0.01375250,-0.0240810
 5,0.00060002,0.01184636,0.01916514,0.00686545,0.12451421,-0.00006871,-
 0.00009669,0.00005624,-0.00002230,-0.00004793,-0.00004386,0.00019258,-
 0.00014205,-0.00003330,0.00000998,0.00003232,-0.00000168,0.00020227,-0
 .00025087,-0.00013484,-0.00282646,0.00186340,-0.00148608,-0.00162225,0
 .00135041,0.00068665,0.00796816,-0.00483631,-0.00614945,-0.01314242,-0
 .11754986,-0.26187267,0.00003566,0.00369954,0.00419100,-0.00207422,-0.
 01230609,-0.01862012,0.01143533,0.12743575,0.28196008,-0.00006663,0.00
 005819,-0.00001525,0.00002180,0.00003733,0.00002559,-0.00024185,0.0001
 0079,0.00005648,0.00002055,-0.00002854,-0.00000523,-0.00008553,0.00019
 333,0.00002912,0.00180328,-0.00100687,0.00212221,-0.00012073,-0.000119
 17,-0.00094710,-0.00384173,-0.00385753,-0.00101309,-0.01846209,0.01100
 921,0.00409502,-0.28524056,0.08007520,0.04888556,0.00058389,-0.0000244
 5,0.00047542,0.00030918,-0.00002072,-0.00068435,0.31263772,-0.00000288
 ,0.00003501,-0.00002352,-0.00000757,0.00000554,0.00000552,-0.00012163,
 0.00004741,0.00004797,-0.00000691,-0.00002358,0.00001196,-0.00002842,0
 .00030496,-0.00015987,-0.00011777,-0.00151751,0.00253570,0.00061556,0.
 00034113,-0.00099106,-0.00749273,-0.00333363,-0.00013231,-0.02513767,0
 .00971403,0.00536986,0.08289914,-0.07769193,-0.01747632,0.00095042,0.0
 0089654,0.00051455,0.00081523,0.00087913,-0.00070979,-0.08802022,0.081
 81350,0.00000732,0.00000832,0.00000320,-0.00000293,-0.00000005,0.00000
 240,-0.00001842,0.00001366,0.00001051,-0.00000927,-0.00000228,-0.00000
 062,0.00005963,0.00010009,0.00005995,0.00006373,0.00052192,-0.00110573
 ,-0.00054506,-0.00050817,0.00023920,0.00095531,0.00031948,0.00121160,0
 .00117617,-0.00128887,-0.00136310,0.04889473,-0.01656059,-0.05763540,-
 0.00007323,0.00006535,-0.00016837,-0.00000239,-0.00000679,-0.00005601,
 -0.05476494,0.01854500,0.05845542,-0.00000484,-0.00003532,0.00002890,-
 0.00000116,-0.00002654,-0.00002188,0.00007796,-0.00002117,-0.00000230,
 -0.00002398,0.00000262,-0.00000771,0.00000892,0.00005517,0.00001589,-0
 .00079627,0.00041273,-0.00176273,-0.00038196,-0.00016292,0.00077501,0.
 00323365,0.00121758,0.00025769,-0.00282770,-0.01478405,-0.02037848,-0.
 04859334,0.00196875,-0.00005170,0.00059220,0.00108020,0.00026871,-0.00
 222187,-0.00340359,0.00067306,0.00100787,0.01609432,0.02861762,0.05009
 889,-0.00003419,-0.00000425,0.00003914,0.00001552,-0.00000350,-0.00001
 193,-0.00001611,0.00000448,0.00002601,0.00000785,0.00000320,-0.0000069
 0,-0.00009111,-0.00005193,-0.00008848,0.00006462,0.00008073,0.00000752
 ,0.00024396,0.00013846,0.00016674,0.00206795,0.00219125,0.00105205,-0.
 00094236,-0.01722970,-0.02746380,-0.00035448,-0.11553738,-0.11544333,0
 .00069184,0.00072362,0.00007959,-0.00355185,-0.00334027,0.00156893,-0.
 00063079,-0.00524416,-0.00890665,0.00306228,0.12700031,-0.00004327,-0.
 00002060,0.00002279,0.00001111,0.00000162,-0.00001113,-0.00005971,0.00
 006498,0.00002691,-0.00000808,-0.00002186,-0.00001125,-0.00006984,0.00
 009232,0.00011378,0.00029601,-0.00030960,-0.00066870,-0.00063316,-0.00
 019925,0.00026101,-0.00135899,0.00078561,0.00036205,0.00211829,0.00284
 337,0.00297600,-0.00146416,-0.11822000,-0.26041140,-0.00047251,-0.0002
 8843,0.00077134,0.00100619,0.00079033,0.00106629,-0.00129515,-0.001846
 38,-0.00517634,0.00059051,0.12999723,0.28059756,0.00006231,-0.00002928
 ,-0.00000870,-0.00003448,-0.00004122,-0.00002835,0.00023441,-0.0001058
 3,-0.00005001,-0.00001856,0.00003424,0.00001423,0.00002206,-0.00005930
 ,-0.00018749,-0.00190819,-0.00035239,0.00153291,-0.00006576,0.00005081
 ,-0.00117842,0.00207358,0.00181822,-0.00052011,0.00525298,-0.01836464,
 0.01833590,-0.07241095,0.05202959,-0.05968263,-0.00232322,-0.00380460,
 -0.00007221,0.00053774,0.00121908,-0.00007634,-0.00832518,0.01956112,-
 0.02435827,-0.00016837,-0.00053312,0.00138276,0.07707162,0.00002631,-0
 .00001895,-0.00003584,-0.00002908,-0.00001537,-0.00000409,0.00012737,-
 0.00008112,-0.00005679,0.00000991,0.00001838,0.00002734,-0.00009295,-0
 .00008538,-0.00027330,-0.00111561,-0.00040478,0.00277850,0.00159373,0.
 00060737,-0.00121856,-0.00011268,0.00246294,-0.00180082,0.00925168,-0.
 02076357,0.02255308,0.04834392,-0.15347191,0.12357438,-0.00392624,-0.0
 0295600,-0.00067700,0.00057216,0.00078210,-0.00001075,0.00223425,-0.00
 622644,0.00769958,-0.00546007,0.01126914,-0.01366934,-0.05142269,0.168
 88359,0.00000068,0.00004284,-0.00000326,0.00001774,0.00001812,0.000019
 61,-0.00008697,0.00000387,0.00000603,0.00001463,0.00000924,0.00000090,
 0.00003533,0.00000336,0.00003165,0.00061196,0.00058363,-0.00003930,-0.
 00079410,-0.00070998,-0.00038077,0.00051531,-0.00037529,-0.00033154,-0
 .00068608,0.00051332,0.00005692,-0.05880561,0.12627030,-0.20285348,-0.
 00024983,-0.00046423,0.00127276,0.00049710,-0.00030135,0.00043777,0.00
 303573,-0.00569132,0.00552330,-0.00900260,0.01898389,-0.01991891,0.064
 89671,-0.13888639,0.21617834\\0.00819174,-0.01287900,0.01036086,-0.012
 19826,0.00158038,-0.01236806,-0.01958710,0.00889585,0.00714070,-0.0005
 3013,0.00057805,0.00030966,0.02768934,0.00297292,-0.00652877,-0.041789
 58,0.00525187,0.03491156,0.01708865,0.00433011,-0.04791237,0.00289067,
 -0.00364412,0.01445895,0.01592220,-0.00785373,0.00125975,0.00036577,0.
 00002488,-0.00008365,0.00026001,-0.00060257,0.00049756,0.00022070,-0.0
 0075330,-0.00154725,0.00147077,0.00005631,-0.00037831,-0.00003600,0.00
 072857,0.00100535,0.00004123,0.00131380,-0.00112598\\\@


 ALMOST ANYTHING IS EASIER TO GET INTO THAN OUT OF.

                         -- AGNES ALLEN'S LAW FROM
                PAUL DICKSON'S "THE OFFICIAL RULES"
 Job cpu time:       0 days  0 hours 19 minutes 20.5 seconds.
 Elapsed time:       0 days  0 hours  0 minutes 48.4 seconds.
 File lengths (MBytes):  RWF=     59 Int=      0 D2E=      0 Chk=      8 Scr=      1
 Normal termination of Gaussian 16 at Fri Jun 20 14:32:04 2025.
