 Entering Gaussian System, Link 0=g16
 Initial command:
 /opt/g16/l1.exe "/home/aayush/scratches/g16/Gau-11040.inp" -scrdir="/home/aayush/scratches/g16/"
 Entering Link 1 = /opt/g16/l1.exe PID=     11043.
  
 Copyright (c) 1988,1990,1992,1993,1995,1998,2003,2009,2016,
            Gaussian, Inc.  All Rights Reserved.
  
 This is part of the Gaussian(R) 16 program.  It is based on
 the Gaussian(R) 09 system (copyright 2009, Gaussian, Inc.),
 the Gaussian(R) 03 system (copyright 2003, Gaussian, Inc.),
 the Gaussian(R) 98 system (copyright 1998, Gaussian, Inc.),
 the Gaussian(R) 94 system (copyright 1995, Gaussian, Inc.),
 the Gaussian 92(TM) system (copyright 1992, Gaussian, Inc.),
 the Gaussian 90(TM) system (copyright 1990, Gaussian, Inc.),
 the Gaussian 88(TM) system (copyright 1988, Gaussian, Inc.),
 the Gaussian 86(TM) system (copyright 1986, Carnegie Mellon
 University), and the Gaussian 82(TM) system (copyright 1983,
 Carnegie Mellon University). Gaussian is a federally registered
 trademark of Gaussian, Inc.
  
 This software contains proprietary and confidential information,
 including trade secrets, belonging to Gaussian, Inc.
  
 This software is provided under written license and may be
 used, copied, transmitted, or stored only in accord with that
 written license.
  
 The following legend is applicable only to US Government
 contracts under FAR:
  
                    RESTRICTED RIGHTS LEGEND
  
 Use, reproduction and disclosure by the US Government is
 subject to restrictions as set forth in subparagraphs (a)
 and (c) of the Commercial Computer Software - Restricted
 Rights clause in FAR 52.227-19.
  
 Gaussian, Inc.
 340 Quinnipiac St., Bldg. 40, Wallingford CT 06492
  
  
 ---------------------------------------------------------------
 Warning -- This program may not be used in any manner that
 competes with the business of Gaussian, Inc. or will provide
 assistance to any competitor of Gaussian, Inc.  The licensee
 of this program is prohibited from giving any competitor of
 Gaussian, Inc. access to this program.  By using this program,
 the user acknowledges that Gaussian, Inc. is engaged in the
 business of creating and licensing software in the field of
 computational chemistry and represents and warrants to the
 licensee that it is not a competitor of Gaussian, Inc. and that
 it will not use this program in any manner prohibited above.
 ---------------------------------------------------------------
  

 Cite this work as:
 Gaussian 16, Revision A.03,
 M. J. Frisch, G. W. Trucks, H. B. Schlegel, G. E. Scuseria, 
 M. A. Robb, J. R. Cheeseman, G. Scalmani, V. Barone, 
 G. A. Petersson, H. Nakatsuji, X. Li, M. Caricato, A. V. Marenich, 
 J. Bloino, B. G. Janesko, R. Gomperts, B. Mennucci, H. P. Hratchian, 
 J. V. Ortiz, A. F. Izmaylov, J. L. Sonnenberg, D. Williams-Young, 
 F. Ding, F. Lipparini, F. Egidi, J. Goings, B. Peng, A. Petrone, 
 T. Henderson, D. Ranasinghe, V. G. Zakrzewski, J. Gao, N. Rega, 
 G. Zheng, W. Liang, M. Hada, M. Ehara, K. Toyota, R. Fukuda, 
 J. Hasegawa, M. Ishida, T. Nakajima, Y. Honda, O. Kitao, H. Nakai, 
 T. Vreven, K. Throssell, J. A. Montgomery, Jr., J. E. Peralta, 
 F. Ogliaro, M. J. Bearpark, J. J. Heyd, E. N. Brothers, K. N. Kudin, 
 V. N. Staroverov, T. A. Keith, R. Kobayashi, J. Normand, 
 K. Raghavachari, A. P. Rendell, J. C. Burant, S. S. Iyengar, 
 J. Tomasi, M. Cossi, J. M. Millam, M. Klene, C. Adamo, R. Cammi, 
 J. W. Ochterski, R. L. Martin, K. Morokuma, O. Farkas, 
 J. B. Foresman, and D. J. Fox, Gaussian, Inc., Wallingford CT, 2016.
 
 ******************************************
 Gaussian 16:  ES64L-G16RevA.03 25-Dec-2016
                30-Aug-2025 
 ******************************************
 %chk=ethyl_propiolate.chk
 %nprocshared=24
 Will use up to   24 processors via shared memory.
 %mem=12GB
 --------------------------
 # ccsd(t)/6-311++g(d,p) sp
 --------------------------
 1/38=1,172=1/1;
 2/12=2,17=6,18=5,40=1/2;
 3/5=4,6=6,7=1111,11=9,25=1,30=1/1,2,3;
 4//1;
 5/5=2,38=5/2;
 8/6=4,9=120000,10=2/1,4;
 9/5=7,14=2/13;
 6/7=2,8=2,9=2,10=2/1;
 99/5=1,9=1/99;
 -------------------
 Title Card Required
 -------------------
 Symbolic Z-matrix:
 Charge =  0 Multiplicity = 2
 O                     2.15065   1.47879  -0.00803 
 H                     2.76066   1.24453   0.71117 
 C                     2.40447  -1.18495  -0.57165 
 H                     3.31384  -1.61566  -0.92075 
 C                     1.38004  -0.68269  -0.19533 
 C                     0.08873  -0.22296   0.31286 
 O                    -0.23727  -0.33665   1.46169 
 O                    -0.65667   0.28379  -0.66199 
 C                    -1.98777   0.69665  -0.29152 
 C                    -2.92057  -0.49666  -0.20888 
 H                    -2.28086   1.38404  -1.08276 
 H                    -1.9364    1.23292   0.65649 
 H                    -3.9356   -0.1537    0.00076 
 H                    -2.92783  -1.04019  -1.15485 
 H                    -2.61383  -1.17098   0.59098 
 
                          Input orientation:                          
 ---------------------------------------------------------------------
 Center     Atomic      Atomic             Coordinates (Angstroms)
 Number     Number       Type             X           Y           Z
 ---------------------------------------------------------------------
      1          8           0        2.150652    1.478787   -0.008026
      2          1           0        2.760658    1.244529    0.711166
      3          6           0        2.404466   -1.184954   -0.571646
      4          1           0        3.313837   -1.615662   -0.920751
      5          6           0        1.380039   -0.682694   -0.195333
      6          6           0        0.088733   -0.222963    0.312861
      7          8           0       -0.237271   -0.336654    1.461687
      8          8           0       -0.656665    0.283792   -0.661991
      9          6           0       -1.987771    0.696650   -0.291522
     10          6           0       -2.920570   -0.496655   -0.208883
     11          1           0       -2.280855    1.384042   -1.082762
     12          1           0       -1.936402    1.232924    0.656485
     13          1           0       -3.935596   -0.153695    0.000760
     14          1           0       -2.927826   -1.040194   -1.154854
     15          1           0       -2.613826   -1.170980    0.590981
 ---------------------------------------------------------------------
                    Distance matrix (angstroms):
                    1          2          3          4          5
     1  O    0.000000
     2  H    0.971710   0.000000
     3  C    2.734521   2.770355   0.000000
     4  H    3.429531   3.339140   1.065054   0.000000
     5  C    2.302375   2.538117   1.201386   2.266326   0.000000
     6  C    2.692663   3.074307   2.659022   3.723265   1.461877
     7  O    3.340368   3.471455   3.439888   4.463434   2.341186
     8  O    3.120370   3.806136   3.396454   4.409055   2.302179
     9  C    4.221215   4.883967   4.786507   5.818055   3.640602
    10  C    5.446100   6.012866   5.381576   6.373913   4.304652
    11  H    4.560953   5.352989   5.367794   6.350201   4.296635
    12  H    4.148016   4.697393   5.118357   6.177955   3.923515
    13  H    6.301388   6.877465   6.448839   7.452571   5.345490
    14  H    5.783720   6.407873   5.366044   6.272505   4.427887
    15  H    5.484553   5.893573   5.151228   6.133536   4.099716
                    6          7          8          9         10
     6  C    0.000000
     7  O    1.199586   0.000000
     8  O    1.327688   2.251855   0.000000
     9  C    2.350071   2.684345   1.442062   0.000000
    10  C    3.066436   3.164885   2.437144   1.516878   0.000000
    11  H    3.185149   3.689343   2.006388   1.088332   2.170235
    12  H    2.517709   2.449280   2.068081   1.090388   2.169998
    13  H    4.037007   3.980627   3.373725   2.145353   1.091719
    14  H    3.452779   3.818421   2.674701   2.155382   1.091031
    15  H    2.877484   2.665003   2.741675   2.158425   1.090224
                   11         12         13         14         15
    11  H    0.000000
    12  H    1.779456   0.000000
    13  H    2.505359   2.519814   0.000000
    14  H    2.510117   3.070983   1.771137   0.000000
    15  H    3.072527   2.498389   1.769267   1.778663   0.000000
 Stoichiometry    C5H7O3(2)
 Framework group  C1[X(C5H7O3)]
 Deg. of freedom    39
 Full point group                 C1      NOp   1
 Largest Abelian subgroup         C1      NOp   1
 Largest concise Abelian subgroup C1      NOp   1
                         Standard orientation:                         
 ---------------------------------------------------------------------
 Center     Atomic      Atomic             Coordinates (Angstroms)
 Number     Number       Type             X           Y           Z
 ---------------------------------------------------------------------
      1          8           0        2.224021    1.461792   -0.043014
      2          1           0        2.831867    1.245384    0.683561
      3          6           0        2.457336   -1.220146   -0.522985
      4          1           0        3.363480   -1.668601   -0.857845
      5          6           0        1.436685   -0.698433   -0.163244
      6          6           0        0.148774   -0.213034    0.329460
      7          8           0       -0.178612   -0.288246    1.481053
      8          8           0       -0.592226    0.268796   -0.661254
      9          6           0       -1.920241    0.703353   -0.304772
     10          6           0       -2.862339   -0.479506   -0.185539
     11          1           0       -2.207615    1.367948   -1.117296
     12          1           0       -1.865116    1.268564    0.626057
     13          1           0       -3.874756   -0.122290    0.012595
     14          1           0       -2.873409   -1.052258   -1.114076
     15          1           0       -2.561207   -1.130878    0.635206
 ---------------------------------------------------------------------
 Rotational constants (GHZ):           3.8010672           1.1598403           1.0917817
 Standard basis: 6-311++G(d,p) (5D, 7F)
 There are   233 symmetry adapted cartesian basis functions of A   symmetry.
 There are   225 symmetry adapted basis functions of A   symmetry.
   225 basis functions,   351 primitive gaussians,   233 cartesian basis functions
    31 alpha electrons       30 beta electrons
       nuclear repulsion energy       356.1048634503 Hartrees.
 NAtoms=   15 NActive=   15 NUniq=   15 SFac= 1.00D+00 NAtFMM=   60 NAOKFM=F Big=F
 Integral buffers will be    131072 words long.
 Raffenetti 2 integral format.
 Two-electron integral symmetry is turned on.
 One-electron integrals computed using PRISM.
 NBasis=   225 RedAO= T EigKep=  7.46D-06  NBF=   225
 NBsUse=   224 1.00D-06 EigRej=  9.85D-07 NBFU=   224
 ExpMin= 3.60D-02 ExpMax= 8.59D+03 ExpMxC= 1.30D+03 IAcc=3 IRadAn=         5 AccDes= 0.00D+00
 Harris functional with IExCor=  205 and IRadAn=       5 diagonalized for initial guess.
 HarFok:  IExCor=  205 AccDes= 0.00D+00 IRadAn=         5 IDoV= 1 UseB2=F ITyADJ=14
 ICtDFT=  3500011 ScaDFX=  1.000000  1.000000  1.000000  1.000000
 FoFCou: FMM=F IPFlag=           0 FMFlag=      100000 FMFlg1=           0
         NFxFlg=           0 DoJE=T BraDBF=F KetDBF=T FulRan=T
         wScrn=  0.000000 ICntrl=       500 IOpCl=  0 I1Cent=   200000004 NGrid=           0
         NMat0=    1 NMatS0=      1 NMatT0=    0 NMatD0=    1 NMtDS0=    0 NMtDT0=    0
 Petite list used in FoFCou.
 Initial guess <Sx>= 0.0000 <Sy>= 0.0000 <Sz>= 0.5000 <S**2>= 0.7500 S= 0.5000
 Requested convergence on RMS density matrix=1.00D-08 within 128 cycles.
 Requested convergence on MAX density matrix=1.00D-06.
 Requested convergence on             energy=1.00D-06.
 No special actions if energy rises.
 Initial convergence to 1.0D-05 achieved.  Increase integral accuracy.
 Restarting incremental Fock formation.
 SCF Done:  E(UHF) =  -417.991086068     A.U. after   38 cycles
            NFock= 38  Conv=0.29D-08     -V/T= 2.0007
 <Sx>= 0.0000 <Sy>= 0.0000 <Sz>= 0.5000 <S**2>= 0.8279 S= 0.5382
 <L.S>=  0.00000000000    
 Annihilation of the first spin contaminant:
 S**2 before annihilation     0.8279,   after     0.7537
 ExpMin= 3.60D-02 ExpMax= 8.59D+03 ExpMxC= 1.30D+03 IAcc=3 IRadAn=         5 AccDes= 0.00D+00
 HarFok:  IExCor=  205 AccDes= 0.00D+00 IRadAn=         5 IDoV=-2 UseB2=F ITyADJ=14
 ICtDFT= 12500011 ScaDFX=  1.000000  1.000000  1.000000  1.000000
 Range of M.O.s used for correlation:     9   224
 NBasis=   225 NAE=    31 NBE=    30 NFC=     8 NFV=     0
 NROrb=    216 NOA=    23 NOB=    22 NVA=   193 NVB=   194

 **** Warning!!: The largest alpha MO coefficient is  0.10369165D+03


 **** Warning!!: The largest beta MO coefficient is  0.80784569D+02

 Semi-Direct transformation.
 ModeAB=           4 MOrb=            23 LenV=    1609186287
 LASXX=    107793295 LTotXX=   107793295 LenRXX=   218294035
 LTotAB=   110500740 MaxLAS=   127747152 LenRXY=           0
 NonZer=   326087330 LenScr=   491049984 LnRSAI=   127747152
 LnScr1=   192384000 LExtra=           0 Total=   1029475171
 MaxDsk=          -1 SrtSym=           T ITran=            4
 JobTyp=1 Pass  1:  I=   1 to  23.
 (rs|ai) integrals will be sorted in core.
 ModeAB=           4 MOrb=            22 LenV=    1609186287
 LASXX=    103454307 LTotXX=   103454307 LenRXX=   188091948
 LTotAB=    84637641 MaxLAS=   122192928 LenRXY=           0
 NonZer=   291546255 LenScr=   439034880 LnRSAI=   122192928
 LnScr1=   184041472 LExtra=           0 Total=    933361228
 MaxDsk=          -1 SrtSym=           T ITran=            4
 JobTyp=2 Pass  1:  I=   1 to  22.
 (rs|ai) integrals will be sorted in core.
 SymMOI:  orbitals are not symmetric.
 Spin components of T(2) and E(2):
     alpha-alpha T2 =       0.5252439019D-01 E2=     -0.1698168107D+00
     alpha-beta  T2 =       0.2863688796D+00 E2=     -0.9357236167D+00
     beta-beta   T2 =       0.4955173846D-01 E2=     -0.1553247767D+00
 ANorm=    0.1178322964D+01
 E2 =    -0.1260865204D+01 EUMP2 =    -0.41925195127247D+03
 (S**2,0)=  0.82794D+00           (S**2,1)=  0.80435D+00
 E(PUHF)=      -0.41799862478D+03        E(PMP2)=      -0.41925837994D+03
 Keep R2 and R3 ints in memory in canonical form, NReq=652883968.
 CIDS: In Core Option IDoMem=           1.
 Iterations=  50 Convergence= 0.100D-06
 Produce multiple copies of IABC intergrals
 Iteration Nr.   1
 **********************
 DD1Dir will call FoFMem   1 times, MxPair=      1496
 NAB=   506 NAA=   253 NBB=   231.
 E(PMP3)=      -0.41928408419D+03
 MP4(R+Q)=  0.25067311D-01
 E3=       -0.27559903D-01        EUMP3=      -0.41927951118D+03
 E4(DQ)=   -0.56632750D-02        UMP4(DQ)=   -0.41928517445D+03
 E4(SDQ)=  -0.24424455D-01        UMP4(SDQ)=  -0.41930393563D+03
 DE(Corr)=  -1.2627591     E(Corr)=     -419.25384521    
 NORM(A)=   0.11849013D+01
 Iteration Nr.   2
 **********************
 DD1Dir will call FoFMem   1 times, MxPair=      1496
 NAB=   506 NAA=   253 NBB=   231.
 DE(Corr)=  -1.3047032     E(CORR)=     -419.29578923     Delta=-4.19D-02
 NORM(A)=   0.12030950D+01
 Iteration Nr.   3
 **********************
 DD1Dir will call FoFMem   1 times, MxPair=      1496
 NAB=   506 NAA=   253 NBB=   231.
 DE(Corr)=  -1.3064483     E(CORR)=     -419.29753434     Delta=-1.75D-03
 NORM(A)=   0.12103064D+01
 Iteration Nr.   4
 **********************
 DD1Dir will call FoFMem   1 times, MxPair=      1496
 NAB=   506 NAA=   253 NBB=   231.
 DE(Corr)=  -1.3117099     E(CORR)=     -419.30279599     Delta=-5.26D-03
 NORM(A)=   0.12139451D+01
 Iteration Nr.   5
 **********************
 DD1Dir will call FoFMem   1 times, MxPair=      1496
 NAB=   506 NAA=   253 NBB=   231.
 DE(Corr)=  -1.3127857     E(CORR)=     -419.30387178     Delta=-1.08D-03
 NORM(A)=   0.12159767D+01
 Iteration Nr.   6
 **********************
 DD1Dir will call FoFMem   1 times, MxPair=      1496
 NAB=   506 NAA=   253 NBB=   231.
 DE(Corr)=  -1.3131108     E(CORR)=     -419.30419690     Delta=-3.25D-04
 NORM(A)=   0.12163966D+01
 Iteration Nr.   7
 **********************
 DD1Dir will call FoFMem   1 times, MxPair=      1496
 NAB=   506 NAA=   253 NBB=   231.
 DE(Corr)=  -1.3131713     E(CORR)=     -419.30425741     Delta=-6.05D-05
 NORM(A)=   0.12164799D+01
 Iteration Nr.   8
 **********************
 DD1Dir will call FoFMem   1 times, MxPair=      1496
 NAB=   506 NAA=   253 NBB=   231.
 DE(Corr)=  -1.3131580     E(CORR)=     -419.30424409     Delta= 1.33D-05
 NORM(A)=   0.12165145D+01
 Iteration Nr.   9
 **********************
 DD1Dir will call FoFMem   1 times, MxPair=      1496
 NAB=   506 NAA=   253 NBB=   231.
 DE(Corr)=  -1.3131683     E(CORR)=     -419.30425440     Delta=-1.03D-05
 NORM(A)=   0.12165163D+01
 Iteration Nr.  10
 **********************
 DD1Dir will call FoFMem   1 times, MxPair=      1496
 NAB=   506 NAA=   253 NBB=   231.
 DE(Corr)=  -1.3131687     E(CORR)=     -419.30425473     Delta=-3.26D-07
 NORM(A)=   0.12165209D+01
 Iteration Nr.  11
 **********************
 DD1Dir will call FoFMem   1 times, MxPair=      1496
 NAB=   506 NAA=   253 NBB=   231.
 DE(Corr)=  -1.3131760     E(CORR)=     -419.30426211     Delta=-7.38D-06
 NORM(A)=   0.12165268D+01
 Iteration Nr.  12
 **********************
 DD1Dir will call FoFMem   1 times, MxPair=      1496
 NAB=   506 NAA=   253 NBB=   231.
 DE(Corr)=  -1.3131769     E(CORR)=     -419.30426298     Delta=-8.79D-07
 NORM(A)=   0.12165336D+01
 Iteration Nr.  13
 **********************
 DD1Dir will call FoFMem   1 times, MxPair=      1496
 NAB=   506 NAA=   253 NBB=   231.
 DE(Corr)=  -1.3131799     E(CORR)=     -419.30426601     Delta=-3.02D-06
 NORM(A)=   0.12165424D+01
 Iteration Nr.  14
 **********************
 DD1Dir will call FoFMem   1 times, MxPair=      1496
 NAB=   506 NAA=   253 NBB=   231.
 DE(Corr)=  -1.3131817     E(CORR)=     -419.30426777     Delta=-1.76D-06
 NORM(A)=   0.12165528D+01
 Iteration Nr.  15
 **********************
 DD1Dir will call FoFMem   1 times, MxPair=      1496
 NAB=   506 NAA=   253 NBB=   231.
 DE(Corr)=  -1.3131826     E(CORR)=     -419.30426865     Delta=-8.80D-07
 NORM(A)=   0.12165637D+01
 Iteration Nr.  16
 **********************
 DD1Dir will call FoFMem   1 times, MxPair=      1496
 NAB=   506 NAA=   253 NBB=   231.
 DE(Corr)=  -1.3131855     E(CORR)=     -419.30427161     Delta=-2.96D-06
 NORM(A)=   0.12165682D+01
 Iteration Nr.  17
 **********************
 DD1Dir will call FoFMem   1 times, MxPair=      1496
 NAB=   506 NAA=   253 NBB=   231.
 DE(Corr)=  -1.3131846     E(CORR)=     -419.30427071     Delta= 9.03D-07
 NORM(A)=   0.12165667D+01
 Iteration Nr.  18
 **********************
 DD1Dir will call FoFMem   1 times, MxPair=      1496
 NAB=   506 NAA=   253 NBB=   231.
 DE(Corr)=  -1.3131849     E(CORR)=     -419.30427101     Delta=-3.05D-07
 NORM(A)=   0.12165626D+01
 Iteration Nr.  19
 **********************
 DD1Dir will call FoFMem   1 times, MxPair=      1496
 NAB=   506 NAA=   253 NBB=   231.
 DE(Corr)=  -1.3131836     E(CORR)=     -419.30426972     Delta= 1.30D-06
 NORM(A)=   0.12165593D+01
 Iteration Nr.  20
 **********************
 DD1Dir will call FoFMem   1 times, MxPair=      1496
 NAB=   506 NAA=   253 NBB=   231.
 DE(Corr)=  -1.3131829     E(CORR)=     -419.30426901     Delta= 7.08D-07
 NORM(A)=   0.12165571D+01
 Iteration Nr.  21
 **********************
 DD1Dir will call FoFMem   1 times, MxPair=      1496
 NAB=   506 NAA=   253 NBB=   231.
 DE(Corr)=  -1.3131825     E(CORR)=     -419.30426854     Delta= 4.67D-07
 NORM(A)=   0.12165561D+01
 Iteration Nr.  22
 **********************
 DD1Dir will call FoFMem   1 times, MxPair=      1496
 NAB=   506 NAA=   253 NBB=   231.
 DE(Corr)=  -1.3131822     E(CORR)=     -419.30426828     Delta= 2.67D-07
 NORM(A)=   0.12165561D+01
 Iteration Nr.  23
 **********************
 DD1Dir will call FoFMem   1 times, MxPair=      1496
 NAB=   506 NAA=   253 NBB=   231.
 DE(Corr)=  -1.3131823     E(CORR)=     -419.30426833     Delta=-5.03D-08
 NORM(A)=   0.12165564D+01
 Wavefunction amplitudes converged. E(Corr)=     -419.30426833    
 Largest amplitude= 5.91D-02
 Time for triples=    39128.32 seconds.
 T4(CCSD)= -0.55972379D-01
 T5(CCSD)=  0.34624666D-02
 CCSD(T)= -0.41935677824D+03

 S**2, projected HF & approx projected MPn energies after annihilation of
 unwanted spin states (see manual for definitions):

 spins       (S**2,0) (S**2,1)    PUHF        PMP2        PMP3        PMP4
 annihilated
 s+1         0.74783  0.74937 -417.998625 -419.258380 -419.284084
 s+1,s+2     0.75002  0.74999 -417.998418 -419.258189 -419.283912
 s+1 to s+3  0.75000  0.75000 -417.998420 -419.258190 -419.283912
 s+1 to s+4  0.75000  0.75000 -417.998420 -419.258190 -419.283912
 s+1 to s+5  0.75000  0.75000 -417.998420
 s+1 to s+6  0.75000  0.75000 -417.998420

 Discarding MO integrals.

 **********************************************************************

            Population analysis using the SCF density.

 **********************************************************************

 Orbital symmetries:
 Alpha Orbitals:
       Occupied  (A) (A) (A) (A) (A) (A) (A) (A) (A) (A) (A) (A)
                 (A) (A) (A) (A) (A) (A) (A) (A) (A) (A) (A) (A)
                 (A) (A) (A) (A) (A) (A) (A)
       Virtual   (A) (A) (A) (A) (A) (A) (A) (A) (A) (A) (A) (A)
                 (A) (A) (A) (A) (A) (A) (A) (A) (A) (A) (A) (A)
                 (A) (A) (A) (A) (A) (A) (A) (A) (A) (A) (A) (A)
                 (A) (A) (A) (A) (A) (A) (A) (A) (A) (A) (A) (A)
                 (A) (A) (A) (A) (A) (A) (A) (A) (A) (A) (A) (A)
                 (A) (A) (A) (A) (A) (A) (A) (A) (A) (A) (A) (A)
                 (A) (A) (A) (A) (A) (A) (A) (A) (A) (A) (A) (A)
                 (A) (A) (A) (A) (A) (A) (A) (A) (A) (A) (A) (A)
                 (A) (A) (A) (A) (A) (A) (A) (A) (A) (A) (A) (A)
                 (A) (A) (A) (A) (A) (A) (A) (A) (A) (A) (A) (A)
                 (A) (A) (A) (A) (A) (A) (A) (A) (A) (A) (A) (A)
                 (A) (A) (A) (A) (A) (A) (A) (A) (A) (A) (A) (A)
                 (A) (A) (A) (A) (A) (A) (A) (A) (A) (A) (A) (A)
                 (A) (A) (A) (A) (A) (A) (A) (A) (A) (A) (A) (A)
                 (A) (A) (A) (A) (A) (A) (A) (A) (A) (A) (A) (A)
                 (A) (A) (A) (A) (A) (A) (A) (A) (A) (A) (A) (A)
                 (A)
 Beta  Orbitals:
       Occupied  (A) (A) (A) (A) (A) (A) (A) (A) (A) (A) (A) (A)
                 (A) (A) (A) (A) (A) (A) (A) (A) (A) (A) (A) (A)
                 (A) (A) (A) (A) (A) (A)
       Virtual   (A) (A) (A) (A) (A) (A) (A) (A) (A) (A) (A) (A)
                 (A) (A) (A) (A) (A) (A) (A) (A) (A) (A) (A) (A)
                 (A) (A) (A) (A) (A) (A) (A) (A) (A) (A) (A) (A)
                 (A) (A) (A) (A) (A) (A) (A) (A) (A) (A) (A) (A)
                 (A) (A) (A) (A) (A) (A) (A) (A) (A) (A) (A) (A)
                 (A) (A) (A) (A) (A) (A) (A) (A) (A) (A) (A) (A)
                 (A) (A) (A) (A) (A) (A) (A) (A) (A) (A) (A) (A)
                 (A) (A) (A) (A) (A) (A) (A) (A) (A) (A) (A) (A)
                 (A) (A) (A) (A) (A) (A) (A) (A) (A) (A) (A) (A)
                 (A) (A) (A) (A) (A) (A) (A) (A) (A) (A) (A) (A)
                 (A) (A) (A) (A) (A) (A) (A) (A) (A) (A) (A) (A)
                 (A) (A) (A) (A) (A) (A) (A) (A) (A) (A) (A) (A)
                 (A) (A) (A) (A) (A) (A) (A) (A) (A) (A) (A) (A)
                 (A) (A) (A) (A) (A) (A) (A) (A) (A) (A) (A) (A)
                 (A) (A) (A) (A) (A) (A) (A) (A) (A) (A) (A) (A)
                 (A) (A) (A) (A) (A) (A) (A) (A) (A) (A) (A) (A)
                 (A) (A)
 The electronic state is 2-A.
 Alpha  occ. eigenvalues --  -20.62984 -20.61085 -20.55701 -11.41514 -11.29518
 Alpha  occ. eigenvalues --  -11.26714 -11.25822 -11.22482  -1.48076  -1.38550
 Alpha  occ. eigenvalues --   -1.37783  -1.07737  -1.04100  -0.92552  -0.83727
 Alpha  occ. eigenvalues --   -0.76314  -0.73014  -0.69563  -0.67860  -0.66787
 Alpha  occ. eigenvalues --   -0.65306  -0.62965  -0.58182  -0.55696  -0.54088
 Alpha  occ. eigenvalues --   -0.53936  -0.50340  -0.47873  -0.46097  -0.42768
 Alpha  occ. eigenvalues --   -0.42179
 Alpha virt. eigenvalues --    0.03743   0.04558   0.05786   0.06598   0.07021
 Alpha virt. eigenvalues --    0.08294   0.09380   0.09765   0.11098   0.12524
 Alpha virt. eigenvalues --    0.13496   0.13839   0.14641   0.15743   0.16452
 Alpha virt. eigenvalues --    0.17413   0.18148   0.18432   0.18912   0.19776
 Alpha virt. eigenvalues --    0.20608   0.21241   0.22064   0.22556   0.23431
 Alpha virt. eigenvalues --    0.25033   0.25947   0.26954   0.28199   0.29412
 Alpha virt. eigenvalues --    0.30091   0.31688   0.33293   0.33732   0.34450
 Alpha virt. eigenvalues --    0.34886   0.36049   0.37791   0.38724   0.39233
 Alpha virt. eigenvalues --    0.39829   0.42172   0.43067   0.44127   0.46079
 Alpha virt. eigenvalues --    0.46350   0.47361   0.48461   0.48693   0.50649
 Alpha virt. eigenvalues --    0.54566   0.57943   0.59575   0.60819   0.62397
 Alpha virt. eigenvalues --    0.65973   0.68867   0.69706   0.72440   0.74858
 Alpha virt. eigenvalues --    0.75102   0.79493   0.80292   0.83387   0.85083
 Alpha virt. eigenvalues --    0.87009   0.87916   0.88314   0.88945   0.90135
 Alpha virt. eigenvalues --    0.91967   0.93889   0.94593   0.98086   1.00014
 Alpha virt. eigenvalues --    1.06543   1.07602   1.13108   1.18785   1.19991
 Alpha virt. eigenvalues --    1.22978   1.24843   1.25633   1.30331   1.31522
 Alpha virt. eigenvalues --    1.36898   1.37945   1.39808   1.40400   1.43909
 Alpha virt. eigenvalues --    1.45380   1.47618   1.49363   1.53268   1.56182
 Alpha virt. eigenvalues --    1.56763   1.58049   1.60323   1.62332   1.63520
 Alpha virt. eigenvalues --    1.68401   1.72369   1.73735   1.77399   1.80687
 Alpha virt. eigenvalues --    1.81892   1.83481   1.84697   1.88284   1.90432
 Alpha virt. eigenvalues --    1.91660   1.94545   1.95707   1.97888   2.00886
 Alpha virt. eigenvalues --    2.06167   2.08942   2.11303   2.12123   2.18367
 Alpha virt. eigenvalues --    2.23513   2.26037   2.30274   2.33158   2.33540
 Alpha virt. eigenvalues --    2.38193   2.41774   2.49383   2.60501   2.64289
 Alpha virt. eigenvalues --    2.71574   2.78205   2.80145   2.82749   2.84672
 Alpha virt. eigenvalues --    2.85770   2.91408   2.92108   2.93677   2.95094
 Alpha virt. eigenvalues --    2.97021   3.01349   3.05178   3.06976   3.11180
 Alpha virt. eigenvalues --    3.12056   3.15857   3.18407   3.23275   3.24862
 Alpha virt. eigenvalues --    3.28021   3.32847   3.35435   3.36802   3.40141
 Alpha virt. eigenvalues --    3.45387   3.46319   3.48081   3.49394   3.59007
 Alpha virt. eigenvalues --    3.60836   3.65669   3.70339   3.72960   3.79939
 Alpha virt. eigenvalues --    3.92479   4.02027   4.14033   4.21421   4.22388
 Alpha virt. eigenvalues --    4.22747   4.28196   4.41321   4.51725   4.58404
 Alpha virt. eigenvalues --    4.67359   5.50481   5.54206   5.60121   5.66549
 Alpha virt. eigenvalues --    5.78369   5.92701   6.00648   6.22049   6.43462
 Alpha virt. eigenvalues --   24.70018  25.01312  25.02063  25.14682  26.27137
 Alpha virt. eigenvalues --   51.50303  51.60741  51.72153
  Beta  occ. eigenvalues --  -20.61092 -20.58887 -20.55969 -11.41314 -11.29518
  Beta  occ. eigenvalues --  -11.26770 -11.25576 -11.22483  -1.48191  -1.38218
  Beta  occ. eigenvalues --   -1.23180  -1.07773  -1.03683  -0.92081  -0.83534
  Beta  occ. eigenvalues --   -0.76251  -0.72488  -0.69614  -0.66593  -0.63383
  Beta  occ. eigenvalues --   -0.63002  -0.58415  -0.55224  -0.54026  -0.50752
  Beta  occ. eigenvalues --   -0.50005  -0.48441  -0.46747  -0.42968  -0.42300
  Beta virt. eigenvalues --    0.03801   0.04562   0.05057   0.06522   0.06994
  Beta virt. eigenvalues --    0.08192   0.09152   0.09554   0.10344   0.11339
  Beta virt. eigenvalues --    0.13125   0.13511   0.13985   0.14801   0.16460
  Beta virt. eigenvalues --    0.16576   0.17924   0.18182   0.18613   0.18935
  Beta virt. eigenvalues --    0.20078   0.20675   0.21320   0.22171   0.22615
  Beta virt. eigenvalues --    0.23541   0.25374   0.26095   0.27554   0.28365
  Beta virt. eigenvalues --    0.29934   0.30708   0.31645   0.33709   0.33856
  Beta virt. eigenvalues --    0.34528   0.35412   0.37620   0.38305   0.39087
  Beta virt. eigenvalues --    0.39197   0.39861   0.42253   0.42959   0.44080
  Beta virt. eigenvalues --    0.46119   0.46328   0.47761   0.48523   0.49229
  Beta virt. eigenvalues --    0.50759   0.54504   0.57966   0.59757   0.60994
  Beta virt. eigenvalues --    0.62359   0.65988   0.69176   0.70250   0.73619
  Beta virt. eigenvalues --    0.75580   0.76472   0.80063   0.80790   0.83534
  Beta virt. eigenvalues --    0.85184   0.86639   0.88099   0.88450   0.89081
  Beta virt. eigenvalues --    0.89848   0.91765   0.93943   0.94521   0.98043
  Beta virt. eigenvalues --    1.00625   1.06458   1.08434   1.13141   1.19110
  Beta virt. eigenvalues --    1.20053   1.23943   1.26068   1.30234   1.30954
  Beta virt. eigenvalues --    1.32399   1.37143   1.38498   1.40709   1.41561
  Beta virt. eigenvalues --    1.43897   1.45797   1.48736   1.50367   1.53857
  Beta virt. eigenvalues --    1.56355   1.57377   1.60015   1.60976   1.63419
  Beta virt. eigenvalues --    1.64474   1.69201   1.72827   1.74089   1.78505
  Beta virt. eigenvalues --    1.80714   1.81909   1.83515   1.84743   1.88239
  Beta virt. eigenvalues --    1.90175   1.91671   1.94782   1.95887   1.98047
  Beta virt. eigenvalues --    2.01154   2.06140   2.09086   2.11346   2.12210
  Beta virt. eigenvalues --    2.18335   2.23831   2.26199   2.30416   2.33449
  Beta virt. eigenvalues --    2.35106   2.38268   2.41791   2.49397   2.60513
  Beta virt. eigenvalues --    2.64295   2.71866   2.78174   2.80061   2.82756
  Beta virt. eigenvalues --    2.84674   2.85806   2.91568   2.92269   2.94019
  Beta virt. eigenvalues --    2.95185   2.97086   3.01819   3.05212   3.07788
  Beta virt. eigenvalues --    3.11382   3.15511   3.17754   3.24480   3.26140
  Beta virt. eigenvalues --    3.27691   3.29997   3.33369   3.37148   3.38593
  Beta virt. eigenvalues --    3.40068   3.46353   3.48948   3.50249   3.53065
  Beta virt. eigenvalues --    3.59763   3.61546   3.65674   3.70520   3.72901
  Beta virt. eigenvalues --    3.79573   3.92947   4.01942   4.13934   4.21429
  Beta virt. eigenvalues --    4.22739   4.25945   4.28173   4.41317   4.51642
  Beta virt. eigenvalues --    4.58396   4.67355   5.54319   5.59999   5.65364
  Beta virt. eigenvalues --    5.66256   5.78312   5.92783   6.03152   6.21995
  Beta virt. eigenvalues --    6.43405  24.70005  25.01453  25.02078  25.14682
  Beta virt. eigenvalues --   26.27261  51.52607  51.60777  51.72009
          Condensed to atoms (all electrons):
               1          2          3          4          5          6
     1  O    7.986225   0.270868  -0.013639   0.003413  -0.043771  -0.012028
     2  H    0.270868   0.477477   0.011652  -0.000672   0.011617  -0.004630
     3  C   -0.013639   0.011652   5.655860   0.439184  -0.545590   1.121228
     4  H    0.003413  -0.000672   0.439184   0.404529  -0.094417   0.030298
     5  C   -0.043771   0.011617  -0.545590  -0.094417   9.260865  -3.416882
     6  C   -0.012028  -0.004630   1.121228   0.030298  -3.416882   8.681185
     7  O   -0.008896  -0.001065  -0.075480  -0.002823   0.134474   0.345640
     8  O   -0.010129  -0.000605  -0.066632  -0.004245  -0.227988   0.191452
     9  C   -0.008268   0.001565   0.043844   0.001085  -0.267213   0.045899
    10  C    0.003942  -0.000959  -0.009735  -0.000567  -0.006808  -0.048328
    11  H    0.000289   0.000100   0.003367   0.000117  -0.011253   0.012885
    12  H   -0.000493  -0.000251  -0.004184  -0.000321   0.002670  -0.019803
    13  H   -0.000010   0.000001  -0.000555   0.000001   0.001558  -0.001924
    14  H    0.000113   0.000022  -0.001141  -0.000083   0.004945  -0.008659
    15  H   -0.000097   0.000039   0.003581  -0.000032  -0.029531   0.011020
               7          8          9         10         11         12
     1  O   -0.008896  -0.010129  -0.008268   0.003942   0.000289  -0.000493
     2  H   -0.001065  -0.000605   0.001565  -0.000959   0.000100  -0.000251
     3  C   -0.075480  -0.066632   0.043844  -0.009735   0.003367  -0.004184
     4  H   -0.002823  -0.004245   0.001085  -0.000567   0.000117  -0.000321
     5  C    0.134474  -0.227988  -0.267213  -0.006808  -0.011253   0.002670
     6  C    0.345640   0.191452   0.045899  -0.048328   0.012885  -0.019803
     7  O    8.040930  -0.113485   0.039546  -0.068666   0.002820  -0.018754
     8  O   -0.113485   8.248926   0.187421  -0.088462  -0.078328  -0.011283
     9  C    0.039546   0.187421   5.424115  -0.070717   0.435964   0.430911
    10  C   -0.068666  -0.088462  -0.070717   5.514682  -0.051709  -0.032052
    11  H    0.002820  -0.078328   0.435964  -0.051709   0.551666  -0.033444
    12  H   -0.018754  -0.011283   0.430911  -0.032052  -0.033444   0.510997
    13  H   -0.001584   0.015373  -0.043430   0.406019  -0.000773  -0.002155
    14  H    0.004107  -0.004589  -0.029093   0.418513  -0.005801  -0.001815
    15  H   -0.004488  -0.008492  -0.036113   0.413266   0.007010  -0.002214
              13         14         15
     1  O   -0.000010   0.000113  -0.000097
     2  H    0.000001   0.000022   0.000039
     3  C   -0.000555  -0.001141   0.003581
     4  H    0.000001  -0.000083  -0.000032
     5  C    0.001558   0.004945  -0.029531
     6  C   -0.001924  -0.008659   0.011020
     7  O   -0.001584   0.004107  -0.004488
     8  O    0.015373  -0.004589  -0.008492
     9  C   -0.043430  -0.029093  -0.036113
    10  C    0.406019   0.418513   0.413266
    11  H   -0.000773  -0.005801   0.007010
    12  H   -0.002155  -0.001815  -0.002214
    13  H    0.560676  -0.029740  -0.034893
    14  H   -0.029740   0.555084  -0.047568
    15  H   -0.034893  -0.047568   0.549855
          Atomic-Atomic Spin Densities.
               1          2          3          4          5          6
     1  O    1.025261   0.010215  -0.037001  -0.001586   0.030783  -0.032800
     2  H    0.010215  -0.048781   0.003101   0.000101  -0.009534   0.005260
     3  C   -0.037001   0.003101   0.552413  -0.009202   0.047733  -0.022512
     4  H   -0.001586   0.000101  -0.009202  -0.033091   0.009634  -0.003079
     5  C    0.030783  -0.009534   0.047733   0.009634  -0.657869   0.086295
     6  C   -0.032800   0.005260  -0.022512  -0.003079   0.086295   0.055621
     7  O    0.000678  -0.000018   0.001557   0.000075   0.001566   0.010803
     8  O   -0.000447   0.000392  -0.002937  -0.000213   0.028320  -0.026073
     9  C   -0.004100   0.000753  -0.001043   0.000032   0.004862  -0.011109
    10  C   -0.000328  -0.000041   0.001271  -0.000000  -0.005735   0.009058
    11  H   -0.000433   0.000038  -0.000350  -0.000023   0.002517  -0.001358
    12  H    0.000404  -0.000052   0.000039   0.000006   0.000288   0.000391
    13  H   -0.000062   0.000017   0.000005  -0.000002  -0.000474   0.000264
    14  H    0.000134  -0.000024   0.000212   0.000015  -0.000053  -0.000012
    15  H   -0.000193   0.000028  -0.000651  -0.000032   0.002713  -0.002154
               7          8          9         10         11         12
     1  O    0.000678  -0.000447  -0.004100  -0.000328  -0.000433   0.000404
     2  H   -0.000018   0.000392   0.000753  -0.000041   0.000038  -0.000052
     3  C    0.001557  -0.002937  -0.001043   0.001271  -0.000350   0.000039
     4  H    0.000075  -0.000213   0.000032  -0.000000  -0.000023   0.000006
     5  C    0.001566   0.028320   0.004862  -0.005735   0.002517   0.000288
     6  C    0.010803  -0.026073  -0.011109   0.009058  -0.001358   0.000391
     7  O   -0.073601  -0.000644   0.004754  -0.000621   0.000294  -0.000285
     8  O   -0.000644   0.005894  -0.004355   0.000904   0.000132   0.000315
     9  C    0.004754  -0.004355   0.016630  -0.005209  -0.001105  -0.002068
    10  C   -0.000621   0.000904  -0.005209  -0.002075   0.000536   0.000934
    11  H    0.000294   0.000132  -0.001105   0.000536  -0.000578   0.000116
    12  H   -0.000285   0.000315  -0.002068   0.000934   0.000116   0.000314
    13  H    0.000257  -0.000342   0.001963  -0.001936   0.000014  -0.000110
    14  H   -0.000334   0.000065  -0.000964   0.001489   0.000051  -0.000025
    15  H    0.000233  -0.000107  -0.000483   0.000960  -0.000189  -0.000035
              13         14         15
     1  O   -0.000062   0.000134  -0.000193
     2  H    0.000017  -0.000024   0.000028
     3  C    0.000005   0.000212  -0.000651
     4  H   -0.000002   0.000015  -0.000032
     5  C   -0.000474  -0.000053   0.002713
     6  C    0.000264  -0.000012  -0.002154
     7  O    0.000257  -0.000334   0.000233
     8  O   -0.000342   0.000065  -0.000107
     9  C    0.001963  -0.000964  -0.000483
    10  C   -0.001936   0.001489   0.000960
    11  H    0.000014   0.000051  -0.000189
    12  H   -0.000110  -0.000025  -0.000035
    13  H    0.000007   0.000099   0.000259
    14  H    0.000099  -0.000352  -0.000180
    15  H    0.000259  -0.000180  -0.000422
 Mulliken charges and spin densities:
               1          2
     1  O   -0.167520   0.990526
     2  H    0.234841  -0.038546
     3  C   -0.561760   0.532635
     4  H    0.224533  -0.037364
     5  C    1.227325  -0.458953
     6  C   -0.927353   0.068597
     7  O   -0.272277  -0.055287
     8  O   -0.028935   0.000905
     9  C   -0.155516  -0.001441
    10  C   -0.378420  -0.000793
    11  H    0.167092  -0.000338
    12  H    0.182192   0.000232
    13  H    0.131436  -0.000041
    14  H    0.145704   0.000122
    15  H    0.178657  -0.000255
 Sum of Mulliken charges =  -0.00000   1.00000
 Mulliken charges and spin densities with hydrogens summed into heavy atoms:
               1          2
     1  O    0.067322   0.951981
     3  C   -0.337227   0.495272
     5  C    1.227325  -0.458953
     6  C   -0.927353   0.068597
     7  O   -0.272277  -0.055287
     8  O   -0.028935   0.000905
     9  C    0.193768  -0.001547
    10  C    0.077377  -0.000967
 Electronic spatial extent (au):  <R**2>=           1146.4826
 Charge=             -0.0000 electrons
 Dipole moment (field-independent basis, Debye):
    X=              0.5989    Y=             -0.2195    Z=             -0.7286  Tot=              0.9684
 Quadrupole moment (field-independent basis, Debye-Ang):
   XX=            -31.0036   YY=            -46.3591   ZZ=            -52.6736
   XY=             -4.4153   XZ=              2.8203   YZ=              4.0233
 Traceless Quadrupole moment (field-independent basis, Debye-Ang):
   XX=             12.3418   YY=             -3.0137   ZZ=             -9.3282
   XY=             -4.4153   XZ=              2.8203   YZ=              4.0233
 Octapole moment (field-independent basis, Debye-Ang**2):
  XXX=             34.8834  YYY=              8.0452  ZZZ=             -3.8707  XYY=              4.1504
  XXY=             -4.0920  XXZ=              2.8142  XZZ=              2.6762  YZZ=              5.4219
  YYZ=              1.2390  XYZ=             11.3212
 Hexadecapole moment (field-independent basis, Debye-Ang**3):
 XXXX=           -887.9257 YYYY=           -249.1194 ZZZZ=           -184.9888 XXXY=            -35.6827
 XXXZ=              6.3856 YYYX=              4.5427 YYYZ=              5.4180 ZZZX=              8.3333
 ZZZY=              2.0063 XXYY=           -189.6638 XXZZ=           -196.8338 YYZZ=            -66.9751
 XXYZ=             33.7700 YYXZ=              1.4498 ZZXY=              3.8882
 N-N= 3.561048634503D+02 E-N=-1.695392493200D+03  KE= 4.176985354349D+02
 1\1\GINC-AJ\SP\UCCSD(T)-FC\6-311++G(d,p)\C5H7O3(2)\AAYUSH\30-Aug-2025\
 0\\# ccsd(t)/6-311++g(d,p) sp\\Title Card Required\\0,2\O,0,2.150652,1
 .478787,-0.008026\H,0,2.760658,1.244529,0.711166\C,0,2.404466,-1.18495
 4,-0.571646\H,0,3.313837,-1.615662,-0.920751\C,0,1.380039,-0.682694,-0
 .195333\C,0,0.088733,-0.222963,0.312861\O,0,-0.237271,-0.336654,1.4616
 87\O,0,-0.656665,0.283792,-0.661991\C,0,-1.987771,0.69665,-0.291522\C,
 0,-2.92057,-0.496655,-0.208883\H,0,-2.280855,1.384042,-1.082762\H,0,-1
 .936402,1.232924,0.656485\H,0,-3.935596,-0.153695,0.00076\H,0,-2.92782
 6,-1.040194,-1.154854\H,0,-2.613826,-1.17098,0.590981\\Version=ES64L-G
 16RevA.03\State=2-A\HF=-417.9910861\MP2=-419.2519513\MP3=-419.2795112\
 MP4D=-419.3102418\MP4DQ=-419.2851745\PUHF=-417.9986248\PMP2-0=-419.258
 3799\PMP3-0=-419.2840842\MP4SDQ=-419.3039356\CCSD=-419.3042683\CCSD(T)
 =-419.3567782\S2=0.827935\S2-1=0.804346\S2A=0.753657\RMSD=2.917e-09\PG
 =C01 [X(C5H7O3)]\\@


 ... SUBJECTS WHICH DISCLOSE THEIR FULL POWER, MEANING AND BEAUTY AS SOON
 AS THEY ARE PRESENTED TO THE MIND HAVE VERY LITTLE OF THOSE QUALITIES
 TO DISCLOSE.
                           -- CHARLES DUTTON (1882)
 Job cpu time:       0 days 18 hours 46 minutes  8.1 seconds.
 Elapsed time:       0 days  0 hours 47 minutes 16.2 seconds.
 File lengths (MBytes):  RWF=  44258 Int=      0 D2E=      0 Chk=      5 Scr=      1
 Normal termination of Gaussian 16 at Sat Aug 30 04:49:43 2025.
