 Entering Gaussian System, Link 0=g16
 Initial command:
 /opt/g16/l1.exe "/home/aayush/scratches/g16/Gau-10661.inp" -scrdir="/home/aayush/scratches/g16/"
 Entering Link 1 = /opt/g16/l1.exe PID=     10664.
  
 Copyright (c) 1988,1990,1992,1993,1995,1998,2003,2009,2016,
            Gaussian, Inc.  All Rights Reserved.
  
 This is part of the Gaussian(R) 16 program.  It is based on
 the Gaussian(R) 09 system (copyright 2009, Gaussian, Inc.),
 the Gaussian(R) 03 system (copyright 2003, Gaussian, Inc.),
 the Gaussian(R) 98 system (copyright 1998, Gaussian, Inc.),
 the Gaussian(R) 94 system (copyright 1995, Gaussian, Inc.),
 the Gaussian 92(TM) system (copyright 1992, Gaussian, Inc.),
 the Gaussian 90(TM) system (copyright 1990, Gaussian, Inc.),
 the Gaussian 88(TM) system (copyright 1988, Gaussian, Inc.),
 the Gaussian 86(TM) system (copyright 1986, Carnegie Mellon
 University), and the Gaussian 82(TM) system (copyright 1983,
 Carnegie Mellon University). Gaussian is a federally registered
 trademark of Gaussian, Inc.
  
 This software contains proprietary and confidential information,
 including trade secrets, belonging to Gaussian, Inc.
  
 This software is provided under written license and may be
 used, copied, transmitted, or stored only in accord with that
 written license.
  
 The following legend is applicable only to US Government
 contracts under FAR:
  
                    RESTRICTED RIGHTS LEGEND
  
 Use, reproduction and disclosure by the US Government is
 subject to restrictions as set forth in subparagraphs (a)
 and (c) of the Commercial Computer Software - Restricted
 Rights clause in FAR 52.227-19.
  
 Gaussian, Inc.
 340 Quinnipiac St., Bldg. 40, Wallingford CT 06492
  
  
 ---------------------------------------------------------------
 Warning -- This program may not be used in any manner that
 competes with the business of Gaussian, Inc. or will provide
 assistance to any competitor of Gaussian, Inc.  The licensee
 of this program is prohibited from giving any competitor of
 Gaussian, Inc. access to this program.  By using this program,
 the user acknowledges that Gaussian, Inc. is engaged in the
 business of creating and licensing software in the field of
 computational chemistry and represents and warrants to the
 licensee that it is not a competitor of Gaussian, Inc. and that
 it will not use this program in any manner prohibited above.
 ---------------------------------------------------------------
  

 Cite this work as:
 Gaussian 16, Revision A.03,
 M. J. Frisch, G. W. Trucks, H. B. Schlegel, G. E. Scuseria, 
 M. A. Robb, J. R. Cheeseman, G. Scalmani, V. Barone, 
 G. A. Petersson, H. Nakatsuji, X. Li, M. Caricato, A. V. Marenich, 
 J. Bloino, B. G. Janesko, R. Gomperts, B. Mennucci, H. P. Hratchian, 
 J. V. Ortiz, A. F. Izmaylov, J. L. Sonnenberg, D. Williams-Young, 
 F. Ding, F. Lipparini, F. Egidi, J. Goings, B. Peng, A. Petrone, 
 T. Henderson, D. Ranasinghe, V. G. Zakrzewski, J. Gao, N. Rega, 
 G. Zheng, W. Liang, M. Hada, M. Ehara, K. Toyota, R. Fukuda, 
 J. Hasegawa, M. Ishida, T. Nakajima, Y. Honda, O. Kitao, H. Nakai, 
 T. Vreven, K. Throssell, J. A. Montgomery, Jr., J. E. Peralta, 
 F. Ogliaro, M. J. Bearpark, J. J. Heyd, E. N. Brothers, K. N. Kudin, 
 V. N. Staroverov, T. A. Keith, R. Kobayashi, J. Normand, 
 K. Raghavachari, A. P. Rendell, J. C. Burant, S. S. Iyengar, 
 J. Tomasi, M. Cossi, J. M. Millam, M. Klene, C. Adamo, R. Cammi, 
 J. W. Ochterski, R. L. Martin, K. Morokuma, O. Farkas, 
 J. B. Foresman, and D. J. Fox, Gaussian, Inc., Wallingford CT, 2016.
 
 ******************************************
 Gaussian 16:  ES64L-G16RevA.03 25-Dec-2016
                30-Aug-2025 
 ******************************************
 %chk=ethyl_propiolate.chk
 %nprocshared=24
 Will use up to   24 processors via shared memory.
 %mem=12GB
 --------------------------
 # ccsd(t)/6-311++g(d,p) sp
 --------------------------
 1/38=1,172=1/1;
 2/12=2,17=6,18=5,40=1/2;
 3/5=4,6=6,7=1111,11=9,25=1,30=1/1,2,3;
 4//1;
 5/5=2,38=5/2;
 8/6=4,9=120000,10=2/1,4;
 9/5=7,14=2/13;
 6/7=2,8=2,9=2,10=2/1;
 99/5=1,9=1/99;
 -------------------
 Title Card Required
 -------------------
 Symbolic Z-matrix:
 Charge =  0 Multiplicity = 2
 O                     2.14534   1.46416  -0.00951 
 H                     2.76254   1.24073   0.7068 
 C                     2.40368  -1.18345  -0.57077 
 H                     3.30831  -1.62337  -0.92069 
 C                     1.38675  -0.66606  -0.19319 
 C                     0.09061  -0.21787   0.31347 
 O                    -0.2371   -0.33839   1.46099 
 O                    -0.65653   0.28475  -0.66201 
 C                    -1.98819   0.69595  -0.29174 
 C                    -2.92078  -0.49739  -0.20897 
 H                    -2.28169   1.38331  -1.08286 
 H                    -1.93717   1.23219   0.65634 
 H                    -3.93573  -0.1542    0.00071 
 H                    -2.9283   -1.04101  -1.1549 
 H                    -2.61396  -1.17163   0.59091 
 
                          Input orientation:                          
 ---------------------------------------------------------------------
 Center     Atomic      Atomic             Coordinates (Angstroms)
 Number     Number       Type             X           Y           Z
 ---------------------------------------------------------------------
      1          8           0        2.145335    1.464159   -0.009509
      2          1           0        2.762535    1.240728    0.706800
      3          6           0        2.403683   -1.183454   -0.570765
      4          1           0        3.308309   -1.623365   -0.920690
      5          6           0        1.386751   -0.666063   -0.193190
      6          6           0        0.090612   -0.217866    0.313468
      7          8           0       -0.237096   -0.338393    1.460988
      8          8           0       -0.656532    0.284753   -0.662011
      9          6           0       -1.988192    0.695947   -0.291736
     10          6           0       -2.920780   -0.497392   -0.208970
     11          1           0       -2.281692    1.383312   -1.082862
     12          1           0       -1.937165    1.232192    0.656338
     13          1           0       -3.935734   -0.154204    0.000709
     14          1           0       -2.928304   -1.041013   -1.154895
     15          1           0       -2.613962   -1.171631    0.590912
 ---------------------------------------------------------------------
                    Distance matrix (angstroms):
                    1          2          3          4          5
     1  O    0.000000
     2  H    0.971574   0.000000
     3  C    2.718751   2.763622   0.000000
     4  H    3.422801   3.339105   1.065043   0.000000
     5  C    2.268708   2.517661   1.201835   2.266731   0.000000
     6  C    2.674960   3.069426   2.657918   3.721847   1.462039
     7  O    3.329795   3.472781   3.437421   4.460206   2.341058
     8  O    3.109215   3.804938   3.395419   4.407697   2.301923
     9  C    4.213769   4.885004   4.785245   5.816160   3.640745
    10  C    5.436266   6.013299   5.380658   6.369922   4.310861
    11  H    4.556006   5.354199   5.366868   6.349371   4.295222
    12  H    4.142942   4.699979   5.117039   6.177072   3.920904
    13  H    6.292742   6.878314   6.447802   7.448729   5.350555
    14  H    5.773180   6.407644   5.365779   6.268120   4.436797
    15  H    5.473463   5.894033   5.150378   6.128809   4.108055
                    6          7          8          9         10
     6  C    0.000000
     7  O    1.199467   0.000000
     8  O    1.327558   2.251969   0.000000
     9  C    2.350054   2.684816   1.442048   0.000000
    10  C    3.069130   3.164838   2.437994   1.516782   0.000000
    11  H    3.184546   3.689961   2.006263   1.088344   2.170062
    12  H    2.516368   2.450395   2.067778   1.090416   2.169727
    13  H    4.038977   3.980737   3.374173   2.145041   1.091730
    14  H    3.456518   3.818261   2.676105   2.155431   1.091034
    15  H    2.881209   2.664734   2.742700   2.158357   1.090205
                   11         12         13         14         15
    11  H    0.000000
    12  H    1.779425   0.000000
    13  H    2.504783   2.519171   0.000000
    14  H    2.510109   3.070893   1.771092   0.000000
    15  H    3.072402   2.498139   1.769344   1.778683   0.000000
 Stoichiometry    C5H7O3(2)
 Framework group  C1[X(C5H7O3)]
 Deg. of freedom    39
 Full point group                 C1      NOp   1
 Largest Abelian subgroup         C1      NOp   1
 Largest concise Abelian subgroup C1      NOp   1
                         Standard orientation:                         
 ---------------------------------------------------------------------
 Center     Atomic      Atomic             Coordinates (Angstroms)
 Number     Number       Type             X           Y           Z
 ---------------------------------------------------------------------
      1          8           0        2.217174    1.449679   -0.039070
      2          1           0        2.832557    1.242029    0.683522
      3          6           0        2.457810   -1.214164   -0.526555
      4          1           0        3.359576   -1.669713   -0.863615
      5          6           0        1.444253   -0.679641   -0.164070
      6          6           0        0.150975   -0.208817    0.329201
      7          8           0       -0.178004   -0.295262    1.479428
      8          8           0       -0.592354    0.271599   -0.660279
      9          6           0       -1.921348    0.701894   -0.302333
     10          6           0       -2.862030   -0.482361   -0.187065
     11          1           0       -2.209866    1.369027   -1.112385
     12          1           0       -1.867072    1.263863    0.630540
     13          1           0       -3.874721   -0.126638    0.012419
     14          1           0       -2.872854   -1.051938   -1.117560
     15          1           0       -2.560108   -1.136220    0.631383
 ---------------------------------------------------------------------
 Rotational constants (GHZ):           3.8308527           1.1604891           1.0944799
 Standard basis: 6-311++G(d,p) (5D, 7F)
 There are   233 symmetry adapted cartesian basis functions of A   symmetry.
 There are   225 symmetry adapted basis functions of A   symmetry.
   225 basis functions,   351 primitive gaussians,   233 cartesian basis functions
    31 alpha electrons       30 beta electrons
       nuclear repulsion energy       356.4882291220 Hartrees.
 NAtoms=   15 NActive=   15 NUniq=   15 SFac= 1.00D+00 NAtFMM=   60 NAOKFM=F Big=F
 Integral buffers will be    131072 words long.
 Raffenetti 2 integral format.
 Two-electron integral symmetry is turned on.
 One-electron integrals computed using PRISM.
 NBasis=   225 RedAO= T EigKep=  1.08D-06  NBF=   225
 NBsUse=   225 1.00D-06 EigRej= -1.00D+00 NBFU=   225
 ExpMin= 3.60D-02 ExpMax= 8.59D+03 ExpMxC= 1.30D+03 IAcc=3 IRadAn=         5 AccDes= 0.00D+00
 Harris functional with IExCor=  205 and IRadAn=       5 diagonalized for initial guess.
 HarFok:  IExCor=  205 AccDes= 0.00D+00 IRadAn=         5 IDoV= 1 UseB2=F ITyADJ=14
 ICtDFT=  3500011 ScaDFX=  1.000000  1.000000  1.000000  1.000000
 FoFCou: FMM=F IPFlag=           0 FMFlag=      100000 FMFlg1=           0
         NFxFlg=           0 DoJE=T BraDBF=F KetDBF=T FulRan=T
         wScrn=  0.000000 ICntrl=       500 IOpCl=  0 I1Cent=   200000004 NGrid=           0
         NMat0=    1 NMatS0=      1 NMatT0=    0 NMatD0=    1 NMtDS0=    0 NMtDT0=    0
 Petite list used in FoFCou.
 Initial guess <Sx>= 0.0000 <Sy>= 0.0000 <Sz>= 0.5000 <S**2>= 0.7500 S= 0.5000
 Requested convergence on RMS density matrix=1.00D-08 within 128 cycles.
 Requested convergence on MAX density matrix=1.00D-06.
 Requested convergence on             energy=1.00D-06.
 No special actions if energy rises.
 Initial convergence to 1.4D-05 achieved.  Increase integral accuracy.
 SCF Done:  E(UHF) =  -417.990028734     A.U. after   40 cycles
            NFock= 40  Conv=0.52D-08     -V/T= 2.0007
 <Sx>= 0.0000 <Sy>= 0.0000 <Sz>= 0.5000 <S**2>= 0.8421 S= 0.5451
 <L.S>=  0.00000000000    
 Annihilation of the first spin contaminant:
 S**2 before annihilation     0.8421,   after     0.7550
 ExpMin= 3.60D-02 ExpMax= 8.59D+03 ExpMxC= 1.30D+03 IAcc=3 IRadAn=         5 AccDes= 0.00D+00
 HarFok:  IExCor=  205 AccDes= 0.00D+00 IRadAn=         5 IDoV=-2 UseB2=F ITyADJ=14
 ICtDFT= 12500011 ScaDFX=  1.000000  1.000000  1.000000  1.000000
 Range of M.O.s used for correlation:     9   225
 NBasis=   225 NAE=    31 NBE=    30 NFC=     8 NFV=     0
 NROrb=    217 NOA=    23 NOB=    22 NVA=   194 NVB=   195

 **** Warning!!: The largest alpha MO coefficient is  0.26968977D+03


 **** Warning!!: The largest beta MO coefficient is  0.25029462D+03

 Semi-Direct transformation.
 ModeAB=           4 MOrb=            23 LenV=    1609176953
 LASXX=    109339976 LTotXX=   109339976 LenRXX=   221407890
 LTotAB=   112067914 MaxLAS=   128338574 LenRXY=           0
 NonZer=   330747866 LenScr=   498067456 LnRSAI=   128338574
 LnScr1=   193280000 LExtra=           0 Total=   1041093920
 MaxDsk=          -1 SrtSym=           T ITran=            4
 JobTyp=1 Pass  1:  I=   1 to  23.
 (rs|ai) integrals will be sorted in core.
 ModeAB=           4 MOrb=            22 LenV=    1609176953
 LASXX=    104936601 LTotXX=   104936601 LenRXX=   190867446
 LTotAB=    85930845 MaxLAS=   122758636 LenRXY=           0
 NonZer=   295804047 LenScr=   445446144 LnRSAI=   122758636
 LnScr1=   184898048 LExtra=           0 Total=    943970274
 MaxDsk=          -1 SrtSym=           T ITran=            4
 JobTyp=2 Pass  1:  I=   1 to  22.
 (rs|ai) integrals will be sorted in core.
 SymMOI:  orbitals are not symmetric.
 Spin components of T(2) and E(2):
     alpha-alpha T2 =       0.5250855406D-01 E2=     -0.1698532021D+00
     alpha-beta  T2 =       0.2859549759D+00 E2=     -0.9352821911D+00
     beta-beta   T2 =       0.4956427477D-01 E2=     -0.1554423076D+00
 ANorm=    0.1178145918D+01
 E2 =    -0.1260577701D+01 EUMP2 =    -0.41925060643488D+03
 (S**2,0)=  0.84214D+00           (S**2,1)=  0.81486D+00
 E(PUHF)=      -0.41799853504D+03        E(PMP2)=      -0.41925789278D+03
 Keep R2 and R3 ints in memory in canonical form, NReq=652884060.
 CIDS: In Core Option IDoMem=           1.
 Iterations=  50 Convergence= 0.100D-06
 Produce multiple copies of IABC intergrals
 Iteration Nr.   1
 **********************
 DD1Dir will call FoFMem   1 times, MxPair=      1496
 NAB=   506 NAA=   253 NBB=   231.
 E(PMP3)=      -0.41928360265D+03
 MP4(R+Q)=  0.25031606D-01
 E3=       -0.27785049D-01        EUMP3=      -0.41927839148D+03
 E4(DQ)=   -0.56537359D-02        UMP4(DQ)=   -0.41928404522D+03
 E4(SDQ)=  -0.24638648D-01        UMP4(SDQ)=  -0.41930303013D+03
 DE(Corr)=  -1.2627618     E(Corr)=     -419.25279057    
 NORM(A)=   0.11850136D+01
 Iteration Nr.   2
 **********************
 DD1Dir will call FoFMem   1 times, MxPair=      1496
 NAB=   506 NAA=   253 NBB=   231.
 DE(Corr)=  -1.3048437     E(CORR)=     -419.29487245     Delta=-4.21D-02
 NORM(A)=   0.12035290D+01
 Iteration Nr.   3
 **********************
 DD1Dir will call FoFMem   1 times, MxPair=      1496
 NAB=   506 NAA=   253 NBB=   231.
 DE(Corr)=  -1.3067305     E(CORR)=     -419.29675923     Delta=-1.89D-03
 NORM(A)=   0.12112133D+01
 Iteration Nr.   4
 **********************
 DD1Dir will call FoFMem   1 times, MxPair=      1496
 NAB=   506 NAA=   253 NBB=   231.
 DE(Corr)=  -1.3121883     E(CORR)=     -419.30221705     Delta=-5.46D-03
 NORM(A)=   0.12152768D+01
 Iteration Nr.   5
 **********************
 DD1Dir will call FoFMem   1 times, MxPair=      1496
 NAB=   506 NAA=   253 NBB=   231.
 DE(Corr)=  -1.3133644     E(CORR)=     -419.30339310     Delta=-1.18D-03
 NORM(A)=   0.12175360D+01
 Iteration Nr.   6
 **********************
 DD1Dir will call FoFMem   1 times, MxPair=      1496
 NAB=   506 NAA=   253 NBB=   231.
 DE(Corr)=  -1.3137252     E(CORR)=     -419.30375392     Delta=-3.61D-04
 NORM(A)=   0.12179868D+01
 Iteration Nr.   7
 **********************
 DD1Dir will call FoFMem   1 times, MxPair=      1496
 NAB=   506 NAA=   253 NBB=   231.
 DE(Corr)=  -1.3137895     E(CORR)=     -419.30381823     Delta=-6.43D-05
 NORM(A)=   0.12180740D+01
 Iteration Nr.   8
 **********************
 DD1Dir will call FoFMem   1 times, MxPair=      1496
 NAB=   506 NAA=   253 NBB=   231.
 DE(Corr)=  -1.3137753     E(CORR)=     -419.30380402     Delta= 1.42D-05
 NORM(A)=   0.12181072D+01
 Iteration Nr.   9
 **********************
 DD1Dir will call FoFMem   1 times, MxPair=      1496
 NAB=   506 NAA=   253 NBB=   231.
 DE(Corr)=  -1.3137858     E(CORR)=     -419.30381457     Delta=-1.05D-05
 NORM(A)=   0.12181072D+01
 Iteration Nr.  10
 **********************
 DD1Dir will call FoFMem   1 times, MxPair=      1496
 NAB=   506 NAA=   253 NBB=   231.
 DE(Corr)=  -1.3137853     E(CORR)=     -419.30381407     Delta= 4.93D-07
 NORM(A)=   0.12181099D+01
 Iteration Nr.  11
 **********************
 DD1Dir will call FoFMem   1 times, MxPair=      1496
 NAB=   506 NAA=   253 NBB=   231.
 DE(Corr)=  -1.3137934     E(CORR)=     -419.30382213     Delta=-8.06D-06
 NORM(A)=   0.12181149D+01
 Iteration Nr.  12
 **********************
 DD1Dir will call FoFMem   1 times, MxPair=      1496
 NAB=   506 NAA=   253 NBB=   231.
 DE(Corr)=  -1.3137938     E(CORR)=     -419.30382249     Delta=-3.52D-07
 NORM(A)=   0.12181228D+01
 Iteration Nr.  13
 **********************
 DD1Dir will call FoFMem   1 times, MxPair=      1496
 NAB=   506 NAA=   253 NBB=   231.
 DE(Corr)=  -1.3137975     E(CORR)=     -419.30382626     Delta=-3.77D-06
 NORM(A)=   0.12181360D+01
 Iteration Nr.  14
 **********************
 DD1Dir will call FoFMem   1 times, MxPair=      1496
 NAB=   506 NAA=   253 NBB=   231.
 DE(Corr)=  -1.3137999     E(CORR)=     -419.30382868     Delta=-2.42D-06
 NORM(A)=   0.12181527D+01
 Iteration Nr.  15
 **********************
 DD1Dir will call FoFMem   1 times, MxPair=      1496
 NAB=   506 NAA=   253 NBB=   231.
 DE(Corr)=  -1.3138012     E(CORR)=     -419.30382992     Delta=-1.24D-06
 NORM(A)=   0.12181685D+01
 Iteration Nr.  16
 **********************
 DD1Dir will call FoFMem   1 times, MxPair=      1496
 NAB=   506 NAA=   253 NBB=   231.
 DE(Corr)=  -1.3138051     E(CORR)=     -419.30383386     Delta=-3.94D-06
 NORM(A)=   0.12181739D+01
 Iteration Nr.  17
 **********************
 DD1Dir will call FoFMem   1 times, MxPair=      1496
 NAB=   506 NAA=   253 NBB=   231.
 DE(Corr)=  -1.3138038     E(CORR)=     -419.30383250     Delta= 1.36D-06
 NORM(A)=   0.12181722D+01
 Iteration Nr.  18
 **********************
 DD1Dir will call FoFMem   1 times, MxPair=      1496
 NAB=   506 NAA=   253 NBB=   231.
 DE(Corr)=  -1.3138040     E(CORR)=     -419.30383271     Delta=-2.09D-07
 NORM(A)=   0.12181680D+01
 Iteration Nr.  19
 **********************
 DD1Dir will call FoFMem   1 times, MxPair=      1496
 NAB=   506 NAA=   253 NBB=   231.
 DE(Corr)=  -1.3138026     E(CORR)=     -419.30383133     Delta= 1.38D-06
 NORM(A)=   0.12181647D+01
 Iteration Nr.  20
 **********************
 DD1Dir will call FoFMem   1 times, MxPair=      1496
 NAB=   506 NAA=   253 NBB=   231.
 DE(Corr)=  -1.3138019     E(CORR)=     -419.30383059     Delta= 7.38D-07
 NORM(A)=   0.12181625D+01
 Iteration Nr.  21
 **********************
 DD1Dir will call FoFMem   1 times, MxPair=      1496
 NAB=   506 NAA=   253 NBB=   231.
 DE(Corr)=  -1.3138014     E(CORR)=     -419.30383012     Delta= 4.78D-07
 NORM(A)=   0.12181615D+01
 Iteration Nr.  22
 **********************
 DD1Dir will call FoFMem   1 times, MxPair=      1496
 NAB=   506 NAA=   253 NBB=   231.
 DE(Corr)=  -1.3138011     E(CORR)=     -419.30382986     Delta= 2.60D-07
 NORM(A)=   0.12181615D+01
 Iteration Nr.  23
 **********************
 DD1Dir will call FoFMem   1 times, MxPair=      1496
 NAB=   506 NAA=   253 NBB=   231.
 DE(Corr)=  -1.3138012     E(CORR)=     -419.30382992     Delta=-5.75D-08
 NORM(A)=   0.12181619D+01
 Wavefunction amplitudes converged. E(Corr)=     -419.30382992    
 Largest amplitude= 6.17D-02
 Time for triples=    37876.59 seconds.
 T4(CCSD)= -0.56165160D-01
 T5(CCSD)=  0.35185566D-02
 CCSD(T)= -0.41935647652D+03

 S**2, projected HF & approx projected MPn energies after annihilation of
 unwanted spin states (see manual for definitions):

 spins       (S**2,0) (S**2,1)    PUHF        PMP2        PMP3        PMP4
 annihilated
 s+1         0.74702  0.74909 -417.998535 -419.257893 -419.283603
 s+1,s+2     0.75003  0.74999 -417.998266 -419.257644 -419.283378
 s+1 to s+3  0.75000  0.75000 -417.998269 -419.257646 -419.283379
 s+1 to s+4  0.75000  0.75000 -417.998269 -419.257646 -419.283379
 s+1 to s+5  0.75000  0.75000 -417.998269
 s+1 to s+6  0.75000  0.75000 -417.998269

 Discarding MO integrals.

 **********************************************************************

            Population analysis using the SCF density.

 **********************************************************************

 Orbital symmetries:
 Alpha Orbitals:
       Occupied  (A) (A) (A) (A) (A) (A) (A) (A) (A) (A) (A) (A)
                 (A) (A) (A) (A) (A) (A) (A) (A) (A) (A) (A) (A)
                 (A) (A) (A) (A) (A) (A) (A)
       Virtual   (A) (A) (A) (A) (A) (A) (A) (A) (A) (A) (A) (A)
                 (A) (A) (A) (A) (A) (A) (A) (A) (A) (A) (A) (A)
                 (A) (A) (A) (A) (A) (A) (A) (A) (A) (A) (A) (A)
                 (A) (A) (A) (A) (A) (A) (A) (A) (A) (A) (A) (A)
                 (A) (A) (A) (A) (A) (A) (A) (A) (A) (A) (A) (A)
                 (A) (A) (A) (A) (A) (A) (A) (A) (A) (A) (A) (A)
                 (A) (A) (A) (A) (A) (A) (A) (A) (A) (A) (A) (A)
                 (A) (A) (A) (A) (A) (A) (A) (A) (A) (A) (A) (A)
                 (A) (A) (A) (A) (A) (A) (A) (A) (A) (A) (A) (A)
                 (A) (A) (A) (A) (A) (A) (A) (A) (A) (A) (A) (A)
                 (A) (A) (A) (A) (A) (A) (A) (A) (A) (A) (A) (A)
                 (A) (A) (A) (A) (A) (A) (A) (A) (A) (A) (A) (A)
                 (A) (A) (A) (A) (A) (A) (A) (A) (A) (A) (A) (A)
                 (A) (A) (A) (A) (A) (A) (A) (A) (A) (A) (A) (A)
                 (A) (A) (A) (A) (A) (A) (A) (A) (A) (A) (A) (A)
                 (A) (A) (A) (A) (A) (A) (A) (A) (A) (A) (A) (A)
                 (A) (A)
 Beta  Orbitals:
       Occupied  (A) (A) (A) (A) (A) (A) (A) (A) (A) (A) (A) (A)
                 (A) (A) (A) (A) (A) (A) (A) (A) (A) (A) (A) (A)
                 (A) (A) (A) (A) (A) (A)
       Virtual   (A) (A) (A) (A) (A) (A) (A) (A) (A) (A) (A) (A)
                 (A) (A) (A) (A) (A) (A) (A) (A) (A) (A) (A) (A)
                 (A) (A) (A) (A) (A) (A) (A) (A) (A) (A) (A) (A)
                 (A) (A) (A) (A) (A) (A) (A) (A) (A) (A) (A) (A)
                 (A) (A) (A) (A) (A) (A) (A) (A) (A) (A) (A) (A)
                 (A) (A) (A) (A) (A) (A) (A) (A) (A) (A) (A) (A)
                 (A) (A) (A) (A) (A) (A) (A) (A) (A) (A) (A) (A)
                 (A) (A) (A) (A) (A) (A) (A) (A) (A) (A) (A) (A)
                 (A) (A) (A) (A) (A) (A) (A) (A) (A) (A) (A) (A)
                 (A) (A) (A) (A) (A) (A) (A) (A) (A) (A) (A) (A)
                 (A) (A) (A) (A) (A) (A) (A) (A) (A) (A) (A) (A)
                 (A) (A) (A) (A) (A) (A) (A) (A) (A) (A) (A) (A)
                 (A) (A) (A) (A) (A) (A) (A) (A) (A) (A) (A) (A)
                 (A) (A) (A) (A) (A) (A) (A) (A) (A) (A) (A) (A)
                 (A) (A) (A) (A) (A) (A) (A) (A) (A) (A) (A) (A)
                 (A) (A) (A) (A) (A) (A) (A) (A) (A) (A) (A) (A)
                 (A) (A) (A)
 The electronic state is 2-A.
 Alpha  occ. eigenvalues --  -20.62937 -20.61076 -20.55670 -11.41495 -11.29513
 Alpha  occ. eigenvalues --  -11.26712 -11.25802 -11.22472  -1.48064  -1.38539
 Alpha  occ. eigenvalues --   -1.37759  -1.07735  -1.04117  -0.92555  -0.83730
 Alpha  occ. eigenvalues --   -0.76312  -0.73012  -0.69571  -0.67871  -0.66745
 Alpha  occ. eigenvalues --   -0.65279  -0.62956  -0.58175  -0.55665  -0.54050
 Alpha  occ. eigenvalues --   -0.53908  -0.50328  -0.47823  -0.46065  -0.42785
 Alpha  occ. eigenvalues --   -0.42158
 Alpha virt. eigenvalues --    0.03717   0.04546   0.05769   0.06598   0.07021
 Alpha virt. eigenvalues --    0.08290   0.09333   0.09855   0.11110   0.12226
 Alpha virt. eigenvalues --    0.13418   0.13835   0.14471   0.15179   0.16416
 Alpha virt. eigenvalues --    0.17321   0.17870   0.18395   0.18915   0.19743
 Alpha virt. eigenvalues --    0.20442   0.20613   0.21955   0.22540   0.22697
 Alpha virt. eigenvalues --    0.24391   0.25706   0.26834   0.28232   0.28980
 Alpha virt. eigenvalues --    0.29463   0.30923   0.31922   0.33456   0.33825
 Alpha virt. eigenvalues --    0.34565   0.35767   0.36132   0.37908   0.39031
 Alpha virt. eigenvalues --    0.39708   0.40587   0.42980   0.43122   0.44123
 Alpha virt. eigenvalues --    0.46167   0.46452   0.47667   0.48447   0.48929
 Alpha virt. eigenvalues --    0.51107   0.54609   0.57991   0.59707   0.62306
 Alpha virt. eigenvalues --    0.63337   0.66192   0.68878   0.69760   0.72507
 Alpha virt. eigenvalues --    0.74832   0.75537   0.79973   0.80372   0.83404
 Alpha virt. eigenvalues --    0.85174   0.87044   0.87897   0.88347   0.89327
 Alpha virt. eigenvalues --    0.90436   0.91974   0.94492   0.94873   0.98145
 Alpha virt. eigenvalues --    1.00385   1.06572   1.07897   1.13134   1.17384
 Alpha virt. eigenvalues --    1.20059   1.23123   1.24889   1.25659   1.31067
 Alpha virt. eigenvalues --    1.31686   1.37294   1.38070   1.40296   1.41443
 Alpha virt. eigenvalues --    1.44342   1.45849   1.48548   1.49472   1.53595
 Alpha virt. eigenvalues --    1.56190   1.56733   1.58346   1.60305   1.63216
 Alpha virt. eigenvalues --    1.64150   1.68667   1.72522   1.73808   1.77426
 Alpha virt. eigenvalues --    1.80719   1.81954   1.83519   1.84697   1.88340
 Alpha virt. eigenvalues --    1.90405   1.91747   1.94990   1.95919   1.98101
 Alpha virt. eigenvalues --    2.01175   2.06425   2.08954   2.11429   2.12229
 Alpha virt. eigenvalues --    2.18439   2.23309   2.25982   2.30495   2.33288
 Alpha virt. eigenvalues --    2.34347   2.38277   2.41800   2.49421   2.60786
 Alpha virt. eigenvalues --    2.64295   2.71407   2.78162   2.80333   2.82763
 Alpha virt. eigenvalues --    2.84674   2.85853   2.91335   2.92083   2.93711
 Alpha virt. eigenvalues --    2.95175   2.97344   3.01630   3.05095   3.07069
 Alpha virt. eigenvalues --    3.11231   3.12476   3.16247   3.19157   3.23473
 Alpha virt. eigenvalues --    3.24898   3.28104   3.33000   3.35384   3.36805
 Alpha virt. eigenvalues --    3.40350   3.45750   3.46487   3.48159   3.49655
 Alpha virt. eigenvalues --    3.59237   3.60926   3.65798   3.70788   3.73049
 Alpha virt. eigenvalues --    3.80026   3.91781   4.01999   4.14127   4.21439
 Alpha virt. eigenvalues --    4.22673   4.22786   4.28276   4.41256   4.51952
 Alpha virt. eigenvalues --    4.58494   4.67393   5.50863   5.54456   5.60125
 Alpha virt. eigenvalues --    5.66562   5.78365   5.93016   6.01283   6.22152
 Alpha virt. eigenvalues --    6.43482  24.70040  25.01676  25.02099  25.14748
 Alpha virt. eigenvalues --   26.26544  51.50481  51.60778  51.72163
  Beta  occ. eigenvalues --  -20.61083 -20.58853 -20.55959 -11.41277 -11.29514
  Beta  occ. eigenvalues --  -11.26837 -11.25476 -11.22473  -1.48188  -1.38226
  Beta  occ. eigenvalues --   -1.23273  -1.07779  -1.03664  -0.92037  -0.83512
  Beta  occ. eigenvalues --   -0.76240  -0.72432  -0.69623  -0.66585  -0.63422
  Beta  occ. eigenvalues --   -0.62996  -0.58430  -0.55225  -0.54017  -0.50763
  Beta  occ. eigenvalues --   -0.49986  -0.48443  -0.46764  -0.43026  -0.42286
  Beta virt. eigenvalues --    0.03780   0.04550   0.05009   0.06519   0.06993
  Beta virt. eigenvalues --    0.08174   0.09108   0.09526   0.10435   0.11217
  Beta virt. eigenvalues --    0.12924   0.13502   0.13993   0.14767   0.15680
  Beta virt. eigenvalues --    0.16597   0.17850   0.18020   0.18532   0.18940
  Beta virt. eigenvalues --    0.20028   0.20505   0.20684   0.22077   0.22594
  Beta virt. eigenvalues --    0.22793   0.24655   0.25786   0.27533   0.28320
  Beta virt. eigenvalues --    0.29160   0.30222   0.31171   0.32124   0.33796
  Beta virt. eigenvalues --    0.33991   0.35144   0.35886   0.37809   0.38404
  Beta virt. eigenvalues --    0.39194   0.39772   0.40547   0.42911   0.43136
  Beta virt. eigenvalues --    0.44065   0.46253   0.46369   0.47971   0.48728
  Beta virt. eigenvalues --    0.49260   0.51180   0.54536   0.58008   0.59820
  Beta virt. eigenvalues --    0.62322   0.63554   0.66261   0.69221   0.70265
  Beta virt. eigenvalues --    0.73721   0.76231   0.76459   0.80611   0.80908
  Beta virt. eigenvalues --    0.83539   0.85293   0.86668   0.88121   0.88489
  Beta virt. eigenvalues --    0.89529   0.90022   0.91733   0.94237   0.94928
  Beta virt. eigenvalues --    0.98095   1.01032   1.06286   1.08812   1.13179
  Beta virt. eigenvalues --    1.17773   1.20087   1.24052   1.26000   1.30230
  Beta virt. eigenvalues --    1.31810   1.32608   1.37438   1.38919   1.41132
  Beta virt. eigenvalues --    1.42687   1.44621   1.45987   1.49189   1.50828
  Beta virt. eigenvalues --    1.54130   1.56341   1.57449   1.60144   1.61176
  Beta virt. eigenvalues --    1.64422   1.64995   1.69456   1.72994   1.74253
  Beta virt. eigenvalues --    1.78520   1.80754   1.81974   1.83550   1.84746
  Beta virt. eigenvalues --    1.88291   1.90110   1.91725   1.95080   1.96111
  Beta virt. eigenvalues --    1.98268   2.01500   2.06393   2.09108   2.11492
  Beta virt. eigenvalues --    2.12307   2.18398   2.23671   2.26123   2.30619
  Beta virt. eigenvalues --    2.34023   2.35470   2.38359   2.41818   2.49435
  Beta virt. eigenvalues --    2.60798   2.64300   2.71689   2.78135   2.80233
  Beta virt. eigenvalues --    2.82769   2.84673   2.85892   2.91570   2.92199
  Beta virt. eigenvalues --    2.94033   2.95259   2.97404   3.02055   3.05124
  Beta virt. eigenvalues --    3.07802   3.11386   3.16135   3.18170   3.24427
  Beta virt. eigenvalues --    3.26375   3.27767   3.30769   3.33473   3.37096
  Beta virt. eigenvalues --    3.38683   3.40403   3.46490   3.48955   3.50485
  Beta virt. eigenvalues --    3.53100   3.59825   3.61850   3.65798   3.70951
  Beta virt. eigenvalues --    3.73016   3.79635   3.92317   4.01908   4.14015
  Beta virt. eigenvalues --    4.21447   4.22752   4.26229   4.28242   4.41252
  Beta virt. eigenvalues --    4.51857   4.58485   4.67389   5.54487   5.60001
  Beta virt. eigenvalues --    5.65638   5.66316   5.78302   5.93113   6.03770
  Beta virt. eigenvalues --    6.22092   6.43420  24.70022  25.01835  25.02110
  Beta virt. eigenvalues --   25.14749  26.26677  51.52771  51.60820  51.72008
          Condensed to atoms (all electrons):
               1          2          3          4          5          6
     1  O    7.987492   0.268826  -0.058386   0.001260   0.174751  -0.183442
     2  H    0.268826   0.477322  -0.093001  -0.001844   0.046276   0.065762
     3  C   -0.058386  -0.093001  50.069770   0.969403 -16.396286 -26.186700
     4  H    0.001260  -0.001844   0.969403   0.414428  -0.393368  -0.176789
     5  C    0.174751   0.046276 -16.396286  -0.393368  24.620589  -3.691453
     6  C   -0.183442   0.065762 -26.186700  -0.176789  -3.691453  35.743904
     7  O   -0.011434  -0.001974   0.211668  -0.001189   0.431278  -0.212991
     8  O   -0.008658  -0.000261  -0.013017  -0.004109  -0.094153   0.011717
     9  C   -0.011372   0.002817  -0.605065  -0.002238  -0.846783   1.223113
    10  C    0.004347  -0.001130   0.140264   0.000273   0.114514  -0.307285
    11  H   -0.000377   0.000177  -0.014970   0.000134  -0.016466   0.036889
    12  H   -0.000354  -0.000264   0.003862  -0.000259   0.002685  -0.028231
    13  H    0.000026  -0.000016   0.011502   0.000050   0.023889  -0.033028
    14  H    0.000127   0.000034  -0.020332  -0.000221  -0.019085   0.030814
    15  H   -0.000287   0.000087  -0.023026  -0.000120  -0.049803   0.057814
               7          8          9         10         11         12
     1  O   -0.011434  -0.008658  -0.011372   0.004347  -0.000377  -0.000354
     2  H   -0.001974  -0.000261   0.002817  -0.001130   0.000177  -0.000264
     3  C    0.211668  -0.013017  -0.605065   0.140264  -0.014970   0.003862
     4  H   -0.001189  -0.004109  -0.002238   0.000273   0.000134  -0.000259
     5  C    0.431278  -0.094153  -0.846783   0.114514  -0.016466   0.002685
     6  C   -0.212991   0.011717   1.223113  -0.307285   0.036889  -0.028231
     7  O    8.034980  -0.110816   0.015972  -0.064673   0.000342  -0.017897
     8  O   -0.110816   8.252448   0.161934  -0.081242  -0.079290  -0.012313
     9  C    0.015972   0.161934   5.549152  -0.101416   0.441639   0.430515
    10  C   -0.064673  -0.081242  -0.101416   5.521977  -0.050785  -0.032134
    11  H    0.000342  -0.079290   0.441639  -0.050785   0.542729  -0.032680
    12  H   -0.017897  -0.012313   0.430515  -0.032134  -0.032680   0.510818
    13  H   -0.001142   0.017057  -0.050404   0.408326  -0.001192  -0.002195
    14  H    0.004068  -0.005472  -0.023223   0.415611  -0.004053  -0.001860
    15  H   -0.005558  -0.010450  -0.030589   0.411658   0.006493  -0.002178
              13         14         15
     1  O    0.000026   0.000127  -0.000287
     2  H   -0.000016   0.000034   0.000087
     3  C    0.011502  -0.020332  -0.023026
     4  H    0.000050  -0.000221  -0.000120
     5  C    0.023889  -0.019085  -0.049803
     6  C   -0.033028   0.030814   0.057814
     7  O   -0.001142   0.004068  -0.005558
     8  O    0.017057  -0.005472  -0.010450
     9  C   -0.050404  -0.023223  -0.030589
    10  C    0.408326   0.415611   0.411658
    11  H   -0.001192  -0.004053   0.006493
    12  H   -0.002195  -0.001860  -0.002178
    13  H    0.562476  -0.030662  -0.035697
    14  H   -0.030662   0.554686  -0.046175
    15  H   -0.035697  -0.046175   0.549001
          Atomic-Atomic Spin Densities.
               1          2          3          4          5          6
     1  O    1.023463   0.011929  -0.205249  -0.002652   0.020977   0.137701
     2  H    0.011929  -0.048793   0.020006   0.000338  -0.015819  -0.006059
     3  C   -0.205249   0.020006  -0.536240  -0.039750   0.231195   1.026425
     4  H   -0.002652   0.000338  -0.039750  -0.037710   0.029574   0.008291
     5  C    0.020977  -0.015819   0.231195   0.029574  -1.095619   0.253366
     6  C    0.137701  -0.006059   1.026425   0.008291   0.253366  -1.197825
     7  O    0.000891  -0.000027   0.001031   0.000050   0.007900   0.005791
     8  O    0.000155   0.000424   0.006883  -0.000134   0.024413  -0.032605
     9  C   -0.001490   0.000660   0.012313   0.000067   0.023805  -0.043481
    10  C   -0.000744   0.000021  -0.026236  -0.000184  -0.026824   0.055287
    11  H    0.000041   0.000007   0.004401   0.000001   0.008567  -0.012024
    12  H    0.000355  -0.000063   0.003536   0.000029   0.004734  -0.006763
    13  H   -0.000097   0.000023  -0.002247  -0.000014  -0.003735   0.005352
    14  H    0.000149  -0.000028   0.002554   0.000032   0.001755  -0.003873
    15  H   -0.000095   0.000019   0.001898  -0.000019   0.005657  -0.007421
               7          8          9         10         11         12
     1  O    0.000891   0.000155  -0.001490  -0.000744   0.000041   0.000355
     2  H   -0.000027   0.000424   0.000660   0.000021   0.000007  -0.000063
     3  C    0.001031   0.006883   0.012313  -0.026236   0.004401   0.003536
     4  H    0.000050  -0.000134   0.000067  -0.000184   0.000001   0.000029
     5  C    0.007900   0.024413   0.023805  -0.026824   0.008567   0.004734
     6  C    0.005791  -0.032605  -0.043481   0.055287  -0.012024  -0.006763
     7  O   -0.079036  -0.000602   0.005043  -0.000617   0.000335  -0.000332
     8  O   -0.000602   0.006173  -0.004403   0.000554   0.000419   0.000455
     9  C    0.005043  -0.004403   0.014184  -0.001126  -0.002019  -0.003085
    10  C   -0.000617   0.000554  -0.001126  -0.005170   0.001651   0.001208
    11  H    0.000335   0.000419  -0.002019   0.001651  -0.001185  -0.000107
    12  H   -0.000332   0.000455  -0.003085   0.001208  -0.000107   0.000459
    13  H    0.000288  -0.000467   0.002855  -0.002610   0.000292  -0.000082
    14  H   -0.000366   0.000139  -0.001457   0.001809  -0.000076  -0.000009
    15  H    0.000226  -0.000107  -0.001007   0.001551  -0.000290  -0.000148
              13         14         15
     1  O   -0.000097   0.000149  -0.000095
     2  H    0.000023  -0.000028   0.000019
     3  C   -0.002247   0.002554   0.001898
     4  H   -0.000014   0.000032  -0.000019
     5  C   -0.003735   0.001755   0.005657
     6  C    0.005352  -0.003873  -0.007421
     7  O    0.000288  -0.000366   0.000226
     8  O   -0.000467   0.000139  -0.000107
     9  C    0.002855  -0.001457  -0.001007
    10  C   -0.002610   0.001809   0.001551
    11  H    0.000292  -0.000076  -0.000290
    12  H   -0.000082  -0.000009  -0.000148
    13  H   -0.000213   0.000158   0.000450
    14  H    0.000158  -0.000372  -0.000284
    15  H    0.000450  -0.000284  -0.000527
 Mulliken charges and spin densities:
               1          2
     1  O   -0.162519   0.985332
     2  H    0.237188  -0.037363
     3  C   -1.995685   0.500520
     4  H    0.194589  -0.042079
     5  C    2.093415  -0.530055
     6  C   -0.350096   0.182160
     7  O   -0.270636  -0.059424
     8  O   -0.023376   0.001297
     9  C   -0.154052   0.000858
    10  C   -0.378307  -0.001430
    11  H    0.171410   0.000013
    12  H    0.182486   0.000187
    13  H    0.131009  -0.000048
    14  H    0.145743   0.000131
    15  H    0.178831  -0.000098
 Sum of Mulliken charges =  -0.00000   1.00000
 Mulliken charges and spin densities with hydrogens summed into heavy atoms:
               1          2
     1  O    0.074669   0.947969
     3  C   -1.801096   0.458441
     5  C    2.093415  -0.530055
     6  C   -0.350096   0.182160
     7  O   -0.270636  -0.059424
     8  O   -0.023376   0.001297
     9  C    0.199844   0.001057
    10  C    0.077276  -0.001445
 Electronic spatial extent (au):  <R**2>=           1144.2712
 Charge=             -0.0000 electrons
 Dipole moment (field-independent basis, Debye):
    X=              0.6027    Y=             -0.2109    Z=             -0.7402  Tot=              0.9776
 Quadrupole moment (field-independent basis, Debye-Ang):
   XX=            -31.0226   YY=            -46.3100   ZZ=            -52.6507
   XY=             -4.4047   XZ=              2.7812   YZ=              4.0535
 Traceless Quadrupole moment (field-independent basis, Debye-Ang):
   XX=             12.3052   YY=             -2.9822   ZZ=             -9.3229
   XY=             -4.4047   XZ=              2.7812   YZ=              4.0535
 Octapole moment (field-independent basis, Debye-Ang**2):
  XXX=             34.7698  YYY=              7.8676  ZZZ=             -3.8522  XYY=              4.2964
  XXY=             -4.0078  XXZ=              2.7679  XZZ=              2.6867  YZZ=              5.3781
  YYZ=              1.1449  XYZ=             11.2706
 Hexadecapole moment (field-independent basis, Debye-Ang**3):
 XXXX=           -888.2522 YYYY=           -246.4697 ZZZZ=           -184.8239 XXXY=            -35.1573
 XXXZ=              6.2676 YYYX=              4.2832 YYYZ=              5.3627 ZZZX=              8.2909
 ZZZY=              2.1044 XXYY=           -188.9344 XXZZ=           -196.7332 YYZZ=            -66.5398
 XXYZ=             33.6527 YYXZ=              1.2321 ZZXY=              3.7073
 N-N= 3.564882291220D+02 E-N=-1.696170315747D+03  KE= 4.177064898040D+02
 1\1\GINC-AJ\SP\UCCSD(T)-FC\6-311++G(d,p)\C5H7O3(2)\AAYUSH\30-Aug-2025\
 0\\# ccsd(t)/6-311++g(d,p) sp\\Title Card Required\\0,2\O,0,2.145335,1
 .464159,-0.009509\H,0,2.762535,1.240728,0.7068\C,0,2.403683,-1.183454,
 -0.570765\H,0,3.308309,-1.623365,-0.92069\C,0,1.386751,-0.666063,-0.19
 319\C,0,0.090612,-0.217866,0.313468\O,0,-0.237096,-0.338393,1.460988\O
 ,0,-0.656532,0.284753,-0.662011\C,0,-1.988192,0.695947,-0.291736\C,0,-
 2.92078,-0.497392,-0.20897\H,0,-2.281692,1.383312,-1.082862\H,0,-1.937
 165,1.232192,0.656338\H,0,-3.935734,-0.154204,0.000709\H,0,-2.928304,-
 1.041013,-1.154895\H,0,-2.613962,-1.171631,0.590912\\Version=ES64L-G16
 RevA.03\State=2-A\HF=-417.9900287\MP2=-419.2506064\MP3=-419.2783915\MP
 4D=-419.3090768\MP4DQ=-419.2840452\PUHF=-417.998535\PMP2-0=-419.257892
 8\PMP3-0=-419.2836026\MP4SDQ=-419.3030301\CCSD=-419.3038299\CCSD(T)=-4
 19.3564765\S2=0.842145\S2-1=0.814861\S2A=0.755026\RMSD=5.153e-09\PG=C0
 1 [X(C5H7O3)]\\@


 KEEP CLOSE TO NATURES HEART, YOURSELF;
 AND BREAK CLEAR AWAY, ONCE IN A WHILE, AND
 CLIMB A MOUNTAIN OR SPEND A WEEK IN THE
 WOODS.  WASH YOUR SPIRIT CLEAN...
                                         -- JOHN MUIR
 Job cpu time:       0 days 18 hours 24 minutes 34.1 seconds.
 Elapsed time:       0 days  0 hours 46 minutes 20.6 seconds.
 File lengths (MBytes):  RWF=  44733 Int=      0 D2E=      0 Chk=      5 Scr=      1
 Normal termination of Gaussian 16 at Sat Aug 30 03:59:25 2025.
