 Entering Gaussian System, Link 0=g16
 Initial command:
 /opt/g16/l1.exe "/home/aayush/scratches/g16/Gau-95788.inp" -scrdir="/home/aayush/scratches/g16/"
 Entering Link 1 = /opt/g16/l1.exe PID=     95791.
  
 Copyright (c) 1988,1990,1992,1993,1995,1998,2003,2009,2016,
            Gaussian, Inc.  All Rights Reserved.
  
 This is part of the Gaussian(R) 16 program.  It is based on
 the Gaussian(R) 09 system (copyright 2009, Gaussian, Inc.),
 the Gaussian(R) 03 system (copyright 2003, Gaussian, Inc.),
 the Gaussian(R) 98 system (copyright 1998, Gaussian, Inc.),
 the Gaussian(R) 94 system (copyright 1995, Gaussian, Inc.),
 the Gaussian 92(TM) system (copyright 1992, Gaussian, Inc.),
 the Gaussian 90(TM) system (copyright 1990, Gaussian, Inc.),
 the Gaussian 88(TM) system (copyright 1988, Gaussian, Inc.),
 the Gaussian 86(TM) system (copyright 1986, Carnegie Mellon
 University), and the Gaussian 82(TM) system (copyright 1983,
 Carnegie Mellon University). Gaussian is a federally registered
 trademark of Gaussian, Inc.
  
 This software contains proprietary and confidential information,
 including trade secrets, belonging to Gaussian, Inc.
  
 This software is provided under written license and may be
 used, copied, transmitted, or stored only in accord with that
 written license.
  
 The following legend is applicable only to US Government
 contracts under FAR:
  
                    RESTRICTED RIGHTS LEGEND
  
 Use, reproduction and disclosure by the US Government is
 subject to restrictions as set forth in subparagraphs (a)
 and (c) of the Commercial Computer Software - Restricted
 Rights clause in FAR 52.227-19.
  
 Gaussian, Inc.
 340 Quinnipiac St., Bldg. 40, Wallingford CT 06492
  
  
 ---------------------------------------------------------------
 Warning -- This program may not be used in any manner that
 competes with the business of Gaussian, Inc. or will provide
 assistance to any competitor of Gaussian, Inc.  The licensee
 of this program is prohibited from giving any competitor of
 Gaussian, Inc. access to this program.  By using this program,
 the user acknowledges that Gaussian, Inc. is engaged in the
 business of creating and licensing software in the field of
 computational chemistry and represents and warrants to the
 licensee that it is not a competitor of Gaussian, Inc. and that
 it will not use this program in any manner prohibited above.
 ---------------------------------------------------------------
  

 Cite this work as:
 Gaussian 16, Revision A.03,
 M. J. Frisch, G. W. Trucks, H. B. Schlegel, G. E. Scuseria, 
 M. A. Robb, J. R. Cheeseman, G. Scalmani, V. Barone, 
 G. A. Petersson, H. Nakatsuji, X. Li, M. Caricato, A. V. Marenich, 
 J. Bloino, B. G. Janesko, R. Gomperts, B. Mennucci, H. P. Hratchian, 
 J. V. Ortiz, A. F. Izmaylov, J. L. Sonnenberg, D. Williams-Young, 
 F. Ding, F. Lipparini, F. Egidi, J. Goings, B. Peng, A. Petrone, 
 T. Henderson, D. Ranasinghe, V. G. Zakrzewski, J. Gao, N. Rega, 
 G. Zheng, W. Liang, M. Hada, M. Ehara, K. Toyota, R. Fukuda, 
 J. Hasegawa, M. Ishida, T. Nakajima, Y. Honda, O. Kitao, H. Nakai, 
 T. Vreven, K. Throssell, J. A. Montgomery, Jr., J. E. Peralta, 
 F. Ogliaro, M. J. Bearpark, J. J. Heyd, E. N. Brothers, K. N. Kudin, 
 V. N. Staroverov, T. A. Keith, R. Kobayashi, J. Normand, 
 K. Raghavachari, A. P. Rendell, J. C. Burant, S. S. Iyengar, 
 J. Tomasi, M. Cossi, J. M. Millam, M. Klene, C. Adamo, R. Cammi, 
 J. W. Ochterski, R. L. Martin, K. Morokuma, O. Farkas, 
 J. B. Foresman, and D. J. Fox, Gaussian, Inc., Wallingford CT, 2016.
 
 ******************************************
 Gaussian 16:  ES64L-G16RevA.03 25-Dec-2016
                20-Jun-2025 
 ******************************************
 %nprocshared=24
 Will use up to   24 processors via shared memory.
 %mem=12GB
 %chk=ethyl_propiolate_ts1.chk
 -------------------
 # freq 6-31+g m062x
 -------------------
 1/10=4,30=1,38=1/1,3;
 2/12=2,17=6,18=5,40=1/2;
 3/5=1,6=6,7=10,11=2,25=1,30=1,71=2,74=-55,140=1/1,2,3;
 4//1;
 5/5=2,38=5,98=1/2;
 8/6=4,10=90,11=11/1;
 11/6=1,8=1,9=11,15=111,16=1/1,2,10;
 10/6=1/2;
 6/7=2,8=2,9=2,10=2,28=1/1;
 7/8=1,10=1,25=1/1,2,3,16;
 1/10=4,30=1/3;
 99//99;
 -------------------
 Title Card Required
 -------------------
 Symbolic Z-matrix:
 Charge =  0 Multiplicity = 2
 O                     2.15626   1.49372  -0.00643 
 H                     2.75831   1.24905   0.71612 
 C                     2.40493  -1.18649  -0.57262 
 H                     3.31849  -1.60891  -0.92081 
 C                     1.37353  -0.69869  -0.19744 
 C                     0.08668  -0.22844   0.31222 
 O                    -0.23739  -0.33497   1.46238 
 O                    -0.65693   0.28216  -0.66207 
 C                    -1.9872    0.69739  -0.29134 
 C                    -2.92045  -0.49567  -0.20874 
 H                    -2.27959   1.38485  -1.08275 
 H                    -1.93514   1.23373   0.65656 
 H                    -3.93552  -0.15287   0.00085 
 H                    -2.92747  -1.0391   -1.15477 
 H                    -2.61383  -1.1702    0.59103 
 

 GradGradGradGradGradGradGradGradGradGradGradGradGradGradGradGradGradGrad
 Berny optimization.
 Initialization pass.
 Trust Radius=3.00D-01 FncErr=1.00D-07 GrdErr=1.00D-07 EigMax=2.50D+02 EigMin=1.00D-04
 Number of steps in this run=      2 maximum allowed number of steps=      2.
 GradGradGradGradGradGradGradGradGradGradGradGradGradGradGradGradGradGrad

                          Input orientation:                          
 ---------------------------------------------------------------------
 Center     Atomic      Atomic             Coordinates (Angstroms)
 Number     Number       Type             X           Y           Z
 ---------------------------------------------------------------------
      1          8           0        2.156259    1.493721   -0.006425
      2          1           0        2.758306    1.249049    0.716124
      3          6           0        2.404934   -1.186486   -0.572617
      4          1           0        3.318492   -1.608907   -0.920811
      5          6           0        1.373525   -0.698687   -0.197437
      6          6           0        0.086680   -0.228442    0.312223
      7          8           0       -0.237390   -0.334973    1.462377
      8          8           0       -0.656925    0.282161   -0.662066
      9          6           0       -1.987199    0.697390   -0.291336
     10          6           0       -2.920451   -0.495666   -0.208743
     11          1           0       -2.279591    1.384846   -1.082751
     12          1           0       -1.935142    1.233728    0.656556
     13          1           0       -3.935524   -0.152872    0.000854
     14          1           0       -2.927469   -1.039100   -1.154773
     15          1           0       -2.613833   -1.170195    0.591026
 ---------------------------------------------------------------------
                    Distance matrix (angstroms):
                    1          2          3          4          5
     1  O    0.000000
     2  H    0.971803   0.000000
     3  C    2.750622   2.778049   0.000000
     4  H    3.437032   3.340850   1.065020   0.000000
     5  C    2.335768   2.558493   1.201046   2.265980   0.000000
     6  C    2.711188   3.079562   2.659904   3.724334   1.461798
     7  O    3.351277   3.469901   3.442114   4.466183   2.341435
     8  O    3.132371   3.807635   3.397044   4.409878   2.302318
     9  C    4.228896   4.882532   4.787373   5.819416   3.640373
    10  C    5.456334   6.012295   5.382319   6.377363   4.298788
    11  H    4.565862   5.351149   5.368124   6.350379   4.297691
    12  H    4.152915   4.693851   5.119039   6.178133   3.925660
    13  H    6.310399   6.876362   6.449700   7.455887   5.340715
    14  H    5.794668   6.408114   5.366111   6.276261   4.419380
    15  H    5.496105   5.893070   5.151927   6.137638   4.091823
                    6          7          8          9         10
     6  C    0.000000
     7  O    1.199677   0.000000
     8  O    1.327744   2.251693   0.000000
     9  C    2.349984   2.683862   1.442042   0.000000
    10  C    3.063601   3.165009   2.435994   1.516959   0.000000
    11  H    3.185575   3.688636   2.006473   1.088314   2.170465
    12  H    2.518784   2.447965   2.068353   1.090352   2.170341
    13  H    4.034946   3.980629   3.373118   2.145761   1.091701
    14  H    3.448817   3.818612   2.672800   2.155233   1.091028
    15  H    2.873569   2.665395   2.740268   2.158496   1.090245
                   11         12         13         14         15
    11  H    0.000000
    12  H    1.779514   0.000000
    13  H    2.506170   2.520741   0.000000
    14  H    2.510069   3.071054   1.771172   0.000000
    15  H    3.072699   2.498752   1.769213   1.778586   0.000000
 Stoichiometry    C5H7O3(2)
 Framework group  C1[X(C5H7O3)]
 Deg. of freedom    39
 Full point group                 C1      NOp   1
 Largest Abelian subgroup         C1      NOp   1
 Largest concise Abelian subgroup C1      NOp   1
                         Standard orientation:                         
 ---------------------------------------------------------------------
 Center     Atomic      Atomic             Coordinates (Angstroms)
 Number     Number       Type             X           Y           Z
 ---------------------------------------------------------------------
      1          8           0        2.231333    1.473970   -0.047126
      2          1           0        2.830854    1.249288    0.683965
      3          6           0        2.456420   -1.226437   -0.519422
      4          1           0        3.366342   -1.668820   -0.851996
      5          6           0        1.429220   -0.716732   -0.162246
      6          6           0        0.146378   -0.217619    0.329745
      7          8           0       -0.179145   -0.281135    1.482666
      8          8           0       -0.592218    0.265307   -0.662304
      9          6           0       -1.918914    0.704985   -0.307274
     10          6           0       -2.862775   -0.476143   -0.183882
     11          1           0       -2.204825    1.367018   -1.122378
     12          1           0       -1.862517    1.273538    0.621399
     13          1           0       -3.874854   -0.117264    0.012875
     14          1           0       -2.874199   -1.052123   -1.110413
     15          1           0       -2.562528   -1.125093    0.639131
 ---------------------------------------------------------------------
 Rotational constants (GHZ):           3.7711847           1.1591805           1.0890482
 Standard basis: 6-31+G (6D, 7F)
 There are   118 symmetry adapted cartesian basis functions of A   symmetry.
 There are   118 symmetry adapted basis functions of A   symmetry.
   118 basis functions,   236 primitive gaussians,   118 cartesian basis functions
    31 alpha electrons       30 beta electrons
       nuclear repulsion energy       355.7265057011 Hartrees.
 NAtoms=   15 NActive=   15 NUniq=   15 SFac= 1.00D+00 NAtFMM=   60 NAOKFM=F Big=F
 Integral buffers will be    131072 words long.
 Raffenetti 2 integral format.
 Two-electron integral symmetry is turned on.
 One-electron integrals computed using PRISM.
 NBasis=   118 RedAO= T EigKep=  1.67D-06  NBF=   118
 NBsUse=   118 1.00D-06 EigRej= -1.00D+00 NBFU=   118
 ExpMin= 4.38D-02 ExpMax= 5.48D+03 ExpMxC= 8.25D+02 IAcc=3 IRadAn=         5 AccDes= 0.00D+00
 Harris functional with IExCor= 1009 and IRadAn=       5 diagonalized for initial guess.
 HarFok:  IExCor= 1009 AccDes= 0.00D+00 IRadAn=         5 IDoV= 1 UseB2=F ITyADJ=14
 ICtDFT=  3500011 ScaDFX=  1.000000  1.000000  1.000000  1.000000
 FoFCou: FMM=F IPFlag=           0 FMFlag=      100000 FMFlg1=           0
         NFxFlg=           0 DoJE=T BraDBF=F KetDBF=T FulRan=T
         wScrn=  0.000000 ICntrl=       500 IOpCl=  0 I1Cent=   200000004 NGrid=           0
         NMat0=    1 NMatS0=      1 NMatT0=    0 NMatD0=    1 NMtDS0=    0 NMtDT0=    0
 Petite list used in FoFCou.
 Initial guess <Sx>= 0.0000 <Sy>= 0.0000 <Sz>= 0.5000 <S**2>= 0.7500 S= 0.5000
 Requested convergence on RMS density matrix=1.00D-08 within 128 cycles.
 Requested convergence on MAX density matrix=1.00D-06.
 Requested convergence on             energy=1.00D-06.
 No special actions if energy rises.
 Restarting incremental Fock formation.
 SCF Done:  E(UM062X) =  -419.960439160     A.U. after   24 cycles
            NFock= 24  Conv=0.42D-08     -V/T= 2.0050
 <Sx>= 0.0000 <Sy>= 0.0000 <Sz>= 0.5000 <S**2>= 0.7557 S= 0.5028
 <L.S>=  0.00000000000    
 Annihilation of the first spin contaminant:
 S**2 before annihilation     0.7557,   after     0.7500
 DoSCS=F DFT=T ScalE2(SS,OS)=  1.000000  1.000000
 Range of M.O.s used for correlation:     1   118
 NBasis=   118 NAE=    31 NBE=    30 NFC=     0 NFV=     0
 NROrb=    118 NOA=    31 NOB=    30 NVA=    87 NVB=    88

 **** Warning!!: The largest alpha MO coefficient is  0.16765488D+03


 **** Warning!!: The largest beta MO coefficient is  0.20226405D+03

 Symmetrizing basis deriv contribution to polar:
 IMax=3 JMax=2 DiffMx= 0.00D+00
 G2DrvN: will do    16 centers at a time, making    1 passes.
 Calling FoFCou, ICntrl=  3107 FMM=F I1Cent=   0 AccDes= 0.00D+00.
 End of G2Drv F.D. properties file   721 does not exist.
 End of G2Drv F.D. properties file   722 does not exist.
 End of G2Drv F.D. properties file   788 does not exist.
          IDoAtm=111111111111111
          Differentiating once with respect to electric field.
                with respect to dipole field.
          Differentiating once with respect to nuclear coordinates.
 Keep R1 and R2 ints in memory in canonical form, NReq=71861356.
          There are    48 degrees of freedom in the 1st order CPHF.  IDoFFX=6 NUNeed=     3.
     45 vectors produced by pass  0 Test12= 1.11D-14 2.08D-09 XBig12= 7.88D+01 3.99D+00.
 AX will form    45 AO Fock derivatives at one time.
     45 vectors produced by pass  1 Test12= 1.11D-14 2.08D-09 XBig12= 1.45D+01 7.35D-01.
     45 vectors produced by pass  2 Test12= 1.11D-14 2.08D-09 XBig12= 4.09D-01 1.29D-01.
     45 vectors produced by pass  3 Test12= 1.11D-14 2.08D-09 XBig12= 2.30D-03 7.12D-03.
     45 vectors produced by pass  4 Test12= 1.11D-14 2.08D-09 XBig12= 1.60D-05 6.44D-04.
     45 vectors produced by pass  5 Test12= 1.11D-14 2.08D-09 XBig12= 1.55D-07 5.02D-05.
     32 vectors produced by pass  6 Test12= 1.11D-14 2.08D-09 XBig12= 1.11D-09 3.72D-06.
     12 vectors produced by pass  7 Test12= 1.11D-14 2.08D-09 XBig12= 7.53D-12 2.33D-07.
      3 vectors produced by pass  8 Test12= 1.11D-14 2.08D-09 XBig12= 5.39D-14 2.40D-08.
      2 vectors produced by pass  9 Test12= 1.11D-14 2.08D-09 XBig12= 5.23D-15 1.64D-08.
 InvSVY:  IOpt=1 It=  1 EMax= 5.33D-15
 Solved reduced A of dimension   319 with    48 vectors.
 Isotropic polarizability for W=    0.000000       67.37 Bohr**3.
 End of Minotr F.D. properties file   721 does not exist.
 End of Minotr F.D. properties file   722 does not exist.
 End of Minotr F.D. properties file   788 does not exist.

 **********************************************************************

            Population analysis using the SCF density.

 **********************************************************************

 Orbital symmetries:
 Alpha Orbitals:
       Occupied  (A) (A) (A) (A) (A) (A) (A) (A) (A) (A) (A) (A)
                 (A) (A) (A) (A) (A) (A) (A) (A) (A) (A) (A) (A)
                 (A) (A) (A) (A) (A) (A) (A)
       Virtual   (A) (A) (A) (A) (A) (A) (A) (A) (A) (A) (A) (A)
                 (A) (A) (A) (A) (A) (A) (A) (A) (A) (A) (A) (A)
                 (A) (A) (A) (A) (A) (A) (A) (A) (A) (A) (A) (A)
                 (A) (A) (A) (A) (A) (A) (A) (A) (A) (A) (A) (A)
                 (A) (A) (A) (A) (A) (A) (A) (A) (A) (A) (A) (A)
                 (A) (A) (A) (A) (A) (A) (A) (A) (A) (A) (A) (A)
                 (A) (A) (A) (A) (A) (A) (A) (A) (A) (A) (A) (A)
                 (A) (A) (A)
 Beta  Orbitals:
       Occupied  (A) (A) (A) (A) (A) (A) (A) (A) (A) (A) (A) (A)
                 (A) (A) (A) (A) (A) (A) (A) (A) (A) (A) (A) (A)
                 (A) (A) (A) (A) (A) (A)
       Virtual   (A) (A) (A) (A) (A) (A) (A) (A) (A) (A) (A) (A)
                 (A) (A) (A) (A) (A) (A) (A) (A) (A) (A) (A) (A)
                 (A) (A) (A) (A) (A) (A) (A) (A) (A) (A) (A) (A)
                 (A) (A) (A) (A) (A) (A) (A) (A) (A) (A) (A) (A)
                 (A) (A) (A) (A) (A) (A) (A) (A) (A) (A) (A) (A)
                 (A) (A) (A) (A) (A) (A) (A) (A) (A) (A) (A) (A)
                 (A) (A) (A) (A) (A) (A) (A) (A) (A) (A) (A) (A)
                 (A) (A) (A) (A)
 The electronic state is 2-A.
 Alpha  occ. eigenvalues --  -19.70353 -19.70288 -19.66075 -10.72898 -10.61322
 Alpha  occ. eigenvalues --  -10.59375 -10.59040 -10.54517  -1.27828  -1.18464
 Alpha  occ. eigenvalues --   -1.14572  -0.91253  -0.87886  -0.78530  -0.71099
 Alpha  occ. eigenvalues --   -0.64468  -0.61906  -0.58469  -0.56775  -0.54894
 Alpha  occ. eigenvalues --   -0.53839  -0.50639  -0.48554  -0.46711  -0.45226
 Alpha  occ. eigenvalues --   -0.42605  -0.41707  -0.39527  -0.37999  -0.36745
 Alpha  occ. eigenvalues --   -0.36397
 Alpha virt. eigenvalues --   -0.01277   0.02006   0.02525   0.03644   0.03860
 Alpha virt. eigenvalues --    0.04577   0.05354   0.05918   0.07945   0.08228
 Alpha virt. eigenvalues --    0.08359   0.09018   0.09636   0.11640   0.12260
 Alpha virt. eigenvalues --    0.13039   0.14939   0.15255   0.16340   0.17179
 Alpha virt. eigenvalues --    0.17526   0.19177   0.19862   0.20157   0.20638
 Alpha virt. eigenvalues --    0.22181   0.24257   0.25503   0.25802   0.26900
 Alpha virt. eigenvalues --    0.28706   0.29138   0.29676   0.30691   0.31909
 Alpha virt. eigenvalues --    0.32511   0.33135   0.34817   0.35833   0.37085
 Alpha virt. eigenvalues --    0.37922   0.38820   0.40753   0.43338   0.44221
 Alpha virt. eigenvalues --    0.47661   0.58473   0.60481   0.70030   0.70498
 Alpha virt. eigenvalues --    0.71829   0.72503   0.75046   0.76146   0.77703
 Alpha virt. eigenvalues --    0.80587   0.83543   0.86640   0.88130   0.92314
 Alpha virt. eigenvalues --    0.95982   0.97015   0.99797   1.08527   1.09855
 Alpha virt. eigenvalues --    1.11270   1.13010   1.14351   1.17719   1.20136
 Alpha virt. eigenvalues --    1.22903   1.24263   1.25545   1.29160   1.31082
 Alpha virt. eigenvalues --    1.35598   1.39491   1.39833   1.45008   1.46461
 Alpha virt. eigenvalues --    1.48021   1.59962   1.70452   1.72886   1.84552
 Alpha virt. eigenvalues --    2.02595   2.05595
  Beta  occ. eigenvalues --  -19.70357 -19.68637 -19.66086 -10.72887 -10.61322
  Beta  occ. eigenvalues --  -10.59357 -10.58965 -10.54517  -1.27836  -1.18484
  Beta  occ. eigenvalues --   -1.07196  -0.91048  -0.87714  -0.78461  -0.71021
  Beta  occ. eigenvalues --   -0.64447  -0.61697  -0.58359  -0.56666  -0.53825
  Beta  occ. eigenvalues --   -0.51695  -0.49356  -0.46833  -0.45229  -0.41885
  Beta  occ. eigenvalues --   -0.39459  -0.38967  -0.38329  -0.37982  -0.36479
  Beta virt. eigenvalues --   -0.08989  -0.00880   0.02067   0.02563   0.03807
  Beta virt. eigenvalues --    0.03887   0.04664   0.05369   0.06064   0.08087
  Beta virt. eigenvalues --    0.08247   0.08381   0.09161   0.09658   0.11660
  Beta virt. eigenvalues --    0.12341   0.13201   0.14973   0.15354   0.16499
  Beta virt. eigenvalues --    0.17304   0.17831   0.19340   0.19792   0.20166
  Beta virt. eigenvalues --    0.20832   0.22308   0.24294   0.25617   0.25898
  Beta virt. eigenvalues --    0.27072   0.29027   0.29172   0.29767   0.30685
  Beta virt. eigenvalues --    0.31930   0.32564   0.33159   0.34848   0.35836
  Beta virt. eigenvalues --    0.37088   0.37644   0.38861   0.40960   0.43410
  Beta virt. eigenvalues --    0.44286   0.47711   0.58463   0.60557   0.70038
  Beta virt. eigenvalues --    0.70564   0.72017   0.72808   0.75474   0.76208
  Beta virt. eigenvalues --    0.77756   0.80620   0.83913   0.86581   0.88203
  Beta virt. eigenvalues --    0.92326   0.96338   0.97263   1.00141   1.08514
  Beta virt. eigenvalues --    1.09886   1.11284   1.14140   1.15643   1.18486
  Beta virt. eigenvalues --    1.20329   1.24099   1.25242   1.26553   1.29723
  Beta virt. eigenvalues --    1.31487   1.36997   1.39931   1.41067   1.45198
  Beta virt. eigenvalues --    1.46841   1.48027   1.60349   1.70770   1.73638
  Beta virt. eigenvalues --    1.85803   2.02746   2.05572
          Condensed to atoms (all electrons):
               1          2          3          4          5          6
     1  O    8.284851   0.138292   0.014338   0.000733   0.452914  -0.465334
     2  H    0.138292   0.449023   0.079707  -0.000008  -0.051994  -0.014592
     3  C    0.014338   0.079707  49.051421   0.533483 -13.204570 -28.791694
     4  H    0.000733  -0.000008   0.533483   0.338992  -0.168690  -0.047517
     5  C    0.452914  -0.051994 -13.204570  -0.168690  27.193585  -6.110908
     6  C   -0.465334  -0.014592 -28.791694  -0.047517  -6.110908  38.756460
     7  O   -0.013407  -0.001268   0.111895  -0.000220   0.287126  -0.234446
     8  O   -0.013286   0.000094  -0.805247  -0.000287  -1.226339   1.424978
     9  C   -0.005135  -0.000573  -0.612513   0.000004  -0.919315   1.174865
    10  C    0.004265  -0.000034   0.017197  -0.000131  -0.122106  -0.067909
    11  H   -0.000014  -0.000001   0.005428   0.000000   0.010229   0.000997
    12  H   -0.000202   0.000001   0.013785  -0.000000   0.055337  -0.064452
    13  H    0.000003  -0.000000   0.000311   0.000000   0.004946   0.002761
    14  H    0.000004   0.000000  -0.000349  -0.000000   0.003205   0.004327
    15  H    0.000016  -0.000000   0.002474   0.000000  -0.003967  -0.002131
               7          8          9         10         11         12
     1  O   -0.013407  -0.013286  -0.005135   0.004265  -0.000014  -0.000202
     2  H   -0.001268   0.000094  -0.000573  -0.000034  -0.000001   0.000001
     3  C    0.111895  -0.805247  -0.612513   0.017197   0.005428   0.013785
     4  H   -0.000220  -0.000287   0.000004  -0.000131   0.000000  -0.000000
     5  C    0.287126  -1.226339  -0.919315  -0.122106   0.010229   0.055337
     6  C   -0.234446   1.424978   1.174865  -0.067909   0.000997  -0.064452
     7  O    8.478293  -0.242371  -0.010209  -0.050016  -0.001004   0.002302
     8  O   -0.242371   9.054240   0.055917   0.026696  -0.068820  -0.030681
     9  C   -0.010209   0.055917   5.972224  -0.091264   0.422435   0.409124
    10  C   -0.050016   0.026696  -0.091264   5.780760  -0.056665  -0.073566
    11  H   -0.001004  -0.068820   0.422435  -0.056665   0.498560  -0.031343
    12  H    0.002302  -0.030681   0.409124  -0.073566  -0.031343   0.485581
    13  H   -0.000372   0.007671  -0.076759   0.403514  -0.000736  -0.000703
    14  H   -0.000213  -0.002087  -0.054776   0.393221  -0.004483   0.003728
    15  H    0.001570  -0.008450  -0.047295   0.404856   0.003577  -0.004610
              13         14         15
     1  O    0.000003   0.000004   0.000016
     2  H   -0.000000   0.000000  -0.000000
     3  C    0.000311  -0.000349   0.002474
     4  H    0.000000  -0.000000   0.000000
     5  C    0.004946   0.003205  -0.003967
     6  C    0.002761   0.004327  -0.002131
     7  O   -0.000372  -0.000213   0.001570
     8  O    0.007671  -0.002087  -0.008450
     9  C   -0.076759  -0.054776  -0.047295
    10  C    0.403514   0.393221   0.404856
    11  H   -0.000736  -0.004483   0.003577
    12  H   -0.000703   0.003728  -0.004610
    13  H    0.500177  -0.025457  -0.023189
    14  H   -0.025457   0.490404  -0.027425
    15  H   -0.023189  -0.027425   0.471044
          Atomic-Atomic Spin Densities.
               1          2          3          4          5          6
     1  O    1.017745   0.001377  -0.082528  -0.000385  -0.023392   0.038554
     2  H    0.001377  -0.036444  -0.000288   0.000015  -0.002343   0.002026
     3  C   -0.082528  -0.000288  -0.940731  -0.002876   0.266148   0.821104
     4  H   -0.000385   0.000015  -0.002876  -0.003528   0.001721   0.000176
     5  C   -0.023392  -0.002343   0.266148   0.001721  -0.481258   0.206340
     6  C    0.038554   0.002026   0.821104   0.000176   0.206340  -1.003289
     7  O    0.001403   0.000127   0.005789   0.000000   0.002054  -0.007904
     8  O   -0.000154   0.000109   0.014287   0.000005   0.005208  -0.014245
     9  C   -0.001787   0.000301   0.003075   0.000005   0.005646  -0.011578
    10  C   -0.000679  -0.000005  -0.006203   0.000004  -0.009493   0.016915
    11  H   -0.000000   0.000000   0.000070  -0.000000   0.000254  -0.000468
    12  H   -0.000011  -0.000000  -0.000082   0.000000  -0.000591   0.000765
    13  H   -0.000001   0.000000  -0.000034   0.000000  -0.000195   0.000146
    14  H   -0.000000  -0.000000  -0.000051  -0.000000  -0.000128   0.000157
    15  H   -0.000001   0.000000  -0.000025  -0.000000  -0.000177   0.000143
               7          8          9         10         11         12
     1  O    0.001403  -0.000154  -0.001787  -0.000679  -0.000000  -0.000011
     2  H    0.000127   0.000109   0.000301  -0.000005   0.000000  -0.000000
     3  C    0.005789   0.014287   0.003075  -0.006203   0.000070  -0.000082
     4  H    0.000000   0.000005   0.000005   0.000004  -0.000000   0.000000
     5  C    0.002054   0.005208   0.005646  -0.009493   0.000254  -0.000591
     6  C   -0.007904  -0.014245  -0.011578   0.016915  -0.000468   0.000765
     7  O   -0.006948  -0.000348   0.000723   0.000046   0.000015   0.000001
     8  O   -0.000348  -0.004170   0.000012  -0.000652   0.000043  -0.000082
     9  C    0.000723   0.000012   0.000813   0.001775  -0.000008   0.000134
    10  C    0.000046  -0.000652   0.001775  -0.002235   0.000091  -0.000158
    11  H    0.000015   0.000043  -0.000008   0.000091  -0.000026   0.000001
    12  H    0.000001  -0.000082   0.000134  -0.000158   0.000001  -0.000053
    13  H    0.000003  -0.000055   0.000067   0.000086   0.000002   0.000002
    14  H   -0.000002  -0.000012   0.000107  -0.000062  -0.000003  -0.000001
    15  H   -0.000021  -0.000007   0.000077   0.000014  -0.000000  -0.000003
              13         14         15
     1  O   -0.000001  -0.000000  -0.000001
     2  H    0.000000  -0.000000   0.000000
     3  C   -0.000034  -0.000051  -0.000025
     4  H    0.000000  -0.000000  -0.000000
     5  C   -0.000195  -0.000128  -0.000177
     6  C    0.000146   0.000157   0.000143
     7  O    0.000003  -0.000002  -0.000021
     8  O   -0.000055  -0.000012  -0.000007
     9  C    0.000067   0.000107   0.000077
    10  C    0.000086  -0.000062   0.000014
    11  H    0.000002  -0.000003  -0.000000
    12  H    0.000002  -0.000001  -0.000003
    13  H   -0.000014  -0.000007  -0.000012
    14  H   -0.000007   0.000004  -0.000005
    15  H   -0.000012  -0.000005   0.000015
 Mulliken charges and spin densities:
               1          2
     1  O   -0.398038   0.950142
     2  H    0.401353  -0.035126
     3  C   -0.415666   0.077655
     4  H    0.343640  -0.004863
     5  C   -0.199452  -0.030205
     6  C    0.434596   0.048842
     7  O   -0.327662  -0.005063
     8  O   -0.172027  -0.000062
     9  C   -0.216729  -0.000637
    10  C   -0.568818  -0.000556
    11  H    0.221840  -0.000032
    12  H    0.235699  -0.000078
    13  H    0.207834  -0.000012
    14  H    0.219901  -0.000003
    15  H    0.233530  -0.000003
 Sum of Mulliken charges =  -0.00000   1.00000
 Mulliken charges and spin densities with hydrogens summed into heavy atoms:
               1          2
     1  O    0.003314   0.915016
     3  C   -0.072026   0.072793
     5  C   -0.199452  -0.030205
     6  C    0.434596   0.048842
     7  O   -0.327662  -0.005063
     8  O   -0.172027  -0.000062
     9  C    0.240810  -0.000747
    10  C    0.092447  -0.000574
 APT charges:
               1
     1  O   -0.234298
     2  H    0.270931
     3  C   -0.250498
     4  H    0.255269
     5  C   -0.306333
     6  C    1.440825
     7  O   -0.754431
     8  O   -0.933175
     9  C    0.501308
    10  C   -0.054363
    11  H   -0.002201
    12  H   -0.002552
    13  H    0.014795
    14  H    0.017958
    15  H    0.036766
 Sum of APT charges =  -0.00000
 APT charges with hydrogens summed into heavy atoms:
               1
     1  O    0.036632
     3  C    0.004771
     5  C   -0.306333
     6  C    1.440825
     7  O   -0.754431
     8  O   -0.933175
     9  C    0.496556
    10  C    0.015156
 Electronic spatial extent (au):  <R**2>=           1149.5902
 Charge=              0.0000 electrons
 Dipole moment (field-independent basis, Debye):
    X=              0.4194    Y=             -0.6586    Z=             -0.4063  Tot=              0.8802
 Quadrupole moment (field-independent basis, Debye-Ang):
   XX=            -30.9594   YY=            -46.9733   ZZ=            -53.3200
   XY=             -5.0688   XZ=              3.2423   YZ=              4.2452
 Traceless Quadrupole moment (field-independent basis, Debye-Ang):
   XX=             12.7915   YY=             -3.2224   ZZ=             -9.5691
   XY=             -5.0688   XZ=              3.2423   YZ=              4.2452
 Octapole moment (field-independent basis, Debye-Ang**2):
  XXX=             32.3321  YYY=              5.4486  ZZZ=             -4.5000  XYY=              2.9750
  XXY=             -5.4206  XXZ=              3.3065  XZZ=              2.8547  YZZ=              4.7961
  YYZ=              1.6618  XYZ=             11.8172
 Hexadecapole moment (field-independent basis, Debye-Ang**3):
 XXXX=           -894.2203 YYYY=           -256.8885 ZZZZ=           -189.2866 XXXY=            -36.9513
 XXXZ=              9.2503 YYYX=             -0.5023 YYYZ=              6.2926 ZZZX=              7.8008
 ZZZY=              2.5391 XXYY=           -193.8634 XXZZ=           -199.7880 YYZZ=            -68.4894
 XXYZ=             34.5133 YYXZ=              3.0277 ZZXY=              2.8304
 N-N= 3.557265057011D+02 E-N=-1.694299773155D+03  KE= 4.178844641212D+02
  Exact polarizability:  82.308  -9.329  61.877  -3.808   2.401  57.927
 Approx polarizability:  83.740 -15.000  64.226  -8.485   1.996  73.451
                          Isotropic Fermi Contact Couplings
        Atom                 a.u.       MegaHertz       Gauss      10(-4) cm-1
     1  O(17)              0.13505     -81.86899     -29.21289     -27.30855
     2  H(1)              -0.01607     -71.84836     -25.63728     -23.96603
     3  C(13)              0.01573      17.68437       6.31022       5.89887
     4  H(1)              -0.00194      -8.69239      -3.10166      -2.89947
     5  C(13)              0.00818       9.19350       3.28047       3.06662
     6  C(13)              0.00476       5.34564       1.90746       1.78311
     7  O(17)             -0.00154       0.93190       0.33252       0.31085
     8  O(17)             -0.00084       0.51051       0.18216       0.17029
     9  C(13)              0.00001       0.00718       0.00256       0.00240
    10  C(13)             -0.00011      -0.12573      -0.04486      -0.04194
    11  H(1)              -0.00000      -0.01720      -0.00614      -0.00574
    12  H(1)              -0.00003      -0.11732      -0.04186      -0.03913
    13  H(1)              -0.00000      -0.00491      -0.00175      -0.00164
    14  H(1)               0.00000       0.00380       0.00135       0.00127
    15  H(1)               0.00000       0.01397       0.00499       0.00466
 --------------------------------------------------------
       Center         ----  Spin Dipole Couplings  ----
                      3XX-RR        3YY-RR        3ZZ-RR
 --------------------------------------------------------
     1   Atom       -1.614534      3.087466     -1.472932
     2   Atom       -0.008403     -0.041758      0.050160
     3   Atom       -0.052672      0.110956     -0.058285
     4   Atom        0.004218      0.005014     -0.009232
     5   Atom        0.007267      0.023307     -0.030573
     6   Atom        0.012076     -0.000929     -0.011148
     7   Atom        0.017993     -0.025750      0.007756
     8   Atom        0.008611     -0.007801     -0.000811
     9   Atom        0.003523     -0.001632     -0.001890
    10   Atom        0.001384     -0.000544     -0.000839
    11   Atom        0.002613     -0.001372     -0.001241
    12   Atom        0.003577     -0.001793     -0.001784
    13   Atom        0.001023     -0.000454     -0.000569
    14   Atom        0.001076     -0.000366     -0.000710
    15   Atom        0.001171     -0.000339     -0.000832
 --------------------------------------------------------
                        XY            XZ            YZ
 --------------------------------------------------------
     1   Atom        0.524931      0.105523      0.998301
     2   Atom       -0.031939      0.138106     -0.033871
     3   Atom        0.056886      0.006768      0.007423
     4   Atom       -0.008199     -0.005829      0.004774
     5   Atom        0.013403     -0.008879      0.006672
     6   Atom        0.012255     -0.005279     -0.001932
     7   Atom       -0.002198     -0.004546     -0.008859
     8   Atom        0.001202      0.002984      0.000798
     9   Atom        0.000696      0.000189      0.000064
    10   Atom        0.000668      0.000001      0.000010
    11   Atom        0.000026      0.000946      0.000024
    12   Atom        0.000221     -0.000956      0.000017
    13   Atom        0.000363     -0.000039     -0.000002
    14   Atom        0.000749      0.000339      0.000150
    15   Atom        0.000938     -0.000368     -0.000130
 --------------------------------------------------------


 ---------------------------------------------------------------------------------
              Anisotropic Spin Dipole Couplings in Principal Axis System
 ---------------------------------------------------------------------------------

       Atom             a.u.   MegaHertz   Gauss  10(-4) cm-1        Axes

              Baa    -1.6835   121.816    43.467    40.633  0.3502 -0.2286  0.9084
     1 O(17)  Bbb    -1.6706   120.886    43.135    40.323  0.9305 -0.0260 -0.3653
              Bcc     3.3541  -242.702   -86.602   -80.957  0.1071  0.9732  0.2036
 
              Baa    -0.1205   -64.277   -22.936   -21.440  0.7811  0.0491 -0.6225
     2 H(1)   Bbb    -0.0517   -27.565    -9.836    -9.195  0.0949  0.9760  0.1960
              Bcc     0.1721    91.842    32.772    30.635  0.6172 -0.2121  0.7577
 
              Baa    -0.0719    -9.644    -3.441    -3.217  0.9124 -0.2715 -0.3063
     3 C(13)  Bbb    -0.0574    -7.698    -2.747    -2.568  0.2786 -0.1361  0.9507
              Bcc     0.1292    17.342     6.188     5.785  0.2998  0.9528  0.0485
 
              Baa    -0.0116    -6.203    -2.213    -2.069  0.2800 -0.1348  0.9505
     4 H(1)   Bbb    -0.0035    -1.867    -0.666    -0.623  0.6878  0.7189 -0.1007
              Bcc     0.0151     8.069     2.879     2.692 -0.6697  0.6819  0.2940
 
              Baa    -0.0342    -4.588    -1.637    -1.530  0.2588 -0.1707  0.9507
     5 C(13)  Bbb     0.0032     0.436     0.155     0.145  0.8351 -0.4552 -0.3090
              Bcc     0.0309     4.152     1.482     1.385  0.4855  0.8739  0.0247
 
              Baa    -0.0124    -1.662    -0.593    -0.554  0.2701 -0.1280  0.9543
     6 C(13)  Bbb    -0.0080    -1.078    -0.385    -0.359 -0.4572  0.8552  0.2441
              Bcc     0.0204     2.739     0.977     0.914  0.8474  0.5022 -0.1725
 
              Baa    -0.0282     2.039     0.727     0.680  0.0703  0.9664  0.2472
     7 O(17)  Bbb     0.0084    -0.610    -0.218    -0.203  0.3664 -0.2555  0.8947
              Bcc     0.0198    -1.429    -0.510    -0.477  0.9278  0.0276 -0.3720
 
              Baa    -0.0079     0.574     0.205     0.192 -0.0564  0.9946 -0.0877
     8 O(17)  Bbb    -0.0016     0.119     0.043     0.040 -0.2860  0.0680  0.9558
              Bcc     0.0096    -0.694    -0.248    -0.231  0.9566  0.0790  0.2806
 
              Baa    -0.0019    -0.256    -0.091    -0.085 -0.0067 -0.2129  0.9770
     9 C(13)  Bbb    -0.0017    -0.230    -0.082    -0.077 -0.1361  0.9682  0.2101
              Bcc     0.0036     0.486     0.173     0.162  0.9907  0.1316  0.0354
 
              Baa    -0.0008    -0.113    -0.040    -0.038  0.0280 -0.0952  0.9951
    10 C(13)  Bbb    -0.0008    -0.101    -0.036    -0.034 -0.2970  0.9497  0.0992
              Bcc     0.0016     0.214     0.076     0.071  0.9545  0.2983  0.0017
 
              Baa    -0.0015    -0.781    -0.279    -0.261 -0.2206 -0.1907  0.9565
    11 H(1)   Bbb    -0.0014    -0.731    -0.261    -0.244 -0.0502  0.9816  0.1841
              Bcc     0.0028     1.512     0.539     0.504  0.9741  0.0074  0.2261
 
              Baa    -0.0020    -1.049    -0.374    -0.350  0.1735 -0.3119  0.9342
    12 H(1)   Bbb    -0.0018    -0.952    -0.340    -0.318  0.0167  0.9493  0.3138
              Bcc     0.0038     2.001     0.714     0.668  0.9847  0.0388 -0.1699
 
              Baa    -0.0006    -0.305    -0.109    -0.102  0.0691 -0.2000  0.9774
    13 H(1)   Bbb    -0.0005    -0.286    -0.102    -0.096 -0.2166  0.9533  0.2104
              Bcc     0.0011     0.591     0.211     0.197  0.9738  0.2263 -0.0226
 
              Baa    -0.0008    -0.413    -0.147    -0.138 -0.1320 -0.1189  0.9841
    14 H(1)   Bbb    -0.0007    -0.365    -0.130    -0.122 -0.4001  0.9147  0.0569
              Bcc     0.0015     0.778     0.277     0.259  0.9069  0.3862  0.1684
 
              Baa    -0.0009    -0.484    -0.173    -0.161  0.2704 -0.2321  0.9343
    15 H(1)   Bbb    -0.0008    -0.413    -0.147    -0.138 -0.3610  0.8752  0.3220
              Bcc     0.0017     0.896     0.320     0.299  0.8925  0.4244 -0.1529
 

 ---------------------------------------------------------------------------------

 Calling FoFJK, ICntrl=    100127 FMM=F ISym2X=0 I1Cent= 0 IOpClX= 1 NMat=1 NMatS=1 NMatT=0.
 Full mass-weighted force constant matrix:
 Low frequencies --- -466.6530 -222.8493 -136.8006  -82.3627  -55.5978  -41.0492
 Low frequencies ---   -0.0006    0.0002    0.0010
 ******    4 imaginary frequencies (negative Signs) ****** 
 Diagonal vibrational polarizability:
       78.6203132     120.9291899      50.4456385
 Harmonic frequencies (cm**-1), IR intensities (KM/Mole), Raman scattering
 activities (A**4/AMU), depolarization ratios for plane and unpolarized
 incident light, reduced masses (AMU), force constants (mDyne/A),
 and normal coordinates:
                      1                      2                      3
                      A                      A                      A
 Frequencies --   -465.8946              -212.1925               -85.2663
 Red. masses --      1.0820                 1.5584                 6.9985
 Frc consts  --      0.1384                 0.0413                 0.0300
 IR Inten    --    122.0975               117.7807                 5.0613
  Atom  AN      X      Y      Z        X      Y      Z        X      Y      Z
     1   8    -0.05   0.01   0.04    -0.10  -0.10  -0.07     0.23   0.06  -0.27
     2   1     0.74  -0.12  -0.66     0.14   0.96   0.06     0.08  -0.34  -0.27
     3   6     0.00  -0.01   0.01     0.02   0.01   0.02    -0.06  -0.04   0.16
     4   1    -0.01  -0.04   0.00     0.02   0.01   0.01    -0.09  -0.15   0.23
     5   6     0.01   0.01   0.01     0.03   0.02   0.03    -0.03   0.10   0.06
     6   6     0.00   0.01   0.01     0.02  -0.00   0.01    -0.06   0.06   0.03
     7   8    -0.01  -0.00   0.00    -0.02  -0.06  -0.00    -0.20  -0.28  -0.03
     8   8     0.01   0.00  -0.00     0.03   0.03   0.02     0.04   0.28   0.08
     9   6     0.00  -0.00  -0.01     0.03   0.02   0.02    -0.07   0.02   0.04
    10   6     0.00   0.00  -0.01     0.01   0.03  -0.02     0.12  -0.14  -0.00
    11   1     0.00  -0.00  -0.01     0.03   0.05   0.04    -0.15  -0.02   0.04
    12   1    -0.00   0.00  -0.01     0.02  -0.00   0.04    -0.20   0.02   0.05
    13   1     0.00   0.00  -0.01     0.01   0.04  -0.01     0.05  -0.29  -0.09
    14   1     0.00  -0.00  -0.01     0.01   0.06  -0.04     0.28  -0.16   0.01
    15   1    -0.00   0.00  -0.00     0.00   0.00  -0.04     0.16  -0.07   0.04
                      4                      5                      6
                      A                      A                      A
 Frequencies --    -16.4951                67.3300                95.2788
 Red. masses --      3.1413                 3.4646                 3.2333
 Frc consts  --      0.0005                 0.0093                 0.0173
 IR Inten    --      0.6335                 0.4179                 6.7868
  Atom  AN      X      Y      Z        X      Y      Z        X      Y      Z
     1   8    -0.06   0.07   0.03    -0.03  -0.11   0.17    -0.13   0.06   0.01
     2   1    -0.10  -0.11   0.01     0.04   0.22   0.22    -0.18  -0.11  -0.00
     3   6     0.09   0.07   0.06    -0.10  -0.11  -0.06     0.06  -0.16   0.23
     4   1     0.15   0.15   0.12    -0.16  -0.25  -0.07     0.10  -0.30   0.52
     5   6     0.02  -0.03  -0.01    -0.01   0.05  -0.05     0.01  -0.01  -0.12
     6   6    -0.02  -0.08  -0.06     0.01   0.11  -0.06     0.03   0.02  -0.13
     7   8    -0.10  -0.15  -0.08    -0.01   0.09  -0.06     0.12  -0.02  -0.10
     8   8     0.03  -0.05  -0.08     0.02   0.14  -0.06    -0.04   0.07  -0.05
     9   6     0.06   0.05  -0.10    -0.03  -0.02  -0.08    -0.02   0.03   0.11
    10   6     0.00   0.12   0.23     0.15  -0.14   0.15     0.00   0.00   0.01
    11   1     0.03  -0.12  -0.23    -0.16  -0.19  -0.18    -0.08   0.15   0.23
    12   1     0.13   0.26  -0.23    -0.09   0.14  -0.17     0.06  -0.11   0.19
    13   1     0.02   0.24   0.12     0.09  -0.26   0.06     0.04  -0.04   0.28
    14   1    -0.03  -0.14   0.39     0.25  -0.33   0.26    -0.17   0.22  -0.12
    15   1    -0.04   0.34   0.42     0.24   0.07   0.28     0.15  -0.19  -0.19
                      7                      8                      9
                      A                      A                      A
 Frequencies --    112.3372               187.2994               214.3054
 Red. masses --      4.5535                 1.2650                 3.1667
 Frc consts  --      0.0339                 0.0261                 0.0857
 IR Inten    --      7.9226                 1.8248                 9.0996
  Atom  AN      X      Y      Z        X      Y      Z        X      Y      Z
     1   8     0.27  -0.19   0.06     0.00   0.01  -0.00     0.13   0.21   0.05
     2   1     0.47   0.31   0.05    -0.01  -0.02  -0.00     0.20   0.62   0.12
     3   6     0.10   0.18   0.12    -0.02   0.01  -0.03    -0.10  -0.20  -0.04
     4   1     0.19   0.24   0.27    -0.03   0.04  -0.10    -0.25  -0.47  -0.08
     5   6    -0.01   0.10  -0.07    -0.01  -0.02   0.05     0.08   0.11   0.02
     6   6    -0.05   0.03  -0.10    -0.01  -0.01   0.01     0.04   0.04   0.01
     7   8     0.00   0.03  -0.08    -0.08   0.02  -0.00    -0.01  -0.07  -0.01
     8   8    -0.14  -0.05  -0.07     0.03  -0.01  -0.03    -0.02  -0.10  -0.02
     9   6    -0.11  -0.04   0.04     0.04  -0.00  -0.02    -0.01  -0.06  -0.03
    10   6    -0.13  -0.03   0.07     0.05  -0.01   0.03    -0.11   0.02   0.02
    11   1    -0.16  -0.01   0.08     0.01  -0.01  -0.02     0.02  -0.07  -0.05
    12   1    -0.03  -0.08   0.05     0.06   0.00  -0.03     0.02  -0.03  -0.05
    13   1    -0.08  -0.01   0.28     0.16  -0.04   0.61    -0.06   0.14   0.06
    14   1    -0.31   0.06   0.02    -0.39   0.26  -0.14    -0.22   0.01   0.03
    15   1    -0.01  -0.12  -0.04     0.40  -0.26  -0.30    -0.14   0.00   0.01
                     10                     11                     12
                      A                      A                      A
 Frequencies --    279.7617               319.5908               420.5787
 Red. masses --      3.4914                 3.0658                 3.8466
 Frc consts  --      0.1610                 0.1845                 0.4009
 IR Inten    --     28.2406                15.5796                 2.5674
  Atom  AN      X      Y      Z        X      Y      Z        X      Y      Z
     1   8    -0.10  -0.16  -0.02     0.03   0.05   0.01    -0.01   0.01   0.00
     2   1    -0.26  -0.60  -0.03     0.11   0.27   0.01    -0.02  -0.03   0.00
     3   6    -0.00   0.01  -0.00     0.00   0.01   0.03     0.12  -0.03  -0.05
     4   1    -0.12  -0.22  -0.02     0.10   0.13   0.13     0.15   0.11  -0.15
     5   6     0.14   0.29   0.02    -0.10  -0.12  -0.09     0.08  -0.17   0.06
     6   6     0.08   0.13   0.05    -0.03  -0.05   0.04     0.08   0.02  -0.01
     7   8     0.07  -0.10   0.04     0.18  -0.07   0.10    -0.06   0.07  -0.05
     8   8     0.02  -0.01   0.04    -0.02   0.08   0.10     0.14   0.22   0.02
     9   6    -0.03  -0.04  -0.11    -0.09   0.04  -0.20    -0.03  -0.16   0.01
    10   6    -0.10   0.03  -0.01    -0.02  -0.00  -0.02    -0.24  -0.05   0.03
    11   1     0.03  -0.13  -0.21    -0.03  -0.21  -0.43    -0.09  -0.17   0.01
    12   1    -0.10   0.09  -0.18    -0.29   0.31  -0.35    -0.15  -0.15   0.01
    13   1    -0.02   0.15   0.19     0.01  -0.04   0.26    -0.11   0.34   0.03
    14   1    -0.34   0.06  -0.02    -0.24   0.01  -0.02    -0.49  -0.09   0.06
    15   1    -0.03  -0.02  -0.08     0.21   0.00  -0.10    -0.48  -0.10   0.08
                     13                     14                     15
                      A                      A                      A
 Frequencies --    572.6805               624.0443               767.5774
 Red. masses --      4.1844                 5.2147                 3.1050
 Frc consts  --      0.8086                 1.1965                 1.0779
 IR Inten    --      2.4607                12.8448                84.2346
  Atom  AN      X      Y      Z        X      Y      Z        X      Y      Z
     1   8    -0.00   0.00  -0.00    -0.00   0.00   0.00    -0.00   0.00   0.01
     2   1    -0.02  -0.06  -0.00     0.01  -0.03  -0.02     0.00   0.01   0.00
     3   6     0.21  -0.10  -0.08    -0.15   0.06   0.07    -0.02  -0.09   0.02
     4   1     0.11  -0.10  -0.36    -0.27   0.33  -0.61     0.38   0.81  -0.08
     5   6     0.26  -0.08   0.15    -0.05  -0.06   0.41    -0.06  -0.11  -0.06
     6   6     0.02  -0.02  -0.03    -0.04   0.04  -0.12     0.15   0.34   0.06
     7   8    -0.05   0.03  -0.05     0.26  -0.11  -0.05    -0.04  -0.08  -0.01
     8   8    -0.16  -0.02   0.07    -0.02   0.05  -0.19    -0.03  -0.08  -0.00
     9   6    -0.21   0.18   0.01    -0.04   0.01  -0.01    -0.01   0.00  -0.00
    10   6     0.00   0.02  -0.01    -0.01  -0.00   0.01     0.00   0.01  -0.00
    11   1    -0.12   0.05  -0.14    -0.15   0.16   0.14     0.02   0.03   0.01
    12   1    -0.26   0.31  -0.07     0.11  -0.14   0.08     0.02  -0.02   0.01
    13   1    -0.14  -0.42   0.03    -0.02  -0.02   0.01    -0.02  -0.05   0.00
    14   1     0.25   0.07  -0.05    -0.01  -0.05   0.04     0.04  -0.00   0.00
    15   1     0.29   0.06  -0.08     0.01   0.04   0.04     0.06   0.03  -0.01
                     16                     17                     18
                      A                      A                      A
 Frequencies --    789.3852               815.8428               836.3097
 Red. masses --      1.5224                 1.2742                 1.7340
 Frc consts  --      0.5589                 0.4997                 0.7145
 IR Inten    --     55.9776                 3.6689                15.0312
  Atom  AN      X      Y      Z        X      Y      Z        X      Y      Z
     1   8    -0.00  -0.00   0.00     0.00   0.00  -0.00     0.00   0.00  -0.00
     2   1    -0.01  -0.00   0.00    -0.00   0.00   0.00     0.02  -0.01  -0.02
     3   6    -0.01   0.07  -0.14     0.04  -0.02   0.01    -0.08  -0.13  -0.07
     4   1     0.13  -0.38   0.87    -0.00  -0.01  -0.15     0.50   0.72   0.41
     5   6    -0.00  -0.07   0.09     0.02   0.01  -0.05     0.07   0.11   0.04
     6   6     0.02   0.07   0.01    -0.03  -0.01   0.04    -0.05  -0.12  -0.02
     7   8     0.01  -0.03   0.01    -0.01  -0.00   0.06     0.01   0.03   0.01
     8   8    -0.00  -0.01  -0.03     0.01   0.01  -0.04     0.01   0.03  -0.01
     9   6    -0.02   0.01  -0.01    -0.03   0.02  -0.08    -0.01   0.01  -0.00
    10   6    -0.01  -0.00  -0.00    -0.02  -0.00  -0.03    -0.00  -0.00   0.00
    11   1    -0.01   0.10   0.06     0.07   0.46   0.25    -0.01   0.02   0.01
    12   1     0.02  -0.08   0.04    -0.00  -0.46   0.22    -0.01  -0.02   0.01
    13   1    -0.02  -0.05   0.03     0.00  -0.06   0.17    -0.00  -0.00   0.01
    14   1    -0.01  -0.06   0.03    -0.17  -0.35   0.20    -0.01  -0.02   0.01
    15   1     0.06   0.06   0.02     0.26   0.34   0.14     0.00   0.01   0.01
                     19                     20                     21
                      A                      A                      A
 Frequencies --    898.6048               944.6237              1110.3046
 Red. masses --      3.3938                 2.5353                 4.1539
 Frc consts  --      1.6146                 1.3329                 3.0171
 IR Inten    --     20.6359                 6.0289                 7.2230
  Atom  AN      X      Y      Z        X      Y      Z        X      Y      Z
     1   8    -0.00  -0.00   0.00     0.00   0.00  -0.00     0.00   0.00   0.00
     2   1     0.01  -0.01  -0.01    -0.00   0.01   0.00     0.00   0.01   0.00
     3   6    -0.07   0.03   0.01     0.09  -0.04  -0.04     0.06  -0.03  -0.03
     4   1    -0.06   0.05   0.06     0.10  -0.05  -0.03     0.07  -0.03  -0.03
     5   6    -0.03  -0.00   0.08     0.06  -0.02   0.00     0.04  -0.01   0.02
     6   6     0.08  -0.01  -0.12    -0.13   0.06   0.03    -0.14   0.08  -0.03
     7   8     0.01   0.03  -0.19     0.00  -0.02   0.09     0.01  -0.01   0.01
     8   8    -0.10  -0.02   0.26    -0.15   0.05  -0.06    -0.17   0.05   0.06
     9   6     0.05  -0.09  -0.04     0.00  -0.12  -0.02     0.34   0.16  -0.07
    10   6     0.10   0.04  -0.07     0.19   0.06  -0.01    -0.10  -0.22   0.02
    11   1     0.31   0.06  -0.00    -0.33  -0.16   0.07     0.35   0.24  -0.02
    12   1    -0.31  -0.26   0.10    -0.06  -0.13  -0.01     0.45   0.18  -0.08
    13   1     0.24   0.34   0.15     0.38   0.67  -0.10    -0.05  -0.05  -0.01
    14   1    -0.27  -0.30   0.16    -0.14   0.12  -0.04    -0.24  -0.24   0.02
    15   1     0.16   0.33   0.14    -0.25  -0.05   0.04    -0.29  -0.31   0.03
                     22                     23                     24
                      A                      A                      A
 Frequencies --   1157.5582              1227.4732              1328.8504
 Red. masses --      2.1066                 1.7608                 1.7758
 Frc consts  --      1.6631                 1.5631                 1.8476
 IR Inten    --     18.7913                 4.0966               282.6989
  Atom  AN      X      Y      Z        X      Y      Z        X      Y      Z
     1   8    -0.00  -0.00  -0.00     0.00   0.00  -0.00     0.00   0.00   0.00
     2   1    -0.00   0.00   0.00     0.00   0.00   0.00     0.00   0.01  -0.00
     3   6    -0.02   0.01   0.01     0.02  -0.01  -0.01     0.03  -0.02  -0.01
     4   1    -0.03   0.01   0.01     0.02  -0.01  -0.01     0.04  -0.02  -0.02
     5   6    -0.01   0.01  -0.01     0.01  -0.00  -0.00     0.01  -0.00   0.00
     6   6     0.06  -0.02   0.01    -0.07   0.03  -0.01    -0.18   0.09  -0.05
     7   8    -0.00   0.00  -0.01     0.00  -0.01   0.03     0.02  -0.01  -0.01
     8   8     0.06  -0.07  -0.03    -0.01   0.01  -0.07     0.09  -0.04   0.01
     9   6    -0.09   0.20   0.06     0.05  -0.04   0.18    -0.07  -0.01   0.01
    10   6     0.07  -0.15  -0.04    -0.03   0.02  -0.13     0.02  -0.01   0.07
    11   1    -0.11   0.08  -0.03     0.28  -0.40  -0.19     0.77   0.14  -0.16
    12   1    -0.27   0.22   0.07    -0.18   0.38  -0.07    -0.39  -0.16   0.12
    13   1     0.28   0.49   0.01     0.01  -0.08   0.26     0.00   0.03  -0.09
    14   1    -0.47  -0.23   0.03    -0.12  -0.38   0.14     0.06   0.21  -0.06
    15   1    -0.36  -0.08   0.16     0.25   0.40   0.08    -0.10  -0.16  -0.01
                     25                     26                     27
                      A                      A                      A
 Frequencies --   1372.8646              1442.1833              1454.7367
 Red. masses --      1.8976                 1.3998                 1.2668
 Frc consts  --      2.1073                 1.7154                 1.5796
 IR Inten    --    323.2976                46.9430                15.8152
  Atom  AN      X      Y      Z        X      Y      Z        X      Y      Z
     1   8     0.00   0.00   0.00    -0.00  -0.00  -0.00     0.00   0.00   0.00
     2   1     0.00   0.01   0.00    -0.00  -0.00   0.00     0.00   0.00  -0.00
     3   6     0.02  -0.01  -0.01    -0.01   0.01   0.01     0.00  -0.00  -0.00
     4   1     0.03  -0.01  -0.02    -0.02   0.01   0.01     0.01  -0.00  -0.00
     5   6     0.00  -0.00   0.00    -0.00  -0.00  -0.00     0.00   0.00   0.00
     6   6    -0.16   0.08  -0.06     0.09  -0.04   0.02    -0.03   0.01  -0.01
     7   8     0.02  -0.00  -0.03    -0.01   0.00   0.02     0.00  -0.00  -0.00
     8   8     0.11  -0.05   0.11    -0.05   0.05  -0.03     0.02  -0.01   0.01
     9   6    -0.09  -0.00   0.01    -0.10  -0.05   0.01     0.04   0.03  -0.01
    10   6     0.01  -0.01  -0.05     0.00  -0.06  -0.00    -0.10  -0.09   0.01
    11   1    -0.37  -0.07   0.06     0.62   0.20  -0.05    -0.21  -0.08  -0.00
    12   1     0.84   0.10  -0.11     0.54   0.19  -0.17    -0.20  -0.08   0.08
    13   1     0.04   0.04   0.04     0.12   0.27  -0.02     0.13   0.52   0.03
    14   1    -0.09  -0.08   0.00     0.06   0.17  -0.14     0.43   0.27  -0.21
    15   1     0.05   0.16   0.06     0.11   0.15   0.12     0.46   0.26   0.08
                     28                     29                     30
                      A                      A                      A
 Frequencies --   1528.2314              1537.5199              1545.0241
 Red. masses --      1.0421                 1.0706                 1.0731
 Frc consts  --      1.4340                 1.4911                 1.5092
 IR Inten    --     14.3386                 4.5466                21.7050
  Atom  AN      X      Y      Z        X      Y      Z        X      Y      Z
     1   8     0.00  -0.00   0.00     0.00   0.00  -0.00     0.00   0.00  -0.00
     2   1    -0.00   0.00   0.00     0.00   0.00   0.00    -0.00   0.00   0.00
     3   6     0.00  -0.00   0.00     0.00  -0.00  -0.00     0.00  -0.00  -0.00
     4   1    -0.00  -0.00  -0.00     0.00  -0.00  -0.00     0.00  -0.00  -0.00
     5   6    -0.00   0.00   0.00    -0.00   0.00   0.00    -0.00   0.00   0.00
     6   6    -0.00   0.00   0.00    -0.02   0.01   0.00    -0.02   0.01   0.00
     7   8     0.00   0.00  -0.01     0.00   0.00  -0.01     0.00   0.00  -0.01
     8   8     0.00  -0.00   0.00     0.02  -0.01   0.00     0.01  -0.01   0.00
     9   6    -0.01  -0.01  -0.02     0.00  -0.06   0.00     0.03  -0.05  -0.01
    10   6    -0.02   0.01  -0.04    -0.02   0.02   0.02     0.02  -0.03  -0.01
    11   1     0.02   0.11   0.05    -0.05   0.42   0.39    -0.10   0.26   0.28
    12   1    -0.01   0.04  -0.04    -0.18   0.46  -0.29    -0.21   0.27  -0.18
    13   1     0.14   0.07   0.66     0.02   0.19  -0.18    -0.05  -0.28   0.13
    14   1     0.55  -0.15   0.07     0.05  -0.24   0.17    -0.15   0.40  -0.27
    15   1    -0.42  -0.14   0.00     0.24  -0.23  -0.27    -0.22   0.37   0.39
                     31                     32                     33
                      A                      A                      A
 Frequencies --   1906.7386              2310.7359              3107.2785
 Red. masses --     12.2673                 5.6313                 1.0350
 Frc consts  --     26.2773                17.7157                 5.8880
 IR Inten    --    303.5851                59.2630                13.6879
  Atom  AN      X      Y      Z        X      Y      Z        X      Y      Z
     1   8     0.00   0.00  -0.00    -0.00  -0.00  -0.00    -0.00  -0.00   0.00
     2   1    -0.02   0.01   0.02    -0.00   0.00   0.00     0.00   0.00  -0.00
     3   6     0.06  -0.03  -0.02    -0.32   0.16   0.11     0.00  -0.00  -0.00
     4   1     0.09  -0.05  -0.01    -0.65   0.32   0.23    -0.00   0.00   0.00
     5   6    -0.04   0.02  -0.00     0.45  -0.21  -0.16    -0.00   0.00   0.00
     6   6    -0.19  -0.05   0.77    -0.08   0.03   0.04     0.00  -0.00   0.00
     7   8     0.15   0.02  -0.50     0.00   0.00  -0.01     0.00   0.00  -0.00
     8   8    -0.03   0.03  -0.07    -0.00   0.00  -0.00    -0.00   0.00  -0.00
     9   6    -0.02   0.01   0.02     0.00  -0.00   0.00     0.00   0.00   0.00
    10   6     0.01  -0.01  -0.00    -0.00  -0.00  -0.00    -0.04  -0.03   0.00
    11   1     0.12  -0.08  -0.11     0.01  -0.00   0.00     0.00  -0.00   0.01
    12   1     0.12  -0.06   0.07     0.00  -0.00   0.00    -0.00  -0.01  -0.02
    13   1     0.02   0.05  -0.03     0.00  -0.00  -0.00     0.56  -0.21  -0.11
    14   1    -0.03   0.01  -0.01    -0.00   0.00   0.00    -0.00   0.31   0.51
    15   1     0.05   0.03   0.02     0.00   0.00   0.00    -0.15   0.30  -0.39
                     34                     35                     36
                      A                      A                      A
 Frequencies --   3140.0547              3187.2069              3191.0660
 Red. masses --      1.0601                 1.1003                 1.1023
 Frc consts  --      6.1587                 6.5857                 6.6135
 IR Inten    --     18.0252                14.2418                 6.3214
  Atom  AN      X      Y      Z        X      Y      Z        X      Y      Z
     1   8    -0.00   0.00  -0.00     0.00   0.00  -0.00     0.00   0.00  -0.00
     2   1     0.00  -0.00   0.00     0.00  -0.00   0.00    -0.00   0.00  -0.00
     3   6     0.00   0.00   0.00    -0.00   0.00   0.00    -0.00  -0.00  -0.00
     4   1     0.00   0.00  -0.00     0.00  -0.00  -0.00    -0.00   0.00   0.00
     5   6     0.00  -0.00  -0.00     0.00   0.00  -0.00     0.00   0.00  -0.00
     6   6    -0.00   0.00  -0.00    -0.00   0.00  -0.00    -0.00   0.00   0.00
     7   8    -0.00   0.00   0.00     0.00  -0.00   0.00     0.00  -0.00  -0.00
     8   8     0.00  -0.00   0.00    -0.00   0.00   0.00     0.00  -0.00   0.00
     9   6     0.01  -0.06  -0.02     0.01  -0.02   0.03     0.01  -0.00   0.05
    10   6    -0.01   0.01   0.00     0.04  -0.04  -0.06    -0.05   0.05  -0.03
    11   1    -0.15   0.33  -0.43    -0.11   0.24  -0.30    -0.10   0.24  -0.30
    12   1     0.04   0.41   0.70    -0.00  -0.07  -0.11    -0.02  -0.20  -0.32
    13   1     0.12  -0.05  -0.02    -0.51   0.18   0.09     0.49  -0.17  -0.11
    14   1    -0.00  -0.03  -0.06     0.01   0.36   0.59    -0.02   0.00  -0.02
    15   1     0.01  -0.01   0.02     0.05  -0.10   0.10     0.17  -0.37   0.49
                     37                     38                     39
                      A                      A                      A
 Frequencies --   3212.1131              3531.2354              3802.9947
 Red. masses --      1.1056                 1.1753                 1.0672
 Frc consts  --      6.7208                 8.6351                 9.0934
 IR Inten    --     17.5741                60.0358                 9.8126
  Atom  AN      X      Y      Z        X      Y      Z        X      Y      Z
     1   8    -0.00  -0.00   0.00    -0.00  -0.00  -0.00    -0.04   0.01  -0.05
     2   1     0.00   0.00  -0.00     0.00   0.00   0.00     0.62  -0.23   0.75
     3   6     0.00   0.00   0.00    -0.10   0.05   0.04     0.00   0.00  -0.00
     4   1    -0.00   0.00   0.00     0.85  -0.41  -0.31    -0.00  -0.00   0.00
     5   6    -0.00  -0.00   0.00     0.03  -0.02  -0.01    -0.00   0.00   0.00
     6   6     0.00  -0.00  -0.00    -0.00   0.00   0.00    -0.00   0.00  -0.00
     7   8    -0.00   0.00   0.00     0.00  -0.00   0.00     0.00  -0.00  -0.00
     8   8     0.00  -0.00  -0.00     0.00   0.00   0.00     0.00  -0.00   0.00
     9   6    -0.02   0.01  -0.07    -0.00   0.00   0.00    -0.00   0.00   0.00
    10   6    -0.02   0.01  -0.06     0.00  -0.00  -0.00     0.00  -0.00  -0.00
    11   1     0.15  -0.37   0.45     0.00  -0.00   0.00     0.00  -0.00   0.00
    12   1     0.02   0.22   0.35     0.00  -0.00  -0.00     0.00  -0.00  -0.00
    13   1     0.09  -0.03  -0.03     0.00  -0.00  -0.00     0.00  -0.00  -0.00
    14   1    -0.00   0.21   0.33    -0.00   0.00   0.00    -0.00   0.00   0.00
    15   1     0.15  -0.33   0.41    -0.00  -0.00   0.00    -0.00  -0.00   0.00

 -------------------
 - Thermochemistry -
 -------------------
 Temperature   298.150 Kelvin.  Pressure   1.00000 Atm.
 Atom     1 has atomic number  8 and mass  15.99491
 Atom     2 has atomic number  1 and mass   1.00783
 Atom     3 has atomic number  6 and mass  12.00000
 Atom     4 has atomic number  1 and mass   1.00783
 Atom     5 has atomic number  6 and mass  12.00000
 Atom     6 has atomic number  6 and mass  12.00000
 Atom     7 has atomic number  8 and mass  15.99491
 Atom     8 has atomic number  8 and mass  15.99491
 Atom     9 has atomic number  6 and mass  12.00000
 Atom    10 has atomic number  6 and mass  12.00000
 Atom    11 has atomic number  1 and mass   1.00783
 Atom    12 has atomic number  1 and mass   1.00783
 Atom    13 has atomic number  1 and mass   1.00783
 Atom    14 has atomic number  1 and mass   1.00783
 Atom    15 has atomic number  1 and mass   1.00783
 Molecular mass:   115.03952 amu.
 Principal axes and moments of inertia in atomic units:
                           1         2         3
     Eigenvalues --   478.560811556.911341657.17286
           X            0.99998  -0.00401   0.00565
           Y            0.00360   0.99755   0.06985
           Z           -0.00591  -0.06983   0.99754
 This molecule is an asymmetric top.
 Rotational symmetry number  1.
 Warning -- assumption of classical behavior for rotation
           may cause significant error
 Rotational temperatures (Kelvin)      0.18099     0.05563     0.05227
 Rotational constants (GHZ):           3.77118     1.15918     1.08905
    4 imaginary frequencies ignored.
 Zero-point vibrational energy     293322.7 (Joules/Mol)
                                   70.10580 (Kcal/Mol)
 Warning -- explicit consideration of   9 degrees of freedom as
           vibrations may cause significant error
 Vibrational temperatures:     96.87   137.08   161.63   269.48   308.34
          (Kelvin)            402.51   459.82   605.12   823.96   897.86
                             1104.37  1135.75  1173.82  1203.26  1292.89
                             1359.10  1597.48  1665.47  1766.06  1911.92
                             1975.25  2074.98  2093.04  2198.78  2212.15
                             2222.95  2743.37  3324.63  4470.68  4517.84
                             4585.68  4591.23  4621.51  5080.66  5471.66
 
 Zero-point correction=                           0.111721 (Hartree/Particle)
 Thermal correction to Energy=                    0.119897
 Thermal correction to Enthalpy=                  0.120841
 Thermal correction to Gibbs Free Energy=         0.077430
 Sum of electronic and zero-point Energies=           -419.848718
 Sum of electronic and thermal Energies=              -419.840542
 Sum of electronic and thermal Enthalpies=            -419.839598
 Sum of electronic and thermal Free Energies=         -419.883009
 
                     E (Thermal)             CV                S
                      KCal/Mol        Cal/Mol-Kelvin    Cal/Mol-Kelvin
 Total                   75.236             27.221             91.366
 Electronic               0.000              0.000              1.377
 Translational            0.889              2.981             40.136
 Rotational               0.889              2.981             28.603
 Vibrational             73.459             21.259             21.250
 Vibration     1          0.598              1.970              4.230
 Vibration     2          0.603              1.953              3.549
 Vibration     3          0.607              1.939              3.228
 Vibration     4          0.632              1.857              2.254
 Vibration     5          0.644              1.819              2.007
 Vibration     6          0.680              1.711              1.535
 Vibration     7          0.706              1.636              1.312
 Vibration     8          0.783              1.426              0.890
 Vibration     9          0.929              1.090              0.499
                       Q            Log10(Q)             Ln(Q)
 Total Bot       0.242426D-35        -35.615420        -82.007535
 Total V=0       0.592231D+16         15.772491         36.317503
 Vib (Bot)       0.628341D-49        -49.201805       -113.291342
 Vib (Bot)    1  0.306425D+01          0.486324          1.119802
 Vib (Bot)    2  0.215589D+01          0.333626          0.768203
 Vib (Bot)    3  0.182227D+01          0.260613          0.600083
 Vib (Bot)    4  0.106960D+01          0.029221          0.067284
 Vib (Bot)    5  0.925176D+00         -0.033776         -0.077771
 Vib (Bot)    6  0.687320D+00         -0.162841         -0.374956
 Vib (Bot)    7  0.588340D+00         -0.230371         -0.530450
 Vib (Bot)    8  0.417309D+00         -0.379542         -0.873927
 Vib (Bot)    9  0.268033D+00         -0.571811         -1.316644
 Vib (V=0)       0.153499D+03          2.186106          5.033696
 Vib (V=0)    1  0.360477D+01          0.556878          1.282259
 Vib (V=0)    2  0.271311D+01          0.433467          0.998095
 Vib (V=0)    3  0.238962D+01          0.378329          0.871135
 Vib (V=0)    4  0.168070D+01          0.225489          0.519208
 Vib (V=0)    5  0.155164D+01          0.190792          0.439314
 Vib (V=0)    6  0.134995D+01          0.130316          0.300065
 Vib (V=0)    7  0.127210D+01          0.104523          0.240672
 Vib (V=0)    8  0.115127D+01          0.061176          0.140862
 Vib (V=0)    9  0.106731D+01          0.028291          0.065142
 Electronic      0.200000D+01          0.301030          0.693147
 Translational   0.484981D+08          7.685724         17.697035
 Rotational      0.397768D+06          5.599630         12.893625
 ***** Axes restored to original set *****
 -------------------------------------------------------------------
 Center     Atomic                   Forces (Hartrees/Bohr)
 Number     Number              X              Y              Z
 -------------------------------------------------------------------
      1        8          -0.008563942    0.011123161   -0.011043504
      2        1           0.011075501   -0.003390371    0.012699073
      3        6           0.019131825   -0.008251247   -0.007309510
      4        1           0.000662546   -0.000435672   -0.000222630
      5        6          -0.025421297    0.002407627    0.007302354
      6        6           0.040259450   -0.010246709   -0.035830929
      7        8          -0.016650408   -0.002028644    0.048051002
      8        8          -0.002721605    0.003025182   -0.014265451
      9        6          -0.015541818    0.008181413   -0.001038758
     10        6          -0.000409182    0.000278662    0.000121259
     11        1          -0.000188610    0.000626950   -0.000521793
     12        1          -0.000135638    0.000707784    0.001523083
     13        1          -0.001460654   -0.000009329    0.000390211
     14        1           0.000008051   -0.000705747   -0.001006910
     15        1          -0.000044219   -0.001283060    0.001152504
 -------------------------------------------------------------------
 Cartesian Forces:  Max     0.048051002 RMS     0.013290060

 GradGradGradGradGradGradGradGradGradGradGradGradGradGradGradGradGradGrad
 Berny optimization.
 Search for a local minimum.
 Step number   1 out of a maximum of    2
 All quantities printed in internal units (Hartrees-Bohrs-Radians)
 Second derivative matrix not updated -- analytic derivatives used.
 ITU=  0
     Eigenvalues ---   -0.01463  -0.00599  -0.00271  -0.00030   0.00085
     Eigenvalues ---    0.00117   0.00229   0.00319   0.00851   0.01776
     Eigenvalues ---    0.02402   0.03404   0.03609   0.05590   0.06648
     Eigenvalues ---    0.07663   0.08556   0.08994   0.10463   0.10630
     Eigenvalues ---    0.12054   0.14957   0.18035   0.18718   0.21609
     Eigenvalues ---    0.29245   0.30099   0.43497   0.49961   0.64835
     Eigenvalues ---    0.73708   0.77801   0.80125   0.88386   0.93019
     Eigenvalues ---    0.96875   0.98497   1.85441   2.84253
 Eigenvalue     1 is  -1.46D-02 should be greater than     0.000000 Eigenvector:
                          X2        Z2        X1        Z1        Y4
   1                    0.57070  -0.56907  -0.45753   0.30871  -0.09616
                          X12       Y3        Z11       Y13       X11
   1                    0.05907  -0.05878  -0.04853   0.04812   0.04805
 Eigenvalue     2 is  -5.99D-03 should be greater than     0.000000 Eigenvector:
                          Y7        Y2        Z1        X7        Y8
   1                    0.52924  -0.50816   0.33307   0.27933  -0.25552
                          Z2        Z4        Z3        X14       X8
   1                    0.18363  -0.14269  -0.13921  -0.12168  -0.10981
 Eigenvalue     3 is  -2.71D-03 should be greater than     0.000000 Eigenvector:
                          Y2        X1        Y7        Y8        Y1
   1                    0.65143  -0.27687   0.22367  -0.21347  -0.19887
                          Y14       X7        Z15       Z2        X11
   1                    0.18010   0.17426  -0.16755   0.15888   0.15432
 Eigenvalue     4 is  -2.96D-04 should be greater than     0.000000 Eigenvector:
                          Z15       Z14       Y13       Y15       X2
   1                    0.30901   0.29193   0.27474   0.26225  -0.21931
                          X4        Y4        Z11       Z12       X1
   1                    0.21650   0.20959  -0.20040  -0.19918  -0.19848
 Quadratic step=3.195D+00 exceeds max=3.000D-01 adjusted using Lamda=-1.536D-02.
 Angle between NR and scaled steps=  67.43 degrees.
 Angle between quadratic step and forces=  70.47 degrees.
 Linear search not attempted -- first point.
 B after Tr=    -0.000019   -0.000182    0.000458
         Rot=    1.000000    0.000678   -0.000039   -0.000372 Ang=   0.09 deg.
 Variable       Old X    -DE/DX   Delta X   Delta X   Delta X     New X
                                 (Linear)    (Quad)   (Total)
    X1        4.07474  -0.00856   0.00000   0.04281   0.04055   4.11529
    Y1        2.82272   0.01112   0.00000   0.18932   0.19223   3.01495
    Z1       -0.01214  -0.01104   0.00000   0.03607   0.03212   0.01998
    X2        5.21244   0.01108   0.00000   0.02161   0.01995   5.23239
    Y2        2.36036  -0.00339   0.00000  -0.00459   0.00099   2.36135
    Z2        1.35328   0.01270   0.00000   0.03174   0.02859   1.38187
    X3        4.54467   0.01913   0.00000   0.02557   0.02716   4.57182
    Y3       -2.24213  -0.00825   0.00000  -0.03800  -0.03629  -2.27843
    Z3       -1.08209  -0.00731   0.00000  -0.03006  -0.02687  -1.10896
    X4        6.27104   0.00066   0.00000   0.05023   0.05233   6.32337
    Y4       -3.04039  -0.00044   0.00000   0.00969   0.01182  -3.02857
    Z4       -1.74008  -0.00022   0.00000  -0.02540  -0.02133  -1.76141
    X5        2.59559  -0.02542   0.00000  -0.03459  -0.03354   2.56204
    Y5       -1.32033   0.00241   0.00000  -0.14614  -0.14494  -1.46527
    Z5       -0.37310   0.00730   0.00000  -0.01108  -0.00883  -0.38193
    X6        0.16380   0.04026   0.00000   0.02638   0.02679   0.19059
    Y6       -0.43169  -0.01025   0.00000  -0.08136  -0.08062  -0.51231
    Z6        0.59002  -0.03583   0.00000  -0.01544  -0.01430   0.57572
    X7       -0.44860  -0.01665   0.00000   0.00390   0.00454  -0.44406
    Y7       -0.63301  -0.00203   0.00000   0.03573   0.03903  -0.59398
    Z7        2.76349   0.04805   0.00000   0.04438   0.04568   2.80918
    X8       -1.24141  -0.00272   0.00000  -0.01100  -0.01148  -1.25289
    Y8        0.53321   0.00303   0.00000  -0.05488  -0.05772   0.47548
    Z8       -1.25112  -0.01427   0.00000  -0.02761  -0.02770  -1.27883
    X9       -3.75526  -0.01554   0.00000  -0.03185  -0.03291  -3.78817
    Y9        1.31788   0.00818   0.00000   0.02165   0.01790   1.33578
    Z9       -0.55055  -0.00104   0.00000  -0.00467  -0.00573  -0.55627
   X10       -5.51885  -0.00041   0.00000  -0.03033  -0.02970  -5.54855
   Y10       -0.93667   0.00028   0.00000   0.01772   0.01288  -0.92379
   Z10       -0.39447   0.00012   0.00000   0.00110   0.00324  -0.39123
   X11       -4.30780  -0.00019   0.00000   0.00242   0.00028  -4.30753
   Y11        2.61698   0.00063   0.00000   0.02374   0.01756   2.63454
   Z11       -2.04610  -0.00052   0.00000  -0.01531  -0.01809  -2.06419
   X12       -3.65689  -0.00014   0.00000   0.00730   0.00563  -3.65125
   Y12        2.33141   0.00071   0.00000   0.01395   0.01273   2.34414
   Z12        1.24071   0.00152   0.00000   0.00087  -0.00156   1.23915
   X13       -7.43706  -0.00146   0.00000  -0.03814  -0.03795  -7.47501
   Y13       -0.28889  -0.00001   0.00000   0.00037  -0.00536  -0.29425
   Z13        0.00161   0.00039   0.00000   0.00350   0.00494   0.00656
   X14       -5.53211   0.00001   0.00000  -0.01656  -0.01530  -5.54741
   Y14       -1.96361  -0.00071   0.00000   0.01265   0.00539  -1.95822
   Z14       -2.18220  -0.00101   0.00000  -0.00011   0.00343  -2.17877
   X15       -4.93943  -0.00004   0.00000  -0.01806  -0.01636  -4.95579
   Y15       -2.21135  -0.00128   0.00000   0.01676   0.01441  -2.19694
   Z15        1.11688   0.00115   0.00000   0.00257   0.00639   1.12327
         Item               Value     Threshold  Converged?
 Maximum Force            0.048051     0.000450     NO 
 RMS     Force            0.013290     0.000300     NO 
 Maximum Displacement     0.192227     0.001800     NO 
 RMS     Displacement     0.044736     0.001200     NO 
 Predicted change in Energy=-5.240616D-03
 GradGradGradGradGradGradGradGradGradGradGradGradGradGradGradGradGradGrad


 ----------------------------------------------------------------------

 Electric dipole moment (input orientation):
 (Debye = 10**-18 statcoulomb cm , SI units = C m)
                  (au)            (Debye)         (10**-30 SI)
   Tot        0.346292D+00      0.880187D+00      0.293599D+01
   x          0.167160D+00      0.424878D+00      0.141724D+01
   y         -0.251924D+00     -0.640327D+00     -0.213590D+01
   z         -0.168849D+00     -0.429172D+00     -0.143156D+01

 Dipole polarizability, Alpha (input orientation).
 (esu units = cm**3 , SI units = C**2 m**2 J**-1)
 Alpha(0;0):
               (au)            (10**-24 esu)      (10**-40 SI)
   iso        0.673707D+02      0.998331D+01      0.111079D+02
   aniso      0.289064D+02      0.428349D+01      0.476603D+01
   xx         0.824658D+02      0.122202D+02      0.135968D+02
   yx        -0.900469D+01     -0.133436D+01     -0.148467D+01
   yy         0.615432D+02      0.911977D+01      0.101471D+02
   zx        -0.416412D+01     -0.617058D+00     -0.686570D+00
   zy         0.249960D+01      0.370403D+00      0.412129D+00
   zz         0.581031D+02      0.860999D+01      0.957990D+01

 ----------------------------------------------------------------------

 Dipole orientation:
     8          4.09696996         -2.78921961         -0.08065136
     1          5.60642560         -1.76659541          0.13913103
     6          2.78117190         -0.41560150          4.35252032
     1          3.73106840         -0.78755914          6.08742215
     6          1.69723502         -0.03356365          2.39537104
     6          0.32104491          0.66867194          0.10543455
     8          0.80620973          2.52411435         -1.10349570
     8         -1.52501984         -0.96063345         -0.37711012
     6         -3.12169789         -0.36304181         -2.50301660
     6         -5.06592504          1.61927290         -1.79026612
     1         -4.00294239         -2.15752955         -2.98559905
     1         -1.93480942          0.26391005         -4.06626659
     1         -6.33955775          1.94291835         -3.38059647
     1         -6.18250076          0.98342775         -0.17789212
     1         -4.14862100          3.40316160         -1.32017575

 Electric dipole moment (dipole orientation):
 (Debye = 10**-18 statcoulomb cm , SI units = C m)
                  (au)            (Debye)         (10**-30 SI)
   Tot        0.346292D+00      0.880187D+00      0.293599D+01
   x          0.000000D+00      0.000000D+00      0.000000D+00
   y          0.000000D+00      0.000000D+00      0.000000D+00
   z          0.346292D+00      0.880187D+00      0.293599D+01

 Dipole polarizability, Alpha (dipole orientation).
 (esu units = cm**3 , SI units = C**2 m**2 J**-1)
 Alpha(0;0):
               (au)            (10**-24 esu)      (10**-40 SI)
   iso        0.673707D+02      0.998331D+01      0.111079D+02
   aniso      0.289064D+02      0.428349D+01      0.476603D+01
   xx         0.692168D+02      0.102569D+02      0.114123D+02
   yx        -0.240769D+01     -0.356783D+00     -0.396975D+00
   yy         0.572369D+02      0.848163D+01      0.943709D+01
   zx         0.134025D+02      0.198605D+01      0.220978D+01
   zy        -0.238938D+01     -0.354070D+00     -0.393956D+00
   zz         0.756584D+02      0.112114D+02      0.124744D+02

 ----------------------------------------------------------------------
 1\1\GINC-AJ\Freq\UM062X\6-31+G\C5H7O3(2)\AAYUSH\20-Jun-2025\0\\# freq 
 6-31+g m062x\\Title Card Required\\0,2\O,2.156259,1.493721,-0.006425\H
 ,2.758306,1.249049,0.716124\C,2.404934,-1.186486,-0.572617\H,3.318492,
 -1.608907,-0.920811\C,1.373525,-0.698687,-0.197437\C,0.08668,-0.228442
 ,0.312223\O,-0.23739,-0.334973,1.462377\O,-0.656925,0.282161,-0.662066
 \C,-1.987199,0.69739,-0.291336\C,-2.920451,-0.495666,-0.208743\H,-2.27
 9591,1.384846,-1.082751\H,-1.935142,1.233728,0.656556\H,-3.935524,-0.1
 52872,0.000854\H,-2.927469,-1.0391,-1.154773\H,-2.613833,-1.170195,0.5
 91026\\Version=ES64L-G16RevA.03\State=2-A\HF=-419.9604392\S2=0.755667\
 S2-1=0.\S2A=0.750023\RMSD=4.211e-09\RMSF=1.329e-02\ZeroPoint=0.1117207
 \Thermal=0.119897\Dipole=0.16716,-0.2519241,-0.1688492\DipoleDeriv=-0.
 3131964,-0.0878107,0.1478835,0.0006974,-0.1841758,-0.0059666,0.1420952
 ,-0.0694441,-0.2055231,0.2661837,0.1086759,-0.1143066,0.083304,0.35200
 85,0.0654459,-0.1138986,0.0995334,0.1946006,-0.3718809,-0.1346143,-0.0
 081171,0.0332613,-0.1851926,0.0020425,-0.0053136,0.0598419,-0.1944208,
 0.2563784,-0.0170739,-0.0060904,-0.00985,0.2477462,-0.0028319,0.002979
 1,-0.0039848,0.2616814,-0.4177197,0.2283689,0.1151924,0.0611569,-0.347
 2482,-0.0974057,0.1456151,-0.1127967,-0.1540298,2.0083759,-0.3791642,-
 0.0231157,-0.6526342,0.6741013,-0.2239154,0.3121434,-0.3278346,1.63999
 86,-0.765115,0.0483719,0.2032503,0.1338536,-0.4124955,0.053996,-0.0015
 305,0.1507909,-1.0856834,-1.4900115,0.295609,-0.3112158,0.469317,-0.53
 43262,0.2196639,-0.4376104,0.195243,-0.7751886,0.8851649,-0.1047227,0.
 0734631,-0.1360894,0.374239,-0.061558,-0.0499029,0.0222458,0.2445213,-
 0.1174876,-0.0207312,-0.0157096,-0.0533117,-0.0886028,0.054683,0.01363
 84,0.008777,0.0430001,-0.0035642,0.0123844,-0.00932,0.0379815,-0.00223
 33,0.0742234,-0.0383502,0.1112531,-0.0008058,-0.0158425,-0.0288589,-0.
 0513705,-0.0025095,0.0198072,-0.037816,0.0364283,-0.1047047,-0.01162,-
 0.1206502,0.0464697,0.02682,0.0696485,0.0612225,-0.0286414,0.0432332,-
 0.0157802,0.1038129,0.0972209,-0.0061592,0.033702,-0.040614,0.0208059,
 -0.063622,-0.0169472,-0.0971135,-0.0641538,0.1021443,0.0392554,-0.0610
 655,0.0057886,0.004344,0.0517023,-0.0325791,0.0839735,0.0038105\Polar=
 82.465783,-9.0046915,61.5432259,-4.164117,2.4996021,58.1030711\Quadrup
 ole=9.5797005,-2.6888025,-6.890898,-3.7402509,2.2408364,3.3345949\PG=C
 01 [X(C5H7O3)]\NImag=4\\0.19848645,-0.07736223,0.04461323,0.24418168,-
 0.09736269,0.28274473,-0.19441317,0.08121855,-0.24196076,0.19611304,0.
 08545652,-0.02911087,0.10140628,-0.08138634,0.03301920,-0.24321642,0.0
 9737537,-0.28206920,0.24274711,-0.09823721,0.28167216,0.00158954,0.006
 43201,-0.00077653,0.00007035,-0.00108757,0.00108821,1.22135081,-0.0019
 7565,-0.00977605,-0.00187512,0.00011851,-0.00086452,0.00001538,-0.5343
 7509,0.31783774,-0.00111279,-0.00284595,0.00013974,0.00015571,-0.00066
 679,-0.00022095,-0.42652953,0.20091499,0.22058671,-0.00012026,-0.00019
 825,0.00012537,0.00032641,0.00016166,-0.00011285,-0.32862470,0.1364360
 9,0.11218523,0.31683831,-0.00027769,0.00035256,0.00037216,0.00039432,-
 0.00021839,-0.00050608,0.13467849,-0.09577930,-0.05260945,-0.13760039,
 0.08260785,0.00014499,-0.00008553,-0.00001164,0.00006786,-0.00019064,-
 0.00013032,0.11267296,-0.05359203,-0.07475387,-0.11323868,0.05338301,0
 .06151254,-0.00159900,-0.00768567,-0.00184824,-0.00084702,-0.00170383,
 0.00043818,-0.90297183,0.40033915,0.31345158,0.01157164,0.00188074,-0.
 00122063,1.18952194,-0.00231216,-0.00249237,-0.00199884,0.00021646,-0.
 00244166,0.00100739,0.38665353,-0.22061659,-0.14251855,0.00015514,0.01
 091938,0.00173275,-0.48062830,0.29824854,-0.00123375,0.00295492,0.0002
 1675,0.00025472,-0.00268517,-0.00003236,0.31274122,-0.14606514,-0.1569
 0743,-0.00025128,0.00021198,0.00984055,-0.39175587,0.16474472,0.271042
 97,-0.00433972,-0.00293847,0.00134467,-0.00215263,-0.00289249,-0.00262
 063,0.01782865,-0.00411081,0.00107438,-0.00038271,0.00173975,0.0016847
 2,-0.23458643,0.05961468,0.05544255,0.61468623,-0.00142284,-0.00367906
 ,-0.00081785,0.00014481,0.00051706,0.00110429,0.00647251,0.01220465,-0
 .00159389,0.00188847,0.00278021,-0.00115035,0.04763361,-0.11083581,-0.
 02409137,-0.14667824,0.28670397,0.00348190,0.00068391,-0.00404077,-0.0
 0412615,0.00047977,0.00231074,-0.00005101,0.00255266,0.01024098,0.0011
 5415,-0.00062293,0.00350840,0.04681754,-0.02588627,-0.09000962,-0.1445
 6940,-0.11200236,1.04097278,0.00017232,0.00000927,-0.00023126,0.000354
 29,0.00085962,0.00063246,-0.00467209,0.00243841,-0.00111541,-0.0001557
 4,-0.00021416,-0.00114715,-0.01619192,0.00474530,0.05500979,-0.1471492
 0,-0.00719485,0.20981851,0.14136653,-0.00107145,0.00014583,0.00094812,
 0.00039048,-0.00041631,-0.00045144,0.00031081,-0.00254864,0.00036769,-
 0.00031024,-0.00043465,0.00023156,0.01147069,0.02392545,-0.01120394,-0
 .00550646,-0.07149903,0.05475887,-0.00738062,0.03512362,-0.00172701,-0
 .00084649,0.00258325,0.00181544,-0.00030853,-0.00169344,0.00042317,-0.
 00050915,0.00062244,-0.00001592,-0.00034410,0.00065882,0.03823224,-0.0
 0221412,-0.03764283,0.20095697,0.06091777,-0.75601056,-0.22730095,-0.0
 8642192,0.88815477,-0.00063576,0.00032141,-0.00075302,0.00071976,0.000
 81634,0.00099806,-0.00530597,0.00208865,0.00258261,0.00063479,-0.00070
 526,0.00092367,-0.04760323,0.02959060,-0.02858785,-0.19204893,0.076739
 85,-0.11532149,0.02596290,0.00739856,-0.02070440,0.49075997,-0.0010762
 3,-0.00022186,-0.00054602,-0.00114430,-0.00054684,-0.00036549,0.001442
 65,-0.00035817,-0.00115274,-0.00041760,0.00000369,-0.00020164,0.025941
 92,-0.00143217,0.01309066,0.07098284,-0.10526882,0.08035289,0.00836991
 ,0.01887384,0.03441633,-0.17755492,0.16577633,-0.00068821,-0.00000285,
 0.00056201,0.00107507,0.00015807,0.00007561,0.00105010,-0.00134774,-0.
 00015579,0.00013757,0.00013982,-0.00075471,-0.00195927,0.00212124,0.00
 578277,-0.07894322,0.06442268,-0.21483592,-0.03026781,0.03985770,-0.09
 568670,0.07908494,-0.09991319,0.39567601,0.00094688,0.00038151,0.00010
 432,-0.00023885,-0.00045460,-0.00013113,0.00166321,-0.00115049,-0.0012
 1610,-0.00021489,0.00018089,0.00008913,0.00428113,0.00083099,0.0002127
 9,-0.05145053,0.02617218,-0.01793506,0.00005727,-0.00470753,0.01631598
 ,-0.18223911,0.04586779,0.01990034,0.46985925,-0.00014489,0.00005535,-
 0.00019943,0.00006981,0.00012893,0.00012918,-0.00091880,-0.00026733,0.
 00019750,-0.00006430,-0.00024390,-0.00013443,0.00310082,0.00564378,0.0
 0270896,0.03044163,-0.01435204,0.00991334,0.00071288,-0.00396111,-0.00
 749740,0.03729278,-0.07595929,-0.00622649,-0.02238476,0.57221026,0.000
 23041,0.00013559,-0.00026901,-0.00007172,0.00009470,0.00014778,-0.0008
 2446,-0.00019105,0.00063725,0.00001571,-0.00003578,0.00013758,-0.00261
 168,0.00385636,-0.00292793,-0.03384779,0.01147573,0.01406946,-0.000839
 55,0.00024132,-0.00398481,0.05279963,-0.01715975,-0.09653613,0.0560304
 6,-0.01842429,0.64739477,-0.00012757,-0.00000843,-0.00007795,0.0000315
 6,0.00008545,0.00006712,-0.00037802,0.00009289,0.00014909,0.00002075,-
 0.00012335,-0.00001037,-0.00003195,0.00144788,-0.00012267,0.00159984,-
 0.00430723,0.00619227,-0.00029161,-0.00067863,-0.00261601,-0.04625297,
 -0.02348374,0.00438792,-0.11460836,-0.05411916,-0.00072675,0.55989690,
 0.00011160,0.00008597,0.00006863,-0.00003046,-0.00005732,-0.00005131,0
 .00034958,0.00000326,-0.00003138,-0.00001923,0.00005188,0.00000483,-0.
 00054039,-0.00078529,-0.00002013,0.00006323,0.00325815,-0.00627625,-0.
 00195045,-0.00081083,0.00202126,0.01323794,0.01103220,0.00221902,-0.06
 676124,-0.17813663,0.00547255,-0.05028299,0.54320647,0.00002513,0.0000
 1567,0.00005856,0.00000145,-0.00004423,-0.00003613,0.00020920,0.000040
 29,-0.00012913,0.00000008,0.00000827,0.00001813,-0.00006007,-0.0007271
 5,-0.00000360,-0.00179477,0.00021341,-0.00030293,0.00100433,0.00066135
 ,0.00096685,0.01209773,0.00495460,0.00222362,-0.00236241,0.00409635,-0
 .08889527,0.00386554,0.00311007,0.60165367,-0.00003808,-0.00008839,0.0
 0002522,0.00008165,0.00009275,0.00006057,-0.00048243,0.00011422,0.0002
 8144,0.00005874,-0.00000240,0.00003561,-0.00108039,0.00028021,-0.00113
 310,-0.00345335,0.00243866,0.00518411,0.00105895,-0.00027439,-0.000950
 67,-0.02800186,0.02661138,-0.02583984,-0.06143498,0.03973989,-0.048718
 17,0.00677960,-0.01584737,0.01686933,0.08636917,0.00003520,0.00000992,
 -0.00000038,-0.00001055,-0.00001471,-0.00000921,0.00011652,-0.00007385
 ,-0.00009313,-0.00000731,0.00000200,-0.00000452,0.00054554,-0.00005925
 ,0.00033688,-0.00015131,0.00024248,-0.00371668,-0.00103956,0.00069152,
 0.00055559,0.00941919,-0.00678785,0.00873657,0.04576757,-0.16049984,0.
 12532301,0.00467848,-0.01776158,0.02104990,-0.05139407,0.17373518,-0.0
 0002989,-0.00004342,0.00000204,0.00003014,0.00003336,0.00001575,-0.000
 01353,0.00005047,-0.00010444,-0.00001118,-0.00001838,-0.00001307,0.000
 31233,0.00008555,0.00061205,0.00311891,-0.00094134,-0.00236020,-0.0018
 9937,0.00078256,0.00117632,0.00869430,-0.00941661,0.00836641,-0.060469
 69,0.13122320,-0.20934020,-0.00019991,-0.00165397,0.00099498,0.0570911
 9,-0.13917853,0.21743707,0.00007743,-0.00012352,-0.00013805,-0.0000320
 2,0.00009085,0.00007450,-0.00014014,-0.00006087,0.00006736,0.00007464,
 0.00004109,0.00000258,-0.00035766,-0.00061376,-0.00044851,0.00230806,-
 0.00102510,0.00747912,0.00006929,0.00064689,-0.00310111,-0.01741510,0.
 02531611,0.03341086,-0.05065552,-0.01168413,-0.02344195,-0.00011761,-0
 .01225695,-0.01961984,0.00131094,-0.00524357,-0.00730049,0.06623567,0.
 00004889,-0.00001768,0.00002490,0.00003522,0.00002496,-0.00000400,-0.0
 0008731,0.00023675,-0.00000866,-0.00002917,-0.00003757,-0.00001364,-0.
 00012424,-0.00016680,0.00052830,0.00058721,0.00168899,-0.00556545,-0.0
 0176286,-0.00011981,0.00232978,0.00683463,-0.00654673,-0.00932197,-0.0
 0689151,-0.11624712,-0.11118157,-0.00407487,-0.01372899,-0.02404762,0.
 00059126,0.01185724,0.01918599,0.00706995,0.12473903,-0.00001669,0.000
 03692,0.00005925,-0.00001558,-0.00006272,-0.00004655,0.00019455,0.0000
 0882,0.00001659,0.00000432,0.00002751,-0.00000397,0.00005208,-0.000601
 12,-0.00017571,-0.00268685,0.00183933,-0.00166863,-0.00174243,0.001581
 00,0.00063983,0.00804173,-0.00485031,-0.00596334,-0.01319855,-0.117867
 59,-0.26208481,0.00002580,0.00374615,0.00424866,-0.00210706,-0.0123238
 6,-0.01864538,0.01152482,0.12760233,0.28219923,-0.00007812,-0.00003595
 ,-0.00001309,0.00002851,0.00005218,0.00002540,-0.00019269,0.00004900,0
 .00002811,0.00002763,-0.00002207,-0.00000750,-0.00007700,0.00032523,0.
 00006577,0.00178090,-0.00110348,0.00215630,-0.00007922,-0.00011508,-0.
 00093338,-0.00394949,-0.00375185,-0.00101756,-0.01830343,0.01099610,0.
 00404464,-0.28564806,0.07984576,0.04888874,0.00058132,-0.00002873,0.00
 047622,0.00030867,-0.00002700,-0.00068794,0.31296412,-0.00001416,-0.00
 001100,-0.00002525,-0.00000609,0.00001237,0.00000858,-0.00008939,0.000
 02940,0.00004031,-0.00000768,-0.00002504,0.00000267,0.00000190,0.00035
 927,-0.00012491,-0.00013575,-0.00154338,0.00256561,0.00061093,0.000296
 73,-0.00101408,-0.00758094,-0.00322674,-0.00012644,-0.02507774,0.00968
 962,0.00533029,0.08264661,-0.07747774,-0.01741303,0.00095580,0.0008866
 3,0.00051158,0.00082476,0.00087655,-0.00071902,-0.08780255,0.08155966,
 0.00000662,0.00000371,0.00000238,-0.00000469,-0.00000075,0.00000230,-0
 .00003722,-0.00003394,0.00000548,-0.00000436,0.00000473,0.00000025,0.0
 0012502,0.00019365,0.00005751,-0.00000301,0.00043186,-0.00110727,-0.00
 051122,-0.00047725,0.00028123,0.00096145,0.00031807,0.00119087,0.00115
 062,-0.00123197,-0.00136483,0.04891168,-0.01655126,-0.05760522,-0.0000
 6972,0.00006825,-0.00017351,-0.00000302,-0.00000228,-0.00006082,-0.054
 75422,0.01844944,0.05843780,0.00001131,0.00002507,0.00002580,-0.000003
 00,-0.00003504,-0.00002342,0.00005337,0.00001888,0.00001960,-0.0000256
 2,0.00000257,-0.00000705,-0.00000239,-0.00004021,0.00000142,-0.0007752
 2,0.00043559,-0.00179467,-0.00039327,-0.00015379,0.00078673,0.00327292
 ,0.00113905,0.00021570,-0.00286964,-0.01475162,-0.02032217,-0.04861413
 ,0.00222864,0.00032847,0.00059351,0.00107886,0.00026646,-0.00221685,-0
 .00338694,0.00068106,0.00099020,0.01606072,0.02863370,0.05014760,-0.00
 003019,0.00001313,0.00003354,0.00002082,-0.00000747,-0.00001005,-0.000
 01388,0.00002765,0.00004472,0.00000537,0.00000281,-0.00000885,-0.00011
 609,-0.00010328,-0.00010994,0.00004876,0.00009225,-0.00000812,0.000249
 28,0.00016707,0.00017443,0.00217005,0.00220873,0.00106541,-0.00100488,
 -0.01729007,-0.02746941,-0.00014048,-0.11538879,-0.11545704,0.00070247
 ,0.00072312,0.00007569,-0.00354919,-0.00334213,0.00159089,-0.00061900,
 -0.00520436,-0.00886206,0.00282868,0.12685716,-0.00003375,-0.00001678,
 0.00002360,0.00001544,0.00000387,-0.00001279,-0.00007855,0.00005365,0.
 00002165,-0.00000508,-0.00001842,-0.00000814,-0.00004824,0.00013772,0.
 00012770,0.00027817,-0.00037736,-0.00072699,-0.00063108,-0.00019369,0.
 00028525,-0.00131610,0.00082798,0.00038315,0.00211894,0.00279969,0.002
 94288,-0.00113390,-0.11817687,-0.26061908,-0.00047345,-0.00027881,0.00
 076749,0.00099913,0.00077720,0.00105776,-0.00129721,-0.00182472,-0.005
 14100,0.00020938,0.12992038,0.28083252,0.00006775,0.00005309,-0.000008
 14,-0.00003888,-0.00005552,-0.00002717,0.00021193,-0.00002289,-0.00002
 128,-0.00002898,0.00002746,0.00000985,-0.00002590,-0.00026560,-0.00019
 523,-0.00186498,-0.00019394,0.00151388,-0.00010850,-0.00001924,-0.0011
 8109,0.00210208,0.00175700,-0.00054658,0.00520757,-0.01828626,0.018283
 39,-0.07225835,0.05185233,-0.05945292,-0.00234278,-0.00376626,-0.00006
 548,0.00055019,0.00121673,-0.00006924,-0.00835333,0.01961358,-0.024401
 63,-0.00016879,-0.00055172,0.00139630,0.07705097,0.00003528,0.00003291
 ,-0.00002803,-0.00003124,-0.00002444,-0.00000538,0.00011593,-0.0000550
 2,-0.00004467,0.00000744,0.00001847,0.00002681,-0.00011587,-0.00016319
 ,-0.00027583,-0.00106458,-0.00030961,0.00277101,0.00154690,0.00056632,
 -0.00125937,-0.00006888,0.00245366,-0.00178185,0.00923184,-0.02077061,
 0.02253229,0.04826754,-0.15349076,0.12353916,-0.00392003,-0.00295102,-
 0.00069615,0.00056744,0.00078331,-0.00000832,0.00223745,-0.00622198,0.
 00768978,-0.00545046,0.01124419,-0.01363382,-0.05135876,0.16888776,-0.
 00001222,-0.00000239,-0.00000171,0.00001594,0.00001999,0.00001738,-0.0
 0006857,-0.00002209,0.00000077,0.00001692,0.00000766,-0.00000055,0.000
 07503,0.00006667,0.00001917,0.00056530,0.00056945,-0.00003948,-0.00077
 886,-0.00068192,-0.00035042,0.00049873,-0.00035478,-0.00032786,-0.0006
 0961,0.00051339,0.00007327,-0.05871186,0.12611867,-0.20257311,-0.00025
 548,-0.00046507,0.00126469,0.00049460,-0.00030331,0.00042788,0.0030257
 3,-0.00566103,0.00547481,-0.00902100,0.01902039,-0.01993400,0.06476536
 ,-0.13882562,0.21594916\\0.00856394,-0.01112316,0.01104350,-0.01107550
 ,0.00339037,-0.01269907,-0.01913182,0.00825125,0.00730951,-0.00066255,
 0.00043567,0.00022263,0.02542130,-0.00240763,-0.00730235,-0.04025945,0
 .01024671,0.03583093,0.01665041,0.00202864,-0.04805100,0.00272160,-0.0
 0302518,0.01426545,0.01554182,-0.00818141,0.00103876,0.00040918,-0.000
 27866,-0.00012126,0.00018861,-0.00062695,0.00052179,0.00013564,-0.0007
 0778,-0.00152308,0.00146065,0.00000933,-0.00039021,-0.00000805,0.00070
 575,0.00100691,0.00004422,0.00128306,-0.00115250\\\@


 THERE IS NO SUBJECT, HOWEVER COMPLEX,
 WHICH, IF STUDIED WITH PATIENCE AND INTELLIGIENCE
 WILL NOT BECOME
 MORE COMPLEX
                        QUOTED BY D. GORDON ROHMAN
 Job cpu time:       0 days  0 hours 19 minutes 26.8 seconds.
 Elapsed time:       0 days  0 hours  0 minutes 48.7 seconds.
 File lengths (MBytes):  RWF=     59 Int=      0 D2E=      0 Chk=      8 Scr=      1
 Normal termination of Gaussian 16 at Fri Jun 20 14:42:32 2025.
