 Entering Gaussian System, Link 0=g16
 Initial command:
 /opt/g16/l1.exe "/home/aayush/scratches/g16/Gau-90914.inp" -scrdir="/home/aayush/scratches/g16/"
 Entering Link 1 = /opt/g16/l1.exe PID=     90917.
  
 Copyright (c) 1988,1990,1992,1993,1995,1998,2003,2009,2016,
            Gaussian, Inc.  All Rights Reserved.
  
 This is part of the Gaussian(R) 16 program.  It is based on
 the Gaussian(R) 09 system (copyright 2009, Gaussian, Inc.),
 the Gaussian(R) 03 system (copyright 2003, Gaussian, Inc.),
 the Gaussian(R) 98 system (copyright 1998, Gaussian, Inc.),
 the Gaussian(R) 94 system (copyright 1995, Gaussian, Inc.),
 the Gaussian 92(TM) system (copyright 1992, Gaussian, Inc.),
 the Gaussian 90(TM) system (copyright 1990, Gaussian, Inc.),
 the Gaussian 88(TM) system (copyright 1988, Gaussian, Inc.),
 the Gaussian 86(TM) system (copyright 1986, Carnegie Mellon
 University), and the Gaussian 82(TM) system (copyright 1983,
 Carnegie Mellon University). Gaussian is a federally registered
 trademark of Gaussian, Inc.
  
 This software contains proprietary and confidential information,
 including trade secrets, belonging to Gaussian, Inc.
  
 This software is provided under written license and may be
 used, copied, transmitted, or stored only in accord with that
 written license.
  
 The following legend is applicable only to US Government
 contracts under FAR:
  
                    RESTRICTED RIGHTS LEGEND
  
 Use, reproduction and disclosure by the US Government is
 subject to restrictions as set forth in subparagraphs (a)
 and (c) of the Commercial Computer Software - Restricted
 Rights clause in FAR 52.227-19.
  
 Gaussian, Inc.
 340 Quinnipiac St., Bldg. 40, Wallingford CT 06492
  
  
 ---------------------------------------------------------------
 Warning -- This program may not be used in any manner that
 competes with the business of Gaussian, Inc. or will provide
 assistance to any competitor of Gaussian, Inc.  The licensee
 of this program is prohibited from giving any competitor of
 Gaussian, Inc. access to this program.  By using this program,
 the user acknowledges that Gaussian, Inc. is engaged in the
 business of creating and licensing software in the field of
 computational chemistry and represents and warrants to the
 licensee that it is not a competitor of Gaussian, Inc. and that
 it will not use this program in any manner prohibited above.
 ---------------------------------------------------------------
  

 Cite this work as:
 Gaussian 16, Revision A.03,
 M. J. Frisch, G. W. Trucks, H. B. Schlegel, G. E. Scuseria, 
 M. A. Robb, J. R. Cheeseman, G. Scalmani, V. Barone, 
 G. A. Petersson, H. Nakatsuji, X. Li, M. Caricato, A. V. Marenich, 
 J. Bloino, B. G. Janesko, R. Gomperts, B. Mennucci, H. P. Hratchian, 
 J. V. Ortiz, A. F. Izmaylov, J. L. Sonnenberg, D. Williams-Young, 
 F. Ding, F. Lipparini, F. Egidi, J. Goings, B. Peng, A. Petrone, 
 T. Henderson, D. Ranasinghe, V. G. Zakrzewski, J. Gao, N. Rega, 
 G. Zheng, W. Liang, M. Hada, M. Ehara, K. Toyota, R. Fukuda, 
 J. Hasegawa, M. Ishida, T. Nakajima, Y. Honda, O. Kitao, H. Nakai, 
 T. Vreven, K. Throssell, J. A. Montgomery, Jr., J. E. Peralta, 
 F. Ogliaro, M. J. Bearpark, J. J. Heyd, E. N. Brothers, K. N. Kudin, 
 V. N. Staroverov, T. A. Keith, R. Kobayashi, J. Normand, 
 K. Raghavachari, A. P. Rendell, J. C. Burant, S. S. Iyengar, 
 J. Tomasi, M. Cossi, J. M. Millam, M. Klene, C. Adamo, R. Cammi, 
 J. W. Ochterski, R. L. Martin, K. Morokuma, O. Farkas, 
 J. B. Foresman, and D. J. Fox, Gaussian, Inc., Wallingford CT, 2016.
 
 ******************************************
 Gaussian 16:  ES64L-G16RevA.03 25-Dec-2016
                23-Jun-2025 
 ******************************************
 %nprocshared=24
 Will use up to   24 processors via shared memory.
 %mem=12GB
 %chk=ethyl_propiolate_ts1.chk
 --------------------------
 # freq 6-311++g(d,p) m062x
 --------------------------
 1/10=4,30=1,38=1/1,3;
 2/12=2,17=6,18=5,40=1/2;
 3/5=4,6=6,7=1111,11=2,25=1,30=1,71=2,74=-55,140=1/1,2,3;
 4//1;
 5/5=2,38=5,98=1/2;
 8/6=4,10=90,11=11/1;
 11/6=1,8=1,9=11,15=111,16=1/1,2,10;
 10/6=1/2;
 6/7=2,8=2,9=2,10=2,28=1/1;
 7/8=1,10=1,25=1/1,2,3,16;
 1/10=4,30=1/3;
 99//99;
 -------------------
 Title Card Required
 -------------------
 Symbolic Z-matrix:
 Charge =  0 Multiplicity = 2
 O                     2.20419   1.42585  -0.03144 
 H                     2.83177   1.23585   0.68509 
 C                     2.45763  -1.20331  -0.53374 
 H                     3.35059  -1.67259  -0.87539 
 C                     1.4598   -0.6409   -0.16546 
 C                     0.15496  -0.20158   0.32867 
 O                    -0.1766   -0.30923   1.47608 
 O                    -0.59269   0.27609  -0.65844 
 C                    -1.92311   0.69937  -0.29745 
 C                    -2.86153  -0.4871   -0.18998 
 H                    -2.21341   1.37168  -1.10261 
 H                    -1.86981   1.25489   0.63939 
 H                    -3.87467  -0.13413   0.0122 
 H                    -2.87199  -1.05034  -1.12434 
 H                    -2.55816  -1.14597   0.62385 
 

 GradGradGradGradGradGradGradGradGradGradGradGradGradGradGradGradGradGrad
 Berny optimization.
 Initialization pass.
 Trust Radius=3.00D-01 FncErr=1.00D-07 GrdErr=1.00D-07 EigMax=2.50D+02 EigMin=1.00D-04
 Number of steps in this run=      2 maximum allowed number of steps=      2.
 GradGradGradGradGradGradGradGradGradGradGradGradGradGradGradGradGradGrad

                          Input orientation:                          
 ---------------------------------------------------------------------
 Center     Atomic      Atomic             Coordinates (Angstroms)
 Number     Number       Type             X           Y           Z
 ---------------------------------------------------------------------
      1          8           0        2.204185    1.425850   -0.031442
      2          1           0        2.831770    1.235854    0.685089
      3          6           0        2.457628   -1.203309   -0.533741
      4          1           0        3.350587   -1.672591   -0.875394
      5          6           0        1.459795   -0.640899   -0.165455
      6          6           0        0.154962   -0.201576    0.328667
      7          8           0       -0.176600   -0.309228    1.476076
      8          8           0       -0.592686    0.276086   -0.658435
      9          6           0       -1.923106    0.699370   -0.297454
     10          6           0       -2.861530   -0.487095   -0.189982
     11          1           0       -2.213411    1.371678   -1.102608
     12          1           0       -1.869809    1.254888    0.639390
     13          1           0       -3.874671   -0.134134    0.012195
     14          1           0       -2.871991   -1.050337   -1.124335
     15          1           0       -2.558159   -1.145967    0.623851
 ---------------------------------------------------------------------
                    Distance matrix (angstroms):
                    1          2          3          4          5
     1  O    0.000000
     2  H    0.971277   0.000000
     3  C    2.688683   2.752280   0.000000
     4  H    3.409814   3.341157   1.065048   0.000000
     5  C    2.200802   2.475468   1.203167   2.267928   0.000000
     6  C    2.641497   3.059174   2.655087   3.718288   1.462789
     7  O    3.309266   3.473216   3.431895   4.453001   2.341456
     8  O    3.088295   3.801725   3.392429   4.403841   2.301428
     9  C    4.199175   4.884880   4.781929   5.811373   3.641121
    10  C    5.417191   6.012318   5.378157   6.361257   4.324131
    11  H    4.545931   5.354266   5.364026   6.346438   4.291988
    12  H    4.132393   4.701840   5.113285   6.173916   3.915105
    13  H    6.275982   6.877936   6.445091   7.440364   5.361427
    14  H    5.752693   6.405745   5.364424   6.258566   4.455498
    15  H    5.451933   5.893060   5.147954   6.118688   4.125779
                    6          7          8          9         10
     6  C    0.000000
     7  O    1.199195   0.000000
     8  O    1.327218   2.252078   0.000000
     9  C    2.349914   2.685696   1.442045   0.000000
    10  C    3.074043   3.164844   2.439169   1.516539   0.000000
    11  H    3.183216   3.691024   2.006081   1.088369   2.169788
    12  H    2.513470   2.452236   2.067232   1.090467   2.169302
    13  H    4.042604   3.981122   3.374826   2.144579   1.091747
    14  H    3.463243   3.817920   2.678002   2.155363   1.091039
    15  H    2.887912   2.664253   2.744007   2.158093   1.090170
                   11         12         13         14         15
    11  H    0.000000
    12  H    1.779399   0.000000
    13  H    2.504005   2.518378   0.000000
    14  H    2.510051   3.070693   1.771015   0.000000
    15  H    3.072141   2.497633   1.769501   1.778705   0.000000
 Stoichiometry    C5H7O3(2)
 Framework group  C1[X(C5H7O3)]
 Deg. of freedom    39
 Full point group                 C1      NOp   1
 Largest Abelian subgroup         C1      NOp   1
 Largest concise Abelian subgroup C1      NOp   1
                         Standard orientation:                         
 ---------------------------------------------------------------------
 Center     Atomic      Atomic             Coordinates (Angstroms)
 Number     Number       Type             X           Y           Z
 ---------------------------------------------------------------------
      1          8           0        2.204185    1.425850   -0.031442
      2          1           0        2.831770    1.235854    0.685089
      3          6           0        2.457628   -1.203309   -0.533741
      4          1           0        3.350587   -1.672591   -0.875394
      5          6           0        1.459795   -0.640899   -0.165455
      6          6           0        0.154962   -0.201576    0.328667
      7          8           0       -0.176600   -0.309228    1.476076
      8          8           0       -0.592686    0.276086   -0.658435
      9          6           0       -1.923106    0.699370   -0.297454
     10          6           0       -2.861530   -0.487095   -0.189982
     11          1           0       -2.213411    1.371678   -1.102608
     12          1           0       -1.869809    1.254888    0.639390
     13          1           0       -3.874671   -0.134134    0.012195
     14          1           0       -2.871991   -1.050337   -1.124335
     15          1           0       -2.558159   -1.145967    0.623851
 ---------------------------------------------------------------------
 Rotational constants (GHZ):           3.8895374           1.1618758           1.0998152
 Standard basis: 6-311++G(d,p) (5D, 7F)
 There are   233 symmetry adapted cartesian basis functions of A   symmetry.
 There are   225 symmetry adapted basis functions of A   symmetry.
   225 basis functions,   351 primitive gaussians,   233 cartesian basis functions
    31 alpha electrons       30 beta electrons
       nuclear repulsion energy       357.2623846442 Hartrees.
 NAtoms=   15 NActive=   15 NUniq=   15 SFac= 1.00D+00 NAtFMM=   60 NAOKFM=F Big=F
 Integral buffers will be    131072 words long.
 Raffenetti 2 integral format.
 Two-electron integral symmetry is turned on.
 One-electron integrals computed using PRISM.
 NBasis=   225 RedAO= T EigKep=  1.33D-06  NBF=   225
 NBsUse=   225 1.00D-06 EigRej= -1.00D+00 NBFU=   225
 ExpMin= 3.60D-02 ExpMax= 8.59D+03 ExpMxC= 1.30D+03 IAcc=3 IRadAn=         5 AccDes= 0.00D+00
 Harris functional with IExCor= 1009 and IRadAn=       5 diagonalized for initial guess.
 HarFok:  IExCor= 1009 AccDes= 0.00D+00 IRadAn=         5 IDoV= 1 UseB2=F ITyADJ=14
 ICtDFT=  3500011 ScaDFX=  1.000000  1.000000  1.000000  1.000000
 FoFCou: FMM=F IPFlag=           0 FMFlag=      100000 FMFlg1=           0
         NFxFlg=           0 DoJE=T BraDBF=F KetDBF=T FulRan=T
         wScrn=  0.000000 ICntrl=       500 IOpCl=  0 I1Cent=   200000004 NGrid=           0
         NMat0=    1 NMatS0=      1 NMatT0=    0 NMatD0=    1 NMtDS0=    0 NMtDT0=    0
 Petite list used in FoFCou.
 Initial guess <Sx>= 0.0000 <Sy>= 0.0000 <Sz>= 0.5000 <S**2>= 0.7500 S= 0.5000
 Requested convergence on RMS density matrix=1.00D-08 within 128 cycles.
 Requested convergence on MAX density matrix=1.00D-06.
 Requested convergence on             energy=1.00D-06.
 No special actions if energy rises.
 Restarting incremental Fock formation.
 SCF Done:  E(UM062X) =  -420.205189267     A.U. after   24 cycles
            NFock= 24  Conv=0.74D-08     -V/T= 2.0032
 <Sx>= 0.0000 <Sy>= 0.0000 <Sz>= 0.5000 <S**2>= 0.7598 S= 0.5049
 <L.S>=  0.00000000000    
 Annihilation of the first spin contaminant:
 S**2 before annihilation     0.7598,   after     0.7501
 DoSCS=F DFT=T ScalE2(SS,OS)=  1.000000  1.000000
 Range of M.O.s used for correlation:     1   225
 NBasis=   225 NAE=    31 NBE=    30 NFC=     0 NFV=     0
 NROrb=    225 NOA=    31 NOB=    30 NVA=   194 NVB=   195

 **** Warning!!: The largest alpha MO coefficient is  0.34523452D+03


 **** Warning!!: The largest beta MO coefficient is  0.32857131D+03

 Symmetrizing basis deriv contribution to polar:
 IMax=3 JMax=2 DiffMx= 0.00D+00
 G2DrvN: will do    16 centers at a time, making    1 passes.
 Calling FoFCou, ICntrl=  3107 FMM=F I1Cent=   0 AccDes= 0.00D+00.
 End of G2Drv F.D. properties file   721 does not exist.
 End of G2Drv F.D. properties file   722 does not exist.
 End of G2Drv F.D. properties file   788 does not exist.
          IDoAtm=111111111111111
          Differentiating once with respect to electric field.
                with respect to dipole field.
          Differentiating once with respect to nuclear coordinates.
 Keep R1 and R2 ints in memory in canonical form, NReq=671901991.
          There are    48 degrees of freedom in the 1st order CPHF.  IDoFFX=6 NUNeed=     3.
     45 vectors produced by pass  0 Test12= 2.47D-14 2.08D-09 XBig12= 8.06D+01 4.61D+00.
 AX will form    45 AO Fock derivatives at one time.
     45 vectors produced by pass  1 Test12= 2.47D-14 2.08D-09 XBig12= 1.42D+01 5.18D-01.
     45 vectors produced by pass  2 Test12= 2.47D-14 2.08D-09 XBig12= 4.76D-01 9.05D-02.
     45 vectors produced by pass  3 Test12= 2.47D-14 2.08D-09 XBig12= 6.60D-03 1.34D-02.
     45 vectors produced by pass  4 Test12= 2.47D-14 2.08D-09 XBig12= 7.33D-05 1.31D-03.
     45 vectors produced by pass  5 Test12= 2.47D-14 2.08D-09 XBig12= 6.89D-07 8.11D-05.
     38 vectors produced by pass  6 Test12= 2.47D-14 2.08D-09 XBig12= 5.62D-09 1.11D-05.
     19 vectors produced by pass  7 Test12= 2.47D-14 2.08D-09 XBig12= 4.78D-11 7.30D-07.
      3 vectors produced by pass  8 Test12= 2.47D-14 2.08D-09 XBig12= 4.56D-13 5.74D-08.
      3 vectors produced by pass  9 Test12= 2.47D-14 2.08D-09 XBig12= 5.31D-15 1.10D-08.
      1 vectors produced by pass 10 Test12= 2.47D-14 2.08D-09 XBig12= 3.01D-15 1.09D-08.
 InvSVY:  IOpt=1 It=  1 EMax= 8.88D-15
 Solved reduced A of dimension   334 with    48 vectors.
 Isotropic polarizability for W=    0.000000       72.36 Bohr**3.
 End of Minotr F.D. properties file   721 does not exist.
 End of Minotr F.D. properties file   722 does not exist.
 End of Minotr F.D. properties file   788 does not exist.

 **********************************************************************

            Population analysis using the SCF density.

 **********************************************************************

 Orbital symmetries:
 Alpha Orbitals:
       Occupied  (A) (A) (A) (A) (A) (A) (A) (A) (A) (A) (A) (A)
                 (A) (A) (A) (A) (A) (A) (A) (A) (A) (A) (A) (A)
                 (A) (A) (A) (A) (A) (A) (A)
       Virtual   (A) (A) (A) (A) (A) (A) (A) (A) (A) (A) (A) (A)
                 (A) (A) (A) (A) (A) (A) (A) (A) (A) (A) (A) (A)
                 (A) (A) (A) (A) (A) (A) (A) (A) (A) (A) (A) (A)
                 (A) (A) (A) (A) (A) (A) (A) (A) (A) (A) (A) (A)
                 (A) (A) (A) (A) (A) (A) (A) (A) (A) (A) (A) (A)
                 (A) (A) (A) (A) (A) (A) (A) (A) (A) (A) (A) (A)
                 (A) (A) (A) (A) (A) (A) (A) (A) (A) (A) (A) (A)
                 (A) (A) (A) (A) (A) (A) (A) (A) (A) (A) (A) (A)
                 (A) (A) (A) (A) (A) (A) (A) (A) (A) (A) (A) (A)
                 (A) (A) (A) (A) (A) (A) (A) (A) (A) (A) (A) (A)
                 (A) (A) (A) (A) (A) (A) (A) (A) (A) (A) (A) (A)
                 (A) (A) (A) (A) (A) (A) (A) (A) (A) (A) (A) (A)
                 (A) (A) (A) (A) (A) (A) (A) (A) (A) (A) (A) (A)
                 (A) (A) (A) (A) (A) (A) (A) (A) (A) (A) (A) (A)
                 (A) (A) (A) (A) (A) (A) (A) (A) (A) (A) (A) (A)
                 (A) (A) (A) (A) (A) (A) (A) (A) (A) (A) (A) (A)
                 (A) (A)
 Beta  Orbitals:
       Occupied  (A) (A) (A) (A) (A) (A) (A) (A) (A) (A) (A) (A)
                 (A) (A) (A) (A) (A) (A) (A) (A) (A) (A) (A) (A)
                 (A) (A) (A) (A) (A) (A)
       Virtual   (A) (A) (A) (A) (A) (A) (A) (A) (A) (A) (A) (A)
                 (A) (A) (A) (A) (A) (A) (A) (A) (A) (A) (A) (A)
                 (A) (A) (A) (A) (A) (A) (A) (A) (A) (A) (A) (A)
                 (A) (A) (A) (A) (A) (A) (A) (A) (A) (A) (A) (A)
                 (A) (A) (A) (A) (A) (A) (A) (A) (A) (A) (A) (A)
                 (A) (A) (A) (A) (A) (A) (A) (A) (A) (A) (A) (A)
                 (A) (A) (A) (A) (A) (A) (A) (A) (A) (A) (A) (A)
                 (A) (A) (A) (A) (A) (A) (A) (A) (A) (A) (A) (A)
                 (A) (A) (A) (A) (A) (A) (A) (A) (A) (A) (A) (A)
                 (A) (A) (A) (A) (A) (A) (A) (A) (A) (A) (A) (A)
                 (A) (A) (A) (A) (A) (A) (A) (A) (A) (A) (A) (A)
                 (A) (A) (A) (A) (A) (A) (A) (A) (A) (A) (A) (A)
                 (A) (A) (A) (A) (A) (A) (A) (A) (A) (A) (A) (A)
                 (A) (A) (A) (A) (A) (A) (A) (A) (A) (A) (A) (A)
                 (A) (A) (A) (A) (A) (A) (A) (A) (A) (A) (A) (A)
                 (A) (A) (A) (A) (A) (A) (A) (A) (A) (A) (A) (A)
                 (A) (A) (A)
 The electronic state is 2-A.
 Alpha  occ. eigenvalues --  -19.68077 -19.67089 -19.62941 -10.70556 -10.60393
 Alpha  occ. eigenvalues --  -10.57969 -10.57624 -10.53694  -1.25562  -1.16248
 Alpha  occ. eigenvalues --   -1.12950  -0.90675  -0.87296  -0.78076  -0.70611
 Alpha  occ. eigenvalues --   -0.64401  -0.61677  -0.58466  -0.56630  -0.54843
 Alpha  occ. eigenvalues --   -0.53474  -0.50616  -0.48421  -0.46376  -0.45230
 Alpha  occ. eigenvalues --   -0.42321  -0.41632  -0.39568  -0.38276  -0.36457
 Alpha  occ. eigenvalues --   -0.35506
 Alpha virt. eigenvalues --   -0.00933  -0.00339   0.00524   0.01544   0.02352
 Alpha virt. eigenvalues --    0.02791   0.03545   0.04210   0.05529   0.06728
 Alpha virt. eigenvalues --    0.07304   0.07787   0.08159   0.09196   0.10287
 Alpha virt. eigenvalues --    0.11099   0.11922   0.12531   0.13204   0.13473
 Alpha virt. eigenvalues --    0.14495   0.14745   0.14953   0.15205   0.16070
 Alpha virt. eigenvalues --    0.16655   0.18047   0.18899   0.19760   0.20936
 Alpha virt. eigenvalues --    0.21528   0.21565   0.22040   0.23693   0.24473
 Alpha virt. eigenvalues --    0.25720   0.26518   0.27408   0.28764   0.29776
 Alpha virt. eigenvalues --    0.30262   0.31423   0.32972   0.33173   0.34197
 Alpha virt. eigenvalues --    0.34936   0.36329   0.37265   0.38540   0.39195
 Alpha virt. eigenvalues --    0.40712   0.43463   0.44835   0.46877   0.49111
 Alpha virt. eigenvalues --    0.51693   0.53830   0.55533   0.56242   0.58685
 Alpha virt. eigenvalues --    0.60056   0.61673   0.63729   0.64938   0.67163
 Alpha virt. eigenvalues --    0.68794   0.70227   0.71482   0.72523   0.73228
 Alpha virt. eigenvalues --    0.74661   0.75885   0.77896   0.78602   0.81406
 Alpha virt. eigenvalues --    0.82768   0.88031   0.90993   0.95890   0.97540
 Alpha virt. eigenvalues --    1.02020   1.05257   1.06919   1.07822   1.09859
 Alpha virt. eigenvalues --    1.13327   1.17403   1.18652   1.20659   1.22471
 Alpha virt. eigenvalues --    1.24655   1.26431   1.29520   1.30469   1.33896
 Alpha virt. eigenvalues --    1.36190   1.36219   1.38229   1.40027   1.43736
 Alpha virt. eigenvalues --    1.44836   1.47991   1.51394   1.53023   1.56036
 Alpha virt. eigenvalues --    1.58375   1.60044   1.60373   1.61853   1.64690
 Alpha virt. eigenvalues --    1.66327   1.68417   1.70812   1.72349   1.74765
 Alpha virt. eigenvalues --    1.77661   1.81832   1.83679   1.85851   1.87383
 Alpha virt. eigenvalues --    1.92072   1.96674   1.99829   2.03625   2.06007
 Alpha virt. eigenvalues --    2.09501   2.10468   2.13448   2.21379   2.31854
 Alpha virt. eigenvalues --    2.35671   2.40903   2.47833   2.51137   2.52143
 Alpha virt. eigenvalues --    2.54427   2.55817   2.61438   2.62389   2.63201
 Alpha virt. eigenvalues --    2.64786   2.66180   2.71850   2.73423   2.76331
 Alpha virt. eigenvalues --    2.81199   2.81566   2.84122   2.91293   2.93541
 Alpha virt. eigenvalues --    2.93694   2.95447   3.00736   3.03439   3.04702
 Alpha virt. eigenvalues --    3.06665   3.13452   3.15121   3.16257   3.17706
 Alpha virt. eigenvalues --    3.25199   3.26676   3.31746   3.35892   3.38326
 Alpha virt. eigenvalues --    3.44995   3.53134   3.66151   3.77060   3.84997
 Alpha virt. eigenvalues --    3.86314   3.87591   3.91559   4.03613   4.14134
 Alpha virt. eigenvalues --    4.19872   4.28306   5.08597   5.12390   5.15322
 Alpha virt. eigenvalues --    5.20842   5.33548   5.47403   5.56776   5.74022
 Alpha virt. eigenvalues --    5.95071  23.62360  23.93801  23.94862  24.05960
 Alpha virt. eigenvalues --   25.12235  49.94333  50.00865  50.11648
  Beta  occ. eigenvalues --  -19.68082 -19.65541 -19.62956 -10.70541 -10.60393
  Beta  occ. eigenvalues --  -10.57959 -10.57512 -10.53694  -1.25570  -1.16279
  Beta  occ. eigenvalues --   -1.05748  -0.90362  -0.87002  -0.77947  -0.70478
  Beta  occ. eigenvalues --   -0.64357  -0.61382  -0.58377  -0.56397  -0.53477
  Beta  occ. eigenvalues --   -0.51991  -0.49207  -0.46613  -0.45230  -0.41954
  Beta  occ. eigenvalues --   -0.39503  -0.38969  -0.38279  -0.38057  -0.36070
  Beta virt. eigenvalues --   -0.08865  -0.00348  -0.00148   0.00618   0.01859
  Beta virt. eigenvalues --    0.02456   0.02827   0.03554   0.04300   0.05556
  Beta virt. eigenvalues --    0.06690   0.07406   0.07837   0.08262   0.09302
  Beta virt. eigenvalues --    0.10404   0.11192   0.12319   0.12579   0.13192
  Beta virt. eigenvalues --    0.13488   0.14507   0.14901   0.15082   0.15243
  Beta virt. eigenvalues --    0.16154   0.17174   0.18128   0.18899   0.19829
  Beta virt. eigenvalues --    0.20945   0.21174   0.21901   0.22345   0.23750
  Beta virt. eigenvalues --    0.24564   0.25815   0.26292   0.27554   0.28830
  Beta virt. eigenvalues --    0.29865   0.30289   0.31476   0.33020   0.33180
  Beta virt. eigenvalues --    0.34187   0.34994   0.36349   0.37181   0.38827
  Beta virt. eigenvalues --    0.39177   0.40753   0.43463   0.44857   0.46887
  Beta virt. eigenvalues --    0.49190   0.51703   0.53845   0.55558   0.56799
  Beta virt. eigenvalues --    0.59154   0.60238   0.61954   0.63820   0.65019
  Beta virt. eigenvalues --    0.67262   0.68813   0.70213   0.71502   0.72526
  Beta virt. eigenvalues --    0.73226   0.74693   0.75880   0.77937   0.78743
  Beta virt. eigenvalues --    0.81443   0.82904   0.88037   0.91521   0.95953
  Beta virt. eigenvalues --    0.97683   1.02033   1.05824   1.07324   1.09224
  Beta virt. eigenvalues --    1.10754   1.13936   1.17771   1.18806   1.20980
  Beta virt. eigenvalues --    1.23154   1.24999   1.26652   1.29585   1.31473
  Beta virt. eigenvalues --    1.34103   1.36271   1.36533   1.38970   1.40338
  Beta virt. eigenvalues --    1.44389   1.45372   1.48268   1.51530   1.53654
  Beta virt. eigenvalues --    1.56345   1.58396   1.60075   1.60411   1.61901
  Beta virt. eigenvalues --    1.64718   1.66300   1.68447   1.70888   1.72889
  Beta virt. eigenvalues --    1.74880   1.78194   1.81842   1.83892   1.85962
  Beta virt. eigenvalues --    1.87522   1.92137   1.96991   1.99905   2.03657
  Beta virt. eigenvalues --    2.06111   2.10347   2.11039   2.13464   2.21394
  Beta virt. eigenvalues --    2.31869   2.35675   2.41233   2.47886   2.51128
  Beta virt. eigenvalues --    2.52129   2.54428   2.55849   2.61620   2.62503
  Beta virt. eigenvalues --    2.63406   2.65301   2.66270   2.72055   2.73453
  Beta virt. eigenvalues --    2.76701   2.81324   2.82370   2.86156   2.91939
  Beta virt. eigenvalues --    2.95014   2.95237   2.98647   3.01111   3.04793
  Beta virt. eigenvalues --    3.05351   3.07922   3.13529   3.15697   3.18931
  Beta virt. eigenvalues --    3.19355   3.25843   3.27407   3.31754   3.36168
  Beta virt. eigenvalues --    3.38360   3.44965   3.53530   3.66144   3.77112
  Beta virt. eigenvalues --    3.85002   3.86315   3.91023   3.91609   4.03613
  Beta virt. eigenvalues --    4.14104   4.19852   4.28303   5.10793   5.15240
  Beta virt. eigenvalues --    5.20234   5.21193   5.33609   5.47461   5.59011
  Beta virt. eigenvalues --    5.74017   5.95062  23.62400  23.93802  23.94871
  Beta virt. eigenvalues --   24.05960  25.12456  49.93878  50.00847  50.11667
          Condensed to atoms (all electrons):
               1          2          3          4          5          6
     1  O    8.047566   0.243356  -0.166676  -0.000865   0.379920  -0.259654
     2  H    0.243356   0.505013  -0.139234  -0.002094   0.066085   0.090783
     3  C   -0.166676  -0.139234  43.144716   0.780114 -12.339670 -23.577446
     4  H   -0.000865  -0.002094   0.780114   0.433973  -0.257091  -0.130793
     5  C    0.379920   0.066085 -12.339670  -0.257091  21.600028  -4.043923
     6  C   -0.259654   0.090783 -23.577446  -0.130793  -4.043923  33.171084
     7  O   -0.014046  -0.001727   0.165132  -0.000884   0.352693  -0.107976
     8  O   -0.006696  -0.000635  -0.058910  -0.004108  -0.165937   0.084612
     9  C   -0.014734   0.002860  -0.627197  -0.001677  -0.887285   1.276024
    10  C    0.004729  -0.001291   0.126384  -0.000072   0.106426  -0.290247
    11  H   -0.001282   0.000308  -0.032934   0.000122  -0.038082   0.085764
    12  H    0.000829  -0.000481   0.029301  -0.000126   0.053955  -0.096365
    13  H   -0.000018  -0.000027   0.008520   0.000039   0.021099  -0.022099
    14  H    0.000309   0.000016  -0.008890  -0.000220  -0.004798   0.009203
    15  H   -0.000555   0.000188  -0.030014   0.000000  -0.058823   0.068644
               7          8          9         10         11         12
     1  O   -0.014046  -0.006696  -0.014734   0.004729  -0.001282   0.000829
     2  H   -0.001727  -0.000635   0.002860  -0.001291   0.000308  -0.000481
     3  C    0.165132  -0.058910  -0.627197   0.126384  -0.032934   0.029301
     4  H   -0.000884  -0.004108  -0.001677  -0.000072   0.000122  -0.000126
     5  C    0.352693  -0.165937  -0.887285   0.106426  -0.038082   0.053955
     6  C   -0.107976   0.084612   1.276024  -0.290247   0.085764  -0.096365
     7  O    7.994230  -0.141536   0.041024  -0.080814   0.001063  -0.014322
     8  O   -0.141536   8.246255   0.131741  -0.045547  -0.091692  -0.003528
     9  C    0.041024   0.131741   5.622142  -0.035364   0.448813   0.379782
    10  C   -0.080814  -0.045547  -0.035364   5.505697  -0.061817  -0.014615
    11  H    0.001063  -0.091692   0.448813  -0.061817   0.524963  -0.034334
    12  H   -0.014322  -0.003528   0.379782  -0.014615  -0.034334   0.511797
    13  H   -0.001546   0.017363  -0.051535   0.402815  -0.003176  -0.002516
    14  H    0.002907  -0.002332  -0.036657   0.421723  -0.008967   0.002986
    15  H    0.001497  -0.017938   0.006436   0.381186   0.009865  -0.010093
              13         14         15
     1  O   -0.000018   0.000309  -0.000555
     2  H   -0.000027   0.000016   0.000188
     3  C    0.008520  -0.008890  -0.030014
     4  H    0.000039  -0.000220   0.000000
     5  C    0.021099  -0.004798  -0.058823
     6  C   -0.022099   0.009203   0.068644
     7  O   -0.001546   0.002907   0.001497
     8  O    0.017363  -0.002332  -0.017938
     9  C   -0.051535  -0.036657   0.006436
    10  C    0.402815   0.421723   0.381186
    11  H   -0.003176  -0.008967   0.009865
    12  H   -0.002516   0.002986  -0.010093
    13  H    0.534260  -0.030494  -0.034719
    14  H   -0.030494   0.536313  -0.047144
    15  H   -0.034719  -0.047144   0.541257
          Atomic-Atomic Spin Densities.
               1          2          3          4          5          6
     1  O    0.978726   0.012730  -0.256065  -0.003131   0.011489   0.151347
     2  H    0.012730  -0.033154   0.017054   0.000144  -0.008525  -0.008441
     3  C   -0.256065   0.017054   0.849135   0.031187  -0.444229  -0.057991
     4  H   -0.003131   0.000144   0.031187  -0.006315  -0.017975  -0.013138
     5  C    0.011489  -0.008525  -0.444229  -0.017975  -0.041833   0.402368
     6  C    0.151347  -0.008441  -0.057991  -0.013138   0.402368  -0.378972
     7  O    0.001580  -0.000089   0.009361  -0.000013   0.008321  -0.018354
     8  O    0.001480   0.000249  -0.006382  -0.000184  -0.000350   0.011925
     9  C   -0.000730   0.000463   0.012792  -0.000126   0.039866  -0.056240
    10  C   -0.001042   0.000066  -0.006104   0.000083  -0.028693   0.037137
    11  H    0.000168   0.000012   0.002608  -0.000016   0.006920  -0.009600
    12  H    0.000132  -0.000054  -0.003044  -0.000008  -0.005501   0.008822
    13  H   -0.000105   0.000023   0.000144   0.000004  -0.001098   0.000306
    14  H    0.000176  -0.000029  -0.001542  -0.000007  -0.000458   0.002620
    15  H   -0.000070   0.000016   0.003001  -0.000007   0.006274  -0.009648
               7          8          9         10         11         12
     1  O    0.001580   0.001480  -0.000730  -0.001042   0.000168   0.000132
     2  H   -0.000089   0.000249   0.000463   0.000066   0.000012  -0.000054
     3  C    0.009361  -0.006382   0.012792  -0.006104   0.002608  -0.003044
     4  H   -0.000013  -0.000184  -0.000126   0.000083  -0.000016  -0.000008
     5  C    0.008321  -0.000350   0.039866  -0.028693   0.006920  -0.005501
     6  C   -0.018354   0.011925  -0.056240   0.037137  -0.009600   0.008822
     7  O   -0.009437  -0.000014   0.001551   0.000457   0.000084  -0.000104
     8  O   -0.000014  -0.004573   0.000387  -0.002226   0.000453  -0.000297
     9  C    0.001551   0.000387  -0.003392   0.008403  -0.001834   0.000166
    10  C    0.000457  -0.002226   0.008403  -0.011984   0.002069  -0.000578
    11  H    0.000084   0.000453  -0.001834   0.002069  -0.000755   0.000150
    12  H   -0.000104  -0.000297   0.000166  -0.000578   0.000150  -0.000051
    13  H    0.000324  -0.000296   0.002236  -0.002193   0.000353  -0.000321
    14  H   -0.000324   0.000080  -0.001060   0.001121  -0.000173   0.000149
    15  H   -0.000034   0.000260  -0.001680   0.002607  -0.000270   0.000028
              13         14         15
     1  O   -0.000105   0.000176  -0.000070
     2  H    0.000023  -0.000029   0.000016
     3  C    0.000144  -0.001542   0.003001
     4  H    0.000004  -0.000007  -0.000007
     5  C   -0.001098  -0.000458   0.006274
     6  C    0.000306   0.002620  -0.009648
     7  O    0.000324  -0.000324  -0.000034
     8  O   -0.000296   0.000080   0.000260
     9  C    0.002236  -0.001060  -0.001680
    10  C   -0.002193   0.001121   0.002607
    11  H    0.000353  -0.000173  -0.000270
    12  H   -0.000321   0.000149   0.000028
    13  H    0.000394  -0.000205   0.000580
    14  H   -0.000205   0.000155  -0.000434
    15  H    0.000580  -0.000434  -0.000536
 Mulliken charges and spin densities:
               1          2
     1  O   -0.212184   0.896686
     2  H    0.236879  -0.019535
     3  C   -1.273197   0.149925
     4  H    0.183681  -0.009500
     5  C    1.215403  -0.073424
     6  C   -0.257610   0.062142
     7  O   -0.195695  -0.006692
     8  O    0.058889   0.000513
     9  C   -0.254373   0.000802
    10  C   -0.419193  -0.000877
    11  H    0.201384   0.000168
    12  H    0.197729  -0.000510
    13  H    0.162033   0.000147
    14  H    0.166044   0.000069
    15  H    0.190211   0.000086
 Sum of Mulliken charges =  -0.00000   1.00000
 Mulliken charges and spin densities with hydrogens summed into heavy atoms:
               1          2
     1  O    0.024695   0.877151
     3  C   -1.089516   0.140424
     5  C    1.215403  -0.073424
     6  C   -0.257610   0.062142
     7  O   -0.195695  -0.006692
     8  O    0.058889   0.000513
     9  C    0.144740   0.000460
    10  C    0.099094  -0.000575
 APT charges:
               1
     1  O   -0.203065
     2  H    0.263800
     3  C   -0.196873
     4  H    0.232138
     5  C   -0.365157
     6  C    1.474889
     7  O   -0.779459
     8  O   -0.945868
     9  C    0.536768
    10  C   -0.037061
    11  H   -0.013571
    12  H   -0.011300
    13  H    0.007987
    14  H    0.008649
    15  H    0.028123
 Sum of APT charges =  -0.00000
 APT charges with hydrogens summed into heavy atoms:
               1
     1  O    0.060736
     3  C    0.035264
     5  C   -0.365157
     6  C    1.474889
     7  O   -0.779459
     8  O   -0.945868
     9  C    0.511898
    10  C    0.007697
 Electronic spatial extent (au):  <R**2>=           1140.1925
 Charge=             -0.0000 electrons
 Dipole moment (field-independent basis, Debye):
    X=              0.2643    Y=             -0.6430    Z=             -0.7092  Tot=              0.9931
 Quadrupole moment (field-independent basis, Debye-Ang):
   XX=            -31.7646   YY=            -46.5235   ZZ=            -51.9972
   XY=             -5.2988   XZ=              2.5003   YZ=              3.9319
 Traceless Quadrupole moment (field-independent basis, Debye-Ang):
   XX=             11.6638   YY=             -3.0951   ZZ=             -8.5688
   XY=             -5.2988   XZ=              2.5003   YZ=              3.9319
 Octapole moment (field-independent basis, Debye-Ang**2):
  XXX=             30.2169  YYY=              4.9206  ZZZ=             -3.3492  XYY=              3.4901
  XXY=             -6.9403  XXZ=              2.0509  XZZ=              2.4786  YZZ=              4.5584
  YYZ=              0.8028  XYZ=             11.0459
 Hexadecapole moment (field-independent basis, Debye-Ang**3):
 XXXX=           -898.2679 YYYY=           -245.3661 ZZZZ=           -184.4255 XXXY=            -41.2791
 XXXZ=              4.9869 YYYX=             -1.8189 YYYZ=              5.2218 ZZZX=              7.6583
 ZZZY=              2.2113 XXYY=           -191.7471 XXZZ=           -197.8168 YYZZ=            -66.0157
 XXYZ=             32.9623 YYXZ=              0.7770 ZZXY=              2.4342
 N-N= 3.572623846442D+02 E-N=-1.699396214651D+03  KE= 4.188770659382D+02
  Exact polarizability:  86.878  -7.464  69.964  -3.985   3.477  60.230
 Approx polarizability:  89.555 -13.189  77.707  -7.942   3.183  78.421
                          Isotropic Fermi Contact Couplings
        Atom                 a.u.       MegaHertz       Gauss      10(-4) cm-1
     1  O(17)              0.12939     -78.43637     -27.98805     -26.16356
     2  H(1)              -0.01480     -66.14132     -23.60087     -22.06237
     3  C(13)              0.03029      34.04936      12.14966      11.35765
     4  H(1)              -0.00306     -13.66742      -4.87687      -4.55896
     5  C(13)              0.01696      19.06522       6.80294       6.35947
     6  C(13)              0.00861       9.67826       3.45344       3.22832
     7  O(17)             -0.00251       1.52307       0.54347       0.50804
     8  O(17)             -0.00083       0.50515       0.18025       0.16850
     9  C(13)             -0.00002      -0.02313      -0.00825      -0.00772
    10  C(13)             -0.00017      -0.19253      -0.06870      -0.06422
    11  H(1)              -0.00001      -0.02488      -0.00888      -0.00830
    12  H(1)              -0.00004      -0.19954      -0.07120      -0.06656
    13  H(1)               0.00000       0.01953       0.00697       0.00652
    14  H(1)               0.00000       0.00345       0.00123       0.00115
    15  H(1)               0.00001       0.02371       0.00846       0.00791
 --------------------------------------------------------
       Center         ----  Spin Dipole Couplings  ----
                      3XX-RR        3YY-RR        3ZZ-RR
 --------------------------------------------------------
     1   Atom       -1.712791      3.299502     -1.586711
     2   Atom       -0.002121     -0.037445      0.039566
     3   Atom       -0.071725      0.163116     -0.091391
     4   Atom        0.007440      0.005240     -0.012680
     5   Atom        0.021456      0.012254     -0.033710
     6   Atom        0.014908     -0.001808     -0.013100
     7   Atom        0.028446     -0.039594      0.011148
     8   Atom        0.010827     -0.011874      0.001047
     9   Atom        0.003534     -0.001656     -0.001877
    10   Atom        0.001372     -0.000562     -0.000810
    11   Atom        0.002510     -0.001296     -0.001214
    12   Atom        0.003448     -0.001708     -0.001740
    13   Atom        0.001007     -0.000447     -0.000561
    14   Atom        0.001109     -0.000393     -0.000716
    15   Atom        0.001190     -0.000363     -0.000828
 --------------------------------------------------------
                        XY            XZ            YZ
 --------------------------------------------------------
     1   Atom        0.430545      0.073217      0.948615
     2   Atom       -0.025770      0.139629     -0.021776
     3   Atom        0.113115      0.013861      0.009060
     4   Atom       -0.010433     -0.008745      0.006670
     5   Atom        0.000461     -0.016241      0.010809
     6   Atom        0.013772     -0.006119     -0.002084
     7   Atom       -0.000798     -0.004901     -0.014158
     8   Atom        0.000303      0.004263      0.000739
     9   Atom        0.000535      0.000145      0.000040
    10   Atom        0.000552     -0.000003      0.000014
    11   Atom       -0.000043      0.000897      0.000015
    12   Atom        0.000169     -0.000940      0.000040
    13   Atom        0.000325     -0.000040      0.000002
    14   Atom        0.000678      0.000336      0.000140
    15   Atom        0.000866     -0.000379     -0.000108
 --------------------------------------------------------


 ---------------------------------------------------------------------------------
              Anisotropic Spin Dipole Couplings in Principal Axis System
 ---------------------------------------------------------------------------------

       Atom             a.u.   MegaHertz   Gauss  10(-4) cm-1        Axes

              Baa    -1.7673   127.884    45.632    42.658  0.3725 -0.2013  0.9060
     1 O(17)  Bbb    -1.7463   126.364    45.090    42.150  0.9243 -0.0071 -0.3816
              Bcc     3.5137  -254.248   -90.722   -84.808  0.0833  0.9795  0.1834
 
              Baa    -0.1228   -65.520   -23.379   -21.855  0.7609  0.0650 -0.6456
     2 H(1)   Bbb    -0.0426   -22.716    -8.106    -7.577  0.0562  0.9846  0.1654
              Bcc     0.1654    88.236    31.485    29.433  0.6464 -0.1622  0.7455
 
              Baa    -0.1205   -16.168    -5.769    -5.393  0.8850 -0.3429 -0.3148
     3 C(13)  Bbb    -0.0889   -11.925    -4.255    -3.978  0.2760 -0.1580  0.9481
              Bcc     0.2094    28.093    10.024     9.371  0.3749  0.9260  0.0452
 
              Baa    -0.0164    -8.732    -3.116    -2.913  0.2788 -0.1578  0.9473
     4 H(1)   Bbb    -0.0041    -2.185    -0.780    -0.729  0.6431  0.7632 -0.0622
              Bcc     0.0205    10.917     3.895     3.642  0.7132 -0.6266 -0.3143
 
              Baa    -0.0403    -5.402    -1.928    -1.802  0.2509 -0.1973  0.9477
     5 C(13)  Bbb     0.0139     1.867     0.666     0.623  0.2371  0.9617  0.1374
              Bcc     0.0263     3.536     1.262     1.179  0.9385 -0.1902 -0.2880
 
              Baa    -0.0145    -1.942    -0.693    -0.648  0.2564 -0.1210  0.9590
     6 C(13)  Bbb    -0.0093    -1.246    -0.445    -0.416 -0.4379  0.8699  0.2269
              Bcc     0.0238     3.188     1.138     1.063  0.8617  0.4781 -0.1701
 
              Baa    -0.0433     3.136     1.119     1.046  0.0281  0.9669  0.2538
     7 O(17)  Bbb     0.0135    -0.974    -0.348    -0.325  0.2888 -0.2509  0.9239
              Bcc     0.0299    -2.162    -0.771    -0.721  0.9570  0.0473 -0.2863
 
              Baa    -0.0119     0.862     0.308     0.288 -0.0028  0.9984 -0.0560
     8 O(17)  Bbb    -0.0005     0.038     0.013     0.013 -0.3524  0.0514  0.9344
              Bcc     0.0124    -0.900    -0.321    -0.300  0.9358  0.0223  0.3517
 
              Baa    -0.0019    -0.253    -0.090    -0.084 -0.0123 -0.1445  0.9894
     9 C(13)  Bbb    -0.0017    -0.229    -0.082    -0.076 -0.1044  0.9843  0.1425
              Bcc     0.0036     0.482     0.172     0.161  0.9945  0.1016  0.0272
 
              Baa    -0.0008    -0.109    -0.039    -0.036  0.0342 -0.1293  0.9910
    10 C(13)  Bbb    -0.0007    -0.095    -0.034    -0.032 -0.2540  0.9579  0.1337
              Bcc     0.0015     0.204     0.073     0.068  0.9666  0.2563  0.0001
 
              Baa    -0.0014    -0.759    -0.271    -0.253 -0.2202 -0.1880  0.9572
    11 H(1)   Bbb    -0.0013    -0.689    -0.246    -0.230 -0.0327  0.9821  0.1854
              Bcc     0.0027     1.449     0.517     0.483  0.9749 -0.0095  0.2225
 
              Baa    -0.0019    -1.028    -0.367    -0.343  0.1734 -0.3045  0.9366
    12 H(1)   Bbb    -0.0017    -0.902    -0.322    -0.301  0.0245  0.9520  0.3050
              Bcc     0.0036     1.930     0.689     0.644  0.9845  0.0299 -0.1726
 
              Baa    -0.0006    -0.301    -0.107    -0.100  0.0674 -0.2050  0.9764
    13 H(1)   Bbb    -0.0005    -0.274    -0.098    -0.091 -0.1987  0.9563  0.2145
              Bcc     0.0011     0.575     0.205     0.192  0.9777  0.2084 -0.0237
 
              Baa    -0.0008    -0.415    -0.148    -0.138 -0.1263 -0.1352  0.9827
    14 H(1)   Bbb    -0.0007    -0.349    -0.124    -0.116 -0.3713  0.9251  0.0795
              Bcc     0.0014     0.764     0.273     0.255  0.9199  0.3548  0.1670
 
              Baa    -0.0009    -0.485    -0.173    -0.162  0.2670 -0.2388  0.9337
    15 H(1)   Bbb    -0.0007    -0.390    -0.139    -0.130 -0.3356  0.8851  0.3223
              Bcc     0.0016     0.874     0.312     0.292  0.9034  0.3994 -0.1562
 

 ---------------------------------------------------------------------------------

 Calling FoFJK, ICntrl=    100127 FMM=F ISym2X=0 I1Cent= 0 IOpClX= 1 NMat=1 NMatS=1 NMatT=0.
 Full mass-weighted force constant matrix:
 Low frequencies ---  -66.3520  -43.7699  -16.2066   -0.0009   -0.0002    0.0006
 Low frequencies ---   22.6962   51.9356  108.8080
 ******    1 imaginary frequencies (negative Signs) ****** 
 Diagonal vibrational polarizability:
      159.5618972      98.0774121      66.9403062
 Harmonic frequencies (cm**-1), IR intensities (KM/Mole), Raman scattering
 activities (A**4/AMU), depolarization ratios for plane and unpolarized
 incident light, reduced masses (AMU), force constants (mDyne/A),
 and normal coordinates:
                      1                      2                      3
                      A                      A                      A
 Frequencies --    -37.0231                45.3282               108.3449
 Red. masses --      4.9655                 4.3051                 5.8420
 Frc consts  --      0.0040                 0.0052                 0.0404
 IR Inten    --      7.7016                 3.3788                 5.1404
  Atom  AN      X      Y      Z        X      Y      Z        X      Y      Z
     1   8     0.22  -0.07   0.27     0.24  -0.08  -0.13     0.27  -0.02  -0.13
     2   1    -0.13  -0.24   0.53     0.24  -0.10  -0.14    -0.03   0.01   0.14
     3   6    -0.06   0.02  -0.11    -0.12  -0.01  -0.00     0.11   0.19   0.17
     4   1    -0.06   0.01  -0.12    -0.17  -0.09  -0.04     0.21   0.29   0.28
     5   6    -0.05   0.02  -0.10    -0.04   0.10   0.04    -0.00   0.08   0.03
     6   6    -0.02   0.08  -0.08    -0.03   0.10   0.07    -0.09  -0.07  -0.07
     7   8     0.05   0.22  -0.05    -0.03   0.02   0.06    -0.19  -0.26  -0.11
     8   8    -0.08  -0.06  -0.10    -0.03   0.16   0.10    -0.04   0.04  -0.05
     9   6    -0.08  -0.07  -0.08    -0.10  -0.05   0.08    -0.04   0.03  -0.04
    10   6    -0.01  -0.11   0.14     0.05  -0.19  -0.18    -0.03   0.04   0.21
    11   1    -0.16  -0.21  -0.17    -0.12   0.05   0.18    -0.10  -0.11  -0.13
    12   1    -0.06   0.07  -0.17    -0.23  -0.20   0.18     0.00   0.18  -0.13
    13   1    -0.02  -0.13   0.14    -0.01  -0.36  -0.17    -0.02   0.09   0.16
    14   1    -0.03  -0.25   0.22     0.17  -0.02  -0.29    -0.05  -0.14   0.32
    15   1     0.06   0.03   0.22     0.09  -0.29  -0.29    -0.02   0.20   0.34
                      4                      5                      6
                      A                      A                      A
 Frequencies --    112.5044               158.1343               173.7212
 Red. masses --      3.5347                 2.4329                11.3455
 Frc consts  --      0.0264                 0.0358                 0.2017
 IR Inten    --      7.3904                18.5745                 5.8389
  Atom  AN      X      Y      Z        X      Y      Z        X      Y      Z
     1   8    -0.15  -0.04   0.05    -0.04  -0.04  -0.01     0.22   0.61   0.02
     2   1     0.23  -0.04  -0.27    -0.34   0.02   0.27    -0.00   0.24   0.12
     3   6    -0.08  -0.13   0.02     0.07  -0.08   0.20    -0.09  -0.26   0.03
     4   1    -0.14  -0.28   0.05     0.12  -0.14   0.43    -0.05  -0.23   0.10
     5   6     0.01   0.04  -0.01     0.01   0.01  -0.10    -0.20  -0.46  -0.06
     6   6    -0.00   0.07  -0.04     0.01   0.04  -0.11    -0.05  -0.10  -0.04
     7   8    -0.07  -0.05  -0.07     0.09   0.02  -0.09    -0.04  -0.02  -0.02
     8   8     0.07   0.20  -0.03    -0.06   0.06  -0.04     0.01   0.07  -0.00
     9   6     0.01   0.03  -0.05    -0.04   0.01   0.12    -0.00   0.01   0.04
    10   6     0.21  -0.11   0.14    -0.02  -0.02  -0.00     0.08  -0.06   0.01
    11   1    -0.12  -0.13  -0.14    -0.10   0.14   0.25    -0.05   0.02   0.06
    12   1    -0.06   0.18  -0.13     0.03  -0.14   0.20    -0.01  -0.02   0.05
    13   1     0.14  -0.24   0.04     0.02  -0.08   0.29     0.06  -0.14   0.06
    14   1     0.32  -0.27   0.24    -0.20   0.21  -0.14     0.09  -0.01  -0.02
    15   1     0.29   0.09   0.26     0.15  -0.22  -0.23     0.15  -0.07  -0.03
                      7                      8                      9
                      A                      A                      A
 Frequencies --    191.6039               228.7581               257.5059
 Red. masses --      1.3839                 1.3049                 2.6990
 Frc consts  --      0.0299                 0.0402                 0.1054
 IR Inten    --     46.9154                 2.3226                15.7808
  Atom  AN      X      Y      Z        X      Y      Z        X      Y      Z
     1   8     0.02   0.05   0.06    -0.00  -0.02  -0.00     0.03   0.09  -0.02
     2   1     0.73  -0.06  -0.58     0.02  -0.00  -0.02    -0.47   0.23   0.45
     3   6    -0.00  -0.04   0.04    -0.01   0.04  -0.04    -0.13  -0.16  -0.04
     4   1    -0.04  -0.14   0.08    -0.01   0.10  -0.11    -0.30  -0.43  -0.10
     5   6     0.04   0.08  -0.01    -0.01  -0.03   0.06     0.12   0.23   0.05
     6   6     0.01   0.01  -0.02    -0.02  -0.01   0.02     0.05   0.04   0.02
     7   8     0.01  -0.01  -0.03    -0.08   0.03   0.00    -0.01  -0.09  -0.00
     8   8    -0.03  -0.05  -0.03     0.03  -0.02  -0.03     0.02  -0.06  -0.00
     9   6    -0.02  -0.03   0.01     0.04   0.00  -0.02     0.02  -0.04  -0.04
    10   6    -0.07   0.01   0.01     0.06  -0.01   0.02    -0.05   0.02   0.01
    11   1    -0.02   0.00   0.03     0.02  -0.00  -0.02     0.05  -0.06  -0.07
    12   1     0.02  -0.05   0.02     0.06   0.00  -0.03     0.02  -0.00  -0.06
    13   1    -0.03   0.06   0.12     0.16  -0.05   0.60     0.01   0.10   0.14
    14   1    -0.19   0.07  -0.03    -0.39   0.27  -0.14    -0.21   0.05  -0.00
    15   1    -0.04  -0.05  -0.06     0.41  -0.25  -0.31    -0.01  -0.03  -0.04
                     10                     11                     12
                      A                      A                      A
 Frequencies --    338.0657               419.0506               554.0489
 Red. masses --      2.8910                 3.8353                 2.2536
 Frc consts  --      0.1947                 0.3968                 0.4076
 IR Inten    --     11.3953                 0.3291                35.5430
  Atom  AN      X      Y      Z        X      Y      Z        X      Y      Z
     1   8     0.01   0.00   0.00    -0.01  -0.01  -0.00     0.01  -0.03   0.01
     2   1     0.00   0.07   0.02    -0.03   0.11   0.04     0.17   0.75   0.09
     3   6    -0.02  -0.01  -0.04     0.11  -0.04  -0.07     0.09  -0.06  -0.06
     4   1    -0.06  -0.03  -0.12     0.09   0.02  -0.20     0.04  -0.04  -0.22
     5   6     0.04   0.03   0.09     0.11  -0.13   0.10     0.14  -0.06   0.14
     6   6    -0.01  -0.00  -0.06     0.09   0.06  -0.01     0.00  -0.02  -0.04
     7   8    -0.18   0.09  -0.10    -0.08   0.06  -0.06     0.01   0.01  -0.03
     8   8     0.00  -0.09  -0.11     0.13   0.21   0.00    -0.11  -0.01   0.01
     9   6     0.11  -0.02   0.21    -0.03  -0.16   0.02    -0.14   0.12   0.00
    10   6     0.07  -0.00   0.02    -0.23  -0.05   0.04     0.01   0.01  -0.01
    11   1     0.03   0.23   0.45    -0.09  -0.16   0.05    -0.10   0.06  -0.07
    12   1     0.31  -0.30   0.36    -0.13  -0.17   0.03    -0.14   0.18  -0.03
    13   1     0.00  -0.01  -0.30    -0.11   0.34   0.03    -0.09  -0.28   0.02
    14   1     0.36  -0.02   0.02    -0.48  -0.09   0.07     0.17   0.04  -0.03
    15   1    -0.16   0.01   0.11    -0.49  -0.11   0.09     0.21   0.05  -0.05
                     13                     14                     15
                      A                      A                      A
 Frequencies --    592.7622               609.4768               720.4707
 Red. masses --      1.4332                 5.4880                 1.3357
 Frc consts  --      0.2967                 1.2011                 0.4085
 IR Inten    --     73.7161                 9.6485                36.8223
  Atom  AN      X      Y      Z        X      Y      Z        X      Y      Z
     1   8     0.01  -0.05   0.01    -0.01   0.01  -0.01    -0.00  -0.00  -0.00
     2   1     0.22   0.91   0.09    -0.08  -0.47  -0.07    -0.01  -0.02   0.00
     3   6    -0.08   0.04   0.02    -0.18   0.09   0.06    -0.00   0.10  -0.12
     4   1    -0.04   0.08   0.10    -0.24   0.31  -0.38    -0.02  -0.60   0.78
     5   6    -0.11   0.00  -0.04    -0.09  -0.06   0.40    -0.00  -0.04   0.07
     6   6    -0.02  -0.00  -0.00    -0.03   0.05  -0.11    -0.00   0.01  -0.00
     7   8     0.04  -0.01   0.01     0.28  -0.10  -0.05     0.01  -0.01   0.00
     8   8     0.04   0.02  -0.03    -0.01   0.05  -0.19    -0.00  -0.00  -0.01
     9   6     0.06  -0.05  -0.01    -0.01  -0.00  -0.02    -0.00   0.00  -0.00
    10   6     0.00  -0.00   0.00    -0.01  -0.01   0.01    -0.00  -0.00   0.00
    11   1     0.02  -0.01   0.05    -0.12   0.14   0.14    -0.01   0.01   0.01
    12   1     0.08  -0.10   0.02     0.12  -0.16   0.07     0.01  -0.01   0.01
    13   1     0.05   0.13  -0.01    -0.00   0.02  -0.01    -0.00  -0.01   0.00
    14   1    -0.08  -0.03   0.02    -0.02  -0.06   0.04     0.00  -0.01   0.00
    15   1    -0.09  -0.02   0.03    -0.02   0.04   0.05     0.01   0.01   0.00
                     16                     17                     18
                      A                      A                      A
 Frequencies --    749.3671               778.6205               799.6583
 Red. masses --      1.3256                 8.0676                 1.1986
 Frc consts  --      0.4386                 2.8817                 0.4516
 IR Inten    --     21.0868                53.7931                 4.9508
  Atom  AN      X      Y      Z        X      Y      Z        X      Y      Z
     1   8     0.00   0.01   0.00    -0.01  -0.02   0.00    -0.00  -0.00   0.00
     2   1     0.01  -0.03  -0.02     0.00   0.08   0.02     0.00   0.00  -0.00
     3   6    -0.08  -0.10  -0.08     0.00  -0.04  -0.02    -0.03   0.02   0.01
     4   1     0.54   0.65   0.51     0.29   0.39   0.13    -0.03   0.02   0.00
     5   6     0.04   0.04   0.04    -0.08  -0.18  -0.05    -0.02  -0.01   0.02
     6   6    -0.01  -0.03  -0.01     0.25   0.64   0.14     0.03   0.03  -0.03
     7   8     0.01   0.01  -0.00    -0.08  -0.18  -0.03     0.01  -0.00  -0.05
     8   8     0.00   0.01   0.00    -0.06  -0.17  -0.03    -0.01  -0.02   0.03
     9   6    -0.00   0.00   0.00    -0.02   0.01  -0.02     0.03  -0.02   0.07
    10   6    -0.00  -0.00   0.00    -0.00   0.02  -0.01     0.02   0.00   0.03
    11   1    -0.00  -0.01  -0.01     0.05   0.16   0.07    -0.08  -0.45  -0.25
    12   1    -0.01   0.01  -0.00     0.06  -0.13   0.05     0.02   0.46  -0.21
    13   1    -0.00  -0.00  -0.00    -0.04  -0.12   0.04    -0.01   0.06  -0.18
    14   1     0.00   0.01  -0.00     0.06  -0.06   0.04     0.17   0.37  -0.20
    15   1    -0.01  -0.01  -0.00     0.17   0.12   0.01    -0.25  -0.35  -0.15
                     19                     20                     21
                      A                      A                      A
 Frequencies --    895.8273               928.4966              1077.3831
 Red. masses --      3.1251                 2.8604                 4.1519
 Frc consts  --      1.4776                 1.4529                 2.8394
 IR Inten    --     14.6996                 6.5099                20.8327
  Atom  AN      X      Y      Z        X      Y      Z        X      Y      Z
     1   8    -0.00  -0.00   0.00     0.00   0.00  -0.00     0.00   0.00   0.00
     2   1     0.01  -0.01  -0.01    -0.01   0.00   0.01     0.00  -0.00   0.00
     3   6    -0.03   0.02   0.01     0.10  -0.06  -0.04     0.06  -0.03  -0.02
     4   1    -0.04   0.02  -0.01     0.11  -0.05  -0.04     0.06  -0.03  -0.05
     5   6    -0.01  -0.01   0.06     0.07  -0.01  -0.02     0.04  -0.01   0.02
     6   6     0.03   0.01  -0.10    -0.14   0.05   0.07    -0.14   0.07  -0.02
     7   8     0.00   0.03  -0.15     0.01  -0.03   0.14     0.02  -0.01   0.02
     8   8    -0.13  -0.02   0.23    -0.13   0.06  -0.13    -0.20   0.07   0.06
     9   6     0.05  -0.12  -0.02    -0.01  -0.10  -0.02     0.36   0.10  -0.08
    10   6     0.15   0.06  -0.07     0.17   0.05   0.00    -0.12  -0.17   0.02
    11   1     0.19  -0.07  -0.03    -0.42  -0.14   0.09     0.40   0.20  -0.02
    12   1    -0.33  -0.21   0.06     0.02  -0.11  -0.01     0.47   0.17  -0.11
    13   1     0.34   0.53   0.10     0.33   0.60  -0.12    -0.14  -0.23   0.00
    14   1    -0.27  -0.21   0.10    -0.10   0.18  -0.07    -0.15  -0.24   0.05
    15   1     0.05   0.28   0.14    -0.27  -0.11   0.03    -0.19  -0.27  -0.03
                     22                     23                     24
                      A                      A                      A
 Frequencies --   1127.5396              1203.0267              1293.0955
 Red. masses --      2.0990                 1.7749                 3.5361
 Frc consts  --      1.5723                 1.5135                 3.4836
 IR Inten    --     21.2583                 5.0411               562.6131
  Atom  AN      X      Y      Z        X      Y      Z        X      Y      Z
     1   8    -0.00  -0.00  -0.00     0.00   0.00  -0.00    -0.00  -0.00  -0.00
     2   1     0.00   0.00   0.00     0.00   0.00   0.00    -0.01  -0.03  -0.00
     3   6    -0.01   0.01   0.01     0.02  -0.01  -0.01    -0.07   0.04   0.03
     4   1    -0.02   0.01   0.01     0.02  -0.01  -0.01    -0.07   0.04   0.05
     5   6    -0.01   0.00  -0.00     0.01   0.00  -0.00    -0.02   0.00  -0.00
     6   6     0.03  -0.01   0.00    -0.06   0.03  -0.00     0.34  -0.16   0.11
     7   8    -0.00  -0.00  -0.01     0.00  -0.01   0.03    -0.05   0.01   0.01
     8   8     0.05  -0.06  -0.02     0.00   0.01  -0.08    -0.17   0.07  -0.07
     9   6    -0.05   0.22   0.05     0.04  -0.03   0.18     0.11   0.01  -0.02
    10   6     0.06  -0.17  -0.04    -0.03   0.02  -0.13    -0.02   0.02  -0.06
    11   1    -0.06   0.14  -0.03     0.19  -0.42  -0.18    -0.77  -0.12   0.17
    12   1    -0.16   0.23   0.06    -0.17   0.41  -0.07     0.11   0.15  -0.09
    13   1     0.26   0.44  -0.01     0.02  -0.06   0.28    -0.02  -0.08   0.10
    14   1    -0.51  -0.24   0.02    -0.12  -0.39   0.13    -0.07  -0.24   0.09
    15   1    -0.43  -0.15   0.16     0.23   0.40   0.09     0.04   0.09  -0.01
                     25                     26                     27
                      A                      A                      A
 Frequencies --   1347.9900              1400.5552              1429.9875
 Red. masses --      1.2596                 1.2870                 1.3912
 Frc consts  --      1.3485                 1.4874                 1.6761
 IR Inten    --    111.9219                34.5803                 8.8258
  Atom  AN      X      Y      Z        X      Y      Z        X      Y      Z
     1   8     0.00   0.00   0.00    -0.00  -0.00  -0.00    -0.00  -0.00  -0.00
     2   1     0.00   0.01   0.00    -0.00  -0.00  -0.00    -0.00  -0.00   0.00
     3   6     0.01  -0.00  -0.00    -0.01   0.00   0.00    -0.01   0.01   0.00
     4   1     0.01  -0.01  -0.01    -0.01   0.01   0.01    -0.01   0.01   0.01
     5   6     0.00  -0.00   0.00    -0.00  -0.00  -0.00    -0.00  -0.00  -0.00
     6   6    -0.06   0.03  -0.03     0.05  -0.02   0.01     0.06  -0.02   0.01
     7   8     0.01   0.00  -0.02    -0.01   0.00   0.01    -0.01   0.00   0.01
     8   8     0.05  -0.02   0.08    -0.03   0.03  -0.02    -0.03   0.03  -0.02
     9   6    -0.04  -0.00  -0.00    -0.05  -0.02   0.01    -0.11  -0.06   0.02
    10   6    -0.01  -0.01  -0.06    -0.06  -0.11   0.01     0.09   0.05  -0.01
    11   1    -0.54  -0.09   0.11     0.37   0.14  -0.01     0.54   0.17  -0.03
    12   1     0.77   0.10  -0.12     0.27   0.14  -0.10     0.49   0.18  -0.16
    13   1     0.03   0.04   0.06     0.16   0.51   0.01    -0.05  -0.31  -0.04
    14   1    -0.06  -0.10   0.00     0.29   0.29  -0.23    -0.34  -0.09   0.07
    15   1     0.09   0.17   0.05     0.34   0.26   0.14    -0.32  -0.09   0.03
                     28                     29                     30
                      A                      A                      A
 Frequencies --   1492.1259              1502.7492              1514.6330
 Red. masses --      1.0409                 1.0611                 1.0852
 Frc consts  --      1.3654                 1.4118                 1.4668
 IR Inten    --     10.4939                 1.8946                17.0136
  Atom  AN      X      Y      Z        X      Y      Z        X      Y      Z
     1   8     0.00   0.00   0.00     0.00   0.00   0.00     0.00   0.00   0.00
     2   1    -0.00   0.00   0.00     0.00   0.00   0.00    -0.00   0.00   0.00
     3   6     0.00  -0.00  -0.00     0.00  -0.00  -0.00     0.00  -0.00  -0.00
     4   1     0.00  -0.00  -0.00     0.00  -0.00  -0.00     0.00  -0.00  -0.00
     5   6    -0.00   0.00   0.00    -0.00   0.00   0.00    -0.00   0.00   0.00
     6   6    -0.00   0.00   0.00    -0.02   0.00   0.00    -0.02   0.01   0.01
     7   8     0.00   0.00  -0.01     0.00   0.00  -0.01     0.01   0.00  -0.01
     8   8     0.00  -0.00   0.00     0.01  -0.01   0.00     0.01  -0.01   0.01
     9   6    -0.02  -0.01  -0.02    -0.01  -0.05   0.01     0.04  -0.05  -0.01
    10   6    -0.01   0.02  -0.04    -0.02   0.03   0.02     0.02  -0.03  -0.01
    11   1     0.04   0.12   0.06    -0.03   0.36   0.34    -0.15   0.31   0.35
    12   1     0.01   0.04  -0.05    -0.14   0.42  -0.26    -0.27   0.33  -0.22
    13   1     0.15   0.06   0.65     0.02   0.22  -0.21    -0.05  -0.26   0.10
    14   1     0.55  -0.15   0.06     0.03  -0.32   0.21    -0.13   0.36  -0.23
    15   1    -0.42  -0.16  -0.01     0.25  -0.28  -0.33    -0.19   0.32   0.34
                     31                     32                     33
                      A                      A                      A
 Frequencies --   1842.0524              2229.3005              3075.1682
 Red. masses --     11.9909                 5.9003                 1.0354
 Frc consts  --     23.9722                17.2768                 5.7687
 IR Inten    --    331.3616                63.2042                10.7231
  Atom  AN      X      Y      Z        X      Y      Z        X      Y      Z
     1   8     0.00   0.00  -0.00    -0.00  -0.01  -0.00    -0.00  -0.00   0.00
     2   1    -0.03   0.01   0.02    -0.00   0.00   0.00    -0.00   0.00  -0.00
     3   6     0.06  -0.03  -0.02    -0.32   0.18   0.12     0.00  -0.00  -0.00
     4   1     0.09  -0.06  -0.01    -0.62   0.35   0.24    -0.00   0.00   0.00
     5   6    -0.04   0.02   0.00     0.46  -0.22  -0.17    -0.00   0.00   0.00
     6   6    -0.21  -0.07   0.75    -0.09   0.03   0.04     0.00  -0.00   0.00
     7   8     0.15   0.04  -0.49     0.00   0.00  -0.01     0.00   0.00  -0.00
     8   8    -0.01   0.02  -0.07    -0.00   0.00  -0.00    -0.00   0.00  -0.00
     9   6    -0.03   0.01   0.02     0.00  -0.00   0.00     0.00   0.00   0.00
    10   6     0.01  -0.01  -0.00    -0.00  -0.00  -0.00    -0.04  -0.04  -0.00
    11   1     0.15  -0.09  -0.12     0.00  -0.00   0.00     0.00  -0.01   0.01
    12   1     0.13  -0.07   0.08     0.00  -0.00   0.00    -0.00  -0.01  -0.02
    13   1     0.02   0.06  -0.04     0.00  -0.00  -0.00     0.57  -0.20  -0.11
    14   1    -0.04   0.01  -0.01    -0.00   0.00  -0.00    -0.00   0.30   0.51
    15   1     0.06   0.03   0.02     0.00   0.00   0.00    -0.15   0.31  -0.39
                     34                     35                     36
                      A                      A                      A
 Frequencies --   3108.4368              3150.2468              3154.9093
 Red. masses --      1.0609                 1.1014                 1.1047
 Frc consts  --      6.0396                 6.4397                 6.4787
 IR Inten    --     16.0037                15.0942                 1.9909
  Atom  AN      X      Y      Z        X      Y      Z        X      Y      Z
     1   8    -0.00  -0.00  -0.00     0.00  -0.00   0.00     0.00   0.00   0.00
     2   1     0.00  -0.00   0.00    -0.00   0.00  -0.00    -0.00   0.00  -0.00
     3   6    -0.00   0.00   0.00     0.00  -0.00  -0.00    -0.00  -0.00   0.00
     4   1     0.00  -0.00  -0.00    -0.00   0.00   0.00    -0.00   0.00   0.00
     5   6     0.00  -0.00  -0.00    -0.00   0.00   0.00    -0.00   0.00   0.00
     6   6    -0.00   0.00  -0.00     0.00  -0.00   0.00    -0.00   0.00   0.00
     7   8    -0.00   0.00   0.00     0.00   0.00  -0.00    -0.00  -0.00  -0.00
     8   8     0.00  -0.00   0.00     0.00  -0.00  -0.00     0.00   0.00  -0.00
     9   6     0.01  -0.06  -0.02    -0.01   0.01  -0.02     0.01  -0.01   0.05
    10   6    -0.01   0.01   0.01    -0.05   0.04   0.06    -0.05   0.04  -0.05
    11   1    -0.15   0.33  -0.42     0.08  -0.18   0.22    -0.12   0.26  -0.32
    12   1     0.04   0.40   0.71    -0.00   0.01   0.02    -0.02  -0.19  -0.31
    13   1     0.12  -0.05  -0.02     0.61  -0.21  -0.11     0.38  -0.13  -0.09
    14   1    -0.00  -0.03  -0.06    -0.01  -0.35  -0.60    -0.01   0.09   0.14
    15   1     0.01  -0.01   0.02    -0.02   0.02  -0.00     0.19  -0.42   0.52
                     37                     38                     39
                      A                      A                      A
 Frequencies --   3175.7948              3486.8036              3800.8578
 Red. masses --      1.1074                 1.1648                 1.0673
 Frc consts  --      6.5804                 8.3433                 9.0844
 IR Inten    --     14.9049                66.7437                38.8204
  Atom  AN      X      Y      Z        X      Y      Z        X      Y      Z
     1   8    -0.00  -0.00   0.00    -0.00  -0.00  -0.00    -0.04   0.01  -0.05
     2   1     0.00   0.00  -0.00     0.00   0.00   0.00     0.64  -0.20   0.73
     3   6     0.00  -0.00  -0.00    -0.10   0.05   0.04     0.00  -0.00  -0.00
     4   1    -0.00   0.00   0.00     0.83  -0.44  -0.32     0.00   0.00  -0.00
     5   6    -0.00  -0.00   0.00     0.03  -0.01  -0.01     0.00   0.00   0.00
     6   6     0.00   0.00  -0.00    -0.00   0.00   0.00    -0.00   0.00   0.00
     7   8    -0.00   0.00   0.00     0.00  -0.00   0.00     0.00   0.00  -0.00
     8   8    -0.00  -0.00   0.00     0.00  -0.00  -0.00     0.00  -0.00   0.00
     9   6    -0.02   0.02  -0.07    -0.00   0.00  -0.00    -0.00   0.00   0.00
    10   6    -0.02   0.01  -0.05    -0.00  -0.00  -0.00     0.00  -0.00  -0.00
    11   1     0.17  -0.40   0.48     0.00  -0.00   0.00     0.00  -0.00   0.00
    12   1     0.03   0.22   0.37     0.00  -0.00  -0.00     0.00  -0.00  -0.00
    13   1     0.07  -0.02  -0.02     0.00  -0.00  -0.00     0.00  -0.00  -0.00
    14   1     0.00   0.19   0.30    -0.00   0.00   0.00    -0.00   0.00   0.00
    15   1     0.14  -0.30   0.37    -0.00  -0.00   0.00    -0.00  -0.00   0.00

 -------------------
 - Thermochemistry -
 -------------------
 Temperature   298.150 Kelvin.  Pressure   1.00000 Atm.
 Atom     1 has atomic number  8 and mass  15.99491
 Atom     2 has atomic number  1 and mass   1.00783
 Atom     3 has atomic number  6 and mass  12.00000
 Atom     4 has atomic number  1 and mass   1.00783
 Atom     5 has atomic number  6 and mass  12.00000
 Atom     6 has atomic number  6 and mass  12.00000
 Atom     7 has atomic number  8 and mass  15.99491
 Atom     8 has atomic number  8 and mass  15.99491
 Atom     9 has atomic number  6 and mass  12.00000
 Atom    10 has atomic number  6 and mass  12.00000
 Atom    11 has atomic number  1 and mass   1.00783
 Atom    12 has atomic number  1 and mass   1.00783
 Atom    13 has atomic number  1 and mass   1.00783
 Atom    14 has atomic number  1 and mass   1.00783
 Atom    15 has atomic number  1 and mass   1.00783
 Molecular mass:   115.03952 amu.
 Principal axes and moments of inertia in atomic units:
                           1         2         3
     Eigenvalues --   463.998941553.299611640.94955
           X            0.99998  -0.00374   0.00548
           Y            0.00327   0.99651   0.08345
           Z           -0.00577  -0.08343   0.99650
 This molecule is an asymmetric top.
 Rotational symmetry number  1.
 Warning -- assumption of classical behavior for rotation
           may cause significant error
 Rotational temperatures (Kelvin)      0.18667     0.05576     0.05278
 Rotational constants (GHZ):           3.88954     1.16188     1.09982
    1 imaginary frequencies ignored.
 Zero-point vibrational energy     293530.1 (Joules/Mol)
                                   70.15538 (Kcal/Mol)
 Warning -- explicit consideration of  13 degrees of freedom as
           vibrations may cause significant error
 Vibrational temperatures:     65.22   155.88   161.87   227.52   249.95
          (Kelvin)            275.68   329.13   370.49   486.40   602.92
                              797.15   852.85   876.90  1036.60  1078.17
                             1120.26  1150.53  1288.90  1335.90  1550.11
                             1622.28  1730.89  1860.48  1939.46  2015.09
                             2057.43  2146.84  2162.12  2179.22  2650.30
                             3207.47  4424.48  4472.35  4532.50  4539.21
                             4569.26  5016.73  5468.59
 
 Zero-point correction=                           0.111800 (Hartree/Particle)
 Thermal correction to Energy=                    0.121460
 Thermal correction to Enthalpy=                  0.122405
 Thermal correction to Gibbs Free Energy=         0.076115
 Sum of electronic and zero-point Energies=           -420.093390
 Sum of electronic and thermal Energies=              -420.083729
 Sum of electronic and thermal Enthalpies=            -420.082785
 Sum of electronic and thermal Free Energies=         -420.129075
 
                     E (Thermal)             CV                S
                      KCal/Mol        Cal/Mol-Kelvin    Cal/Mol-Kelvin
 Total                   76.218             32.530             97.425
 Electronic               0.000              0.000              1.377
 Translational            0.889              2.981             40.136
 Rotational               0.889              2.981             28.560
 Vibrational             74.440             26.569             27.352
 Vibration     1          0.595              1.979              5.011
 Vibration     2          0.606              1.943              3.298
 Vibration     3          0.607              1.939              3.225
 Vibration     4          0.621              1.894              2.572
 Vibration     5          0.627              1.875              2.395
 Vibration     6          0.634              1.851              2.212
 Vibration     7          0.651              1.797              1.889
 Vibration     8          0.667              1.750              1.679
 Vibration     9          0.718              1.599              1.221
 Vibration    10          0.782              1.429              0.895
 Vibration    11          0.909              1.131              0.536
 Vibration    12          0.950              1.047              0.462
 Vibration    13          0.968              1.012              0.434
                       Q            Log10(Q)             Ln(Q)
 Total Bot       0.976498D-35        -35.010328        -80.614260
 Total V=0       0.259373D+17         16.413924         37.794457
 Vib (Bot)       0.258605D-48        -48.587362       -111.876536
 Vib (Bot)    1  0.456255D+01          0.659207          1.517881
 Vib (Bot)    2  0.189103D+01          0.276697          0.637119
 Vib (Bot)    3  0.181950D+01          0.259951          0.598560
 Vib (Bot)    4  0.127917D+01          0.106928          0.246211
 Vib (Bot)    5  0.115863D+01          0.063945          0.147238
 Vib (Bot)    6  0.104394D+01          0.018675          0.043002
 Vib (Bot)    7  0.861455D+00         -0.064767         -0.149132
 Vib (Bot)    8  0.755201D+00         -0.121937         -0.280771
 Vib (Bot)    9  0.549927D+00         -0.259695         -0.597971
 Vib (Bot)   10  0.419320D+00         -0.377454         -0.869120
 Vib (Bot)   11  0.282144D+00         -0.549529         -1.265337
 Vib (Bot)   12  0.253778D+00         -0.595546         -1.371296
 Vib (Bot)   13  0.242605D+00         -0.615100         -1.416320
 Vib (V=0)       0.686895D+03          2.836890          6.532182
 Vib (V=0)    1  0.508986D+01          0.706706          1.627251
 Vib (V=0)    2  0.245601D+01          0.390230          0.898538
 Vib (V=0)    3  0.238695D+01          0.377843          0.870015
 Vib (V=0)    4  0.187342D+01          0.272635          0.627764
 Vib (V=0)    5  0.176191D+01          0.245984          0.566400
 Vib (V=0)    6  0.165750D+01          0.219454          0.505311
 Vib (V=0)    7  0.149604D+01          0.174945          0.402825
 Vib (V=0)    8  0.140572D+01          0.147899          0.340550
 Vib (V=0)    9  0.124325D+01          0.094558          0.217728
 Vib (V=0)   10  0.115256D+01          0.061662          0.141982
 Vib (V=0)   11  0.107411D+01          0.031050          0.071495
 Vib (V=0)   12  0.106072D+01          0.025599          0.058945
 Vib (V=0)   13  0.105575D+01          0.023561          0.054251
 Electronic      0.200000D+01          0.301030          0.693147
 Translational   0.484981D+08          7.685724         17.697035
 Rotational      0.389295D+06          5.590279         12.872094
 ***** Axes restored to original set *****
 -------------------------------------------------------------------
 Center     Atomic                   Forces (Hartrees/Bohr)
 Number     Number              X              Y              Z
 -------------------------------------------------------------------
      1        8           0.003917281    0.010348064    0.000906365
      2        1          -0.000115932    0.000173660    0.000013721
      3        6           0.000834242   -0.000558101   -0.000453921
      4        1           0.000232966    0.000382322    0.000020161
      5        6          -0.004005549   -0.009869290   -0.000974247
      6        6          -0.000952228   -0.002333187   -0.000170189
      7        8          -0.000176873    0.001304223    0.000426261
      8        8          -0.000017940   -0.000062063    0.000103654
      9        6           0.000096669    0.000338483    0.000104932
     10        6           0.000130819    0.000192907    0.000006966
     11        1           0.000012015    0.000018679    0.000005343
     12        1           0.000006346    0.000025065    0.000007863
     13        1           0.000007612    0.000007058   -0.000001531
     14        1           0.000019553    0.000016779    0.000000306
     15        1           0.000011019    0.000015399    0.000004315
 -------------------------------------------------------------------
 Cartesian Forces:  Max     0.010348064 RMS     0.002345699

 GradGradGradGradGradGradGradGradGradGradGradGradGradGradGradGradGradGrad
 Berny optimization.
 Search for a local minimum.
 Step number   1 out of a maximum of    2
 All quantities printed in internal units (Hartrees-Bohrs-Radians)
 Second derivative matrix not updated -- analytic derivatives used.
 ITU=  0
     Eigenvalues ---   -0.00037   0.00025   0.00145   0.00221   0.00293
     Eigenvalues ---    0.00380   0.00562   0.00964   0.01377   0.02036
     Eigenvalues ---    0.02406   0.03174   0.03414   0.05225   0.06297
     Eigenvalues ---    0.07617   0.08057   0.08352   0.09694   0.10263
     Eigenvalues ---    0.11366   0.14173   0.17087   0.17433   0.19954
     Eigenvalues ---    0.28684   0.29812   0.43773   0.49372   0.62888
     Eigenvalues ---    0.70998   0.76476   0.78762   0.86538   0.89965
     Eigenvalues ---    0.92669   0.97339   1.72973   2.64885
 Eigenvalue     1 is  -3.69D-04 should be greater than     0.000000 Eigenvector:
                          Z2        Z1        Y2        X1        Y7
   1                    0.51275   0.30309  -0.26885   0.26720   0.23931
                          Y14       Z14       Z15       Z12       Z11
   1                   -0.21406   0.19905   0.19854  -0.18113  -0.17901
 Quadratic step=5.241D+00 exceeds max=3.000D-01 adjusted using Lamda=-3.579D-02.
 Angle between NR and scaled steps=  71.42 degrees.
 Angle between quadratic step and forces=   9.07 degrees.
 Linear search not attempted -- first point.
 B after Tr=    -0.001106    0.000438   -0.000568
         Rot=    1.000000    0.000373   -0.000105   -0.000024 Ang=   0.04 deg.
 Variable       Old X    -DE/DX   Delta X   Delta X   Delta X     New X
                                 (Linear)    (Quad)   (Total)
    X1        4.16531   0.00392   0.00000   0.06853   0.06728   4.23258
    Y1        2.69447   0.01035   0.00000   0.19583   0.19644   2.89091
    Z1       -0.05942   0.00091   0.00000   0.01672   0.01310  -0.04632
    X2        5.35127  -0.00012   0.00000   0.00967   0.00872   5.35999
    Y2        2.33543   0.00017   0.00000   0.01468   0.01636   2.35179
    Z2        1.29463   0.00001   0.00000   0.02040   0.01695   1.31158
    X3        4.64424   0.00083   0.00000   0.00003  -0.00118   4.64307
    Y3       -2.27392  -0.00056   0.00000  -0.02952  -0.02962  -2.30354
    Z3       -1.00862  -0.00045   0.00000  -0.01191  -0.01173  -1.02036
    X4        6.33169   0.00023   0.00000   0.02521   0.02391   6.35560
    Y4       -3.16074   0.00038   0.00000   0.01695   0.01646  -3.14428
    Z4       -1.65425   0.00002   0.00000  -0.00510  -0.00466  -1.65891
    X5        2.75861  -0.00401   0.00000  -0.07751  -0.07862   2.67999
    Y5       -1.21112  -0.00987   0.00000  -0.18463  -0.18431  -1.39543
    Z5       -0.31266  -0.00097   0.00000  -0.01990  -0.01999  -0.33265
    X6        0.29284  -0.00095   0.00000  -0.01743  -0.01839   0.27445
    Y6       -0.38092  -0.00233   0.00000  -0.04786  -0.04695  -0.42787
    Z6        0.62109  -0.00017   0.00000  -0.00416  -0.00446   0.61663
    X7       -0.33373  -0.00018   0.00000  -0.00060  -0.00109  -0.33481
    Y7       -0.58436   0.00130   0.00000   0.02311   0.02562  -0.55873
    Z7        2.78938   0.00043   0.00000   0.00892   0.00884   2.79822
    X8       -1.12001  -0.00002   0.00000  -0.00418  -0.00557  -1.12559
    Y8        0.52173  -0.00006   0.00000  -0.01503  -0.01558   0.50615
    Z8       -1.24426   0.00010   0.00000  -0.00060  -0.00131  -1.24557
    X9       -3.63414   0.00010   0.00000   0.00283   0.00154  -3.63260
    Y9        1.32162   0.00034   0.00000   0.00322   0.00306   1.32468
    Z9       -0.56211   0.00010   0.00000   0.00106   0.00027  -0.56183
   X10       -5.40751   0.00013   0.00000  -0.00007  -0.00121  -5.40872
   Y10       -0.92048   0.00019   0.00000   0.00452   0.00443  -0.91605
   Z10       -0.35901   0.00001   0.00000  -0.00021   0.00104  -0.35797
   X11       -4.18274   0.00001   0.00000   0.00524   0.00357  -4.17918
   Y11        2.59210   0.00002   0.00000   0.00315   0.00183   2.59392
   Z11       -2.08363   0.00001   0.00000   0.00036  -0.00126  -2.08489
   X12       -3.53343   0.00001   0.00000   0.00497   0.00400  -3.52943
   Y12        2.37139   0.00003   0.00000   0.00214   0.00331   2.37471
   Z12        1.20827   0.00001   0.00000   0.00109  -0.00051   1.20777
   X13       -7.32207   0.00001   0.00000  -0.00051  -0.00160  -7.32367
   Y13       -0.25348   0.00001   0.00000   0.00223   0.00233  -0.25115
   Z13        0.02305  -0.00000   0.00000   0.00011   0.00127   0.02432
   X14       -5.42728   0.00002   0.00000   0.00135  -0.00011  -5.42739
   Y14       -1.98485   0.00002   0.00000   0.00452   0.00310  -1.98175
   Z14       -2.12469   0.00000   0.00000  -0.00046   0.00159  -2.12309
   X15       -4.83422   0.00001   0.00000  -0.00050  -0.00125  -4.83547
   Y15       -2.16556   0.00002   0.00000   0.00242   0.00350  -2.16206
   Z15        1.17891   0.00000   0.00000  -0.00121   0.00085   1.17976
         Item               Value     Threshold  Converged?
 Maximum Force            0.010348     0.000450     NO 
 RMS     Force            0.002346     0.000300     NO 
 Maximum Displacement     0.196440     0.001800     NO 
 RMS     Displacement     0.044731     0.001200     NO 
 Predicted change in Energy=-3.945126D-03
 GradGradGradGradGradGradGradGradGradGradGradGradGradGradGradGradGradGrad


 ----------------------------------------------------------------------

 Electric dipole moment (input orientation):
 (Debye = 10**-18 statcoulomb cm , SI units = C m)
                  (au)            (Debye)         (10**-30 SI)
   Tot        0.390719D+00      0.993110D+00      0.331266D+01
   x          0.103974D+00      0.264275D+00      0.881526D+00
   y         -0.252966D+00     -0.642975D+00     -0.214474D+01
   z         -0.279033D+00     -0.709231D+00     -0.236574D+01

 Dipole polarizability, Alpha (input orientation).
 (esu units = cm**3 , SI units = C**2 m**2 J**-1)
 Alpha(0;0):
               (au)            (10**-24 esu)      (10**-40 SI)
   iso        0.723574D+02      0.107223D+02      0.119301D+02
   aniso      0.282231D+02      0.418224D+01      0.465337D+01
   xx         0.868784D+02      0.128740D+02      0.143243D+02
   yx        -0.746395D+01     -0.110604D+01     -0.123064D+01
   yy         0.699642D+02      0.103676D+02      0.115355D+02
   zx        -0.398550D+01     -0.590590D+00     -0.657120D+00
   zy         0.347658D+01      0.515175D+00      0.573210D+00
   zz         0.602297D+02      0.892512D+01      0.993053D+01

 ----------------------------------------------------------------------

 Dipole orientation:
     8          4.24823990         -2.49268937         -0.59364020
     1          5.70944647         -1.46398858         -1.01258453
     6          3.95543061          0.59805523          3.42840413
     1          5.31222725          0.68040147          4.91268217
     6          2.43971927          0.43526194          1.74150531
     6          0.40772938          0.66045742         -0.11900309
     8          0.36360482          2.28094771         -1.70251326
     8         -1.35241511         -1.08715379          0.25276137
     6         -3.50075917         -0.99709590         -1.42131011
     6         -5.37217043          1.00645175         -0.58664281
     1         -4.30388732         -2.88684339         -1.30325380
     1         -2.82757829         -0.65407861         -3.33849093
     1         -7.03892792          0.94234846         -1.80081092
     1         -5.96796148          0.66937300          1.35816744
     1         -4.53845475          2.88515464         -0.72627999

 Electric dipole moment (dipole orientation):
 (Debye = 10**-18 statcoulomb cm , SI units = C m)
                  (au)            (Debye)         (10**-30 SI)
   Tot        0.390719D+00      0.993110D+00      0.331266D+01
   x          0.000000D+00      0.000000D+00      0.000000D+00
   y          0.000000D+00      0.000000D+00      0.000000D+00
   z          0.390719D+00      0.993110D+00      0.331266D+01

 Dipole polarizability, Alpha (dipole orientation).
 (esu units = cm**3 , SI units = C**2 m**2 J**-1)
 Alpha(0;0):
               (au)            (10**-24 esu)      (10**-40 SI)
   iso        0.723574D+02      0.107223D+02      0.119301D+02
   aniso      0.282231D+02      0.418224D+01      0.465337D+01
   xx         0.815344D+02      0.120822D+02      0.134432D+02
   yx        -0.665591D+00     -0.986305D-01     -0.109741D+00
   yy         0.620389D+02      0.919322D+01      0.102288D+02
   zx         0.121961D+02      0.180728D+01      0.201087D+01
   zy         0.450899D+01      0.668163D+00      0.743432D+00
   zz         0.734988D+02      0.108914D+02      0.121183D+02

 ----------------------------------------------------------------------
 1\1\GINC-AJ\Freq\UM062X\6-311++G(d,p)\C5H7O3(2)\AAYUSH\23-Jun-2025\0\\
 # freq 6-311++g(d,p) m062x\\Title Card Required\\0,2\O,2.204185,1.4258
 5,-0.031442\H,2.83177,1.235854,0.685089\C,2.457628,-1.203309,-0.533741
 \H,3.350587,-1.672591,-0.875394\C,1.459795,-0.640899,-0.165455\C,0.154
 962,-0.201576,0.328667\O,-0.1766,-0.309228,1.476076\O,-0.592686,0.2760
 86,-0.658435\C,-1.923106,0.69937,-0.297454\C,-2.86153,-0.487095,-0.189
 982\H,-2.213411,1.371678,-1.102608\H,-1.869809,1.254888,0.63939\H,-3.8
 74671,-0.134134,0.012195\H,-2.871991,-1.050337,-1.124335\H,-2.558159,-
 1.145967,0.623851\\Version=ES64L-G16RevA.03\State=2-A\HF=-420.2051893\
 S2=0.759772\S2-1=0.\S2A=0.750054\RMSD=7.368e-09\RMSF=2.346e-03\ZeroPoi
 nt=0.1117997\Thermal=0.1214604\Dipole=0.1039737,-0.252966,-0.2790329\D
 ipoleDeriv=-0.3308021,-0.0365417,0.0857225,0.0688919,-0.0262625,0.0354
 96,0.0737057,-0.0528672,-0.2521296,0.2639741,0.0960277,-0.0499627,0.05
 02225,0.2995449,0.0318787,-0.0452529,0.0886674,0.2278821,-0.3830031,-0
 .1588091,0.0125303,0.0718237,-0.0760902,0.0002356,0.0311022,0.0703931,
 -0.1315266,0.2466825,-0.0396871,-0.0170348,-0.033353,0.2234628,0.00574
 99,-0.0109201,0.0061738,0.226268,-0.3785263,0.2039605,0.0946441,-0.002
 5755,-0.5519435,-0.1174728,0.0917786,-0.1282682,-0.1650003,2.0811052,-
 0.3283398,-0.0189274,-0.6519635,0.6248076,-0.2327398,0.3307946,-0.3503
 961,1.7187537,-0.8134039,0.0401372,0.2354223,0.1405843,-0.3894077,0.05
 6615,0.0371073,0.1574485,-1.1355656,-1.5809205,0.3028375,-0.3215244,0.
 5028807,-0.4601488,0.2285621,-0.4349952,0.199364,-0.7965354,0.9956226,
 -0.1038423,0.0504755,-0.1341449,0.3683503,-0.0620556,-0.0884062,0.0119
 347,0.2463322,-0.0914952,-0.0195156,-0.0166292,-0.0512893,-0.0657531,0
 .0578787,0.0157383,0.0148067,0.0460638,-0.0215015,0.0087675,-0.0092106
 ,0.0318311,-0.0094745,0.0674548,-0.0329225,0.1013756,-0.0097365,-0.030
 0212,-0.0304909,-0.0474972,-0.0041855,0.0060482,-0.0317204,0.0361004,-
 0.0913048,-0.0099259,-0.1115072,0.0410474,0.021498,0.0512771,0.0460492
 ,-0.0254771,0.032786,-0.0138405,0.0894189,0.0718494,-0.0058575,0.03014
 14,-0.0398409,0.009956,-0.0564198,-0.010988,-0.0836997,-0.0558592,0.08
 19472,0.0303062,-0.0496478,-0.0001586,0.0008613,0.0420146,-0.0256284,0
 .0702126,0.0015605\Polar=86.8783525,-7.4639505,69.964182,-3.985498,3.4
 765757,60.2296619\Quadrupole=8.6717767,-2.3011031,-6.3706736,-3.939527
 1,1.8589479,2.9232433\PG=C01 [X(C5H7O3)]\NImag=1\\0.22173558,-0.061380
 17,0.03994792,0.24765597,-0.07612391,0.28313512,-0.21644743,0.06316007
 ,-0.24564369,0.21782614,0.06946883,-0.02877208,0.07951521,-0.06458543,
 0.03240361,-0.24697779,0.07371287,-0.28241827,0.24618103,-0.07514819,0
 .28173893,0.00432407,0.01386585,-0.00030499,0.00071230,-0.00130994,0.0
 0092453,1.08590614,-0.00418252,-0.01798352,-0.00185222,0.00036942,-0.0
 0056638,-0.00037759,-0.55580343,0.36139803,-0.00215658,-0.00610666,0.0
 0040050,0.00023322,-0.00067892,-0.00035043,-0.38292209,0.20925242,0.19
 732314,-0.00013596,-0.00025736,0.00001119,0.00031447,0.00016681,0.0000
 0777,-0.30705304,0.14777352,0.10662563,0.29629083,-0.00016690,0.000205
 33,0.00018333,0.00029675,-0.00016938,-0.00030245,0.14370584,-0.1029486
 7,-0.05580549,-0.14705525,0.09375187,0.00012019,-0.00002540,-0.0000121
 7,0.00005941,-0.00016634,-0.00010140,0.10680857,-0.05735695,-0.0667547
 3,-0.10664222,0.05685428,0.05688207,-0.00355940,-0.00952513,-0.0027445
 4,-0.00140211,-0.00283806,0.00093171,-0.78839612,0.41629996,0.27787672
 ,0.00946665,0.00212118,-0.00205656,1.07130003,0.00182601,0.01266888,-0
 .00200518,0.00123423,-0.00282177,0.00202661,0.39230135,-0.24066002,-0.
 14316305,-0.00206091,0.00622930,0.00191546,-0.49142938,0.28599161,-0.0
 0032762,0.00769786,-0.00030118,0.00012259,-0.00384031,0.00025687,0.275
 56980,-0.15056723,-0.13534055,-0.00143498,-0.00011977,0.00498279,-0.35
 141859,0.16206364,0.23606018,-0.00608388,-0.00749477,0.00195265,-0.001
 94308,-0.00216398,-0.00267062,0.01478073,-0.00959800,-0.00262059,0.000
 62565,0.00193459,0.00215946,-0.22621044,0.06867356,0.05817550,0.608906
 36,-0.00331280,-0.00636446,0.00018126,0.00007067,0.00072599,0.00056814
 ,0.00498484,0.00081587,-0.00292363,0.00247519,0.00377613,-0.00112202,0
 .05196825,-0.08354607,-0.02061032,-0.12807288,0.28268202,0.00349112,0.
 00189011,-0.00424669,-0.00298343,0.00021710,0.00268653,-0.00099175,0.0
 0186262,0.00323945,0.00152025,-0.00046872,0.00493093,0.04390816,-0.022
 10881,-0.07472832,-0.14729123,-0.09350354,0.96769934,0.00012770,0.0004
 6194,-0.00015084,0.00046184,0.00079215,0.00065768,-0.00470897,0.002388
 49,0.00063558,-0.00006229,-0.00014954,-0.00154886,-0.01558153,0.002971
 35,0.04815034,-0.16438390,-0.00685755,0.19315825,0.15617287,-0.0010655
 7,0.00023580,0.00099326,0.00030676,-0.00030778,-0.00037705,0.00072991,
 0.00009146,-0.00007102,-0.00048246,-0.00061130,0.00030181,0.00721697,0
 .01878924,-0.00765587,-0.00435945,-0.08856759,0.04866096,-0.00477623,0
 .05358143,-0.00138979,-0.00130702,0.00284103,0.00123017,-0.00015028,-0
 .00185843,0.00128001,-0.00113732,0.00108698,-0.00006934,-0.00025750,0.
 00055176,0.04100784,-0.00261246,-0.03679033,0.18417379,0.05537357,-0.6
 9927791,-0.20863017,-0.08059829,0.83294011,-0.00075678,0.00105941,-0.0
 0090340,0.00057759,0.00064151,0.00105772,-0.00632685,0.00301305,0.0025
 3645,0.00076690,-0.00071118,0.00098302,-0.04686582,0.02490272,-0.02692
 724,-0.18028732,0.05746433,-0.08614292,0.02867320,0.00807366,-0.027182
 94,0.45361331,-0.00133302,-0.00051711,-0.00072991,-0.00089897,-0.00049
 781,-0.00016164,0.00214403,-0.00026667,-0.00066435,-0.00047601,-0.0000
 2688,-0.00030937,0.02359666,-0.00024563,0.01058732,0.05648739,-0.09970
 318,0.06263012,0.00693215,0.02039585,0.03543542,-0.14967340,0.15790566
 ,-0.00061242,0.00009255,0.00076899,0.00082804,0.00019707,-0.00006512,0
 .00039799,-0.00021465,-0.00025872,-0.00004378,-0.00001592,-0.00066518,
 -0.00468568,0.00158678,0.00860727,-0.06434501,0.05231458,-0.21343731,-
 0.02716285,0.03671710,-0.09707073,0.06223473,-0.08485878,0.40005205,0.
 00088747,0.00009221,0.00033108,-0.00015221,-0.00034314,-0.00029239,0.0
 0185894,-0.00065800,-0.00059482,-0.00033332,0.00011394,0.00004408,0.00
 303449,0.00071563,-0.00040304,-0.04603382,0.02557396,-0.02679382,-0.00
 054107,-0.00531500,0.01851404,-0.16220380,0.03508386,0.02589709,0.4407
 5383,-0.00003622,0.00053827,-0.00025055,0.00003188,0.00003284,0.000126
 32,-0.00095287,0.00015633,0.00016678,-0.00005213,-0.00024204,-0.000077
 38,0.00279766,0.00402321,0.00226257,0.02515839,-0.01269288,0.01065861,
 0.00045604,-0.00439977,-0.00765058,0.03175812,-0.07706588,-0.00686470,
 -0.00991710,0.56166479,0.00026540,0.00022294,-0.00027243,-0.00005516,0
 .00008837,0.00014774,-0.00092659,0.00044021,0.00073398,0.00003882,-0.0
 0006848,0.00020937,-0.00354804,0.00278961,-0.00305352,-0.02807739,0.00
 771818,0.01951206,-0.00032617,0.00040525,-0.00544209,0.04720461,-0.013
 59641,-0.10533339,0.05390103,-0.01611751,0.64373449,-0.00007199,0.0001
 5876,-0.00010059,0.00001786,0.00004312,0.00007341,-0.00048310,0.000148
 99,0.00012445,0.00002369,-0.00008838,0.00001497,-0.00007132,0.00130305
 ,-0.00005670,0.00110262,-0.00434314,0.00616640,-0.00023015,-0.00077979
 ,-0.00255768,-0.04483426,-0.02153725,0.00409702,-0.11292898,-0.0568441
 5,0.00086908,0.54642669,0.00011585,0.00000485,0.00006896,0.00000513,-0
 .00002353,-0.00004512,0.00034207,-0.00007505,-0.00007958,-0.00000277,0
 .00005792,-0.00000247,-0.00042532,-0.00066975,0.00012997,-0.00013064,0
 .00313925,-0.00611597,-0.00185352,-0.00084527,0.00230073,0.01266749,0.
 01235813,0.00181169,-0.06878866,-0.17699620,0.00755196,-0.04897666,0.5
 3272810,0.00001423,-0.00002480,0.00003961,-0.00000454,-0.00002879,-0.0
 0002016,0.00015363,-0.00007560,-0.00006832,-0.00000258,0.00002138,0.00
 001057,0.00007766,-0.00035306,-0.00003824,-0.00188903,-0.00023186,-0.0
 0009247,0.00108335,0.00083029,0.00092311,0.01098859,0.00478393,0.00112
 415,-0.00032334,0.00600697,-0.08524262,0.00520253,0.00426166,0.5881996
 8,-0.00003303,-0.00005338,0.00002252,0.00006530,0.00008529,0.00005407,
 -0.00048920,0.00015873,0.00024236,0.00005967,-0.00000483,0.00004619,-0
 .00116244,0.00016952,-0.00107943,-0.00286180,0.00201464,0.00564926,0.0
 0097478,-0.00011338,-0.00135700,-0.02692118,0.02564192,-0.02635079,-0.
 06068640,0.03737761,-0.04750617,0.00727764,-0.01373619,0.01699983,0.08
 416793,0.00003846,0.00001826,0.00001248,-0.00000283,-0.00001400,-0.000
 01318,0.00011346,-0.00005899,-0.00002528,-0.00002101,0.00000115,-0.000
 01178,0.00046406,0.00001327,0.00026166,0.00002751,0.00006571,-0.003810
 96,-0.00112791,0.00073330,0.00066465,0.01003525,-0.00691101,0.00818349
 ,0.04277678,-0.15284122,0.12277046,0.00514986,-0.01593553,0.02015936,-
 0.04926559,0.16403925,-0.00001619,0.00001312,0.00001306,0.00002156,0.0
 0002120,0.00000671,-0.00002050,-0.00000158,-0.00005245,-0.00000766,-0.
 00002367,-0.00002353,0.00044351,0.00008752,0.00039793,0.00234955,-0.00
 066011,-0.00265888,-0.00187784,0.00078244,0.00144865,0.00683580,-0.008
 89040,0.00943774,-0.05863551,0.12825710,-0.21185560,0.00030495,-0.0008
 4213,0.00048656,0.05606100,-0.13605823,0.21815804,0.00003584,-0.000101
 88,-0.00011785,-0.00002195,0.00006600,0.00006830,-0.00013153,0.0000433
 5,0.00000585,0.00005193,0.00001275,0.00000757,-0.00046144,-0.00077419,
 -0.00028597,0.00266849,-0.00074531,0.00775685,-0.00000106,0.00072456,-
 0.00330766,-0.01591795,0.02488079,0.03134857,-0.05067526,-0.01271951,-
 0.02373542,0.00015861,-0.01117053,-0.01901907,0.00086755,-0.00513120,-
 0.00637241,0.06482796,0.00005073,0.00000259,0.00004501,0.00003495,0.00
 002246,-0.00001557,-0.00009563,0.00006155,0.00005976,-0.00001571,-0.00
 001082,-0.00002808,0.00005272,0.00008529,0.00029323,0.00006227,0.00148
 370,-0.00569252,-0.00141345,-0.00017196,0.00242429,0.00752369,-0.00709
 102,-0.00792689,-0.00807945,-0.11857730,-0.11250997,-0.00301214,-0.012
 93410,-0.02257257,0.00017319,0.01239533,0.01716565,0.00722359,0.126513
 20,-0.00003218,-0.00004177,0.00003024,-0.00001548,-0.00004619,-0.00002
 874,0.00017769,-0.00001580,-0.00000426,-0.00000276,0.00001628,0.000005
 04,0.00011901,-0.00043631,-0.00018809,-0.00260271,0.00201018,-0.001515
 37,-0.00178353,0.00147840,0.00044092,0.00894011,-0.00479190,-0.0049476
 0,-0.01406714,-0.11868738,-0.25365146,-0.00061863,0.00304768,0.0049874
 3,-0.00194373,-0.01145598,-0.01733319,0.01196752,0.12805069,0.27066323
 ,-0.00007307,0.00001485,-0.00002854,0.00002241,0.00003339,0.00003421,-
 0.00020303,0.00006562,0.00003942,0.00002391,-0.00003134,-0.00000640,-0
 .00004234,0.00025366,0.00003307,0.00162389,-0.00109633,0.00229967,-0.0
 0006301,-0.00009802,-0.00096862,-0.00434505,-0.00354176,-0.00087366,-0
 .01666138,0.01062073,0.00323077,-0.28048676,0.08132647,0.04661669,0.00
 055182,-0.00011726,0.00041311,0.00036137,-0.00007893,-0.00060811,0.304
 49080,-0.00002065,0.00001156,-0.00002962,-0.00000821,0.00000599,0.0000
 1209,-0.00011816,0.00006637,0.00005402,-0.00000398,-0.00002860,0.00000
 932,-0.00006864,0.00030483,-0.00017056,0.00017014,-0.00149852,0.002865
 17,0.00055129,0.00034186,-0.00115602,-0.00812826,-0.00300475,-0.000176
 11,-0.02151238,0.01150734,0.00468230,0.08344734,-0.07728873,-0.0169783
 8,0.00094708,0.00079273,0.00050781,0.00079526,0.00076827,-0.00074195,-
 0.08865629,0.08004444,-0.00000020,0.00000079,0.00000762,0.00000397,0.0
 0000282,-0.00000076,-0.00003062,0.00000794,0.00001033,-0.00000505,-0.0
 0000237,-0.00000331,0.00006736,0.00007064,0.00005835,0.00010443,0.0006
 2090,-0.00134437,-0.00062781,-0.00050563,0.00037470,0.00126164,0.00028
 177,0.00148642,0.00125841,-0.00117151,-0.00252112,0.04648534,-0.016287
 05,-0.05484109,-0.00014061,-0.00005507,-0.00005813,0.00007887,0.000095
 08,0.00000944,-0.05159540,0.01788402,0.05517620,-0.00000451,-0.0000141
 6,0.00002859,-0.00000046,-0.00001625,-0.00002488,0.00002078,-0.0000019
 8,0.00001162,-0.00001737,0.00000463,-0.00000742,0.00001164,0.00003499,
 0.00001244,-0.00052945,0.00044143,-0.00158454,-0.00042785,-0.00010867,
 0.00069790,0.00302441,0.00085827,0.00011733,-0.00231795,-0.01260100,-0
 .01953403,-0.04634605,0.00120923,-0.00052628,0.00057897,0.00092978,0.0
 0039124,-0.00228712,-0.00350658,0.00069249,0.00196730,0.01526322,0.026
 56748,0.04728985,-0.00003223,-0.00000203,0.00002753,0.00001406,-0.0000
 0197,-0.00000739,-0.00002451,0.00001087,0.00001365,0.00000771,0.000001
 28,-0.00000361,-0.00006404,-0.00004444,-0.00006149,-0.00005428,0.00004
 346,0.00007601,0.00030345,0.00020400,0.00004467,0.00159566,0.00218442,
 0.00102688,0.00058974,-0.01633480,-0.02547463,-0.00078825,-0.11775265,
 -0.11729814,0.00066654,0.00068712,0.00008700,-0.00371680,-0.00329424,0
 .00164621,-0.00064394,-0.00572179,-0.00760111,0.00328742,0.12824377,-0
 .00002831,-0.00001487,0.00001542,0.00000967,-0.00000253,-0.00000972,-0
 .00005319,0.00004715,0.00001712,-0.00000554,-0.00001549,-0.00000769,-0
 .00003002,0.00010614,0.00009719,0.00014857,-0.00024059,-0.00080484,-0.
 00057720,-0.00020758,0.00037465,-0.00107252,0.00051787,0.00048579,0.00
 051277,0.00242369,0.00370497,-0.00150662,-0.11954419,-0.25145238,-0.00
 050200,-0.00034009,0.00074096,0.00110238,0.00080171,0.00104591,-0.0002
 9244,-0.00121548,-0.00418839,0.00101747,0.13058960,0.26837723,0.000055
 39,0.00001376,-0.00000755,-0.00003068,-0.00004031,-0.00002476,0.000188
 88,-0.00001719,-0.00003721,-0.00002170,0.00001774,0.00001801,-0.000059
 85,-0.00012158,-0.00013018,-0.00137404,-0.00056531,0.00183772,-0.00041
 056,0.00004672,-0.00144057,0.00180361,0.00183535,-0.00084657,0.0059994
 8,-0.01507744,0.01819927,-0.06955449,0.04941804,-0.05937165,-0.0023896
 1,-0.00386936,0.00010939,0.00052456,0.00108073,-0.00022256,-0.00716685
 ,0.01734224,-0.02342782,-0.00096221,-0.00114053,0.00127696,0.07339808,
 0.00003020,0.00000574,-0.00003564,-0.00002849,-0.00001618,0.00000215,0
 .00011720,-0.00004116,-0.00002866,0.00000436,0.00001472,0.00002253,-0.
 00016689,-0.00011796,-0.00027069,-0.00063985,-0.00035944,0.00283982,0.
 00132135,0.00053072,-0.00137387,-0.00022205,0.00248589,-0.00187310,0.0
 0966760,-0.01877269,0.02109773,0.04611865,-0.14576746,0.12149960,-0.00
 406116,-0.00298538,-0.00044572,0.00061311,0.00074704,-0.00003216,0.001
 94914,-0.00630100,0.00665876,-0.00578032,0.01177699,-0.01290533,-0.048
 92286,0.15880017,-0.00000584,0.00001419,-0.00000086,0.00001264,0.00001
 978,0.00001626,-0.00006248,-0.00001139,0.00001795,0.00001024,0.0000046
 0,-0.00000451,0.00005145,0.00003246,-0.00002036,0.00043264,0.00050527,
 0.00003787,-0.00099993,-0.00075407,-0.00054243,0.00018634,-0.00023367,
 -0.00018436,0.00065155,0.00091757,-0.00067039,-0.05849794,0.12374385,-
 0.20401584,-0.00019548,-0.00028152,0.00129212,0.00050246,-0.00018983,0
 .00048650,0.00170624,-0.00554663,0.00583411,-0.00785942,0.01693479,-0.
 01839623,0.06406752,-0.13515542,0.21615018\\-0.00391728,-0.01034806,-0
 .00090636,0.00011593,-0.00017366,-0.00001372,-0.00083424,0.00055810,0.
 00045392,-0.00023297,-0.00038232,-0.00002016,0.00400555,0.00986929,0.0
 0097425,0.00095223,0.00233319,0.00017019,0.00017687,-0.00130422,-0.000
 42626,0.00001794,0.00006206,-0.00010365,-0.00009667,-0.00033848,-0.000
 10493,-0.00013082,-0.00019291,-0.00000697,-0.00001202,-0.00001868,-0.0
 0000534,-0.00000635,-0.00002506,-0.00000786,-0.00000761,-0.00000706,0.
 00000153,-0.00001955,-0.00001678,-0.00000031,-0.00001102,-0.00001540,-
 0.00000431\\\@


 Democracy is the recurrent suspicion that more than half of the people
 are right more than half of the time.
 -- E. B. White
 Job cpu time:       0 days  0 hours 58 minutes 23.5 seconds.
 Elapsed time:       0 days  0 hours  2 minutes 26.3 seconds.
 File lengths (MBytes):  RWF=    153 Int=      0 D2E=      0 Chk=      9 Scr=      1
 Normal termination of Gaussian 16 at Mon Jun 23 07:22:09 2025.
