 Entering Gaussian System, Link 0=g16
 Initial command:
 /opt/g16/l1.exe "/home/aayush/scratches/g16/Gau-87948.inp" -scrdir="/home/aayush/scratches/g16/"
 Entering Link 1 = /opt/g16/l1.exe PID=     87951.
  
 Copyright (c) 1988,1990,1992,1993,1995,1998,2003,2009,2016,
            Gaussian, Inc.  All Rights Reserved.
  
 This is part of the Gaussian(R) 16 program.  It is based on
 the Gaussian(R) 09 system (copyright 2009, Gaussian, Inc.),
 the Gaussian(R) 03 system (copyright 2003, Gaussian, Inc.),
 the Gaussian(R) 98 system (copyright 1998, Gaussian, Inc.),
 the Gaussian(R) 94 system (copyright 1995, Gaussian, Inc.),
 the Gaussian 92(TM) system (copyright 1992, Gaussian, Inc.),
 the Gaussian 90(TM) system (copyright 1990, Gaussian, Inc.),
 the Gaussian 88(TM) system (copyright 1988, Gaussian, Inc.),
 the Gaussian 86(TM) system (copyright 1986, Carnegie Mellon
 University), and the Gaussian 82(TM) system (copyright 1983,
 Carnegie Mellon University). Gaussian is a federally registered
 trademark of Gaussian, Inc.
  
 This software contains proprietary and confidential information,
 including trade secrets, belonging to Gaussian, Inc.
  
 This software is provided under written license and may be
 used, copied, transmitted, or stored only in accord with that
 written license.
  
 The following legend is applicable only to US Government
 contracts under FAR:
  
                    RESTRICTED RIGHTS LEGEND
  
 Use, reproduction and disclosure by the US Government is
 subject to restrictions as set forth in subparagraphs (a)
 and (c) of the Commercial Computer Software - Restricted
 Rights clause in FAR 52.227-19.
  
 Gaussian, Inc.
 340 Quinnipiac St., Bldg. 40, Wallingford CT 06492
  
  
 ---------------------------------------------------------------
 Warning -- This program may not be used in any manner that
 competes with the business of Gaussian, Inc. or will provide
 assistance to any competitor of Gaussian, Inc.  The licensee
 of this program is prohibited from giving any competitor of
 Gaussian, Inc. access to this program.  By using this program,
 the user acknowledges that Gaussian, Inc. is engaged in the
 business of creating and licensing software in the field of
 computational chemistry and represents and warrants to the
 licensee that it is not a competitor of Gaussian, Inc. and that
 it will not use this program in any manner prohibited above.
 ---------------------------------------------------------------
  

 Cite this work as:
 Gaussian 16, Revision A.03,
 M. J. Frisch, G. W. Trucks, H. B. Schlegel, G. E. Scuseria, 
 M. A. Robb, J. R. Cheeseman, G. Scalmani, V. Barone, 
 G. A. Petersson, H. Nakatsuji, X. Li, M. Caricato, A. V. Marenich, 
 J. Bloino, B. G. Janesko, R. Gomperts, B. Mennucci, H. P. Hratchian, 
 J. V. Ortiz, A. F. Izmaylov, J. L. Sonnenberg, D. Williams-Young, 
 F. Ding, F. Lipparini, F. Egidi, J. Goings, B. Peng, A. Petrone, 
 T. Henderson, D. Ranasinghe, V. G. Zakrzewski, J. Gao, N. Rega, 
 G. Zheng, W. Liang, M. Hada, M. Ehara, K. Toyota, R. Fukuda, 
 J. Hasegawa, M. Ishida, T. Nakajima, Y. Honda, O. Kitao, H. Nakai, 
 T. Vreven, K. Throssell, J. A. Montgomery, Jr., J. E. Peralta, 
 F. Ogliaro, M. J. Bearpark, J. J. Heyd, E. N. Brothers, K. N. Kudin, 
 V. N. Staroverov, T. A. Keith, R. Kobayashi, J. Normand, 
 K. Raghavachari, A. P. Rendell, J. C. Burant, S. S. Iyengar, 
 J. Tomasi, M. Cossi, J. M. Millam, M. Klene, C. Adamo, R. Cammi, 
 J. W. Ochterski, R. L. Martin, K. Morokuma, O. Farkas, 
 J. B. Foresman, and D. J. Fox, Gaussian, Inc., Wallingford CT, 2016.
 
 ******************************************
 Gaussian 16:  ES64L-G16RevA.03 25-Dec-2016
                20-Jun-2025 
 ******************************************
 %nprocshared=24
 Will use up to   24 processors via shared memory.
 %mem=12GB
 %chk=ethyl_propiolate_ts1.chk
 -------------------
 # freq 6-31+g m062x
 -------------------
 1/10=4,30=1,38=1/1,3;
 2/12=2,17=6,18=5,40=1/2;
 3/5=1,6=6,7=10,11=2,25=1,30=1,71=2,74=-55,140=1/1,2,3;
 4//1;
 5/5=2,38=5,98=1/2;
 8/6=4,10=90,11=11/1;
 11/6=1,8=1,9=11,15=111,16=1/1,2,10;
 10/6=1/2;
 6/7=2,8=2,9=2,10=2,28=1/1;
 7/8=1,10=1,25=1/1,2,3,16;
 1/10=4,30=1/3;
 99//99;
 -------------------
 Title Card Required
 -------------------
 Symbolic Z-matrix:
 Charge =  0 Multiplicity = 2
 O                     2.12511   1.40828  -0.0149 
 H                     2.76267   1.22777   0.69476 
 C                     2.39798  -1.17974  -0.56757 
 H                     3.28431  -1.6532   -0.92068 
 C                     1.41558  -0.59531  -0.18489 
 C                     0.09669  -0.2016    0.31544 
 O                    -0.236    -0.34511   1.45824 
 O                    -0.65626   0.28531  -0.66249 
 C                    -1.98897   0.69366  -0.29251 
 C                    -2.92167  -0.49889  -0.20908 
 H                    -2.28287   1.38121  -1.08339 
 H                    -1.93765   1.22992   0.65565 
 H                    -3.93632  -0.15477   0.0007 
 H                    -2.93014  -1.04281  -1.15484 
 H                    -2.61468  -1.1729    0.59085 
 

 GradGradGradGradGradGradGradGradGradGradGradGradGradGradGradGradGradGrad
 Berny optimization.
 Initialization pass.
 Trust Radius=3.00D-01 FncErr=1.00D-07 GrdErr=1.00D-07 EigMax=2.50D+02 EigMin=1.00D-04
 Number of steps in this run=      2 maximum allowed number of steps=      2.
 GradGradGradGradGradGradGradGradGradGradGradGradGradGradGradGradGradGrad

                          Input orientation:                          
 ---------------------------------------------------------------------
 Center     Atomic      Atomic             Coordinates (Angstroms)
 Number     Number       Type             X           Y           Z
 ---------------------------------------------------------------------
      1          8           0        2.125110    1.408275   -0.014904
      2          1           0        2.762674    1.227766    0.694762
      3          6           0        2.397975   -1.179741   -0.567569
      4          1           0        3.284309   -1.653203   -0.920684
      5          6           0        1.415583   -0.595312   -0.184885
      6          6           0        0.096692   -0.201595    0.315441
      7          8           0       -0.236000   -0.345108    1.458243
      8          8           0       -0.656255    0.285311   -0.662485
      9          6           0       -1.988972    0.693664   -0.292511
     10          6           0       -2.921674   -0.498890   -0.209075
     11          1           0       -2.282874    1.381212   -1.083388
     12          1           0       -1.937652    1.229915    0.655647
     13          1           0       -3.936321   -0.154772    0.000699
     14          1           0       -2.930139   -1.042807   -1.154836
     15          1           0       -2.614678   -1.172901    0.590846
 ---------------------------------------------------------------------
                    Distance matrix (angstroms):
                    1          2          3          4          5
     1  O    0.000000
     2  H    0.970926   0.000000
     3  C    2.660399   2.742731   0.000000
     4  H    3.396591   3.343913   1.065103   0.000000
     5  C    2.132295   2.431470   1.205445   2.269949   0.000000
     6  C    2.610611   3.048675   2.651863   3.714307   1.464518
     7  O    3.289279   3.471150   3.426128   4.445558   2.343117
     8  O    3.068615   3.797291   3.388762   4.399153   2.301328
     9  C    4.184902   4.882429   4.778138   5.806021   3.641983
    10  C    5.398612   6.009166   5.375011   6.352405   4.338396
    11  H    4.535715   5.351908   5.360494   6.342529   4.288652
    12  H    4.121588   4.700489   5.108851   6.169770   3.909237
    13  H    6.259737   6.875294   6.441801   7.431806   5.373211
    14  H    5.732608   6.401924   5.362129   6.248742   4.475082
    15  H    5.430929   5.889815   5.144770   6.108474   4.144680
                    6          7          8          9         10
     6  C    0.000000
     7  O    1.198865   0.000000
     8  O    1.326780   2.252006   0.000000
     9  C    2.349700   2.686466   1.442140   0.000000
    10  C    3.077992   3.164876   2.439810   1.516272   0.000000
    11  H    3.181876   3.691851   2.006003   1.088387   2.169625
    12  H    2.510680   2.453666   2.066816   1.090506   2.169057
    13  H    4.045547   3.981587   3.375251   2.144291   1.091756
    14  H    3.468582   3.817506   2.678965   2.155164   1.091046
    15  H    2.893235   2.663781   2.744566   2.157752   1.090143
                   11         12         13         14         15
    11  H    0.000000
    12  H    1.779413   0.000000
    13  H    2.503673   2.518133   0.000000
    14  H    2.509965   3.070528   1.770952   0.000000
    15  H    3.071913   2.497216   1.769633   1.778720   0.000000
 Stoichiometry    C5H7O3(2)
 Framework group  C1[X(C5H7O3)]
 Deg. of freedom    39
 Full point group                 C1      NOp   1
 Largest Abelian subgroup         C1      NOp   1
 Largest concise Abelian subgroup C1      NOp   1
                         Standard orientation:                         
 ---------------------------------------------------------------------
 Center     Atomic      Atomic             Coordinates (Angstroms)
 Number     Number       Type             X           Y           Z
 ---------------------------------------------------------------------
      1          8           0        2.191826    1.402493   -0.024067
      2          1           0        2.828702    1.229747    0.688144
      3          6           0        2.456462   -1.193763   -0.540925
      4          1           0        3.341323   -1.674893   -0.887305
      5          6           0        1.475895   -0.600962   -0.166528
      6          6           0        0.158201   -0.196151    0.328066
      7          8           0       -0.175119   -0.322816    1.472675
      8          8           0       -0.593035    0.279631   -0.656629
      9          6           0       -1.924488    0.697323   -0.292579
     10          6           0       -2.861027   -0.490969   -0.192878
     11          1           0       -2.216065    1.374834   -1.092922
     12          1           0       -1.871587    1.246436    0.648101
     13          1           0       -3.874595   -0.140736    0.011934
     14          1           0       -2.871098   -1.047851   -1.131048
     15          1           0       -2.556314   -1.154861    0.616324
 ---------------------------------------------------------------------
 Rotational constants (GHZ):           3.9468777           1.1633278           1.1050198
 Standard basis: 6-31+G (6D, 7F)
 There are   118 symmetry adapted cartesian basis functions of A   symmetry.
 There are   118 symmetry adapted basis functions of A   symmetry.
   118 basis functions,   236 primitive gaussians,   118 cartesian basis functions
    31 alpha electrons       30 beta electrons
       nuclear repulsion energy       358.0325280087 Hartrees.
 NAtoms=   15 NActive=   15 NUniq=   15 SFac= 1.00D+00 NAtFMM=   60 NAOKFM=F Big=F
 Integral buffers will be    131072 words long.
 Raffenetti 2 integral format.
 Two-electron integral symmetry is turned on.
 One-electron integrals computed using PRISM.
 NBasis=   118 RedAO= T EigKep=  2.78D-06  NBF=   118
 NBsUse=   118 1.00D-06 EigRej= -1.00D+00 NBFU=   118
 ExpMin= 4.38D-02 ExpMax= 5.48D+03 ExpMxC= 8.25D+02 IAcc=3 IRadAn=         5 AccDes= 0.00D+00
 Harris functional with IExCor= 1009 and IRadAn=       5 diagonalized for initial guess.
 HarFok:  IExCor= 1009 AccDes= 0.00D+00 IRadAn=         5 IDoV= 1 UseB2=F ITyADJ=14
 ICtDFT=  3500011 ScaDFX=  1.000000  1.000000  1.000000  1.000000
 FoFCou: FMM=F IPFlag=           0 FMFlag=      100000 FMFlg1=           0
         NFxFlg=           0 DoJE=T BraDBF=F KetDBF=T FulRan=T
         wScrn=  0.000000 ICntrl=       500 IOpCl=  0 I1Cent=   200000004 NGrid=           0
         NMat0=    1 NMatS0=      1 NMatT0=    0 NMatD0=    1 NMtDS0=    0 NMtDT0=    0
 Petite list used in FoFCou.
 Initial guess <Sx>= 0.0000 <Sy>= 0.0000 <Sz>= 0.5000 <S**2>= 0.7500 S= 0.5000
 Requested convergence on RMS density matrix=1.00D-08 within 128 cycles.
 Requested convergence on MAX density matrix=1.00D-06.
 Requested convergence on             energy=1.00D-06.
 No special actions if energy rises.
 Restarting incremental Fock formation.
 SCF Done:  E(UM062X) =  -419.955796916     A.U. after   24 cycles
            NFock= 24  Conv=0.28D-08     -V/T= 2.0049
 <Sx>= 0.0000 <Sy>= 0.0000 <Sz>= 0.5000 <S**2>= 0.7620 S= 0.5060
 <L.S>=  0.00000000000    
 Annihilation of the first spin contaminant:
 S**2 before annihilation     0.7620,   after     0.7501
 DoSCS=F DFT=T ScalE2(SS,OS)=  1.000000  1.000000
 Range of M.O.s used for correlation:     1   118
 NBasis=   118 NAE=    31 NBE=    30 NFC=     0 NFV=     0
 NROrb=    118 NOA=    31 NOB=    30 NVA=    87 NVB=    88

 **** Warning!!: The largest alpha MO coefficient is  0.13504980D+03


 **** Warning!!: The largest beta MO coefficient is  0.14488337D+03

 Symmetrizing basis deriv contribution to polar:
 IMax=3 JMax=2 DiffMx= 0.00D+00
 G2DrvN: will do    16 centers at a time, making    1 passes.
 Calling FoFCou, ICntrl=  3107 FMM=F I1Cent=   0 AccDes= 0.00D+00.
 End of G2Drv F.D. properties file   721 does not exist.
 End of G2Drv F.D. properties file   722 does not exist.
 End of G2Drv F.D. properties file   788 does not exist.
          IDoAtm=111111111111111
          Differentiating once with respect to electric field.
                with respect to dipole field.
          Differentiating once with respect to nuclear coordinates.
 Keep R1 and R2 ints in memory in canonical form, NReq=71861356.
          There are    48 degrees of freedom in the 1st order CPHF.  IDoFFX=6 NUNeed=     3.
     45 vectors produced by pass  0 Test12= 1.11D-14 2.08D-09 XBig12= 7.53D+01 3.71D+00.
 AX will form    45 AO Fock derivatives at one time.
     45 vectors produced by pass  1 Test12= 1.11D-14 2.08D-09 XBig12= 1.18D+01 4.86D-01.
     45 vectors produced by pass  2 Test12= 1.11D-14 2.08D-09 XBig12= 3.05D-01 9.01D-02.
     45 vectors produced by pass  3 Test12= 1.11D-14 2.08D-09 XBig12= 1.73D-03 6.15D-03.
     45 vectors produced by pass  4 Test12= 1.11D-14 2.08D-09 XBig12= 1.45D-05 5.95D-04.
     45 vectors produced by pass  5 Test12= 1.11D-14 2.08D-09 XBig12= 1.46D-07 5.25D-05.
     32 vectors produced by pass  6 Test12= 1.11D-14 2.08D-09 XBig12= 1.12D-09 3.62D-06.
     14 vectors produced by pass  7 Test12= 1.11D-14 2.08D-09 XBig12= 6.81D-12 3.02D-07.
      3 vectors produced by pass  8 Test12= 1.11D-14 2.08D-09 XBig12= 4.23D-14 2.38D-08.
      3 vectors produced by pass  9 Test12= 1.11D-14 2.08D-09 XBig12= 2.80D-15 9.01D-09.
 InvSVY:  IOpt=1 It=  1 EMax= 1.15D-14
 Solved reduced A of dimension   322 with    48 vectors.
 Isotropic polarizability for W=    0.000000       69.65 Bohr**3.
 End of Minotr F.D. properties file   721 does not exist.
 End of Minotr F.D. properties file   722 does not exist.
 End of Minotr F.D. properties file   788 does not exist.

 **********************************************************************

            Population analysis using the SCF density.

 **********************************************************************

 Orbital symmetries:
 Alpha Orbitals:
       Occupied  (A) (A) (A) (A) (A) (A) (A) (A) (A) (A) (A) (A)
                 (A) (A) (A) (A) (A) (A) (A) (A) (A) (A) (A) (A)
                 (A) (A) (A) (A) (A) (A) (A)
       Virtual   (A) (A) (A) (A) (A) (A) (A) (A) (A) (A) (A) (A)
                 (A) (A) (A) (A) (A) (A) (A) (A) (A) (A) (A) (A)
                 (A) (A) (A) (A) (A) (A) (A) (A) (A) (A) (A) (A)
                 (A) (A) (A) (A) (A) (A) (A) (A) (A) (A) (A) (A)
                 (A) (A) (A) (A) (A) (A) (A) (A) (A) (A) (A) (A)
                 (A) (A) (A) (A) (A) (A) (A) (A) (A) (A) (A) (A)
                 (A) (A) (A) (A) (A) (A) (A) (A) (A) (A) (A) (A)
                 (A) (A) (A)
 Beta  Orbitals:
       Occupied  (A) (A) (A) (A) (A) (A) (A) (A) (A) (A) (A) (A)
                 (A) (A) (A) (A) (A) (A) (A) (A) (A) (A) (A) (A)
                 (A) (A) (A) (A) (A) (A)
       Virtual   (A) (A) (A) (A) (A) (A) (A) (A) (A) (A) (A) (A)
                 (A) (A) (A) (A) (A) (A) (A) (A) (A) (A) (A) (A)
                 (A) (A) (A) (A) (A) (A) (A) (A) (A) (A) (A) (A)
                 (A) (A) (A) (A) (A) (A) (A) (A) (A) (A) (A) (A)
                 (A) (A) (A) (A) (A) (A) (A) (A) (A) (A) (A) (A)
                 (A) (A) (A) (A) (A) (A) (A) (A) (A) (A) (A) (A)
                 (A) (A) (A) (A) (A) (A) (A) (A) (A) (A) (A) (A)
                 (A) (A) (A) (A)
 The electronic state is 2-A.
 Alpha  occ. eigenvalues --  -19.70419 -19.69337 -19.66113 -10.72937 -10.61372
 Alpha  occ. eigenvalues --  -10.60047 -10.59486 -10.54511  -1.27925  -1.18560
 Alpha  occ. eigenvalues --   -1.13895  -0.91533  -0.88087  -0.78590  -0.71263
 Alpha  occ. eigenvalues --   -0.64586  -0.62186  -0.58534  -0.56932  -0.54458
 Alpha  occ. eigenvalues --   -0.53799  -0.50642  -0.48394  -0.46633  -0.45214
 Alpha  occ. eigenvalues --   -0.42179  -0.41450  -0.39624  -0.38043  -0.36813
 Alpha  occ. eigenvalues --   -0.35250
 Alpha virt. eigenvalues --   -0.00962   0.01995   0.02552   0.03663   0.03805
 Alpha virt. eigenvalues --    0.04550   0.05344   0.05819   0.07896   0.08056
 Alpha virt. eigenvalues --    0.08363   0.08993   0.09643   0.11633   0.12307
 Alpha virt. eigenvalues --    0.13173   0.14660   0.15367   0.16212   0.16405
 Alpha virt. eigenvalues --    0.17427   0.19020   0.20018   0.21049   0.21232
 Alpha virt. eigenvalues --    0.22849   0.24402   0.24947   0.25618   0.26742
 Alpha virt. eigenvalues --    0.28398   0.29223   0.29722   0.30649   0.31424
 Alpha virt. eigenvalues --    0.32221   0.33630   0.34109   0.36263   0.37112
 Alpha virt. eigenvalues --    0.38196   0.39002   0.41036   0.42964   0.44179
 Alpha virt. eigenvalues --    0.47400   0.58175   0.60029   0.70047   0.70422
 Alpha virt. eigenvalues --    0.71509   0.72335   0.74843   0.76056   0.77881
 Alpha virt. eigenvalues --    0.80412   0.84560   0.85765   0.90072   0.91665
 Alpha virt. eigenvalues --    0.94741   0.97075   0.98601   1.07034   1.09953
 Alpha virt. eigenvalues --    1.11155   1.12991   1.15067   1.17904   1.20365
 Alpha virt. eigenvalues --    1.22716   1.25773   1.25946   1.28322   1.31637
 Alpha virt. eigenvalues --    1.35868   1.39213   1.40685   1.44273   1.46267
 Alpha virt. eigenvalues --    1.47955   1.55978   1.64632   1.71780   1.84149
 Alpha virt. eigenvalues --    2.02463   2.04093
  Beta  occ. eigenvalues --  -19.70423 -19.67759 -19.66131 -10.72916 -10.61372
  Beta  occ. eigenvalues --  -10.60069 -10.59323 -10.54511  -1.27933  -1.18590
  Beta  occ. eigenvalues --   -1.07289  -0.91168  -0.87803  -0.78462  -0.71116
  Beta  occ. eigenvalues --   -0.64533  -0.61805  -0.58378  -0.56777  -0.53927
  Beta  occ. eigenvalues --   -0.51496  -0.49305  -0.46841  -0.45212  -0.41973
  Beta  occ. eigenvalues --   -0.39468  -0.39166  -0.38175  -0.38019  -0.36296
  Beta virt. eigenvalues --   -0.09212  -0.00169   0.02049   0.02614   0.03691
  Beta virt. eigenvalues --    0.03893   0.04642   0.05359   0.05932   0.07964
  Beta virt. eigenvalues --    0.08137   0.08385   0.09097   0.09680   0.11620
  Beta virt. eigenvalues --    0.12398   0.13356   0.14703   0.15347   0.16404
  Beta virt. eigenvalues --    0.16849   0.17589   0.19270   0.20253   0.20728
  Beta virt. eigenvalues --    0.21342   0.22921   0.24574   0.25125   0.25782
  Beta virt. eigenvalues --    0.26854   0.28484   0.29342   0.29851   0.30685
  Beta virt. eigenvalues --    0.31416   0.32280   0.33635   0.34137   0.36247
  Beta virt. eigenvalues --    0.37136   0.37957   0.39040   0.41182   0.43056
  Beta virt. eigenvalues --    0.44246   0.47439   0.58171   0.60124   0.70056
  Beta virt. eigenvalues --    0.70571   0.71721   0.72830   0.75369   0.76558
  Beta virt. eigenvalues --    0.77978   0.80442   0.84712   0.85654   0.89749
  Beta virt. eigenvalues --    0.91670   0.95323   0.97346   0.98625   1.06907
  Beta virt. eigenvalues --    1.10017   1.11250   1.13836   1.16539   1.18469
  Beta virt. eigenvalues --    1.20460   1.23552   1.26482   1.27712   1.28766
  Beta virt. eigenvalues --    1.32027   1.37322   1.40138   1.41363   1.44803
  Beta virt. eigenvalues --    1.46469   1.48085   1.56054   1.65440   1.71813
  Beta virt. eigenvalues --    1.85979   2.02604   2.04110
          Condensed to atoms (all electrons):
               1          2          3          4          5          6
     1  O    8.338270   0.137552  -0.071976   0.000273   0.473149  -0.437131
     2  H    0.137552   0.443047   0.039554  -0.000106  -0.018704  -0.004236
     3  C   -0.071976   0.039554  35.318313   0.540391  -8.941431 -20.108704
     4  H    0.000273  -0.000106   0.540391   0.352987  -0.185425  -0.036094
     5  C    0.473149  -0.018704  -8.941431  -0.185425  21.871455  -5.192262
     6  C   -0.437131  -0.004236 -20.108704  -0.036094  -5.192262  29.954038
     7  O   -0.016578  -0.001050   0.191842  -0.000121   0.273951  -0.284477
     8  O   -0.009184   0.000303  -0.539883  -0.000108  -1.108596   1.068408
     9  C   -0.001776  -0.000520  -0.228424   0.000377  -0.541157   0.505223
    10  C    0.002857  -0.000198  -0.109487  -0.000150  -0.235228   0.147719
    11  H    0.000003  -0.000001   0.001804   0.000000   0.000678   0.013950
    12  H   -0.000246  -0.000000   0.012087  -0.000000   0.052309  -0.059803
    13  H    0.000003  -0.000000  -0.000103   0.000000   0.002605   0.005330
    14  H    0.000006   0.000000  -0.000479  -0.000000   0.003824   0.002993
    15  H    0.000019   0.000000   0.000789   0.000000  -0.007555   0.004231
               7          8          9         10         11         12
     1  O   -0.016578  -0.009184  -0.001776   0.002857   0.000003  -0.000246
     2  H   -0.001050   0.000303  -0.000520  -0.000198  -0.000001  -0.000000
     3  C    0.191842  -0.539883  -0.228424  -0.109487   0.001804   0.012087
     4  H   -0.000121  -0.000108   0.000377  -0.000150   0.000000  -0.000000
     5  C    0.273951  -1.108596  -0.541157  -0.235228   0.000678   0.052309
     6  C   -0.284477   1.068408   0.505223   0.147719   0.013950  -0.059803
     7  O    8.478903  -0.248316  -0.003927  -0.053295  -0.001066   0.001667
     8  O   -0.248316   9.055429   0.032081   0.037586  -0.070532  -0.032850
     9  C   -0.003927   0.032081   5.881486  -0.093600   0.426864   0.413541
    10  C   -0.053295   0.037586  -0.093600   5.809487  -0.059486  -0.075566
    11  H   -0.001066  -0.070532   0.426864  -0.059486   0.498304  -0.031251
    12  H    0.001667  -0.032850   0.413541  -0.075566  -0.031251   0.486921
    13  H   -0.000385   0.007111  -0.074461   0.401811  -0.000707  -0.000735
    14  H   -0.000143  -0.001904  -0.055892   0.395114  -0.004440   0.003749
    15  H    0.001133  -0.008307  -0.047343   0.404671   0.003568  -0.004606
              13         14         15
     1  O    0.000003   0.000006   0.000019
     2  H   -0.000000   0.000000   0.000000
     3  C   -0.000103  -0.000479   0.000789
     4  H    0.000000  -0.000000   0.000000
     5  C    0.002605   0.003824  -0.007555
     6  C    0.005330   0.002993   0.004231
     7  O   -0.000385  -0.000143   0.001133
     8  O    0.007111  -0.001904  -0.008307
     9  C   -0.074461  -0.055892  -0.047343
    10  C    0.401811   0.395114   0.404671
    11  H   -0.000707  -0.004440   0.003568
    12  H   -0.000735   0.003749  -0.004606
    13  H    0.500810  -0.025430  -0.023113
    14  H   -0.025430   0.490379  -0.027205
    15  H   -0.023113  -0.027205   0.469422
          Atomic-Atomic Spin Densities.
               1          2          3          4          5          6
     1  O    0.982495   0.002548  -0.160442  -0.000658  -0.027026   0.078148
     2  H    0.002548  -0.035510   0.009153   0.000042  -0.005082  -0.003381
     3  C   -0.160442   0.009153  -0.186235  -0.007638   0.078019   0.461979
     4  H   -0.000658   0.000042  -0.007638  -0.007162   0.005164   0.000932
     5  C   -0.027026  -0.005082   0.078019   0.005164  -0.363613   0.208415
     6  C    0.078148  -0.003381   0.461979   0.000932   0.208415  -0.666938
     7  O    0.001439   0.000061   0.006495   0.000001   0.009849  -0.016083
     8  O    0.000447   0.000133   0.007272   0.000013   0.005198  -0.007875
     9  C   -0.001725   0.000269  -0.004882  -0.000007   0.000668   0.003477
    10  C   -0.000608   0.000022   0.001126   0.000011  -0.002818   0.003308
    11  H   -0.000001   0.000000   0.000117  -0.000000   0.000415  -0.000633
    12  H   -0.000008  -0.000000   0.000014   0.000000  -0.000172   0.000289
    13  H   -0.000001   0.000000  -0.000011   0.000000  -0.000038  -0.000046
    14  H    0.000000  -0.000000  -0.000064  -0.000000  -0.000131   0.000138
    15  H   -0.000000  -0.000000   0.000063  -0.000000   0.000069  -0.000173
               7          8          9         10         11         12
     1  O    0.001439   0.000447  -0.001725  -0.000608  -0.000001  -0.000008
     2  H    0.000061   0.000133   0.000269   0.000022   0.000000  -0.000000
     3  C    0.006495   0.007272  -0.004882   0.001126   0.000117   0.000014
     4  H    0.000001   0.000013  -0.000007   0.000011  -0.000000   0.000000
     5  C    0.009849   0.005198   0.000668  -0.002818   0.000415  -0.000172
     6  C   -0.016083  -0.007875   0.003477   0.003308  -0.000633   0.000289
     7  O   -0.010670  -0.000184   0.000659   0.000321   0.000014   0.000051
     8  O   -0.000184  -0.003958  -0.000365  -0.000863   0.000046  -0.000101
     9  C    0.000659  -0.000365   0.001136   0.000511  -0.000039  -0.000011
    10  C    0.000321  -0.000863   0.000511  -0.001524   0.000098  -0.000083
    11  H    0.000014   0.000046  -0.000039   0.000098  -0.000073  -0.000002
    12  H    0.000051  -0.000101  -0.000011  -0.000083  -0.000002  -0.000059
    13  H    0.000012  -0.000035  -0.000133   0.000255   0.000000   0.000002
    14  H   -0.000002  -0.000006   0.000073   0.000012  -0.000005  -0.000001
    15  H   -0.000031   0.000002   0.000035   0.000048  -0.000001  -0.000004
              13         14         15
     1  O   -0.000001   0.000000  -0.000000
     2  H    0.000000  -0.000000  -0.000000
     3  C   -0.000011  -0.000064   0.000063
     4  H    0.000000  -0.000000  -0.000000
     5  C   -0.000038  -0.000131   0.000069
     6  C   -0.000046   0.000138  -0.000173
     7  O    0.000012  -0.000002  -0.000031
     8  O   -0.000035  -0.000006   0.000002
     9  C   -0.000133   0.000073   0.000035
    10  C    0.000255   0.000012   0.000048
    11  H    0.000000  -0.000005  -0.000001
    12  H    0.000002  -0.000001  -0.000004
    13  H    0.000053  -0.000015  -0.000015
    14  H   -0.000015  -0.000007  -0.000006
    15  H   -0.000015  -0.000006   0.000010
 Mulliken charges and spin densities:
               1          2
     1  O   -0.415241   0.874608
     2  H    0.404357  -0.031744
     3  C   -0.104294   0.204964
     4  H    0.327976  -0.009302
     5  C   -0.447614  -0.091086
     6  C    0.420815   0.061558
     7  O   -0.338137  -0.008069
     8  O   -0.181238  -0.000277
     9  C   -0.212472  -0.000332
    10  C   -0.572235  -0.000184
    11  H    0.222312  -0.000064
    12  H    0.234784  -0.000086
    13  H    0.207263   0.000029
    14  H    0.219427  -0.000012
    15  H    0.234297  -0.000003
 Sum of Mulliken charges =  -0.00000   1.00000
 Mulliken charges and spin densities with hydrogens summed into heavy atoms:
               1          2
     1  O   -0.010885   0.842863
     3  C    0.223683   0.195662
     5  C   -0.447614  -0.091086
     6  C    0.420815   0.061558
     7  O   -0.338137  -0.008069
     8  O   -0.181238  -0.000277
     9  C    0.244624  -0.000482
    10  C    0.088752  -0.000170
 APT charges:
               1
     1  O   -0.173680
     2  H    0.256381
     3  C   -0.204529
     4  H    0.252251
     5  C   -0.409199
     6  C    1.451598
     7  O   -0.754525
     8  O   -0.929341
     9  C    0.501820
    10  C   -0.054254
    11  H   -0.002712
    12  H   -0.004016
    13  H    0.014410
    14  H    0.017951
    15  H    0.037846
 Sum of APT charges =   0.00000
 APT charges with hydrogens summed into heavy atoms:
               1
     1  O    0.082701
     3  C    0.047722
     5  C   -0.409199
     6  C    1.451598
     7  O   -0.754525
     8  O   -0.929341
     9  C    0.495092
    10  C    0.015953
 Electronic spatial extent (au):  <R**2>=           1136.7310
 Charge=             -0.0000 electrons
 Dipole moment (field-independent basis, Debye):
    X=              0.3669    Y=             -0.8229    Z=             -0.4973  Tot=              1.0291
 Quadrupole moment (field-independent basis, Debye-Ang):
   XX=            -31.1499   YY=            -46.9647   ZZ=            -53.1675
   XY=             -5.6032   XZ=              2.8918   YZ=              4.4530
 Traceless Quadrupole moment (field-independent basis, Debye-Ang):
   XX=             12.6107   YY=             -3.2040   ZZ=             -9.4068
   XY=             -5.6032   XZ=              2.8918   YZ=              4.4530
 Octapole moment (field-independent basis, Debye-Ang**2):
  XXX=             31.1968  YYY=              3.8211  ZZZ=             -4.3317  XYY=              3.0196
  XXY=             -6.5109  XXZ=              2.6052  XZZ=              2.9502  YZZ=              4.5360
  YYZ=              1.0860  XYZ=             11.6279
 Hexadecapole moment (field-independent basis, Debye-Ang**3):
 XXXX=           -896.2304 YYYY=           -243.2660 ZZZZ=           -188.2155 XXXY=            -39.0633
 XXXZ=              7.1335 YYYX=             -3.7871 YYYZ=              6.0937 ZZZX=              7.4601
 ZZZY=              3.1996 XXYY=           -191.4520 XXZZ=           -198.8821 YYZZ=            -66.0485
 XXYZ=             34.1742 YYXZ=              1.6630 ZZXY=              1.7051
 N-N= 3.580325280087D+02 E-N=-1.698909554647D+03  KE= 4.178934047508D+02
  Exact polarizability:  81.736  -7.566  69.099  -3.485   3.810  58.100
 Approx polarizability:  81.445 -14.668  71.977  -8.088   3.118  73.494
                          Isotropic Fermi Contact Couplings
        Atom                 a.u.       MegaHertz       Gauss      10(-4) cm-1
     1  O(17)              0.12982     -78.69540     -28.08048     -26.24996
     2  H(1)              -0.01531     -68.43690     -24.41999     -22.82809
     3  C(13)              0.02623      29.48311      10.52031       9.83451
     4  H(1)              -0.00390     -17.45074      -6.22686      -5.82094
     5  C(13)              0.00898      10.09065       3.60060       3.36588
     6  C(13)              0.01021      11.48245       4.09722       3.83013
     7  O(17)             -0.00229       1.38757       0.49512       0.46285
     8  O(17)             -0.00006       0.03512       0.01253       0.01171
     9  C(13)              0.00002       0.02038       0.00727       0.00680
    10  C(13)             -0.00011      -0.12740      -0.04546      -0.04250
    11  H(1)              -0.00001      -0.05897      -0.02104      -0.01967
    12  H(1)              -0.00005      -0.23970      -0.08553      -0.07995
    13  H(1)               0.00002       0.08518       0.03039       0.02841
    14  H(1)               0.00000       0.00318       0.00113       0.00106
    15  H(1)               0.00001       0.03949       0.01409       0.01317
 --------------------------------------------------------
       Center         ----  Spin Dipole Couplings  ----
                      3XX-RR        3YY-RR        3ZZ-RR
 --------------------------------------------------------
     1   Atom       -1.541126      2.987904     -1.446778
     2   Atom        0.004722     -0.044125      0.039404
     3   Atom       -0.075137      0.177968     -0.102831
     4   Atom        0.009635      0.005071     -0.014706
     5   Atom        0.027534      0.005390     -0.032924
     6   Atom        0.016382     -0.001724     -0.014659
     7   Atom        0.035760     -0.046861      0.011101
     8   Atom        0.011523     -0.012336      0.000813
     9   Atom        0.003756     -0.001791     -0.001966
    10   Atom        0.001416     -0.000583     -0.000833
    11   Atom        0.002493     -0.001281     -0.001212
    12   Atom        0.003402     -0.001686     -0.001715
    13   Atom        0.001015     -0.000451     -0.000564
    14   Atom        0.001134     -0.000406     -0.000728
    15   Atom        0.001203     -0.000369     -0.000834
 --------------------------------------------------------
                        XY            XZ            YZ
 --------------------------------------------------------
     1   Atom        0.346070      0.051224      0.786718
     2   Atom       -0.024607      0.134160     -0.021066
     3   Atom        0.137212      0.016703      0.007505
     4   Atom       -0.012439     -0.010651      0.007869
     5   Atom       -0.006490     -0.018906      0.013500
     6   Atom        0.014294     -0.007093     -0.001713
     7   Atom        0.001848     -0.004065     -0.016600
     8   Atom        0.001826      0.004979      0.001777
     9   Atom        0.000441      0.000037      0.000044
    10   Atom        0.000535     -0.000004      0.000009
    11   Atom       -0.000090      0.000881     -0.000004
    12   Atom        0.000127     -0.000966      0.000068
    13   Atom        0.000312     -0.000049      0.000003
    14   Atom        0.000662      0.000338      0.000144
    15   Atom        0.000848     -0.000400     -0.000115
 --------------------------------------------------------


 ---------------------------------------------------------------------------------
              Anisotropic Spin Dipole Couplings in Principal Axis System
 ---------------------------------------------------------------------------------

       Atom             a.u.   MegaHertz   Gauss  10(-4) cm-1        Axes

              Baa    -1.5858   114.749    40.945    38.276  0.4022 -0.1847  0.8967
     1 O(17)  Bbb    -1.5636   113.140    40.371    37.739  0.9125  0.0013 -0.4090
              Bcc     3.1494  -227.889   -81.317   -76.016  0.0744  0.9828  0.1691
 
              Baa    -0.1135   -60.576   -21.615   -20.206  0.7547  0.0695 -0.6524
     2 H(1)   Bbb    -0.0488   -26.032    -9.289    -8.683  0.0487  0.9857  0.1614
              Bcc     0.1623    86.607    30.904    28.889  0.6543 -0.1535  0.7405
 
              Baa    -0.1394   -18.710    -6.676    -6.241  0.8717 -0.3692 -0.3221
     3 C(13)  Bbb    -0.0992   -13.310    -4.749    -4.440  0.2800 -0.1642  0.9459
              Bcc     0.2386    32.020    11.426    10.681  0.4021  0.9147  0.0398
 
              Baa    -0.0192   -10.247    -3.657    -3.418  0.2788 -0.1639  0.9463
     4 H(1)   Bbb    -0.0053    -2.805    -1.001    -0.936  0.6203  0.7830 -0.0471
              Bcc     0.0245    13.052     4.657     4.354  0.7332 -0.6001 -0.3199
 
              Baa    -0.0411    -5.518    -1.969    -1.841  0.2365 -0.2403  0.9414
     5 C(13)  Bbb     0.0048     0.640     0.228     0.214  0.3766  0.9159  0.1391
              Bcc     0.0363     4.878     1.740     1.627  0.8956 -0.3217 -0.3071
 
              Baa    -0.0164    -2.203    -0.786    -0.735  0.2727 -0.1546  0.9496
     6 C(13)  Bbb    -0.0091    -1.217    -0.434    -0.406 -0.4163  0.8709  0.2614
              Bcc     0.0255     3.420     1.220     1.141  0.8674  0.4666 -0.1731
 
              Baa    -0.0513     3.711     1.324     1.238 -0.0085  0.9665  0.2566
     7 O(17)  Bbb     0.0146    -1.057    -0.377    -0.352  0.2037 -0.2496  0.9467
              Bcc     0.0367    -2.654    -0.947    -0.885  0.9790  0.0603 -0.1947
 
              Baa    -0.0126     0.914     0.326     0.305 -0.0519  0.9924 -0.1119
     8 O(17)  Bbb    -0.0011     0.077     0.027     0.026 -0.3771  0.0843  0.9223
              Bcc     0.0137    -0.991    -0.354    -0.330  0.9247  0.0901  0.3699
 
              Baa    -0.0020    -0.265    -0.095    -0.088  0.0139 -0.2613  0.9652
     9 C(13)  Bbb    -0.0018    -0.243    -0.087    -0.081 -0.0780  0.9620  0.2615
              Bcc     0.0038     0.509     0.182     0.170  0.9969  0.0789  0.0070
 
              Baa    -0.0008    -0.112    -0.040    -0.037  0.0214 -0.0832  0.9963
    10 C(13)  Bbb    -0.0007    -0.096    -0.034    -0.032 -0.2423  0.9664  0.0859
              Bcc     0.0016     0.208     0.074     0.069  0.9700  0.2432 -0.0005
 
              Baa    -0.0014    -0.754    -0.269    -0.251 -0.2210 -0.1217  0.9676
    11 H(1)   Bbb    -0.0013    -0.684    -0.244    -0.228 -0.0052  0.9923  0.1236
              Bcc     0.0027     1.437     0.513     0.479  0.9753 -0.0223  0.2199
 
              Baa    -0.0019    -1.028    -0.367    -0.343  0.1750 -0.3551  0.9183
    12 H(1)   Bbb    -0.0017    -0.883    -0.315    -0.294  0.0439  0.9346  0.3530
              Bcc     0.0036     1.910     0.682     0.637  0.9836  0.0215 -0.1791
 
              Baa    -0.0006    -0.304    -0.108    -0.101  0.0744 -0.2242  0.9717
    13 H(1)   Bbb    -0.0005    -0.273    -0.097    -0.091 -0.1875  0.9539  0.2344
              Bcc     0.0011     0.576     0.206     0.192  0.9794  0.1996 -0.0289
 
              Baa    -0.0008    -0.423    -0.151    -0.141 -0.1127 -0.1725  0.9785
    14 H(1)   Bbb    -0.0006    -0.346    -0.124    -0.116 -0.3653  0.9230  0.1206
              Bcc     0.0014     0.769     0.274     0.257  0.9240  0.3439  0.1671
 
              Baa    -0.0009    -0.490    -0.175    -0.163  0.2585 -0.2010  0.9449
    15 H(1)   Bbb    -0.0007    -0.386    -0.138    -0.129 -0.3367  0.8980  0.2831
              Bcc     0.0016     0.876     0.313     0.292  0.9054  0.3913 -0.1644
 

 ---------------------------------------------------------------------------------

 Calling FoFJK, ICntrl=    100127 FMM=F ISym2X=0 I1Cent= 0 IOpClX= 1 NMat=1 NMatS=1 NMatT=0.
 Full mass-weighted force constant matrix:
 Low frequencies --- -472.2313 -199.5578 -139.1737 -107.3716  -78.8801  -54.9226
 Low frequencies ---   -7.9672   -0.0005    0.0003
 ******    4 imaginary frequencies (negative Signs) ****** 
 Diagonal vibrational polarizability:
       50.4805079      93.3164882      54.3326619
 Harmonic frequencies (cm**-1), IR intensities (KM/Mole), Raman scattering
 activities (A**4/AMU), depolarization ratios for plane and unpolarized
 incident light, reduced masses (AMU), force constants (mDyne/A),
 and normal coordinates:
                      1                      2                      3
                      A                      A                      A
 Frequencies --   -471.4880              -199.1357               -99.7648
 Red. masses --      1.0840                 6.4056                 5.6581
 Frc consts  --      0.1420                 0.1497                 0.0332
 IR Inten    --    116.8284                 1.5643                22.5811
  Atom  AN      X      Y      Z        X      Y      Z        X      Y      Z
     1   8    -0.05   0.00   0.04    -0.13  -0.28  -0.14     0.18  -0.12   0.25
     2   1     0.72  -0.09  -0.68    -0.09   0.62   0.04     0.13  -0.46   0.21
     3   6    -0.00  -0.01   0.01    -0.09  -0.09   0.07    -0.16  -0.08  -0.13
     4   1    -0.02  -0.04   0.00    -0.22  -0.32   0.05    -0.27  -0.24  -0.18
     5   6     0.01   0.01   0.01     0.19   0.44   0.08     0.01   0.19  -0.07
     6   6     0.00   0.01   0.01     0.05   0.12   0.03     0.01   0.15  -0.03
     7   8    -0.01  -0.00  -0.00    -0.04  -0.17  -0.03     0.09   0.25   0.00
     8   8     0.01   0.00  -0.00     0.04   0.10   0.03    -0.07  -0.02  -0.05
     9   6     0.00  -0.00  -0.01    -0.00   0.00   0.02    -0.10  -0.10  -0.05
    10   6     0.00   0.00  -0.01     0.04  -0.03  -0.02     0.00  -0.17   0.01
    11   1     0.00  -0.00  -0.01    -0.02   0.01   0.03    -0.16  -0.16  -0.07
    12   1    -0.00   0.00  -0.01    -0.04  -0.02   0.03    -0.13  -0.06  -0.07
    13   1     0.00   0.00  -0.01     0.02  -0.05  -0.03    -0.02  -0.25   0.02
    14   1     0.00  -0.00  -0.01     0.06  -0.01  -0.03     0.03  -0.20   0.03
    15   1    -0.00   0.00  -0.01     0.04  -0.03  -0.03     0.08  -0.12   0.02
                      4                      5                      6
                      A                      A                      A
 Frequencies --    -50.5513                20.9400                87.0820
 Red. masses --      5.7723                 2.6992                 3.0972
 Frc consts  --      0.0087                 0.0007                 0.0138
 IR Inten    --      2.3710                 0.3982                 5.7625
  Atom  AN      X      Y      Z        X      Y      Z        X      Y      Z
     1   8     0.31   0.10  -0.16    -0.01   0.00   0.10    -0.04   0.01   0.04
     2   1     0.24  -0.32  -0.19    -0.02  -0.07   0.09    -0.03  -0.06   0.02
     3   6    -0.07  -0.04   0.14     0.03   0.02   0.04     0.10  -0.08   0.24
     4   1    -0.06  -0.09   0.24     0.05   0.01   0.10     0.17  -0.17   0.53
     5   6    -0.11  -0.03   0.00     0.01   0.03  -0.03     0.01   0.02  -0.14
     6   6    -0.07   0.06  -0.00    -0.02  -0.01  -0.08     0.01   0.02  -0.14
     7   8    -0.13  -0.13  -0.04    -0.08  -0.09  -0.11     0.12   0.01  -0.11
     8   8    -0.02   0.26   0.06     0.02   0.02  -0.09    -0.09   0.02  -0.06
     9   6    -0.10  -0.01   0.05     0.01   0.03  -0.11    -0.05   0.01   0.11
    10   6     0.11  -0.18  -0.02     0.05   0.02   0.26    -0.06   0.01   0.02
    11   1    -0.21  -0.02   0.08    -0.07  -0.19  -0.26    -0.10   0.14   0.24
    12   1    -0.22  -0.04   0.08     0.05   0.27  -0.25     0.06  -0.14   0.19
    13   1     0.04  -0.37  -0.05     0.04   0.06   0.13    -0.01  -0.01   0.32
    14   1     0.25  -0.16  -0.03     0.07  -0.27   0.43    -0.28   0.24  -0.11
    15   1     0.19  -0.15  -0.02     0.06   0.29   0.47     0.09  -0.19  -0.20
                      7                      8                      9
                      A                      A                      A
 Frequencies --    119.7956               184.2689               199.3635
 Red. masses --      5.4535                 1.3365                 4.2231
 Frc consts  --      0.0461                 0.0267                 0.0989
 IR Inten    --      0.3270                 2.5962                 0.4509
  Atom  AN      X      Y      Z        X      Y      Z        X      Y      Z
     1   8     0.30  -0.09  -0.06     0.00  -0.05  -0.00     0.06   0.31   0.02
     2   1     0.34  -0.10  -0.10     0.03   0.03  -0.00    -0.04   0.06   0.05
     3   6     0.10   0.25   0.04     0.00   0.05  -0.02    -0.15  -0.22  -0.03
     4   1     0.16   0.36   0.03     0.01   0.11  -0.08    -0.32  -0.48  -0.10
     5   6     0.05   0.18   0.04    -0.01  -0.02   0.05     0.09   0.12   0.06
     6   6    -0.04  -0.04   0.01    -0.02  -0.00   0.01     0.05   0.01   0.03
     7   8    -0.04  -0.09   0.00    -0.09   0.04  -0.01    -0.02  -0.11  -0.01
     8   8    -0.10  -0.20  -0.02     0.03   0.00  -0.03     0.03  -0.12  -0.02
     9   6    -0.05  -0.05  -0.01     0.03   0.00  -0.02     0.04  -0.04  -0.05
    10   6    -0.24   0.10   0.01     0.06  -0.02   0.03    -0.07   0.05   0.01
    11   1     0.03  -0.01  -0.01    -0.01  -0.01  -0.01     0.09  -0.05  -0.07
    12   1     0.03  -0.05  -0.01     0.05   0.00  -0.02     0.08  -0.01  -0.07
    13   1    -0.17   0.28   0.02     0.15  -0.07   0.61     0.03   0.17   0.34
    14   1    -0.35   0.10   0.01    -0.38   0.25  -0.12    -0.41   0.18  -0.06
    15   1    -0.34   0.05   0.00     0.42  -0.26  -0.30     0.05  -0.10  -0.16
                     10                     11                     12
                      A                      A                      A
 Frequencies --    310.0202               390.8693               421.6036
 Red. masses --      2.8335                 1.6326                 1.9560
 Frc consts  --      0.1605                 0.1470                 0.2048
 IR Inten    --     19.6942                61.1551                61.1699
  Atom  AN      X      Y      Z        X      Y      Z        X      Y      Z
     1   8     0.03   0.02   0.01     0.04  -0.01   0.04     0.05   0.01   0.03
     2   1     0.07   0.24   0.02     0.22   0.87   0.09     0.22   0.77   0.06
     3   6    -0.01  -0.02  -0.03     0.04  -0.04  -0.03    -0.06   0.01   0.02
     4   1    -0.05  -0.04  -0.10     0.04  -0.02  -0.07    -0.04   0.00   0.08
     5   6     0.04   0.00   0.08     0.03  -0.10   0.02    -0.07   0.02  -0.04
     6   6     0.00  -0.00  -0.06     0.03   0.02  -0.02    -0.06  -0.05  -0.01
     7   8    -0.18   0.09  -0.11     0.00   0.02  -0.02     0.05  -0.03   0.03
     8   8     0.00  -0.07  -0.11     0.03   0.09   0.01    -0.10  -0.11  -0.01
     9   6     0.08  -0.03   0.21    -0.05  -0.06  -0.02    -0.01   0.11  -0.02
    10   6     0.05  -0.01   0.03    -0.11  -0.03   0.02     0.13   0.02  -0.02
    11   1     0.00   0.21   0.45    -0.07  -0.10  -0.05     0.01   0.08  -0.04
    12   1     0.29  -0.31   0.36    -0.12  -0.02  -0.04     0.03   0.13  -0.03
    13   1    -0.01  -0.00  -0.29    -0.07   0.11   0.04     0.05  -0.24  -0.01
    14   1     0.32  -0.03   0.04    -0.22  -0.06   0.03     0.29   0.04  -0.03
    15   1    -0.18   0.01   0.13    -0.18  -0.04   0.03     0.30   0.07  -0.04
                     13                     14                     15
                      A                      A                      A
 Frequencies --    577.3722               619.7331               723.4565
 Red. masses --      4.0461                 5.3902                 1.8713
 Frc consts  --      0.7947                 1.2197                 0.5770
 IR Inten    --      4.2697                12.2463                12.9285
  Atom  AN      X      Y      Z        X      Y      Z        X      Y      Z
     1   8    -0.01   0.02  -0.01    -0.01  -0.01  -0.01     0.01   0.02  -0.00
     2   1    -0.07  -0.26  -0.02    -0.01  -0.11  -0.03     0.02  -0.00  -0.02
     3   6     0.19  -0.10  -0.07    -0.16   0.07   0.07    -0.04  -0.14   0.06
     4   1     0.08  -0.11  -0.37    -0.23   0.40  -0.54     0.31   0.83  -0.37
     5   6     0.26  -0.07   0.17    -0.08  -0.07   0.40     0.04   0.10  -0.04
     6   6     0.03  -0.01  -0.04    -0.04   0.06  -0.11    -0.06  -0.17  -0.03
     7   8    -0.04   0.02  -0.05     0.27  -0.10  -0.05    -0.00   0.05   0.01
     8   8    -0.16  -0.03   0.05    -0.01   0.05  -0.20     0.02   0.04   0.02
     9   6    -0.21   0.17   0.01    -0.02   0.00  -0.01     0.01  -0.00   0.01
    10   6    -0.01   0.01  -0.01    -0.01  -0.01   0.01    -0.00  -0.00   0.00
    11   1    -0.12   0.05  -0.13    -0.14   0.15   0.15     0.00  -0.04  -0.02
    12   1    -0.24   0.29  -0.06     0.13  -0.17   0.08    -0.02   0.03  -0.01
    13   1    -0.14  -0.41   0.02    -0.01   0.01   0.00     0.01   0.03  -0.00
    14   1     0.24   0.07  -0.05    -0.03  -0.06   0.04    -0.02   0.01  -0.01
    15   1     0.27   0.06  -0.07    -0.01   0.04   0.05    -0.04  -0.02  -0.00
                     16                     17                     18
                      A                      A                      A
 Frequencies --    742.1714               775.0877               815.0614
 Red. masses --      3.0478                 1.3652                 1.2590
 Frc consts  --      0.9891                 0.4832                 0.4928
 IR Inten    --     91.4214                47.2080                 6.1500
  Atom  AN      X      Y      Z        X      Y      Z        X      Y      Z
     1   8    -0.01  -0.01   0.01     0.00   0.00  -0.00    -0.00  -0.00   0.00
     2   1     0.00   0.03   0.00     0.00  -0.03  -0.01     0.00  -0.00  -0.00
     3   6    -0.02  -0.10   0.03    -0.07  -0.03  -0.13    -0.04   0.02   0.00
     4   1     0.40   0.79  -0.15     0.44   0.19   0.86    -0.03   0.02   0.04
     5   6    -0.04  -0.07  -0.07     0.03   0.01   0.08    -0.03  -0.00   0.03
     6   6     0.13   0.34   0.07    -0.01  -0.02  -0.01     0.03   0.00  -0.04
     7   8    -0.05  -0.08  -0.02     0.01  -0.00   0.00     0.01   0.01  -0.06
     8   8    -0.03  -0.09   0.01     0.00   0.01  -0.02    -0.01  -0.01   0.04
     9   6    -0.00   0.00  -0.00    -0.01   0.01  -0.00     0.03  -0.02   0.08
    10   6     0.01   0.01  -0.00    -0.01  -0.00   0.00     0.02   0.00   0.03
    11   1     0.02   0.01  -0.00    -0.02   0.03   0.02    -0.06  -0.46  -0.27
    12   1     0.02  -0.00   0.00     0.00  -0.01   0.01    -0.00   0.46  -0.21
    13   1    -0.01  -0.04  -0.00    -0.01  -0.02   0.01     0.00   0.07  -0.17
    14   1     0.05   0.01  -0.01     0.00  -0.01   0.01     0.16   0.36  -0.19
    15   1     0.05   0.02  -0.02     0.01   0.01   0.01    -0.26  -0.34  -0.15
                     19                     20                     21
                      A                      A                      A
 Frequencies --    898.3249               944.7235              1113.0333
 Red. masses --      3.4014                 2.5719                 4.1264
 Frc consts  --      1.6173                 1.3524                 3.0119
 IR Inten    --     21.0420                 6.7155                 5.9600
  Atom  AN      X      Y      Z        X      Y      Z        X      Y      Z
     1   8    -0.00  -0.00  -0.00     0.00   0.01  -0.00     0.00   0.00   0.00
     2   1     0.01  -0.02  -0.01    -0.00  -0.00   0.00     0.00   0.00  -0.00
     3   6    -0.07   0.04   0.01     0.09  -0.05  -0.04     0.05  -0.03  -0.03
     4   1    -0.06   0.05   0.04     0.10  -0.05  -0.04     0.06  -0.03  -0.04
     5   6    -0.03  -0.01   0.08     0.07  -0.01   0.00     0.04  -0.01   0.02
     6   6     0.07  -0.02  -0.12    -0.13   0.05   0.03    -0.14   0.07  -0.03
     7   8     0.01   0.04  -0.19     0.00  -0.02   0.09     0.01  -0.01   0.01
     8   8    -0.10  -0.03   0.26    -0.15   0.04  -0.06    -0.17   0.04   0.06
     9   6     0.06  -0.09  -0.04     0.00  -0.12  -0.02     0.34   0.16  -0.07
    10   6     0.10   0.04  -0.07     0.19   0.06  -0.01    -0.10  -0.22   0.02
    11   1     0.30   0.06   0.00    -0.33  -0.16   0.07     0.35   0.24  -0.01
    12   1    -0.31  -0.27   0.09    -0.05  -0.13  -0.01     0.45   0.18  -0.08
    13   1     0.25   0.36   0.15     0.37   0.67  -0.09    -0.06  -0.06  -0.01
    14   1    -0.27  -0.30   0.15    -0.14   0.13  -0.04    -0.24  -0.24   0.02
    15   1     0.15   0.33   0.15    -0.25  -0.06   0.04    -0.29  -0.32   0.02
                     22                     23                     24
                      A                      A                      A
 Frequencies --   1158.0137              1227.5216              1329.1016
 Red. masses --      2.1021                 1.7579                 1.8434
 Frc consts  --      1.6609                 1.5606                 1.9186
 IR Inten    --     18.2709                 4.3740               304.9848
  Atom  AN      X      Y      Z        X      Y      Z        X      Y      Z
     1   8    -0.00  -0.00  -0.00     0.00   0.00  -0.00     0.00   0.00   0.00
     2   1     0.00   0.00   0.00     0.00   0.00   0.00     0.00   0.01  -0.00
     3   6    -0.02   0.01   0.01     0.02  -0.01  -0.01     0.03  -0.02  -0.02
     4   1    -0.03   0.01   0.01     0.02  -0.01  -0.01     0.04  -0.02  -0.02
     5   6    -0.01   0.00  -0.01     0.01  -0.00  -0.00     0.01   0.00   0.00
     6   6     0.06  -0.02   0.01    -0.07   0.03  -0.01    -0.19   0.08  -0.06
     7   8    -0.01   0.00  -0.01     0.00  -0.01   0.03     0.02  -0.01  -0.01
     8   8     0.06  -0.06  -0.03    -0.01   0.01  -0.07     0.10  -0.04   0.02
     9   6    -0.09   0.20   0.07     0.05  -0.04   0.18    -0.07  -0.01   0.01
    10   6     0.07  -0.15  -0.05    -0.03   0.02  -0.13     0.03  -0.01   0.07
    11   1    -0.12   0.08  -0.03     0.28  -0.39  -0.20     0.77   0.15  -0.16
    12   1    -0.26   0.21   0.07    -0.18   0.38  -0.06    -0.38  -0.16   0.11
    13   1     0.28   0.50   0.02     0.01  -0.09   0.26     0.01   0.03  -0.09
    14   1    -0.47  -0.24   0.02    -0.12  -0.38   0.13     0.06   0.21  -0.06
    15   1    -0.36  -0.08   0.16     0.25   0.40   0.09    -0.11  -0.16  -0.01
                     25                     26                     27
                      A                      A                      A
 Frequencies --   1374.1389              1443.5885              1455.1709
 Red. masses --      1.8357                 1.3804                 1.2767
 Frc consts  --      2.0423                 1.6949                 1.5929
 IR Inten    --    313.3203                45.7976                14.1711
  Atom  AN      X      Y      Z        X      Y      Z        X      Y      Z
     1   8     0.00   0.00   0.00    -0.00  -0.00  -0.00     0.00   0.00   0.00
     2   1     0.00   0.01  -0.00    -0.00  -0.00   0.00     0.00   0.00  -0.00
     3   6     0.02  -0.01  -0.01    -0.01   0.01   0.01     0.00  -0.00  -0.00
     4   1     0.03  -0.02  -0.02    -0.01   0.01   0.01     0.01  -0.00  -0.00
     5   6     0.00  -0.00   0.00    -0.00  -0.00  -0.00     0.00   0.00   0.00
     6   6    -0.15   0.07  -0.05     0.08  -0.03   0.01    -0.03   0.01  -0.01
     7   8     0.02   0.00  -0.03    -0.01   0.00   0.02     0.00  -0.00  -0.00
     8   8     0.10  -0.04   0.10    -0.05   0.04  -0.03     0.02  -0.02   0.01
     9   6    -0.09  -0.01   0.01    -0.10  -0.05   0.01     0.05   0.03  -0.00
    10   6     0.01  -0.01  -0.05    -0.00  -0.07  -0.00    -0.10  -0.09   0.01
    11   1    -0.39  -0.07   0.07     0.60   0.20  -0.04    -0.24  -0.10  -0.00
    12   1     0.83   0.11  -0.11     0.52   0.20  -0.16    -0.22  -0.10   0.09
    13   1     0.04   0.04   0.04     0.13   0.30  -0.01     0.12   0.50   0.04
    14   1    -0.09  -0.09   0.00     0.08   0.19  -0.14     0.43   0.27  -0.19
    15   1     0.05   0.16   0.06     0.13   0.16   0.12     0.45   0.26   0.08
                     28                     29                     30
                      A                      A                      A
 Frequencies --   1527.8796              1537.3339              1545.2427
 Red. masses --      1.0420                 1.0701                 1.0736
 Frc consts  --      1.4332                 1.4900                 1.5104
 IR Inten    --     14.3090                 3.6179                20.9155
  Atom  AN      X      Y      Z        X      Y      Z        X      Y      Z
     1   8     0.00   0.00   0.00     0.00   0.00   0.00     0.00   0.00   0.00
     2   1    -0.00   0.00   0.00     0.00   0.00   0.00    -0.00   0.00   0.00
     3   6     0.00  -0.00   0.00     0.00  -0.00  -0.00     0.00  -0.00  -0.00
     4   1    -0.00  -0.00  -0.00     0.00  -0.00  -0.00     0.00  -0.00  -0.00
     5   6    -0.00   0.00   0.00    -0.00   0.00   0.00    -0.00   0.00   0.00
     6   6    -0.00   0.00   0.00    -0.02   0.01   0.00    -0.02   0.01   0.00
     7   8     0.00   0.00  -0.01     0.00   0.00  -0.01     0.00   0.00  -0.01
     8   8     0.00  -0.00   0.00     0.02  -0.01   0.00     0.01  -0.01   0.00
     9   6    -0.01  -0.01  -0.02     0.00  -0.06   0.00     0.03  -0.05  -0.01
    10   6    -0.02   0.02  -0.04    -0.02   0.02   0.02     0.02  -0.03  -0.01
    11   1     0.02   0.10   0.05    -0.05   0.40   0.39    -0.11   0.26   0.29
    12   1    -0.01   0.04  -0.04    -0.19   0.46  -0.28    -0.22   0.28  -0.18
    13   1     0.15   0.05   0.66     0.02   0.20  -0.18    -0.05  -0.28   0.12
    14   1     0.55  -0.14   0.06     0.06  -0.25   0.16    -0.15   0.40  -0.26
    15   1    -0.42  -0.14   0.01     0.24  -0.23  -0.28    -0.22   0.36   0.39
                     31                     32                     33
                      A                      A                      A
 Frequencies --   1910.2187              2274.2266              3107.2300
 Red. masses --     12.2413                 5.7803                 1.0351
 Frc consts  --     26.3174                17.6145                 5.8882
 IR Inten    --    308.6963                70.4383                13.8367
  Atom  AN      X      Y      Z        X      Y      Z        X      Y      Z
     1   8     0.00   0.00  -0.00    -0.00  -0.01  -0.00    -0.00  -0.00   0.00
     2   1    -0.02   0.01   0.02    -0.00   0.00   0.00    -0.00   0.00  -0.00
     3   6     0.06  -0.03  -0.02    -0.31   0.18   0.12     0.00  -0.00  -0.00
     4   1     0.10  -0.06  -0.02    -0.61   0.36   0.24    -0.00   0.00   0.00
     5   6    -0.05   0.03   0.00     0.45  -0.22  -0.17    -0.00   0.00   0.00
     6   6    -0.19  -0.09   0.77    -0.09   0.02   0.05     0.00  -0.00   0.00
     7   8     0.15   0.05  -0.50     0.00   0.00  -0.01     0.00   0.00  -0.00
     8   8    -0.03   0.03  -0.07    -0.00   0.00  -0.00    -0.00   0.00  -0.00
     9   6    -0.02   0.00   0.02     0.00  -0.00   0.00     0.00   0.00   0.00
    10   6     0.01  -0.01  -0.00    -0.00  -0.00  -0.00    -0.04  -0.03  -0.00
    11   1     0.12  -0.08  -0.11     0.01  -0.00   0.00     0.00  -0.00   0.00
    12   1     0.12  -0.06   0.07     0.00  -0.00   0.00    -0.00  -0.01  -0.02
    13   1     0.02   0.05  -0.03     0.00   0.00  -0.00     0.57  -0.21  -0.12
    14   1    -0.03   0.01  -0.01    -0.00   0.00  -0.00    -0.00   0.30   0.51
    15   1     0.05   0.03   0.02     0.00   0.00   0.00    -0.15   0.31  -0.38
                     34                     35                     36
                      A                      A                      A
 Frequencies --   3138.6911              3186.6762              3191.0322
 Red. masses --      1.0602                 1.1002                 1.1026
 Frc consts  --      6.1537                 6.5824                 6.6148
 IR Inten    --     17.1742                14.7479                 5.4360
  Atom  AN      X      Y      Z        X      Y      Z        X      Y      Z
     1   8    -0.00  -0.00  -0.00    -0.00   0.00  -0.00     0.00   0.00  -0.00
     2   1     0.00  -0.00   0.00     0.00  -0.00   0.00    -0.00   0.00  -0.00
     3   6     0.00   0.00   0.00    -0.00   0.00   0.00    -0.00  -0.00  -0.00
     4   1     0.00   0.00  -0.00     0.00  -0.00  -0.00    -0.00   0.00   0.00
     5   6     0.00  -0.00  -0.00     0.00   0.00  -0.00     0.00   0.00  -0.00
     6   6    -0.00   0.00  -0.00    -0.00   0.00  -0.00    -0.00   0.00   0.00
     7   8    -0.00   0.00   0.00     0.00  -0.00   0.00     0.00  -0.00  -0.00
     8   8     0.00  -0.00   0.00    -0.00   0.00   0.00     0.00  -0.00   0.00
     9   6     0.01  -0.06  -0.02     0.01  -0.02   0.03     0.01  -0.01   0.05
    10   6    -0.01   0.01   0.00     0.04  -0.04  -0.06    -0.05   0.04  -0.03
    11   1    -0.15   0.33  -0.42    -0.11   0.25  -0.30    -0.12   0.27  -0.32
    12   1     0.04   0.40   0.71    -0.00  -0.07  -0.11    -0.02  -0.20  -0.34
    13   1     0.11  -0.04  -0.02    -0.53   0.18   0.09     0.48  -0.16  -0.11
    14   1    -0.00  -0.03  -0.06     0.01   0.35   0.60    -0.01   0.00  -0.02
    15   1     0.01  -0.01   0.02     0.05  -0.09   0.08     0.17  -0.37   0.47
                     37                     38                     39
                      A                      A                      A
 Frequencies --   3212.0543              3528.0228              3815.8765
 Red. masses --      1.1053                 1.1693                 1.0672
 Frc consts  --      6.7189                 8.5750                 9.1559
 IR Inten    --     17.6639                61.0152                14.9915
  Atom  AN      X      Y      Z        X      Y      Z        X      Y      Z
     1   8    -0.00  -0.00   0.00    -0.00  -0.00  -0.00    -0.04   0.01  -0.05
     2   1    -0.00   0.00  -0.00     0.00   0.00   0.00     0.66  -0.18   0.73
     3   6     0.00   0.00   0.00    -0.10   0.05   0.04     0.00  -0.00  -0.00
     4   1    -0.00   0.00   0.00     0.83  -0.45  -0.32    -0.00   0.00   0.00
     5   6    -0.00  -0.00   0.00     0.03  -0.02  -0.01    -0.00   0.00   0.00
     6   6     0.00  -0.00  -0.00    -0.00   0.00   0.00    -0.00   0.00  -0.00
     7   8    -0.00  -0.00   0.00     0.00  -0.00   0.00     0.00  -0.00  -0.00
     8   8     0.00  -0.00  -0.00     0.00  -0.00   0.00     0.00  -0.00   0.00
     9   6    -0.02   0.01  -0.06    -0.00   0.00   0.00    -0.00   0.00   0.00
    10   6    -0.02   0.01  -0.06     0.00  -0.00  -0.00     0.00  -0.00  -0.00
    11   1     0.15  -0.36   0.43     0.00  -0.00   0.00     0.00  -0.00   0.00
    12   1     0.02   0.20   0.33     0.00  -0.00  -0.00     0.00  -0.00  -0.00
    13   1     0.10  -0.03  -0.04     0.00  -0.00  -0.00     0.00  -0.00  -0.00
    14   1    -0.00   0.21   0.33    -0.00   0.00   0.00    -0.00   0.00  -0.00
    15   1     0.16  -0.36   0.42    -0.00  -0.00   0.00    -0.00  -0.00   0.00

 -------------------
 - Thermochemistry -
 -------------------
 Temperature   298.150 Kelvin.  Pressure   1.00000 Atm.
 Atom     1 has atomic number  8 and mass  15.99491
 Atom     2 has atomic number  1 and mass   1.00783
 Atom     3 has atomic number  6 and mass  12.00000
 Atom     4 has atomic number  1 and mass   1.00783
 Atom     5 has atomic number  6 and mass  12.00000
 Atom     6 has atomic number  6 and mass  12.00000
 Atom     7 has atomic number  8 and mass  15.99491
 Atom     8 has atomic number  8 and mass  15.99491
 Atom     9 has atomic number  6 and mass  12.00000
 Atom    10 has atomic number  6 and mass  12.00000
 Atom    11 has atomic number  1 and mass   1.00783
 Atom    12 has atomic number  1 and mass   1.00783
 Atom    13 has atomic number  1 and mass   1.00783
 Atom    14 has atomic number  1 and mass   1.00783
 Atom    15 has atomic number  1 and mass   1.00783
 Molecular mass:   115.03952 amu.
 Principal axes and moments of inertia in atomic units:
                           1         2         3
     Eigenvalues --   457.257951551.360861633.22069
           X            0.99998  -0.00367   0.00540
           Y            0.00317   0.99581   0.09135
           Z           -0.00571  -0.09134   0.99580
 This molecule is an asymmetric top.
 Rotational symmetry number  1.
 Warning -- assumption of classical behavior for rotation
           may cause significant error
 Rotational temperatures (Kelvin)      0.18942     0.05583     0.05303
 Rotational constants (GHZ):           3.94688     1.16333     1.10502
    4 imaginary frequencies ignored.
 Zero-point vibrational energy     292516.4 (Joules/Mol)
                                   69.91310 (Kcal/Mol)
 Warning -- explicit consideration of  10 degrees of freedom as
           vibrations may cause significant error
 Vibrational temperatures:     30.13   125.29   172.36   265.12   286.84
          (Kelvin)            446.05   562.37   606.59   830.71   891.66
                             1040.89  1067.82  1115.18  1172.69  1292.49
                             1359.25  1601.41  1666.12  1766.13  1912.28
                             1977.08  2077.00  2093.67  2198.28  2211.88
                             2223.26  2748.38  3272.10  4470.61  4515.88
                             4584.92  4591.18  4621.43  5076.04  5490.20
 
 Zero-point correction=                           0.111414 (Hartree/Particle)
 Thermal correction to Energy=                    0.119648
 Thermal correction to Enthalpy=                  0.120592
 Thermal correction to Gibbs Free Energy=         0.076181
 Sum of electronic and zero-point Energies=           -419.844383
 Sum of electronic and thermal Energies=              -419.836149
 Sum of electronic and thermal Enthalpies=            -419.835204
 Sum of electronic and thermal Free Energies=         -419.879616
 
                     E (Thermal)             CV                S
                      KCal/Mol        Cal/Mol-Kelvin    Cal/Mol-Kelvin
 Total                   75.080             27.315             93.472
 Electronic               0.000              0.000              1.377
 Translational            0.889              2.981             40.136
 Rotational               0.889              2.981             28.540
 Vibrational             73.303             21.353             23.420
 Vibration     1          0.593              1.986              6.543
 Vibration     2          0.601              1.958              3.725
 Vibration     3          0.609              1.933              3.104
 Vibration     4          0.631              1.861              2.285
 Vibration     5          0.637              1.841              2.139
 Vibration     6          0.699              1.655              1.362
 Vibration     7          0.759              1.490              0.997
 Vibration     8          0.784              1.423              0.887
 Vibration     9          0.934              1.080              0.490
 Vibration    10          0.980              0.990              0.417
                       Q            Log10(Q)             Ln(Q)
 Total Bot       0.910645D-35        -35.040651        -80.684081
 Total V=0       0.160698D+17         16.206012         37.315721
 Vib (Bot)       0.243663D-48        -48.613211       -111.936054
 Vib (Bot)    1  0.989190D+01          0.995280          2.291716
 Vib (Bot)    2  0.236223D+01          0.373322          0.859606
 Vib (Bot)    3  0.170596D+01          0.231970          0.534131
 Vib (Bot)    4  0.108836D+01          0.036774          0.084675
 Vib (Bot)    5  0.100040D+01          0.000174          0.000401
 Vib (Bot)    6  0.609929D+00         -0.214720         -0.494412
 Vib (Bot)    7  0.459026D+00         -0.338163         -0.778649
 Vib (Bot)    8  0.415968D+00         -0.380940         -0.877146
 Vib (Bot)    9  0.264617D+00         -0.577382         -1.329471
 Vib (Bot)   10  0.236040D+00         -0.627015         -1.443755
 Vib (V=0)       0.429984D+03          2.633452          6.063748
 Vib (V=0)    1  0.104045D+02          1.017223          2.342241
 Vib (V=0)    2  0.291457D+01          0.464574          1.069721
 Vib (V=0)    3  0.227773D+01          0.357502          0.823178
 Vib (V=0)    4  0.169772D+01          0.229866          0.529286
 Vib (V=0)    5  0.161839D+01          0.209084          0.481434
 Vib (V=0)    6  0.128868D+01          0.110145          0.253617
 Vib (V=0)    7  0.117875D+01          0.071423          0.164457
 Vib (V=0)    8  0.115041D+01          0.060852          0.140116
 Vib (V=0)    9  0.106571D+01          0.027637          0.063637
 Vib (V=0)   10  0.105291D+01          0.022393          0.051562
 Electronic      0.200000D+01          0.301030          0.693147
 Translational   0.484981D+08          7.685724         17.697035
 Rotational      0.385305D+06          5.585805         12.861792
 ***** Axes restored to original set *****
 -------------------------------------------------------------------
 Center     Atomic                   Forces (Hartrees/Bohr)
 Number     Number              X              Y              Z
 -------------------------------------------------------------------
      1        8          -0.007943505    0.013593888   -0.010352466
      2        1           0.012059594   -0.001852053    0.012389949
      3        6           0.019987140   -0.008727522   -0.007263921
      4        1           0.000582391   -0.000555840   -0.000301369
      5        6          -0.028070324   -0.003405086    0.006526523
      6        6           0.041516850   -0.006032655   -0.035039398
      7        8          -0.017122320   -0.003871997    0.047986016
      8        8          -0.002853137    0.003648116   -0.014367838
      9        6          -0.015889877    0.007928423   -0.001207783
     10        6          -0.000339783    0.000006600    0.000084280
     11        1          -0.000248668    0.000609198   -0.000502461
     12        1          -0.000211539    0.000749133    0.001547627
     13        1          -0.001467409   -0.000053715    0.000379187
     14        1           0.000038181   -0.000725521   -0.001006782
     15        1          -0.000037595   -0.001310970    0.001128435
 -------------------------------------------------------------------
 Cartesian Forces:  Max     0.047986016 RMS     0.013484718

 GradGradGradGradGradGradGradGradGradGradGradGradGradGradGradGradGradGrad
 Berny optimization.
 Search for a local minimum.
 Step number   1 out of a maximum of    2
 All quantities printed in internal units (Hartrees-Bohrs-Radians)
 Second derivative matrix not updated -- analytic derivatives used.
 ITU=  0
     Eigenvalues ---   -0.01600  -0.01348  -0.00339  -0.00131  -0.00006
     Eigenvalues ---    0.00092   0.00231   0.00324   0.00936   0.01141
     Eigenvalues ---    0.01838   0.03112   0.03457   0.05471   0.06622
     Eigenvalues ---    0.06804   0.07742   0.08448   0.09639   0.10589
     Eigenvalues ---    0.11997   0.14930   0.17781   0.18544   0.21098
     Eigenvalues ---    0.25925   0.29961   0.43426   0.49938   0.64715
     Eigenvalues ---    0.73601   0.77797   0.80106   0.88380   0.93773
     Eigenvalues ---    0.97017   0.98999   1.86178   2.75877
 Eigenvalue     1 is  -1.60D-02 should be greater than     0.000000 Eigenvector:
                          Z2        Y5        X1        X2        Y1
   1                    0.45084  -0.43896   0.38185  -0.37306   0.32536
                          X5        Y7        Y4        Y2        X4
   1                   -0.21035   0.18540   0.17753  -0.17277   0.11349
 Eigenvalue     2 is  -1.35D-02 should be greater than     0.000000 Eigenvector:
                          X2        Y5        Z2        Z1        Y1
   1                    0.42861  -0.40817  -0.38065   0.35261   0.33680
                          Y7        X1        Y2        X5        Y8
   1                    0.23401  -0.22853  -0.22135  -0.14364  -0.13233
 Eigenvalue     3 is  -3.39D-03 should be greater than     0.000000 Eigenvector:
                          Y7        Z1        Z2        X7        Y5
   1                    0.50586   0.28841   0.26544   0.25794   0.24566
                          Z4        Y1        X4        Y8        Y6
   1                   -0.23128  -0.22336  -0.19465  -0.18168   0.18053
 Eigenvalue     4 is  -1.31D-03 should be greater than     0.000000 Eigenvector:
                          Y2        X1        Y14       Y8        X11
   1                    0.44182  -0.29983   0.25222  -0.24759   0.23714
                          Y13       X2        Z15       Z14       X14
   1                    0.22453  -0.21819  -0.21819  -0.19008  -0.17576
 Eigenvalue     5 is  -5.93D-05 should be greater than     0.000000 Eigenvector:
                          Z15       Z14       Z2        Z1        Y15
   1                    0.31302   0.29251   0.28671   0.27194   0.24769
                          Z11       Y13       X1        Z12       X2
   1                   -0.23816   0.23335  -0.23242  -0.23241  -0.21003
 Quadratic step=3.739D+01 exceeds max=3.000D-01 adjusted using Lamda=-5.434D-02.
 Angle between NR and scaled steps=  79.21 degrees.
 Angle between quadratic step and forces=  65.77 degrees.
 Linear search not attempted -- first point.
 B after Tr=    -0.001135    0.001126    0.000276
         Rot=    1.000000    0.000155    0.000009   -0.000077 Ang=   0.02 deg.
 Variable       Old X    -DE/DX   Delta X   Delta X   Delta X     New X
                                 (Linear)    (Quad)   (Total)
    X1        4.01588  -0.00794   0.00000   0.03797   0.03640   4.05227
    Y1        2.66125   0.01359   0.00000   0.16684   0.16859   2.82984
    Z1       -0.02816  -0.01035   0.00000   0.00683   0.00630  -0.02186
    X2        5.22070   0.01206   0.00000   0.03589   0.03437   5.25507
    Y2        2.32014  -0.00185   0.00000   0.02518   0.02753   2.34767
    Z2        1.31291   0.01239   0.00000   0.01538   0.01502   1.32793
    X3        4.53152   0.01999   0.00000   0.04017   0.03940   4.57092
    Y3       -2.22939  -0.00873   0.00000  -0.00857  -0.00707  -2.23646
    Z3       -1.07255  -0.00726   0.00000  -0.01518  -0.01413  -1.08668
    X4        6.20644   0.00058   0.00000   0.03192   0.03130   6.23775
    Y4       -3.12410  -0.00056   0.00000  -0.01775  -0.01620  -3.14030
    Z4       -1.73984  -0.00030   0.00000  -0.01228  -0.01092  -1.75076
    X5        2.67506  -0.02807   0.00000  -0.07366  -0.07458   2.60048
    Y5       -1.12498  -0.00341   0.00000  -0.20270  -0.20128  -1.32626
    Z5       -0.34938   0.00653   0.00000  -0.01222  -0.01148  -0.36086
    X6        0.18272   0.04152   0.00000   0.02880   0.02772   0.21044
    Y6       -0.38096  -0.00603   0.00000  -0.04727  -0.04593  -0.42689
    Z6        0.59610  -0.03504   0.00000  -0.00958  -0.00917   0.58693
    X7       -0.44598  -0.01712   0.00000  -0.02124  -0.02233  -0.46830
    Y7       -0.65216  -0.00387   0.00000   0.01157   0.01349  -0.63867
    Z7        2.75568   0.04799   0.00000   0.03901   0.03947   2.79515
    X8       -1.24014  -0.00285   0.00000   0.00630   0.00510  -1.23504
    Y8        0.53916   0.00365   0.00000   0.01327   0.01381   0.55297
    Z8       -1.25192  -0.01437   0.00000  -0.01372  -0.01364  -1.26556
    X9       -3.75861  -0.01589   0.00000  -0.02982  -0.03115  -3.78976
    Y9        1.31083   0.00793   0.00000   0.02414   0.02451   1.33535
    Z9       -0.55277  -0.00121   0.00000   0.00053   0.00032  -0.55245
   X10       -5.52116  -0.00034   0.00000  -0.00613  -0.00711  -5.52827
   Y10       -0.94277   0.00001   0.00000   0.00222   0.00237  -0.94040
   Z10       -0.39509   0.00008   0.00000  -0.00112  -0.00065  -0.39575
   X11       -4.31401  -0.00025   0.00000  -0.01286  -0.01437  -4.32837
   Y11        2.61011   0.00061   0.00000   0.01792   0.01774   2.62785
   Z11       -2.04731  -0.00050   0.00000  -0.00835  -0.00897  -2.05628
   X12       -3.66163  -0.00021   0.00000  -0.01322  -0.01474  -3.67637
   Y12        2.32420   0.00075   0.00000   0.01200   0.01295   2.33715
   Z12        1.23899   0.00155   0.00000   0.00838   0.00786   1.24685
   X13       -7.43857  -0.00147   0.00000  -0.01325  -0.01434  -7.45291
   Y13       -0.29248  -0.00005   0.00000  -0.01193  -0.01195  -0.30443
   Z13        0.00132   0.00038   0.00000   0.00102   0.00125   0.00257
   X14       -5.53716   0.00004   0.00000   0.00331   0.00252  -5.53464
   Y14       -1.97062  -0.00073   0.00000  -0.00001  -0.00041  -1.97103
   Z14       -2.18232  -0.00101   0.00000  -0.00344  -0.00266  -2.18498
   X15       -4.94103  -0.00004   0.00000   0.00262   0.00181  -4.93922
   Y15       -2.21646  -0.00131   0.00000   0.00115   0.00187  -2.21460
   Z15        1.11654   0.00113   0.00000   0.00052   0.00140   1.11793
         Item               Value     Threshold  Converged?
 Maximum Force            0.047986     0.000450     NO 
 RMS     Force            0.013485     0.000300     NO 
 Maximum Displacement     0.201285     0.001800     NO 
 RMS     Displacement     0.044715     0.001200     NO 
 Predicted change in Energy=-8.853307D-03
 GradGradGradGradGradGradGradGradGradGradGradGradGradGradGradGradGradGrad


 ----------------------------------------------------------------------

 Electric dipole moment (input orientation):
 (Debye = 10**-18 statcoulomb cm , SI units = C m)
                  (au)            (Debye)         (10**-30 SI)
   Tot        0.404886D+00      0.102912D+01      0.343277D+01
   x          0.145337D+00      0.369410D+00      0.123222D+01
   y         -0.320555D+00     -0.814769D+00     -0.271778D+01
   z         -0.200137D+00     -0.508698D+00     -0.169683D+01

 Dipole polarizability, Alpha (input orientation).
 (esu units = cm**3 , SI units = C**2 m**2 J**-1)
 Alpha(0;0):
               (au)            (10**-24 esu)      (10**-40 SI)
   iso        0.696452D+02      0.103204D+02      0.114829D+02
   aniso      0.259115D+02      0.383968D+01      0.427222D+01
   xx         0.817834D+02      0.121190D+02      0.134843D+02
   yx        -0.747571D+01     -0.110779D+01     -0.123258D+01
   yy         0.689440D+02      0.102164D+02      0.113673D+02
   zx        -0.360491D+01     -0.534192D+00     -0.594369D+00
   zy         0.395009D+01      0.585342D+00      0.651281D+00
   zz         0.582082D+02      0.862556D+01      0.959723D+01

 ----------------------------------------------------------------------

 Dipole orientation:
     8          4.16561260         -2.33099571         -0.65150301
     1          5.68305980         -1.30035755         -0.61185789
     6          3.33177983         -0.41674308          3.92182830
     1          4.45259377         -0.74418114          5.56125961
     6          2.10503352         -0.13227934          2.02359695
     6          0.30848717          0.65834752          0.07254714
     8          0.45762276          2.64512988         -1.00590615
     8         -1.48005273         -1.06830476         -0.25319242
     6         -3.38363535         -0.48378809         -2.11375636
     6         -5.36620629          1.28453851         -1.04016618
     1         -4.18051492         -2.31568392         -2.60301888
     1         -2.45912531          0.32803772         -3.76691672
     1         -6.85230680          1.58553206         -2.43922678
     1         -6.21784437          0.46930699          0.65129434
     1         -4.53571631          3.11040865         -0.57072262

 Electric dipole moment (dipole orientation):
 (Debye = 10**-18 statcoulomb cm , SI units = C m)
                  (au)            (Debye)         (10**-30 SI)
   Tot        0.404886D+00      0.102912D+01      0.343277D+01
   x          0.000000D+00      0.000000D+00      0.000000D+00
   y          0.000000D+00      0.000000D+00      0.000000D+00
   z          0.404886D+00      0.102912D+01      0.343277D+01

 Dipole polarizability, Alpha (dipole orientation).
 (esu units = cm**3 , SI units = C**2 m**2 J**-1)
 Alpha(0;0):
               (au)            (10**-24 esu)      (10**-40 SI)
   iso        0.696452D+02      0.103204D+02      0.114829D+02
   aniso      0.259115D+02      0.383968D+01      0.427222D+01
   xx         0.738575D+02      0.109445D+02      0.121774D+02
   yx        -0.363649D+01     -0.538872D+00     -0.599576D+00
   yy         0.584828D+02      0.866626D+01      0.964252D+01
   zx         0.106841D+02      0.158322D+01      0.176157D+01
   zy         0.105129D+01      0.155786D+00      0.173335D+00
   zz         0.765953D+02      0.113502D+02      0.126289D+02

 ----------------------------------------------------------------------
 1\1\GINC-AJ\Freq\UM062X\6-31+G\C5H7O3(2)\AAYUSH\20-Jun-2025\0\\# freq 
 6-31+g m062x\\Title Card Required\\0,2\O,2.12511,1.408275,-0.014904\H,
 2.762674,1.227766,0.694762\C,2.397975,-1.179741,-0.567569\H,3.284309,-
 1.653203,-0.920684\C,1.415583,-0.595312,-0.184885\C,0.096692,-0.201595
 ,0.315441\O,-0.236,-0.345108,1.458243\O,-0.656255,0.285311,-0.662485\C
 ,-1.988972,0.693664,-0.292511\C,-2.921674,-0.49889,-0.209075\H,-2.2828
 74,1.381212,-1.083388\H,-1.937652,1.229915,0.655647\H,-3.936321,-0.154
 772,0.000699\H,-2.930139,-1.042807,-1.154836\H,-2.614678,-1.172901,0.5
 90846\\Version=ES64L-G16RevA.03\State=2-A\HF=-419.9557969\S2=0.76199\S
 2-1=0.\S2A=0.750072\RMSD=2.792e-09\RMSF=1.348e-02\ZeroPoint=0.1114136\
 Thermal=0.1196483\Dipole=0.1453371,-0.3205547,-0.2001371\DipoleDeriv=-
 0.319457,-0.0257662,0.1667238,0.0932874,0.0316428,0.0365529,0.1486991,
 -0.0532187,-0.2332265,0.2452871,0.1156526,-0.1149401,0.0616253,0.32602
 16,0.0503428,-0.11665,0.0940535,0.1978341,-0.3962213,-0.232407,-0.0153
 806,0.0850876,-0.050705,0.0234204,0.0205527,0.1166739,-0.1666618,0.249
 3688,-0.0229056,-0.0066652,-0.0227388,0.2478495,0.0004412,0.0009668,-0
 .0028938,0.2595348,-0.3875296,0.2164619,0.0969777,-0.0812087,-0.681036
 5,-0.1415301,0.1147586,-0.1637484,-0.1590312,2.0790396,-0.2587949,-0.0
 032475,-0.5851711,0.6392992,-0.2498588,0.3093385,-0.3705895,1.6364551,
 -0.7868849,0.01393,0.2019441,0.1185829,-0.4011107,0.0769663,0.0106791,
 0.1854943,-1.0755785,-1.5179504,0.2596462,-0.3243221,0.4442347,-0.4928
 29,0.211723,-0.4444346,0.1884594,-0.7772436,0.8971341,-0.0998252,0.076
 4527,-0.1280996,0.3633085,-0.0584925,-0.0486147,0.0179221,0.2450173,-0
 .1187312,-0.0244634,-0.0146449,-0.0561441,-0.0865339,0.0543545,0.01336
 34,0.0106885,0.0425021,-0.0051136,0.0101265,-0.0101387,0.0380446,-0.00
 20544,0.0748013,-0.0374352,0.1100784,-0.0009688,-0.0186213,-0.0314713,
 -0.052832,-0.0027398,0.018941,-0.037852,0.0344128,-0.102511,-0.0123682
 ,-0.1207254,0.044953,0.0264513,0.0703981,0.060386,-0.0285503,0.0431509
 ,-0.0160376,0.1035704,0.0974631,-0.0055849,0.0335914,-0.0406135,0.0207
 977,-0.0637287,-0.0167293,-0.0971949,-0.0644084,0.1029418,0.0404483,-0
 .0599697,0.0054548,0.0060233,0.0514102,-0.0320582,0.0828239,0.0045733\
 Polar=81.7833933,-7.4757103,68.9439788,-3.6049077,3.9500869,58.2081865
 \Quadrupole=9.403204,-2.5010981,-6.9021058,-4.1564941,2.0790579,3.3803
 432\PG=C01 [X(C5H7O3)]\NImag=4\\0.22668950,-0.06230911,0.02574113,0.25
 638767,-0.07216575,0.27523505,-0.22081586,0.06207065,-0.25354864,0.222
 55348,0.06975544,-0.01793467,0.07693369,-0.06302455,0.02340231,-0.2556
 1466,0.06987350,-0.27437831,0.25464595,-0.07160127,0.27382373,0.005694
 36,0.01903853,-0.00014031,0.00059351,-0.00178254,0.00142677,1.10256575
 ,-0.00608077,-0.02570337,-0.00332227,0.00000788,-0.00081626,-0.0004215
 2,-0.58802407,0.38051593,-0.00297067,-0.00951538,0.00030744,0.00007790
 ,-0.00058456,-0.00016584,-0.40772954,0.23050311,0.21489120,-0.00005753
 ,-0.00030007,0.00012104,0.00034962,0.00015470,-0.00014915,-0.31071822,
 0.15213776,0.11146835,0.29848313,-0.00021140,0.00032041,0.00032523,0.0
 0037425,-0.00021588,-0.00046484,0.14702444,-0.10582840,-0.05907761,-0.
 15073461,0.09696538,0.00020501,-0.00005472,-0.00001781,0.00001792,-0.0
 0018886,-0.00014748,0.11113347,-0.06102764,-0.07388940,-0.11159062,0.0
 6063846,0.06177816,-0.00446087,-0.01066035,-0.00329165,-0.00140716,-0.
 00379037,0.00053859,-0.80664610,0.44937350,0.29947112,0.01153127,0.002
 51308,-0.00135885,1.10182781,0.00621483,0.02602739,-0.00106413,0.00108
 476,-0.00374756,0.00220069,0.41257947,-0.24743101,-0.15628752,-0.00278
 745,0.00567332,0.00195559,-0.51449908,0.27729549,0.00001104,0.01110783
 ,-0.00076472,0.00008259,-0.00489927,-0.00002531,0.29462222,-0.16625872
 ,-0.15016015,-0.00129257,-0.00078443,0.00834451,-0.37579824,0.17073950
 ,0.26161768,-0.00814234,-0.01066204,0.00166960,-0.00233890,-0.00261303
 ,-0.00268744,0.01831433,-0.01332362,-0.00216244,0.00011670,0.00196352,
 0.00176593,-0.23475687,0.07130939,0.05916561,0.62570161,-0.00558158,-0
 .00925548,-0.00081506,0.00037732,0.00004496,0.00112754,0.01079399,-0.0
 0066173,-0.00454358,0.00246587,0.00389048,-0.00131442,0.04312768,-0.08
 299533,-0.01800795,-0.13144744,0.27260539,0.00439425,0.00175051,-0.003
 89200,-0.00405633,0.00025145,0.00240178,0.00030305,0.00240576,0.007956
 24,0.00143402,-0.00034006,0.00397371,0.04623552,-0.02398512,-0.0861701
 5,-0.14766736,-0.13606416,1.03699894,0.00043343,0.00093006,-0.00045810
 ,0.00034303,0.00075836,0.00070703,-0.00432389,0.00366739,-0.00034572,-
 0.00022776,-0.00032098,-0.00127330,-0.01897352,-0.00099006,0.05441625,
 -0.15087960,-0.01541101,0.21530117,0.14723533,-0.00074874,0.00064449,0
 .00092113,0.00027452,-0.00024797,-0.00037918,-0.00039884,-0.00054448,0
 .00043336,-0.00040186,-0.00049830,0.00024114,0.00849795,0.02113796,-0.
 00717500,-0.01316304,-0.07372288,0.07823886,0.00393815,0.03813518,-0.0
 0195561,-0.00164074,0.00301494,0.00171823,-0.00013848,-0.00178658,0.00
 108913,-0.00067802,0.00076693,-0.00008358,-0.00041118,0.00048626,0.037
 46782,0.00149573,-0.03623231,0.20666068,0.08491040,-0.75152583,-0.2325
 6401,-0.11407918,0.88158716,-0.00026696,0.00171747,-0.00066437,0.00083
 185,0.00073046,0.00106430,-0.00583976,0.00319425,0.00270146,0.00061841
 ,-0.00074819,0.00096632,-0.05004006,0.02465764,-0.02940667,-0.19553209
 ,0.07339815,-0.11848081,0.02616692,0.00768876,-0.02066808,0.49715311,-
 0.00133937,-0.00067970,-0.00069348,-0.00123311,-0.00048890,-0.00039312
 ,0.00157186,-0.00018454,-0.00140032,-0.00039156,-0.00003286,-0.0001669
 6,0.02349909,0.00064596,0.01298887,0.06890916,-0.10033428,0.07865950,0
 .00926359,0.01824356,0.03488293,-0.17215322,0.15905482,-0.00072041,0.0
 0040885,0.00062698,0.00106132,0.00015972,0.00016412,0.00011899,-0.0012
 8659,-0.00027017,0.00006942,0.00011857,-0.00068327,-0.00091335,0.00220
 709,0.00584224,-0.08208671,0.06204278,-0.21711877,-0.03036404,0.040122
 05,-0.09540710,0.08258362,-0.09864980,0.39694138,0.00094063,0.00003103
 ,0.00011795,-0.00018133,-0.00036846,-0.00012437,0.00154154,-0.00109423
 ,-0.00101693,-0.00022532,0.00017390,0.00007369,0.00433321,0.00145760,0
 .00000100,-0.05221979,0.02602257,-0.01829493,0.00001071,-0.00521961,0.
 01641439,-0.18269551,0.04459299,0.01974138,0.47178972,0.00009690,0.000
 84731,-0.00019523,0.00008047,0.00003541,0.00012632,-0.00121639,0.00065
 139,0.00057550,-0.00011668,-0.00030500,-0.00007939,0.00221546,0.004006
 58,0.00198535,0.02986178,-0.01265490,0.00921443,0.00045992,-0.00390286
 ,-0.00717559,0.03765430,-0.07604458,-0.00589719,-0.02090371,0.57129759
 ,0.00036378,0.00032389,-0.00026969,-0.00002047,0.00010615,0.00016181,-
 0.00102872,0.00010529,0.00074150,0.00002156,-0.00001727,0.00016785,-0.
 00290600,0.00334035,-0.00304694,-0.03417002,0.01064044,0.01331666,-0.0
 0090213,0.00036988,-0.00392284,0.05315785,-0.01672326,-0.09572623,0.05
 635003,-0.01828254,0.64688114,-0.00004285,0.00027807,-0.00009381,0.000
 03207,0.00005445,0.00008297,-0.00060200,0.00015019,0.00021750,0.000032
 08,-0.00008438,0.00001439,-0.00008021,0.00123136,-0.00020736,0.0017218
 4,-0.00428829,0.00599215,-0.00037284,-0.00066072,-0.00265508,-0.045381
 97,-0.02374359,0.00436099,-0.11515804,-0.05456416,-0.00055988,0.559428
 15,0.00011023,-0.00004587,0.00006781,-0.00002371,-0.00003015,-0.000047
 49,0.00042095,-0.00005311,-0.00007248,-0.00000728,0.00005134,-0.000009
 43,-0.00050317,-0.00066821,0.00006192,-0.00007628,0.00306769,-0.006176
 50,-0.00189869,-0.00086305,0.00199577,0.01315238,0.01148082,0.00223746
 ,-0.06721773,-0.17908339,0.00546720,-0.04986329,0.54440523,0.00001000,
 -0.00005673,0.00005845,-0.00001046,-0.00003450,-0.00003121,0.00018892,
 -0.00011813,-0.00013483,0.00001219,0.00002885,0.00001815,0.00010818,-0
 .00041654,-0.00000025,-0.00181767,0.00007796,-0.00033132,0.00098108,0.
 00062317,0.00099167,0.01190915,0.00499461,0.00220569,-0.00216921,0.004
 26867,-0.08892989,0.00437389,0.00293994,0.60186087,-0.00002132,-0.0000
 4322,0.00003701,0.00008180,0.00008784,0.00006140,-0.00050099,0.0000842
 0,0.00025188,0.00005619,0.00000718,0.00004159,-0.00101538,0.00024425,-
 0.00107513,-0.00341502,0.00234530,0.00513892,0.00101197,-0.00024842,-0
 .00101019,-0.02844491,0.02656071,-0.02580267,-0.06153610,0.04003805,-0
 .04893644,0.00679782,-0.01584616,0.01684634,0.08680411,0.00003939,0.00
 001241,-0.00000167,-0.00000852,-0.00001312,-0.00000698,0.00008076,-0.0
 0012612,-0.00007732,-0.00000602,0.00001283,-0.00000146,0.00058663,0.00
 006852,0.00030361,-0.00022577,0.00011063,-0.00370831,-0.00103559,0.000
 71755,0.00056998,0.00943405,-0.00656218,0.00866058,0.04601359,-0.16046
 969,0.12520603,0.00468565,-0.01784071,0.02113052,-0.05154148,0.1735818
 7,-0.00001848,0.00001608,-0.00000016,0.00002700,0.00002598,0.00001733,
 -0.00000438,0.00014723,-0.00006017,-0.00001976,-0.00003471,-0.00001787
 ,0.00021906,-0.00010262,0.00053139,0.00318929,-0.00068502,-0.00227377,
 -0.00189724,0.00071475,0.00121517,0.00873404,-0.00940015,0.00830776,-0
 .06063130,0.13095656,-0.20916565,-0.00022636,-0.00164098,0.00098711,0.
 05731329,-0.13907971,0.21721370,0.00005621,-0.00009602,-0.00014129,-0.
 00002832,0.00007007,0.00007343,-0.00014850,-0.00007700,0.00002707,0.00
 006419,0.00003372,0.00000425,-0.00024978,-0.00066075,-0.00037347,0.002
 32056,-0.00087138,0.00780516,0.00014527,0.00068044,-0.00306532,-0.0180
 2689,0.02528513,0.03323883,-0.05057970,-0.01148433,-0.02341585,-0.0001
 1612,-0.01229979,-0.01964680,0.00133015,-0.00527681,-0.00735867,0.0666
 0462,0.00006383,0.00000780,0.00003022,0.00004028,0.00002651,-0.0000037
 5,-0.00007808,0.00020791,0.00002596,-0.00002293,-0.00003148,-0.0000232
 3,-0.00014736,-0.00017029,0.00045948,0.00063025,0.00174096,-0.00556880
 ,-0.00180717,-0.00018215,0.00231766,0.00680622,-0.00642766,-0.00924753
 ,-0.00665565,-0.11609002,-0.11098688,-0.00407775,-0.01376318,-0.024090
 83,0.00059274,0.01184602,0.01916818,0.00686065,0.12451679,-0.00005467,
 -0.00006799,0.00005661,-0.00002101,-0.00005022,-0.00004425,0.00018768,
 -0.00011981,-0.00002282,0.00001067,0.00003328,-0.00000251,0.00018323,-
 0.00031355,-0.00014377,-0.00280903,0.00186003,-0.00151507,-0.00163690,
 0.00137898,0.00068328,0.00798965,-0.00483335,-0.00612121,-0.01307827,-
 0.11756923,-0.26187926,0.00003333,0.00370221,0.00419007,-0.00207125,-0
 .01230752,-0.01862708,0.01135450,0.12743733,0.28198006,-0.00007045,0.0
 0003870,-0.00001521,0.00002254,0.00003947,0.00002547,-0.00023297,0.000
 08841,0.00005090,0.00002148,-0.00002746,-0.00000556,-0.00008329,0.0002
 2674,0.00003656,0.00179789,-0.00102281,0.00212599,-0.00011466,-0.00011
 822,-0.00094557,-0.00385088,-0.00384825,-0.00101525,-0.01844913,0.0110
 0784,0.00409077,-0.28526755,0.08004938,0.04888557,0.00058403,-0.000025
 00,0.00047585,0.00030965,-0.00002038,-0.00068560,0.31265661,-0.0000065
 1,0.00002577,-0.00002400,-0.00000739,0.00000643,0.00000588,-0.00011717
 ,0.00004154,0.00004649,-0.00000712,-0.00002364,0.00001068,-0.00002117,
 0.00032101,-0.00015473,-0.00012044,-0.00152330,0.00254077,0.00061556,0
 .00033646,-0.00099413,-0.00749780,-0.00332804,-0.00013441,-0.02514089,
 0.00970671,0.00536713,0.08287243,-0.07766185,-0.01747042,0.00095028,0.
 00089587,0.00051428,0.00081604,0.00088057,-0.00071076,-0.08799372,0.08
 178797,0.00000679,0.00000705,0.00000345,-0.00000310,-0.00000021,0.0000
 0232,-0.00002195,0.00000709,0.00000992,-0.00000881,-0.00000127,-0.0000
 0036,0.00007056,0.00011556,0.00005989,0.00005244,0.00050833,-0.0011059
 3,-0.00054048,-0.00050490,0.00024343,0.00095591,0.00031886,0.00120718,
 0.00117473,-0.00128206,-0.00136160,0.04889721,-0.01656110,-0.05763257,
 -0.00007249,0.00006538,-0.00016964,-0.00000329,-0.00000592,-0.00005630
 ,-0.05476340,0.01853627,0.05845457,-0.00000067,-0.00002254,0.00002857,
 -0.00000130,-0.00002794,-0.00002206,0.00007402,-0.00001134,0.00000370,
 -0.00002428,0.00000250,-0.00000799,0.00000519,0.00003120,0.00001001,-0
 .00079064,0.00041873,-0.00176339,-0.00038386,-0.00016311,0.00077637,0.
 00323659,0.00121241,0.00025265,-0.00282619,-0.01477645,-0.02037028,-0.
 04859791,0.00199424,-0.00001474,0.00059153,0.00108043,0.00026870,-0.00
 221967,-0.00340327,0.00067266,0.00100636,0.01609109,0.02861932,0.05009
 837,-0.00003237,-0.00000036,0.00003827,0.00001633,-0.00000412,-0.00001
 165,-0.00001632,0.00000815,0.00002945,0.00000761,0.00000316,-0.0000072
 8,-0.00009521,-0.00006112,-0.00009239,0.00006393,0.00008269,0.00000594
 ,0.00024384,0.00014221,0.00016701,0.00207760,0.00219492,0.00105459,-0.
 00094523,-0.01723355,-0.02746248,-0.00033124,-0.11552313,-0.11545008,0
 .00069286,0.00072381,0.00007951,-0.00355091,-0.00334372,0.00157068,-0.
 00062944,-0.00523942,-0.00890191,0.00303400,0.12698414,-0.00004119,-0.
 00001951,0.00002289,0.00001172,0.00000200,-0.00001146,-0.00006265,0.00
 006576,0.00002692,-0.00000763,-0.00002143,-0.00001079,-0.00006703,0.00
 009678,0.00011574,0.00029388,-0.00032015,-0.00067506,-0.00063251,-0.00
 019855,0.00026327,-0.00135623,0.00078788,0.00036276,0.00211705,0.00284
 031,0.00297401,-0.00142873,-0.11821788,-0.26042794,-0.00047243,-0.0002
 8794,0.00077049,0.00100485,0.00078960,0.00106584,-0.00129570,-0.001844
 26,-0.00517332,0.00055218,0.12999333,0.28061676,0.00006473,-0.00001117
 ,-0.00000846,-0.00003503,-0.00004391,-0.00002823,0.00022894,-0.0000925
 3,-0.00004457,-0.00001995,0.00003443,0.00001375,0.00001576,-0.00009992
 ,-0.00019183,-0.00189767,-0.00032709,0.00153259,-0.00007054,0.00004274
 ,-0.00117917,0.00207213,0.00181415,-0.00052478,0.00525531,-0.01835298,
 0.01832582,-0.07239246,0.05200894,-0.05965643,-0.00232385,-0.00380132,
 -0.00007105,0.00053834,0.00121864,-0.00007499,-0.00832964,0.01956681,-
 0.02436345,-0.00016754,-0.00053545,0.00138441,0.07706147,0.00002921,-0
 .00000725,-0.00003476,-0.00002917,-0.00001698,-0.00000414,0.00012340,-
 0.00007592,-0.00005510,0.00000965,0.00001864,0.00002754,-0.00009668,-0
 .00010270,-0.00027406,-0.00110638,-0.00039487,0.00277573,0.00158663,0.
 00060428,-0.00122216,-0.00011208,0.00246266,-0.00179617,0.00925384,-0.
 02076100,0.02254608,0.04834130,-0.15347242,0.12357352,-0.00392410,-0.0
 0295769,-0.00067937,0.00057095,0.00078195,-0.00001006,0.00223473,-0.00
 622607,0.00769883,-0.00545995,0.01126633,-0.01366595,-0.05142135,0.168
 88104,-0.00000284,0.00003311,-0.00000312,0.00001740,0.00001838,0.00001
 934,-0.00008267,-0.00000152,0.00000322,0.00001489,0.00000842,0.0000008
 5,0.00004105,0.00001821,0.00003216,0.00060325,0.00058285,-0.00003942,-
 0.00079111,-0.00070651,-0.00037746,0.00051386,-0.00037221,-0.00033133,
 -0.00067521,0.00051410,0.00005914,-0.05880121,0.12625356,-0.20282400,-
 0.00024985,-0.00046518,0.00127140,0.00049658,-0.00030148,0.00043643,0.
 00303519,-0.00568881,0.00551894,-0.00900572,0.01898702,-0.01992010,0.0
 6488638,-0.13887993,0.21615395\\0.00794351,-0.01359389,0.01035247,-0.0
 1205959,0.00185205,-0.01238995,-0.01998714,0.00872752,0.00726392,-0.00
 058239,0.00055584,0.00030137,0.02807032,0.00340509,-0.00652652,-0.0415
 1685,0.00603265,0.03503940,0.01712232,0.00387200,-0.04798602,0.0028531
 4,-0.00364812,0.01436784,0.01588988,-0.00792842,0.00120778,0.00033978,
 -0.00000660,-0.00008428,0.00024867,-0.00060920,0.00050246,0.00021154,-
 0.00074913,-0.00154763,0.00146741,0.00005372,-0.00037919,-0.00003818,0
 .00072552,0.00100678,0.00003760,0.00131097,-0.00112844\\\@


 The most important thing in communication is to hear what isn't being said.
 -- Peter F. Drucker
 Job cpu time:       0 days  0 hours 19 minutes 39.9 seconds.
 Elapsed time:       0 days  0 hours  0 minutes 49.2 seconds.
 File lengths (MBytes):  RWF=     59 Int=      0 D2E=      0 Chk=      8 Scr=      1
 Normal termination of Gaussian 16 at Fri Jun 20 14:29:40 2025.
