 Entering Gaussian System, Link 0=g16
 Initial command:
 /opt/g16/l1.exe "/home/aayush/scratches/g16/Gau-88459.inp" -scrdir="/home/aayush/scratches/g16/"
 Entering Link 1 = /opt/g16/l1.exe PID=     88462.
  
 Copyright (c) 1988,1990,1992,1993,1995,1998,2003,2009,2016,
            Gaussian, Inc.  All Rights Reserved.
  
 This is part of the Gaussian(R) 16 program.  It is based on
 the Gaussian(R) 09 system (copyright 2009, Gaussian, Inc.),
 the Gaussian(R) 03 system (copyright 2003, Gaussian, Inc.),
 the Gaussian(R) 98 system (copyright 1998, Gaussian, Inc.),
 the Gaussian(R) 94 system (copyright 1995, Gaussian, Inc.),
 the Gaussian 92(TM) system (copyright 1992, Gaussian, Inc.),
 the Gaussian 90(TM) system (copyright 1990, Gaussian, Inc.),
 the Gaussian 88(TM) system (copyright 1988, Gaussian, Inc.),
 the Gaussian 86(TM) system (copyright 1986, Carnegie Mellon
 University), and the Gaussian 82(TM) system (copyright 1983,
 Carnegie Mellon University). Gaussian is a federally registered
 trademark of Gaussian, Inc.
  
 This software contains proprietary and confidential information,
 including trade secrets, belonging to Gaussian, Inc.
  
 This software is provided under written license and may be
 used, copied, transmitted, or stored only in accord with that
 written license.
  
 The following legend is applicable only to US Government
 contracts under FAR:
  
                    RESTRICTED RIGHTS LEGEND
  
 Use, reproduction and disclosure by the US Government is
 subject to restrictions as set forth in subparagraphs (a)
 and (c) of the Commercial Computer Software - Restricted
 Rights clause in FAR 52.227-19.
  
 Gaussian, Inc.
 340 Quinnipiac St., Bldg. 40, Wallingford CT 06492
  
  
 ---------------------------------------------------------------
 Warning -- This program may not be used in any manner that
 competes with the business of Gaussian, Inc. or will provide
 assistance to any competitor of Gaussian, Inc.  The licensee
 of this program is prohibited from giving any competitor of
 Gaussian, Inc. access to this program.  By using this program,
 the user acknowledges that Gaussian, Inc. is engaged in the
 business of creating and licensing software in the field of
 computational chemistry and represents and warrants to the
 licensee that it is not a competitor of Gaussian, Inc. and that
 it will not use this program in any manner prohibited above.
 ---------------------------------------------------------------
  

 Cite this work as:
 Gaussian 16, Revision A.03,
 M. J. Frisch, G. W. Trucks, H. B. Schlegel, G. E. Scuseria, 
 M. A. Robb, J. R. Cheeseman, G. Scalmani, V. Barone, 
 G. A. Petersson, H. Nakatsuji, X. Li, M. Caricato, A. V. Marenich, 
 J. Bloino, B. G. Janesko, R. Gomperts, B. Mennucci, H. P. Hratchian, 
 J. V. Ortiz, A. F. Izmaylov, J. L. Sonnenberg, D. Williams-Young, 
 F. Ding, F. Lipparini, F. Egidi, J. Goings, B. Peng, A. Petrone, 
 T. Henderson, D. Ranasinghe, V. G. Zakrzewski, J. Gao, N. Rega, 
 G. Zheng, W. Liang, M. Hada, M. Ehara, K. Toyota, R. Fukuda, 
 J. Hasegawa, M. Ishida, T. Nakajima, Y. Honda, O. Kitao, H. Nakai, 
 T. Vreven, K. Throssell, J. A. Montgomery, Jr., J. E. Peralta, 
 F. Ogliaro, M. J. Bearpark, J. J. Heyd, E. N. Brothers, K. N. Kudin, 
 V. N. Staroverov, T. A. Keith, R. Kobayashi, J. Normand, 
 K. Raghavachari, A. P. Rendell, J. C. Burant, S. S. Iyengar, 
 J. Tomasi, M. Cossi, J. M. Millam, M. Klene, C. Adamo, R. Cammi, 
 J. W. Ochterski, R. L. Martin, K. Morokuma, O. Farkas, 
 J. B. Foresman, and D. J. Fox, Gaussian, Inc., Wallingford CT, 2016.
 
 ******************************************
 Gaussian 16:  ES64L-G16RevA.03 25-Dec-2016
                23-Jun-2025 
 ******************************************
 %nprocshared=24
 Will use up to   24 processors via shared memory.
 %mem=12GB
 %chk=ethyl_propiolate_ts1.chk
 --------------------------
 # freq 6-311++g(d,p) m062x
 --------------------------
 1/10=4,30=1,38=1/1,3;
 2/12=2,17=6,18=5,40=1/2;
 3/5=4,6=6,7=1111,11=2,25=1,30=1,71=2,74=-55,140=1/1,2,3;
 4//1;
 5/5=2,38=5,98=1/2;
 8/6=4,10=90,11=11/1;
 11/6=1,8=1,9=11,15=111,16=1/1,2,10;
 10/6=1/2;
 6/7=2,8=2,9=2,10=2,28=1/1;
 7/8=1,10=1,25=1/1,2,3,16;
 1/10=4,30=1/3;
 99//99;
 -------------------
 Title Card Required
 -------------------
 Symbolic Z-matrix:
 Charge =  0 Multiplicity = 2
 O                     2.21058   1.4377   -0.03523 
 H                     2.83248   1.23891   0.68408 
 C                     2.45788  -1.20857  -0.53014 
 H                     3.35523  -1.67111  -0.86946 
 C                     1.45196  -0.66044  -0.1648 
 C                     0.15304  -0.20499   0.32894 
 O                    -0.17733  -0.30226   1.47777 
 O                    -0.59251   0.27399  -0.65935 
 C                    -1.92229   0.70057  -0.2999 
 C                    -2.86177  -0.48487  -0.18854 
 H                    -2.21178   1.37027  -1.1075 
 H                    -1.8686    1.25931   0.63497 
 H                    -3.8747   -0.13054   0.0123 
 H                    -2.87241  -1.05128  -1.12096 
 H                    -2.55911  -1.14122   0.62761 
 

 GradGradGradGradGradGradGradGradGradGradGradGradGradGradGradGradGradGrad
 Berny optimization.
 Initialization pass.
 Trust Radius=3.00D-01 FncErr=1.00D-07 GrdErr=1.00D-07 EigMax=2.50D+02 EigMin=1.00D-04
 Number of steps in this run=      2 maximum allowed number of steps=      2.
 GradGradGradGradGradGradGradGradGradGradGradGradGradGradGradGradGradGrad

                          Input orientation:                          
 ---------------------------------------------------------------------
 Center     Atomic      Atomic             Coordinates (Angstroms)
 Number     Number       Type             X           Y           Z
 ---------------------------------------------------------------------
      1          8           0        2.210579    1.437703   -0.035226
      2          1           0        2.832482    1.238910    0.684076
      3          6           0        2.457881   -1.208574   -0.530137
      4          1           0        3.355231   -1.671111   -0.869463
      5          6           0        1.451959   -0.660437   -0.164803
      6          6           0        0.153044   -0.204993    0.328941
      7          8           0       -0.177326   -0.302259    1.477768
      8          8           0       -0.592513    0.273992   -0.659347
      9          6           0       -1.922289    0.700567   -0.299899
     10          6           0       -2.861771   -0.484867   -0.188535
     11          1           0       -2.211776    1.370272   -1.107498
     12          1           0       -1.868601    1.259311    0.634974
     13          1           0       -3.874696   -0.130543    0.012298
     14          1           0       -2.872405   -1.051283   -1.120962
     15          1           0       -2.559108   -1.141222    0.627614
 ---------------------------------------------------------------------
                    Distance matrix (angstroms):
                    1          2          3          4          5
     1  O    0.000000
     2  H    0.971431   0.000000
     3  C    2.703494   2.757683   0.000000
     4  H    3.416270   3.339906   1.065044   0.000000
     5  C    2.234835   2.496790   1.202415   2.267256   0.000000
     6  C    2.657916   3.064370   2.656589   3.720171   1.462324
     7  O    3.319444   3.473340   3.434735   4.456704   2.341132
     8  O    3.098560   3.803478   3.394054   4.405934   2.301651
     9  C    4.206426   4.885270   4.783693   5.813904   3.640897
    10  C    5.426648   6.013100   5.379511   6.365685   4.317367
    11  H    4.550993   5.354580   5.365584   6.348089   4.293647
    12  H    4.137717   4.701384   5.115309   6.175688   3.918060
    13  H    6.284284   6.878439   6.446543   7.444642   5.355876
    14  H    5.762864   6.406940   5.365237   6.263457   4.446023
    15  H    5.462612   5.893849   5.149282   6.123841   4.116763
                    6          7          8          9         10
     6  C    0.000000
     7  O    1.199337   0.000000
     8  O    1.327402   2.252045   0.000000
     9  C    2.349997   2.685266   1.442038   0.000000
    10  C    3.071680   3.164831   2.438660   1.516668   0.000000
    11  H    3.183895   3.690521   2.006161   1.088358   2.169914
    12  H    2.514934   2.451370   2.067491   1.090442   2.169495
    13  H    4.040853   3.980909   3.374534   2.144785   1.091740
    14  H    3.460024   3.818100   2.677191   2.155422   1.091036
    15  H    2.884701   2.664490   2.743464   2.158241   1.090186
                   11         12         13         14         15
    11  H    0.000000
    12  H    1.779407   0.000000
    13  H    2.504335   2.518697   0.000000
    14  H    2.510088   3.070794   1.771053   0.000000
    15  H    3.072272   2.497882   1.769423   1.778697   0.000000
 Stoichiometry    C5H7O3(2)
 Framework group  C1[X(C5H7O3)]
 Deg. of freedom    39
 Full point group                 C1      NOp   1
 Largest Abelian subgroup         C1      NOp   1
 Largest concise Abelian subgroup C1      NOp   1
                         Standard orientation:                         
 ---------------------------------------------------------------------
 Center     Atomic      Atomic             Coordinates (Angstroms)
 Number     Number       Type             X           Y           Z
 ---------------------------------------------------------------------
      1          8           0        2.210579    1.437703   -0.035226
      2          1           0        2.832482    1.238910    0.684076
      3          6           0        2.457881   -1.208574   -0.530137
      4          1           0        3.355231   -1.671111   -0.869463
      5          6           0        1.451959   -0.660437   -0.164803
      6          6           0        0.153044   -0.204993    0.328941
      7          8           0       -0.177326   -0.302259    1.477768
      8          8           0       -0.592513    0.273992   -0.659347
      9          6           0       -1.922289    0.700567   -0.299899
     10          6           0       -2.861771   -0.484867   -0.188535
     11          1           0       -2.211776    1.370272   -1.107498
     12          1           0       -1.868601    1.259311    0.634974
     13          1           0       -3.874696   -0.130543    0.012298
     14          1           0       -2.872405   -1.051283   -1.120962
     15          1           0       -2.559108   -1.141222    0.627614
 ---------------------------------------------------------------------
 Rotational constants (GHZ):           3.8603403           1.1611685           1.0971586
 Standard basis: 6-311++G(d,p) (5D, 7F)
 There are   233 symmetry adapted cartesian basis functions of A   symmetry.
 There are   225 symmetry adapted basis functions of A   symmetry.
   225 basis functions,   351 primitive gaussians,   233 cartesian basis functions
    31 alpha electrons       30 beta electrons
       nuclear repulsion energy       356.8745335798 Hartrees.
 NAtoms=   15 NActive=   15 NUniq=   15 SFac= 1.00D+00 NAtFMM=   60 NAOKFM=F Big=F
 Integral buffers will be    131072 words long.
 Raffenetti 2 integral format.
 Two-electron integral symmetry is turned on.
 One-electron integrals computed using PRISM.
 NBasis=   225 RedAO= T EigKep=  1.19D-06  NBF=   225
 NBsUse=   225 1.00D-06 EigRej= -1.00D+00 NBFU=   225
 ExpMin= 3.60D-02 ExpMax= 8.59D+03 ExpMxC= 1.30D+03 IAcc=3 IRadAn=         5 AccDes= 0.00D+00
 Harris functional with IExCor= 1009 and IRadAn=       5 diagonalized for initial guess.
 HarFok:  IExCor= 1009 AccDes= 0.00D+00 IRadAn=         5 IDoV= 1 UseB2=F ITyADJ=14
 ICtDFT=  3500011 ScaDFX=  1.000000  1.000000  1.000000  1.000000
 FoFCou: FMM=F IPFlag=           0 FMFlag=      100000 FMFlg1=           0
         NFxFlg=           0 DoJE=T BraDBF=F KetDBF=T FulRan=T
         wScrn=  0.000000 ICntrl=       500 IOpCl=  0 I1Cent=   200000004 NGrid=           0
         NMat0=    1 NMatS0=      1 NMatT0=    0 NMatD0=    1 NMtDS0=    0 NMtDT0=    0
 Petite list used in FoFCou.
 Initial guess <Sx>= 0.0000 <Sy>= 0.0000 <Sz>= 0.5000 <S**2>= 0.7500 S= 0.5000
 Requested convergence on RMS density matrix=1.00D-08 within 128 cycles.
 Requested convergence on MAX density matrix=1.00D-06.
 Requested convergence on             energy=1.00D-06.
 No special actions if energy rises.
 Restarting incremental Fock formation.
 SCF Done:  E(UM062X) =  -420.205908727     A.U. after   24 cycles
            NFock= 24  Conv=0.75D-08     -V/T= 2.0032
 <Sx>= 0.0000 <Sy>= 0.0000 <Sz>= 0.5000 <S**2>= 0.7586 S= 0.5043
 <L.S>=  0.00000000000    
 Annihilation of the first spin contaminant:
 S**2 before annihilation     0.7586,   after     0.7500
 DoSCS=F DFT=T ScalE2(SS,OS)=  1.000000  1.000000
 Range of M.O.s used for correlation:     1   225
 NBasis=   225 NAE=    31 NBE=    30 NFC=     0 NFV=     0
 NROrb=    225 NOA=    31 NOB=    30 NVA=   194 NVB=   195

 **** Warning!!: The largest alpha MO coefficient is  0.34777139D+03


 **** Warning!!: The largest beta MO coefficient is  0.33572197D+03

 Symmetrizing basis deriv contribution to polar:
 IMax=3 JMax=2 DiffMx= 0.00D+00
 G2DrvN: will do    16 centers at a time, making    1 passes.
 Calling FoFCou, ICntrl=  3107 FMM=F I1Cent=   0 AccDes= 0.00D+00.
 End of G2Drv F.D. properties file   721 does not exist.
 End of G2Drv F.D. properties file   722 does not exist.
 End of G2Drv F.D. properties file   788 does not exist.
          IDoAtm=111111111111111
          Differentiating once with respect to electric field.
                with respect to dipole field.
          Differentiating once with respect to nuclear coordinates.
 Keep R1 and R2 ints in memory in canonical form, NReq=671901991.
          There are    48 degrees of freedom in the 1st order CPHF.  IDoFFX=6 NUNeed=     3.
     45 vectors produced by pass  0 Test12= 2.47D-14 2.08D-09 XBig12= 8.12D+01 4.58D+00.
 AX will form    45 AO Fock derivatives at one time.
     45 vectors produced by pass  1 Test12= 2.47D-14 2.08D-09 XBig12= 1.47D+01 5.69D-01.
     45 vectors produced by pass  2 Test12= 2.47D-14 2.08D-09 XBig12= 4.90D-01 9.23D-02.
     45 vectors produced by pass  3 Test12= 2.47D-14 2.08D-09 XBig12= 6.75D-03 1.38D-02.
     45 vectors produced by pass  4 Test12= 2.47D-14 2.08D-09 XBig12= 7.45D-05 1.37D-03.
     45 vectors produced by pass  5 Test12= 2.47D-14 2.08D-09 XBig12= 6.30D-07 8.58D-05.
     38 vectors produced by pass  6 Test12= 2.47D-14 2.08D-09 XBig12= 5.07D-09 1.08D-05.
     20 vectors produced by pass  7 Test12= 2.47D-14 2.08D-09 XBig12= 4.59D-11 7.32D-07.
      3 vectors produced by pass  8 Test12= 2.47D-14 2.08D-09 XBig12= 4.19D-13 5.19D-08.
      3 vectors produced by pass  9 Test12= 2.47D-14 2.08D-09 XBig12= 5.45D-15 1.16D-08.
      2 vectors produced by pass 10 Test12= 2.47D-14 2.08D-09 XBig12= 2.30D-15 1.20D-08.
      1 vectors produced by pass 11 Test12= 2.47D-14 2.08D-09 XBig12= 1.91D-16 2.44D-09.
 InvSVY:  IOpt=1 It=  1 EMax= 1.07D-14
 Solved reduced A of dimension   337 with    48 vectors.
 Isotropic polarizability for W=    0.000000       71.95 Bohr**3.
 End of Minotr F.D. properties file   721 does not exist.
 End of Minotr F.D. properties file   722 does not exist.
 End of Minotr F.D. properties file   788 does not exist.

 **********************************************************************

            Population analysis using the SCF density.

 **********************************************************************

 Orbital symmetries:
 Alpha Orbitals:
       Occupied  (A) (A) (A) (A) (A) (A) (A) (A) (A) (A) (A) (A)
                 (A) (A) (A) (A) (A) (A) (A) (A) (A) (A) (A) (A)
                 (A) (A) (A) (A) (A) (A) (A)
       Virtual   (A) (A) (A) (A) (A) (A) (A) (A) (A) (A) (A) (A)
                 (A) (A) (A) (A) (A) (A) (A) (A) (A) (A) (A) (A)
                 (A) (A) (A) (A) (A) (A) (A) (A) (A) (A) (A) (A)
                 (A) (A) (A) (A) (A) (A) (A) (A) (A) (A) (A) (A)
                 (A) (A) (A) (A) (A) (A) (A) (A) (A) (A) (A) (A)
                 (A) (A) (A) (A) (A) (A) (A) (A) (A) (A) (A) (A)
                 (A) (A) (A) (A) (A) (A) (A) (A) (A) (A) (A) (A)
                 (A) (A) (A) (A) (A) (A) (A) (A) (A) (A) (A) (A)
                 (A) (A) (A) (A) (A) (A) (A) (A) (A) (A) (A) (A)
                 (A) (A) (A) (A) (A) (A) (A) (A) (A) (A) (A) (A)
                 (A) (A) (A) (A) (A) (A) (A) (A) (A) (A) (A) (A)
                 (A) (A) (A) (A) (A) (A) (A) (A) (A) (A) (A) (A)
                 (A) (A) (A) (A) (A) (A) (A) (A) (A) (A) (A) (A)
                 (A) (A) (A) (A) (A) (A) (A) (A) (A) (A) (A) (A)
                 (A) (A) (A) (A) (A) (A) (A) (A) (A) (A) (A) (A)
                 (A) (A) (A) (A) (A) (A) (A) (A) (A) (A) (A) (A)
                 (A) (A)
 Beta  Orbitals:
       Occupied  (A) (A) (A) (A) (A) (A) (A) (A) (A) (A) (A) (A)
                 (A) (A) (A) (A) (A) (A) (A) (A) (A) (A) (A) (A)
                 (A) (A) (A) (A) (A) (A)
       Virtual   (A) (A) (A) (A) (A) (A) (A) (A) (A) (A) (A) (A)
                 (A) (A) (A) (A) (A) (A) (A) (A) (A) (A) (A) (A)
                 (A) (A) (A) (A) (A) (A) (A) (A) (A) (A) (A) (A)
                 (A) (A) (A) (A) (A) (A) (A) (A) (A) (A) (A) (A)
                 (A) (A) (A) (A) (A) (A) (A) (A) (A) (A) (A) (A)
                 (A) (A) (A) (A) (A) (A) (A) (A) (A) (A) (A) (A)
                 (A) (A) (A) (A) (A) (A) (A) (A) (A) (A) (A) (A)
                 (A) (A) (A) (A) (A) (A) (A) (A) (A) (A) (A) (A)
                 (A) (A) (A) (A) (A) (A) (A) (A) (A) (A) (A) (A)
                 (A) (A) (A) (A) (A) (A) (A) (A) (A) (A) (A) (A)
                 (A) (A) (A) (A) (A) (A) (A) (A) (A) (A) (A) (A)
                 (A) (A) (A) (A) (A) (A) (A) (A) (A) (A) (A) (A)
                 (A) (A) (A) (A) (A) (A) (A) (A) (A) (A) (A) (A)
                 (A) (A) (A) (A) (A) (A) (A) (A) (A) (A) (A) (A)
                 (A) (A) (A) (A) (A) (A) (A) (A) (A) (A) (A) (A)
                 (A) (A) (A) (A) (A) (A) (A) (A) (A) (A) (A) (A)
                 (A) (A) (A)
 The electronic state is 2-A.
 Alpha  occ. eigenvalues --  -19.68068 -19.67250 -19.62939 -10.70554 -10.60387
 Alpha  occ. eigenvalues --  -10.57855 -10.57540 -10.53695  -1.25549  -1.16237
 Alpha  occ. eigenvalues --   -1.13062  -0.90630  -0.87258  -0.78066  -0.70584
 Alpha  occ. eigenvalues --   -0.64381  -0.61631  -0.58459  -0.56608  -0.54936
 Alpha  occ. eigenvalues --   -0.53467  -0.50617  -0.48444  -0.46396  -0.45232
 Alpha  occ. eigenvalues --   -0.42399  -0.41672  -0.39554  -0.38269  -0.36441
 Alpha  occ. eigenvalues --   -0.35689
 Alpha virt. eigenvalues --   -0.00996  -0.00343   0.00520   0.01547   0.02352
 Alpha virt. eigenvalues --    0.02795   0.03561   0.04227   0.05531   0.06731
 Alpha virt. eigenvalues --    0.07303   0.07784   0.08168   0.09217   0.10265
 Alpha virt. eigenvalues --    0.11090   0.11942   0.12523   0.13201   0.13474
 Alpha virt. eigenvalues --    0.14545   0.14813   0.14944   0.15136   0.16110
 Alpha virt. eigenvalues --    0.16725   0.18047   0.18871   0.19674   0.20909
 Alpha virt. eigenvalues --    0.21391   0.21542   0.22070   0.23708   0.24526
 Alpha virt. eigenvalues --    0.25783   0.26498   0.27498   0.28656   0.29726
 Alpha virt. eigenvalues --    0.30230   0.31469   0.32941   0.33225   0.34228
 Alpha virt. eigenvalues --    0.34912   0.36386   0.37236   0.38497   0.39148
 Alpha virt. eigenvalues --    0.40784   0.43446   0.44898   0.46864   0.49262
 Alpha virt. eigenvalues --    0.51691   0.53754   0.55547   0.56255   0.58654
 Alpha virt. eigenvalues --    0.60078   0.61725   0.63754   0.64891   0.67255
 Alpha virt. eigenvalues --    0.68800   0.70236   0.71469   0.72448   0.73284
 Alpha virt. eigenvalues --    0.74796   0.75923   0.77780   0.78505   0.81399
 Alpha virt. eigenvalues --    0.83507   0.88310   0.90655   0.96043   0.98632
 Alpha virt. eigenvalues --    1.02057   1.05170   1.07104   1.07739   1.10165
 Alpha virt. eigenvalues --    1.13101   1.17321   1.18668   1.20605   1.22402
 Alpha virt. eigenvalues --    1.24655   1.26410   1.29441   1.29965   1.33757
 Alpha virt. eigenvalues --    1.36227   1.36275   1.38027   1.39993   1.43355
 Alpha virt. eigenvalues --    1.44425   1.47791   1.51299   1.52856   1.55907
 Alpha virt. eigenvalues --    1.58357   1.60023   1.60390   1.61850   1.64662
 Alpha virt. eigenvalues --    1.66387   1.68411   1.70717   1.72005   1.74706
 Alpha virt. eigenvalues --    1.77336   1.81842   1.83726   1.85845   1.87358
 Alpha virt. eigenvalues --    1.92120   1.97044   1.99869   2.03528   2.06087
 Alpha virt. eigenvalues --    2.09283   2.10394   2.13469   2.21466   2.31848
 Alpha virt. eigenvalues --    2.35679   2.41329   2.47968   2.51049   2.51981
 Alpha virt. eigenvalues --    2.54436   2.55893   2.61430   2.62466   2.63357
 Alpha virt. eigenvalues --    2.64863   2.66104   2.71646   2.73533   2.76336
 Alpha virt. eigenvalues --    2.81170   2.81533   2.83964   2.91059   2.93151
 Alpha virt. eigenvalues --    2.93660   2.95502   3.00634   3.03375   3.04406
 Alpha virt. eigenvalues --    3.06465   3.13394   3.15035   3.16096   3.17612
 Alpha virt. eigenvalues --    3.25226   3.26793   3.31664   3.35817   3.38373
 Alpha virt. eigenvalues --    3.44980   3.53986   3.66240   3.77064   3.84996
 Alpha virt. eigenvalues --    3.86310   3.87330   3.91552   4.03767   4.14211
 Alpha virt. eigenvalues --    4.19876   4.28311   5.08197   5.12052   5.15306
 Alpha virt. eigenvalues --    5.20892   5.33572   5.47345   5.56328   5.73991
 Alpha virt. eigenvalues --    5.95090  23.62518  23.93876  23.94903  24.05981
 Alpha virt. eigenvalues --   25.13277  49.94030  50.00835  50.11687
  Beta  occ. eigenvalues --  -19.68073 -19.65690 -19.62953 -10.70540 -10.60387
  Beta  occ. eigenvalues --  -10.57836 -10.57445 -10.53695  -1.25557  -1.16266
  Beta  occ. eigenvalues --   -1.05713  -0.90347  -0.86990  -0.77949  -0.70465
  Beta  occ. eigenvalues --   -0.64343  -0.61364  -0.58373  -0.56386  -0.53456
  Beta  occ. eigenvalues --   -0.52042  -0.49205  -0.46614  -0.45233  -0.41942
  Beta  occ. eigenvalues --   -0.39500  -0.38977  -0.38278  -0.38043  -0.36092
  Beta virt. eigenvalues --   -0.08800  -0.00436  -0.00182   0.00595   0.01861
  Beta virt. eigenvalues --    0.02456   0.02830   0.03573   0.04321   0.05558
  Beta virt. eigenvalues --    0.06710   0.07402   0.07834   0.08285   0.09334
  Beta virt. eigenvalues --    0.10374   0.11177   0.12322   0.12575   0.13196
  Beta virt. eigenvalues --    0.13492   0.14551   0.14914   0.15102   0.15215
  Beta virt. eigenvalues --    0.16171   0.17221   0.18136   0.18877   0.19753
  Beta virt. eigenvalues --    0.20896   0.21071   0.21890   0.22308   0.23768
  Beta virt. eigenvalues --    0.24605   0.25850   0.26292   0.27660   0.28731
  Beta virt. eigenvalues --    0.29822   0.30249   0.31520   0.32993   0.33227
  Beta virt. eigenvalues --    0.34220   0.34972   0.36406   0.37153   0.38766
  Beta virt. eigenvalues --    0.39139   0.40824   0.43449   0.44921   0.46874
  Beta virt. eigenvalues --    0.49329   0.51709   0.53769   0.55572   0.56841
  Beta virt. eigenvalues --    0.59121   0.60234   0.62006   0.63838   0.64966
  Beta virt. eigenvalues --    0.67352   0.68820   0.70227   0.71492   0.72476
  Beta virt. eigenvalues --    0.73278   0.74816   0.75919   0.77870   0.78628
  Beta virt. eigenvalues --    0.81434   0.83689   0.88309   0.91208   0.96074
  Beta virt. eigenvalues --    0.98806   1.02065   1.05740   1.07544   1.09417
  Beta virt. eigenvalues --    1.10791   1.13721   1.17648   1.18792   1.20907
  Beta virt. eigenvalues --    1.23069   1.24995   1.26628   1.29514   1.30972
  Beta virt. eigenvalues --    1.33976   1.36326   1.36541   1.38806   1.40225
  Beta virt. eigenvalues --    1.44037   1.44966   1.48072   1.51441   1.53453
  Beta virt. eigenvalues --    1.56244   1.58374   1.60054   1.60424   1.61898
  Beta virt. eigenvalues --    1.64690   1.66368   1.68447   1.70841   1.72609
  Beta virt. eigenvalues --    1.74812   1.77790   1.81851   1.83914   1.85948
  Beta virt. eigenvalues --    1.87476   1.92184   1.97321   1.99946   2.03557
  Beta virt. eigenvalues --    2.06185   2.10279   2.10837   2.13484   2.21480
  Beta virt. eigenvalues --    2.31861   2.35682   2.41661   2.48017   2.51039
  Beta virt. eigenvalues --    2.51976   2.54437   2.55925   2.61600   2.62535
  Beta virt. eigenvalues --    2.63525   2.65404   2.66206   2.71866   2.73568
  Beta virt. eigenvalues --    2.76740   2.81321   2.82409   2.85831   2.91994
  Beta virt. eigenvalues --    2.94905   2.95052   2.98672   3.01063   3.04333
  Beta virt. eigenvalues --    3.05504   3.07279   3.13487   3.15791   3.18789
  Beta virt. eigenvalues --    3.19246   3.25837   3.27434   3.31673   3.36076
  Beta virt. eigenvalues --    3.38404   3.44952   3.54331   3.66235   3.77116
  Beta virt. eigenvalues --    3.85002   3.86311   3.90843   3.91585   4.03767
  Beta virt. eigenvalues --    4.14186   4.19862   4.28308   5.10494   5.15228
  Beta virt. eigenvalues --    5.19982   5.21150   5.33630   5.47416   5.58534
  Beta virt. eigenvalues --    5.73986   5.95081  23.62555  23.93877  23.94911
  Beta virt. eigenvalues --   24.05982  25.13477  49.93577  50.00821  50.11705
          Condensed to atoms (all electrons):
               1          2          3          4          5          6
     1  O    8.038859   0.244672  -0.152242  -0.000571   0.368312  -0.255787
     2  H    0.244672   0.505117  -0.142347  -0.001964   0.066186   0.092128
     3  C   -0.152242  -0.142347  47.580388   0.834249 -14.175499 -26.036887
     4  H   -0.000571  -0.001964   0.834249   0.435390  -0.292175  -0.148235
     5  C    0.368312   0.066186 -14.175499  -0.292175  23.177681  -3.906601
     6  C   -0.255787   0.092128 -26.036887  -0.148235  -3.906601  35.470910
     7  O   -0.013665  -0.001747   0.176573  -0.000916   0.369612  -0.136519
     8  O   -0.007864  -0.000525  -0.076198  -0.004343  -0.167234   0.100152
     9  C   -0.014579   0.003021  -0.680541  -0.001887  -0.925168   1.368725
    10  C    0.004964  -0.001372   0.155718  -0.000018   0.131213  -0.346468
    11  H   -0.001209   0.000304  -0.032845   0.000122  -0.033713   0.081644
    12  H    0.000616  -0.000462   0.025715  -0.000147   0.047892  -0.087930
    13  H   -0.000009  -0.000029   0.009643   0.000042   0.022290  -0.024630
    14  H    0.000288   0.000020  -0.011423  -0.000217  -0.008068   0.015024
    15  H   -0.000466   0.000171  -0.027865  -0.000025  -0.052453   0.060145
               7          8          9         10         11         12
     1  O   -0.013665  -0.007864  -0.014579   0.004964  -0.001209   0.000616
     2  H   -0.001747  -0.000525   0.003021  -0.001372   0.000304  -0.000462
     3  C    0.176573  -0.076198  -0.680541   0.155718  -0.032845   0.025715
     4  H   -0.000916  -0.004343  -0.001887  -0.000018   0.000122  -0.000147
     5  C    0.369612  -0.167234  -0.925168   0.131213  -0.033713   0.047892
     6  C   -0.136519   0.100152   1.368725  -0.346468   0.081644  -0.087930
     7  O    7.993887  -0.140755   0.038737  -0.080010   0.000951  -0.014441
     8  O   -0.140755   8.246626   0.130274  -0.042889  -0.090671  -0.003182
     9  C    0.038737   0.130274   5.631665  -0.042353   0.447604   0.380983
    10  C   -0.080010  -0.042889  -0.042353   5.509984  -0.061108  -0.014465
    11  H    0.000951  -0.090671   0.447604  -0.061108   0.524153  -0.034214
    12  H   -0.014441  -0.003182   0.380983  -0.014465  -0.034214   0.511165
    13  H   -0.001505   0.017450  -0.052357   0.403327  -0.002938  -0.002454
    14  H    0.002879  -0.002632  -0.035164   0.420780  -0.008982   0.002934
    15  H    0.001595  -0.017278   0.004871   0.382258   0.009700  -0.009972
              13         14         15
     1  O   -0.000009   0.000288  -0.000466
     2  H   -0.000029   0.000020   0.000171
     3  C    0.009643  -0.011423  -0.027865
     4  H    0.000042  -0.000217  -0.000025
     5  C    0.022290  -0.008068  -0.052453
     6  C   -0.024630   0.015024   0.060145
     7  O   -0.001505   0.002879   0.001595
     8  O    0.017450  -0.002632  -0.017278
     9  C   -0.052357  -0.035164   0.004871
    10  C    0.403327   0.420780   0.382258
    11  H   -0.002938  -0.008982   0.009700
    12  H   -0.002454   0.002934  -0.009972
    13  H    0.533803  -0.030542  -0.034308
    14  H   -0.030542   0.536383  -0.047505
    15  H   -0.034308  -0.047505   0.541548
          Atomic-Atomic Spin Densities.
               1          2          3          4          5          6
     1  O    0.984918   0.012654  -0.233754  -0.002766   0.008694   0.138395
     2  H    0.012654  -0.033247   0.014238   0.000077  -0.007800  -0.006412
     3  C   -0.233754   0.014238   0.744328   0.030876  -0.415668  -0.020573
     4  H   -0.002766   0.000077   0.030876  -0.005851  -0.017602  -0.013031
     5  C    0.008694  -0.007800  -0.415668  -0.017602  -0.050524   0.394454
     6  C    0.138395  -0.006412  -0.020573  -0.013031   0.394454  -0.401165
     7  O    0.001546  -0.000086   0.009162  -0.000016   0.006924  -0.016847
     8  O    0.001354   0.000237  -0.004746  -0.000181  -0.000000   0.010087
     9  C   -0.000799   0.000459   0.011891  -0.000149   0.039214  -0.055479
    10  C   -0.001022   0.000061  -0.006854   0.000076  -0.028056   0.037374
    11  H    0.000128   0.000016   0.002396  -0.000019   0.006576  -0.009120
    12  H    0.000138  -0.000049  -0.002594  -0.000004  -0.005120   0.008026
    13  H   -0.000097   0.000022  -0.000013   0.000003  -0.001214   0.000580
    14  H    0.000168  -0.000028  -0.001231  -0.000001  -0.000498   0.002368
    15  H   -0.000095   0.000019   0.002539  -0.000009   0.005647  -0.008657
               7          8          9         10         11         12
     1  O    0.001546   0.001354  -0.000799  -0.001022   0.000128   0.000138
     2  H   -0.000086   0.000237   0.000459   0.000061   0.000016  -0.000049
     3  C    0.009162  -0.004746   0.011891  -0.006854   0.002396  -0.002594
     4  H   -0.000016  -0.000181  -0.000149   0.000076  -0.000019  -0.000004
     5  C    0.006924  -0.000000   0.039214  -0.028056   0.006576  -0.005120
     6  C   -0.016847   0.010087  -0.055479   0.037374  -0.009120   0.008026
     7  O   -0.008821  -0.000044   0.001610   0.000378   0.000097  -0.000109
     8  O   -0.000044  -0.004545   0.000423  -0.002171   0.000424  -0.000277
     9  C    0.001610   0.000423  -0.003193   0.008385  -0.001741   0.000225
    10  C    0.000378  -0.002171   0.008385  -0.011754   0.001987  -0.000613
    11  H    0.000097   0.000424  -0.001741   0.001987  -0.000694   0.000144
    12  H   -0.000109  -0.000277   0.000225  -0.000613   0.000144  -0.000084
    13  H    0.000301  -0.000312   0.002265  -0.002162   0.000348  -0.000292
    14  H   -0.000310   0.000093  -0.001051   0.001052  -0.000166   0.000134
    15  H    0.000005   0.000216  -0.001490   0.002400  -0.000235   0.000026
              13         14         15
     1  O   -0.000097   0.000168  -0.000095
     2  H    0.000022  -0.000028   0.000019
     3  C   -0.000013  -0.001231   0.002539
     4  H    0.000003  -0.000001  -0.000009
     5  C   -0.001214  -0.000498   0.005647
     6  C    0.000580   0.002368  -0.008657
     7  O    0.000301  -0.000310   0.000005
     8  O   -0.000312   0.000093   0.000216
     9  C    0.002265  -0.001051  -0.001490
    10  C   -0.002162   0.001052   0.002400
    11  H    0.000348  -0.000166  -0.000235
    12  H   -0.000292   0.000134   0.000026
    13  H    0.000338  -0.000195   0.000546
    14  H   -0.000195   0.000163  -0.000412
    15  H    0.000546  -0.000412  -0.000442
 Mulliken charges and spin densities:
               1          2
     1  O   -0.211320   0.909461
     2  H    0.236828  -0.019840
     3  C   -1.446438   0.129996
     4  H    0.180694  -0.008598
     5  C    1.377725  -0.064973
     6  C   -0.245671   0.060000
     7  O   -0.194677  -0.006209
     8  O    0.059069   0.000559
     9  C   -0.253832   0.000570
    10  C   -0.419562  -0.000919
    11  H    0.201199   0.000142
    12  H    0.197963  -0.000450
    13  H    0.162215   0.000117
    14  H    0.166224   0.000085
    15  H    0.189583   0.000057
 Sum of Mulliken charges =  -0.00000   1.00000
 Mulliken charges and spin densities with hydrogens summed into heavy atoms:
               1          2
     1  O    0.025507   0.889621
     3  C   -1.265744   0.121398
     5  C    1.377725  -0.064973
     6  C   -0.245671   0.060000
     7  O   -0.194677  -0.006209
     8  O    0.059069   0.000559
     9  C    0.145330   0.000262
    10  C    0.098460  -0.000659
 APT charges:
               1
     1  O   -0.214976
     2  H    0.265801
     3  C   -0.202234
     4  H    0.231825
     5  C   -0.348290
     6  C    1.474338
     7  O   -0.779673
     8  O   -0.946436
     9  C    0.536634
    10  C   -0.037097
    11  H   -0.013468
    12  H   -0.011086
    13  H    0.008029
    14  H    0.008645
    15  H    0.027987
 Sum of APT charges =  -0.00000
 APT charges with hydrogens summed into heavy atoms:
               1
     1  O    0.050825
     3  C    0.029591
     5  C   -0.348290
     6  C    1.474338
     7  O   -0.779673
     8  O   -0.946436
     9  C    0.512080
    10  C    0.007565
 Electronic spatial extent (au):  <R**2>=           1142.3301
 Charge=             -0.0000 electrons
 Dipole moment (field-independent basis, Debye):
    X=              0.2740    Y=             -0.6112    Z=             -0.6950  Tot=              0.9652
 Quadrupole moment (field-independent basis, Debye-Ang):
   XX=            -31.7192   YY=            -46.5332   ZZ=            -52.0241
   XY=             -5.2025   XZ=              2.5524   YZ=              3.8964
 Traceless Quadrupole moment (field-independent basis, Debye-Ang):
   XX=             11.7063   YY=             -3.1077   ZZ=             -8.5986
   XY=             -5.2025   XZ=              2.5524   YZ=              3.8964
 Octapole moment (field-independent basis, Debye-Ang**2):
  XXX=             30.4666  YYY=              5.2333  ZZZ=             -3.3732  XYY=              3.4684
  XXY=             -6.7464  XXZ=              2.1454  XZZ=              2.4570  YZZ=              4.6133
  YYZ=              0.8915  XYZ=             11.0560
 Hexadecapole moment (field-independent basis, Debye-Ang**3):
 XXXX=           -897.6920 YYYY=           -247.6186 ZZZZ=           -184.5949 XXXY=            -40.9282
 XXXZ=              5.2653 YYYX=             -1.1844 YYYZ=              5.2214 ZZZX=              7.7097
 ZZZY=              2.1092 XXYY=           -192.1777 XXZZ=           -197.9782 YYZZ=            -66.4311
 XXYZ=             32.9773 YYXZ=              0.9883 ZZXY=              2.6290
 N-N= 3.568745335798D+02 E-N=-1.698620479375D+03  KE= 4.188756615627D+02
  Exact polarizability:  86.985  -7.796  68.656  -4.053   3.208  60.197
 Approx polarizability:  89.937 -13.277  76.385  -8.020   2.967  78.399
                          Isotropic Fermi Contact Couplings
        Atom                 a.u.       MegaHertz       Gauss      10(-4) cm-1
     1  O(17)              0.12950     -78.49993     -28.01073     -26.18476
     2  H(1)              -0.01494     -66.75904     -23.82128     -22.26842
     3  C(13)              0.02790      31.36329      11.19120      10.46167
     4  H(1)              -0.00272     -12.13789      -4.33110      -4.04877
     5  C(13)              0.01676      18.84089       6.72290       6.28465
     6  C(13)              0.00771       8.66472       3.09179       2.89024
     7  O(17)             -0.00234       1.41836       0.50611       0.47311
     8  O(17)             -0.00094       0.56761       0.20254       0.18934
     9  C(13)             -0.00002      -0.02196      -0.00784      -0.00733
    10  C(13)             -0.00017      -0.18926      -0.06753      -0.06313
    11  H(1)              -0.00000      -0.02000      -0.00714      -0.00667
    12  H(1)              -0.00004      -0.17956      -0.06407      -0.05989
    13  H(1)               0.00000       0.00671       0.00240       0.00224
    14  H(1)               0.00000       0.00367       0.00131       0.00123
    15  H(1)               0.00000       0.01972       0.00704       0.00658
 --------------------------------------------------------
       Center         ----  Spin Dipole Couplings  ----
                      3XX-RR        3YY-RR        3ZZ-RR
 --------------------------------------------------------
     1   Atom       -1.727199      3.321207     -1.594008
     2   Atom       -0.004228     -0.036921      0.041149
     3   Atom       -0.067657      0.150463     -0.082806
     4   Atom        0.006506      0.005186     -0.011692
     5   Atom        0.017541      0.015723     -0.033264
     6   Atom        0.014152     -0.001630     -0.012521
     7   Atom        0.025326     -0.035863      0.010538
     8   Atom        0.010249     -0.010950      0.000701
     9   Atom        0.003504     -0.001635     -0.001869
    10   Atom        0.001369     -0.000556     -0.000813
    11   Atom        0.002531     -0.001313     -0.001218
    12   Atom        0.003481     -0.001729     -0.001751
    13   Atom        0.001010     -0.000448     -0.000562
    14   Atom        0.001099     -0.000386     -0.000713
    15   Atom        0.001185     -0.000357     -0.000829
 --------------------------------------------------------
                        XY            XZ            YZ
 --------------------------------------------------------
     1   Atom        0.466044      0.083147      0.984316
     2   Atom       -0.027038      0.140473     -0.023913
     3   Atom        0.097630      0.011951      0.008968
     4   Atom       -0.009721     -0.007901      0.006122
     5   Atom        0.004260     -0.014253      0.009703
     6   Atom        0.013389     -0.005821     -0.002070
     7   Atom       -0.001688     -0.004995     -0.012755
     8   Atom        0.000240      0.003879      0.000607
     9   Atom        0.000575      0.000165      0.000046
    10   Atom        0.000577     -0.000002      0.000013
    11   Atom       -0.000023      0.000909      0.000019
    12   Atom        0.000184     -0.000938      0.000032
    13   Atom        0.000335     -0.000038      0.000001
    14   Atom        0.000695      0.000337      0.000142
    15   Atom        0.000884     -0.000373     -0.000111
 --------------------------------------------------------


 ---------------------------------------------------------------------------------
              Anisotropic Spin Dipole Couplings in Principal Axis System
 ---------------------------------------------------------------------------------

       Atom             a.u.   MegaHertz   Gauss  10(-4) cm-1        Axes

              Baa    -1.7864   129.261    46.123    43.117  0.3636 -0.2082  0.9080
     1 O(17)  Bbb    -1.7671   127.863    45.625    42.650  0.9272 -0.0125 -0.3742
              Bcc     3.5534  -257.124   -91.748   -85.767  0.0893  0.9780  0.1885
 
              Baa    -0.1241   -66.238   -23.635   -22.095  0.7649  0.0613 -0.6412
     2 H(1)   Bbb    -0.0429   -22.875    -8.162    -7.630  0.0648  0.9831  0.1714
              Bcc     0.1670    89.113    31.798    29.725  0.6408 -0.1727  0.7480
 
              Baa    -0.1076   -14.437    -5.152    -4.816  0.8921 -0.3267 -0.3120
     3 C(13)  Bbb    -0.0808   -10.840    -3.868    -3.616  0.2758 -0.1532  0.9489
              Bcc     0.1884    25.277     9.020     8.432  0.3578  0.9326  0.0466
 
              Baa    -0.0150    -8.006    -2.857    -2.671  0.2790 -0.1531  0.9480
     4 H(1)   Bbb    -0.0038    -2.044    -0.729    -0.682  0.6540  0.7531 -0.0709
              Bcc     0.0188    10.051     3.586     3.353  0.7031 -0.6398 -0.3103
 
              Baa    -0.0390    -5.232    -1.867    -1.745  0.2534 -0.1880  0.9489
     5 C(13)  Bbb     0.0171     2.292     0.818     0.765 -0.3079  0.9142  0.2634
              Bcc     0.0219     2.940     1.049     0.981  0.9171  0.3589 -0.1738
 
              Baa    -0.0138    -1.855    -0.662    -0.619  0.2565 -0.1189  0.9592
     6 C(13)  Bbb    -0.0090    -1.211    -0.432    -0.404 -0.4440  0.8670  0.2262
              Bcc     0.0228     3.066     1.094     1.023  0.8585  0.4839 -0.1696
 
              Baa    -0.0393     2.841     1.014     0.948  0.0448  0.9667  0.2521
     7 O(17)  Bbb     0.0123    -0.892    -0.318    -0.298  0.3182 -0.2530  0.9136
              Bcc     0.0269    -1.949    -0.696    -0.650  0.9470  0.0393 -0.3190
 
              Baa    -0.0110     0.795     0.284     0.265 -0.0019  0.9987 -0.0513
     8 O(17)  Bbb    -0.0007     0.047     0.017     0.016 -0.3358  0.0477  0.9407
              Bcc     0.0116    -0.842    -0.300    -0.281  0.9419  0.0190  0.3353
 
              Baa    -0.0019    -0.252    -0.090    -0.084 -0.0137 -0.1547  0.9879
     9 C(13)  Bbb    -0.0017    -0.227    -0.081    -0.076 -0.1135  0.9818  0.1521
              Bcc     0.0036     0.479     0.171     0.160  0.9934  0.1100  0.0310
 
              Baa    -0.0008    -0.109    -0.039    -0.036  0.0346 -0.1280  0.9912
    10 C(13)  Bbb    -0.0007    -0.096    -0.034    -0.032 -0.2644  0.9552  0.1326
              Bcc     0.0015     0.205     0.073     0.068  0.9638  0.2667  0.0008
 
              Baa    -0.0014    -0.764    -0.273    -0.255 -0.2203 -0.1980  0.9551
    11 H(1)   Bbb    -0.0013    -0.698    -0.249    -0.233 -0.0400  0.9802  0.1940
              Bcc     0.0027     1.462     0.522     0.488  0.9746 -0.0045  0.2239
 
              Baa    -0.0019    -1.032    -0.368    -0.344  0.1727 -0.3007  0.9380
    12 H(1)   Bbb    -0.0017    -0.915    -0.327    -0.305  0.0207  0.9532  0.3018
              Bcc     0.0036     1.947     0.695     0.649  0.9848  0.0327 -0.1708
 
              Baa    -0.0006    -0.301    -0.108    -0.101  0.0662 -0.2001  0.9775
    13 H(1)   Bbb    -0.0005    -0.277    -0.099    -0.092 -0.2042  0.9562  0.2095
              Bcc     0.0011     0.578     0.206     0.193  0.9767  0.2135 -0.0225
 
              Baa    -0.0008    -0.414    -0.148    -0.138 -0.1299 -0.1265  0.9834
    14 H(1)   Bbb    -0.0007    -0.352    -0.126    -0.117 -0.3780  0.9232  0.0689
              Bcc     0.0014     0.766     0.273     0.255  0.9167  0.3628  0.1678
 
              Baa    -0.0009    -0.484    -0.173    -0.162  0.2691 -0.2435  0.9318
    15 H(1)   Bbb    -0.0007    -0.395    -0.141    -0.132 -0.3407  0.8809  0.3286
              Bcc     0.0016     0.879     0.314     0.293  0.9009  0.4059 -0.1541
 

 ---------------------------------------------------------------------------------

 Calling FoFJK, ICntrl=    100127 FMM=F ISym2X=0 I1Cent= 0 IOpClX= 1 NMat=1 NMatS=1 NMatT=0.
 Full mass-weighted force constant matrix:
 Low frequencies ---  -64.2160  -42.6932  -15.3246   -0.0000    0.0004    0.0008
 Low frequencies ---   23.6584   52.9116  106.6087
 ******    1 imaginary frequencies (negative Signs) ****** 
 Diagonal vibrational polarizability:
      171.6196854     101.4765327      66.6120133
 Harmonic frequencies (cm**-1), IR intensities (KM/Mole), Raman scattering
 activities (A**4/AMU), depolarization ratios for plane and unpolarized
 incident light, reduced masses (AMU), force constants (mDyne/A),
 and normal coordinates:
                      1                      2                      3
                      A                      A                      A
 Frequencies --    -33.6938                46.6965               106.1172
 Red. masses --      5.0685                 4.3646                 5.9078
 Frc consts  --      0.0034                 0.0056                 0.0392
 IR Inten    --      7.7250                 2.6110                 6.1059
  Atom  AN      X      Y      Z        X      Y      Z        X      Y      Z
     1   8     0.22  -0.08   0.27     0.26  -0.07  -0.14     0.29  -0.01  -0.13
     2   1    -0.12  -0.24   0.52     0.24  -0.09  -0.13    -0.06   0.02   0.18
     3   6    -0.06   0.02  -0.11    -0.11  -0.00  -0.00     0.13   0.22   0.16
     4   1    -0.06   0.01  -0.11    -0.16  -0.06  -0.04     0.24   0.37   0.25
     5   6    -0.05   0.03  -0.10    -0.05   0.08   0.04    -0.00   0.07   0.03
     6   6    -0.02   0.08  -0.08    -0.03   0.09   0.07    -0.09  -0.09  -0.06
     7   8     0.05   0.22  -0.05    -0.04   0.02   0.07    -0.18  -0.25  -0.09
     8   8    -0.08  -0.05  -0.10    -0.03   0.15   0.10    -0.05  -0.02  -0.05
     9   6    -0.09  -0.07  -0.08    -0.10  -0.05   0.09    -0.04   0.02  -0.03
    10   6    -0.01  -0.11   0.14     0.04  -0.18  -0.19    -0.08   0.07   0.19
    11   1    -0.17  -0.21  -0.16    -0.12   0.06   0.18    -0.07  -0.08  -0.11
    12   1    -0.06   0.06  -0.17    -0.23  -0.20   0.19     0.02   0.15  -0.11
    13   1    -0.02  -0.14   0.14    -0.02  -0.35  -0.18    -0.06   0.16   0.14
    14   1    -0.03  -0.25   0.23     0.17  -0.01  -0.30    -0.13  -0.08   0.28
    15   1     0.07   0.03   0.22     0.08  -0.30  -0.29    -0.10   0.20   0.29
                      4                      5                      6
                      A                      A                      A
 Frequencies --    113.8510               158.4402               191.1573
 Red. masses --      3.4530                 2.4381                 1.8081
 Frc consts  --      0.0264                 0.0361                 0.0389
 IR Inten    --      4.6884                18.6070                33.3324
  Atom  AN      X      Y      Z        X      Y      Z        X      Y      Z
     1   8    -0.09  -0.02   0.03    -0.03  -0.02  -0.01     0.07   0.16   0.07
     2   1     0.21  -0.03  -0.23    -0.33   0.03   0.26     0.72  -0.01  -0.55
     3   6    -0.07  -0.11   0.04     0.07  -0.08   0.20    -0.03  -0.10   0.04
     4   1    -0.11  -0.23   0.09     0.12  -0.15   0.43    -0.07  -0.21   0.08
     5   6    -0.01   0.03  -0.01     0.00   0.00  -0.10     0.02   0.01  -0.01
     6   6    -0.02   0.06  -0.05     0.01   0.03  -0.12     0.00  -0.01  -0.02
     7   8    -0.10  -0.08  -0.08     0.09   0.01  -0.09     0.00  -0.02  -0.03
     8   8     0.07   0.21  -0.03    -0.06   0.06  -0.04    -0.03  -0.05  -0.03
     9   6     0.00   0.04  -0.05    -0.04   0.01   0.12    -0.02  -0.03   0.01
    10   6     0.20  -0.10   0.16    -0.02  -0.02   0.00    -0.06   0.01   0.01
    11   1    -0.13  -0.14  -0.15    -0.11   0.14   0.25    -0.02   0.00   0.03
    12   1    -0.06   0.19  -0.14     0.03  -0.14   0.21     0.02  -0.05   0.02
    13   1     0.14  -0.24   0.06     0.02  -0.08   0.30    -0.03   0.05   0.12
    14   1     0.32  -0.29   0.27    -0.20   0.21  -0.14    -0.18   0.07  -0.03
    15   1     0.29   0.11   0.29     0.15  -0.22  -0.22    -0.03  -0.06  -0.06
                      7                      8                      9
                      A                      A                      A
 Frequencies --    203.1364               228.9090               266.3641
 Red. masses --      3.3183                 1.3030                 3.0150
 Frc consts  --      0.0807                 0.0402                 0.1260
 IR Inten    --     21.1833                 1.8763                14.2868
  Atom  AN      X      Y      Z        X      Y      Z        X      Y      Z
     1   8     0.10   0.28  -0.04     0.00  -0.00  -0.00     0.01   0.02  -0.02
     2   1    -0.62   0.22   0.58    -0.00   0.01   0.00    -0.45   0.21   0.42
     3   6    -0.07  -0.12  -0.03    -0.02   0.03  -0.04    -0.12  -0.14  -0.04
     4   1    -0.05  -0.08  -0.05    -0.02   0.08  -0.12    -0.30  -0.45  -0.10
     5   6    -0.09  -0.21  -0.01    -0.01  -0.03   0.06     0.15   0.29   0.06
     6   6    -0.02  -0.06   0.01    -0.02  -0.01   0.02     0.06   0.06   0.03
     7   8    -0.02  -0.02   0.02    -0.08   0.03   0.00    -0.00  -0.10  -0.00
     8   8     0.02   0.02   0.02     0.03  -0.02  -0.03     0.02  -0.05  -0.00
     9   6     0.02   0.01   0.00     0.04  -0.00  -0.02     0.01  -0.04  -0.05
    10   6     0.06  -0.01  -0.00     0.06  -0.01   0.02    -0.06   0.02   0.01
    11   1     0.02  -0.00  -0.01     0.02  -0.00  -0.02     0.04  -0.07  -0.08
    12   1    -0.00   0.03  -0.00     0.06   0.00  -0.03     0.01   0.00  -0.07
    13   1     0.02  -0.05  -0.10     0.16  -0.04   0.60    -0.01   0.12   0.13
    14   1     0.15  -0.06   0.02    -0.39   0.27  -0.14    -0.23   0.04   0.00
    15   1     0.02   0.04   0.05     0.41  -0.25  -0.31    -0.04  -0.02  -0.03
                     10                     11                     12
                      A                      A                      A
 Frequencies --    338.3647               420.1088               546.7312
 Red. masses --      2.9012                 3.8524                 1.5603
 Frc consts  --      0.1957                 0.4006                 0.2748
 IR Inten    --     11.1943                 0.3336                67.9801
  Atom  AN      X      Y      Z        X      Y      Z        X      Y      Z
     1   8     0.00  -0.00   0.00    -0.01  -0.01  -0.00     0.01  -0.04   0.01
     2   1    -0.00   0.08   0.03    -0.02   0.11   0.04     0.21   0.88   0.10
     3   6    -0.02  -0.01  -0.04     0.11  -0.04  -0.07     0.05  -0.04  -0.04
     4   1    -0.07  -0.04  -0.12     0.10   0.03  -0.19     0.03  -0.02  -0.14
     5   6     0.05   0.04   0.09     0.10  -0.14   0.10     0.08  -0.05   0.09
     6   6    -0.01   0.00  -0.06     0.09   0.06  -0.01    -0.00  -0.02  -0.03
     7   8    -0.18   0.09  -0.10    -0.08   0.06  -0.06     0.01   0.00  -0.02
     8   8     0.00  -0.09  -0.11     0.13   0.21   0.00    -0.08  -0.01   0.01
     9   6     0.11  -0.02   0.21    -0.03  -0.16   0.02    -0.09   0.08  -0.00
    10   6     0.07  -0.00   0.02    -0.23  -0.05   0.04     0.01   0.01  -0.01
    11   1     0.03   0.23   0.45    -0.09  -0.15   0.05    -0.07   0.04  -0.05
    12   1     0.31  -0.30   0.36    -0.13  -0.17   0.03    -0.10   0.12  -0.02
    13   1     0.00  -0.01  -0.30    -0.10   0.34   0.03    -0.06  -0.19   0.01
    14   1     0.36  -0.02   0.02    -0.48  -0.09   0.07     0.12   0.03  -0.02
    15   1    -0.16   0.01   0.11    -0.49  -0.11   0.09     0.14   0.04  -0.03
                     13                     14                     15
                      A                      A                      A
 Frequencies --    578.3219               608.8240               722.1541
 Red. masses --      1.8845                 6.5795                 1.3343
 Frc consts  --      0.3713                 1.4369                 0.4100
 IR Inten    --     47.4888                 7.6757                37.3859
  Atom  AN      X      Y      Z        X      Y      Z        X      Y      Z
     1   8     0.01  -0.04   0.01    -0.01   0.00  -0.00    -0.00  -0.00  -0.00
     2   1     0.21   0.84   0.08    -0.03  -0.23  -0.05    -0.01  -0.01   0.00
     3   6    -0.10   0.05   0.04    -0.21   0.10   0.07    -0.01   0.09  -0.12
     4   1    -0.04   0.07   0.18    -0.27   0.34  -0.40     0.01  -0.56   0.81
     5   6    -0.15   0.03  -0.10    -0.11  -0.06   0.44    -0.00  -0.04   0.07
     6   6    -0.01  -0.00   0.01    -0.03   0.05  -0.13    -0.00   0.01  -0.00
     7   8     0.02  -0.01   0.03     0.31  -0.12  -0.05     0.01  -0.01   0.00
     8   8     0.07   0.02  -0.02    -0.01   0.05  -0.21    -0.00  -0.00  -0.01
     9   6     0.11  -0.09  -0.01    -0.00  -0.01  -0.02    -0.00   0.00  -0.00
    10   6     0.00  -0.01   0.00    -0.01  -0.01   0.01    -0.00  -0.00   0.00
    11   1     0.06  -0.03   0.06    -0.13   0.15   0.16    -0.01   0.01   0.01
    12   1     0.11  -0.14   0.03     0.15  -0.19   0.08     0.00  -0.01   0.01
    13   1     0.07   0.21  -0.01     0.00   0.04  -0.01    -0.00  -0.01   0.00
    14   1    -0.13  -0.04   0.02    -0.04  -0.07   0.05     0.00  -0.01   0.00
    15   1    -0.15  -0.03   0.04    -0.03   0.04   0.06     0.01   0.01   0.00
                     16                     17                     18
                      A                      A                      A
 Frequencies --    752.9300               779.8755               799.6609
 Red. masses --      1.3289                 7.7970                 1.2022
 Frc consts  --      0.4439                 2.7940                 0.4529
 IR Inten    --     21.4841                52.4867                 4.9944
  Atom  AN      X      Y      Z        X      Y      Z        X      Y      Z
     1   8     0.00   0.01   0.00    -0.01  -0.02   0.00    -0.00  -0.00   0.00
     2   1     0.01  -0.02  -0.01     0.00   0.06   0.02     0.00   0.00  -0.00
     3   6    -0.08  -0.11  -0.07     0.00  -0.04  -0.02    -0.03   0.02   0.01
     4   1     0.53   0.68   0.47     0.29   0.40   0.14    -0.03   0.02   0.00
     5   6     0.04   0.05   0.03    -0.08  -0.18  -0.05    -0.02  -0.01   0.02
     6   6    -0.01  -0.03  -0.01     0.25   0.63   0.13     0.03   0.03  -0.03
     7   8     0.01   0.01  -0.00    -0.08  -0.18  -0.02     0.01  -0.00  -0.05
     8   8     0.00   0.01   0.00    -0.06  -0.17  -0.03    -0.01  -0.02   0.03
     9   6    -0.00   0.00   0.00    -0.02   0.01  -0.02     0.03  -0.02   0.07
    10   6    -0.00  -0.00   0.00    -0.01   0.02  -0.01     0.02   0.00   0.03
    11   1    -0.00  -0.01  -0.01     0.05   0.17   0.08    -0.08  -0.45  -0.25
    12   1    -0.01   0.01  -0.01     0.06  -0.14   0.06     0.02   0.46  -0.21
    13   1    -0.00   0.00  -0.00    -0.04  -0.12   0.04    -0.01   0.05  -0.18
    14   1     0.00   0.01  -0.00     0.05  -0.07   0.05     0.17   0.37  -0.20
    15   1    -0.01  -0.01  -0.00     0.17   0.13   0.02    -0.25  -0.35  -0.15
                     19                     20                     21
                      A                      A                      A
 Frequencies --    895.7982               928.2761              1076.9362
 Red. masses --      3.1286                 2.8506                 4.1574
 Frc consts  --      1.4792                 1.4472                 2.8409
 IR Inten    --     14.7067                 6.3903                20.9624
  Atom  AN      X      Y      Z        X      Y      Z        X      Y      Z
     1   8    -0.00  -0.00   0.00     0.00   0.00  -0.00     0.00   0.00   0.00
     2   1     0.01  -0.01  -0.01    -0.01   0.00   0.01     0.00   0.00   0.00
     3   6    -0.03   0.02   0.01     0.10  -0.06  -0.04     0.06  -0.03  -0.02
     4   1    -0.04   0.02  -0.01     0.11  -0.05  -0.04     0.06  -0.03  -0.05
     5   6    -0.01  -0.01   0.06     0.07  -0.01  -0.02     0.04  -0.01   0.02
     6   6     0.03   0.01  -0.10    -0.13   0.05   0.07    -0.14   0.07  -0.02
     7   8     0.00   0.03  -0.15     0.01  -0.03   0.14     0.02  -0.01   0.02
     8   8    -0.13  -0.02   0.23    -0.13   0.06  -0.13    -0.20   0.07   0.06
     9   6     0.05  -0.12  -0.02    -0.01  -0.10  -0.02     0.36   0.10  -0.08
    10   6     0.15   0.06  -0.07     0.17   0.05   0.00    -0.12  -0.17   0.02
    11   1     0.20  -0.06  -0.03    -0.42  -0.14   0.09     0.40   0.20  -0.02
    12   1    -0.33  -0.21   0.06     0.02  -0.11  -0.01     0.47   0.16  -0.11
    13   1     0.34   0.53   0.10     0.33   0.60  -0.13    -0.14  -0.23   0.01
    14   1    -0.27  -0.21   0.10    -0.10   0.18  -0.07    -0.15  -0.24   0.05
    15   1     0.05   0.28   0.14    -0.27  -0.11   0.03    -0.19  -0.27  -0.02
                     22                     23                     24
                      A                      A                      A
 Frequencies --   1127.4119              1203.0164              1293.1689
 Red. masses --      2.0992                 1.7751                 3.5293
 Frc consts  --      1.5721                 1.5136                 3.4773
 IR Inten    --     21.4792                 4.9523               560.7574
  Atom  AN      X      Y      Z        X      Y      Z        X      Y      Z
     1   8    -0.00  -0.00  -0.00     0.00   0.00  -0.00    -0.00  -0.00  -0.00
     2   1     0.00   0.00   0.00     0.00   0.00   0.00    -0.01  -0.03  -0.00
     3   6    -0.01   0.01   0.01     0.02  -0.01  -0.01    -0.07   0.03   0.03
     4   1    -0.02   0.01   0.01     0.02  -0.01  -0.01    -0.07   0.04   0.05
     5   6    -0.01   0.00  -0.00     0.01  -0.00  -0.00    -0.02   0.00  -0.00
     6   6     0.03  -0.01   0.00    -0.06   0.03  -0.00     0.34  -0.16   0.11
     7   8    -0.00  -0.00  -0.01     0.00  -0.01   0.04    -0.05   0.02   0.01
     8   8     0.05  -0.06  -0.02     0.00   0.01  -0.08    -0.16   0.07  -0.07
     9   6    -0.05   0.22   0.05     0.04  -0.03   0.18     0.11   0.01  -0.02
    10   6     0.06  -0.17  -0.04    -0.03   0.02  -0.13    -0.02   0.02  -0.06
    11   1    -0.06   0.14  -0.03     0.19  -0.42  -0.18    -0.77  -0.12   0.17
    12   1    -0.16   0.23   0.06    -0.17   0.41  -0.07     0.11   0.15  -0.09
    13   1     0.26   0.44  -0.01     0.02  -0.06   0.28    -0.02  -0.08   0.10
    14   1    -0.51  -0.24   0.02    -0.12  -0.39   0.13    -0.07  -0.23   0.09
    15   1    -0.43  -0.15   0.16     0.23   0.40   0.09     0.04   0.09  -0.01
                     25                     26                     27
                      A                      A                      A
 Frequencies --   1347.6386              1400.4814              1429.7312
 Red. masses --      1.2606                 1.2874                 1.3908
 Frc consts  --      1.3489                 1.4877                 1.6750
 IR Inten    --    112.1899                34.3077                 9.1687
  Atom  AN      X      Y      Z        X      Y      Z        X      Y      Z
     1   8     0.00   0.00   0.00    -0.00  -0.00  -0.00    -0.00  -0.00  -0.00
     2   1     0.00   0.01   0.00    -0.00  -0.00  -0.00    -0.00  -0.00   0.00
     3   6     0.01  -0.00  -0.00    -0.01   0.00   0.00    -0.01   0.00   0.00
     4   1     0.01  -0.01  -0.01    -0.01   0.01   0.01    -0.01   0.01   0.01
     5   6     0.00  -0.00   0.00    -0.00  -0.00  -0.00    -0.00  -0.00  -0.00
     6   6    -0.06   0.03  -0.03     0.05  -0.02   0.01     0.06  -0.02   0.01
     7   8     0.01   0.00  -0.02    -0.01   0.00   0.01    -0.01   0.00   0.01
     8   8     0.05  -0.02   0.08    -0.03   0.03  -0.02    -0.03   0.03  -0.02
     9   6    -0.04   0.00  -0.00    -0.05  -0.02   0.01    -0.11  -0.06   0.02
    10   6    -0.01  -0.01  -0.06    -0.06  -0.11   0.01     0.09   0.05  -0.01
    11   1    -0.54  -0.09   0.11     0.37   0.14  -0.01     0.54   0.16  -0.03
    12   1     0.77   0.10  -0.11     0.27   0.14  -0.10     0.49   0.17  -0.16
    13   1     0.03   0.04   0.06     0.16   0.51   0.00    -0.05  -0.31  -0.04
    14   1    -0.06  -0.10   0.00     0.29   0.29  -0.23    -0.35  -0.09   0.07
    15   1     0.09   0.17   0.05     0.34   0.26   0.14    -0.32  -0.09   0.03
                     28                     29                     30
                      A                      A                      A
 Frequencies --   1492.1747              1502.7744              1514.5594
 Red. masses --      1.0409                 1.0611                 1.0852
 Frc consts  --      1.3655                 1.4119                 1.4667
 IR Inten    --     10.4885                 1.9538                17.2268
  Atom  AN      X      Y      Z        X      Y      Z        X      Y      Z
     1   8     0.00  -0.00   0.00     0.00   0.00   0.00     0.00   0.00   0.00
     2   1    -0.00   0.00   0.00     0.00   0.00   0.00    -0.00   0.00   0.00
     3   6     0.00  -0.00  -0.00     0.00  -0.00  -0.00     0.00  -0.00  -0.00
     4   1     0.00  -0.00  -0.00     0.00  -0.00  -0.00     0.00  -0.00  -0.00
     5   6    -0.00   0.00   0.00    -0.00   0.00   0.00    -0.00   0.00   0.00
     6   6    -0.00   0.00   0.00    -0.02   0.00   0.00    -0.02   0.01   0.01
     7   8     0.00   0.00  -0.01     0.00   0.00  -0.01     0.01   0.00  -0.01
     8   8     0.00  -0.00   0.00     0.01  -0.01   0.00     0.01  -0.01   0.01
     9   6    -0.02  -0.01  -0.02    -0.01  -0.05   0.01     0.04  -0.05  -0.01
    10   6    -0.01   0.02  -0.04    -0.02   0.03   0.02     0.02  -0.03  -0.01
    11   1     0.04   0.12   0.06    -0.03   0.36   0.34    -0.15   0.31   0.35
    12   1     0.01   0.04  -0.05    -0.14   0.42  -0.26    -0.27   0.33  -0.22
    13   1     0.15   0.07   0.65     0.02   0.22  -0.21    -0.05  -0.26   0.10
    14   1     0.55  -0.15   0.06     0.03  -0.32   0.21    -0.13   0.35  -0.23
    15   1    -0.42  -0.16  -0.01     0.25  -0.28  -0.33    -0.19   0.32   0.34
                     31                     32                     33
                      A                      A                      A
 Frequencies --   1841.3094              2235.7683              3075.1503
 Red. masses --     11.9951                 5.8730                 1.0353
 Frc consts  --     23.9611                17.2966                 5.7685
 IR Inten    --    330.5235                61.0586                10.7126
  Atom  AN      X      Y      Z        X      Y      Z        X      Y      Z
     1   8     0.00   0.00  -0.00    -0.00  -0.00  -0.00    -0.00  -0.00   0.00
     2   1    -0.03   0.01   0.02    -0.00   0.00   0.00    -0.00   0.00  -0.00
     3   6     0.06  -0.03  -0.02    -0.32   0.17   0.12     0.00  -0.00  -0.00
     4   1     0.09  -0.05  -0.01    -0.62   0.34   0.23    -0.00   0.00   0.00
     5   6    -0.04   0.02  -0.00     0.46  -0.22  -0.16    -0.00   0.00   0.00
     6   6    -0.21  -0.06   0.76    -0.09   0.03   0.04     0.00  -0.00   0.00
     7   8     0.15   0.04  -0.49     0.00   0.00  -0.01     0.00   0.00  -0.00
     8   8    -0.01   0.02  -0.07    -0.00   0.00  -0.00    -0.00   0.00  -0.00
     9   6    -0.03   0.01   0.02     0.00  -0.00   0.00     0.00   0.00   0.00
    10   6     0.01  -0.01  -0.00    -0.00  -0.00  -0.00    -0.04  -0.04  -0.00
    11   1     0.15  -0.09  -0.12     0.00  -0.00   0.00     0.00  -0.01   0.01
    12   1     0.13  -0.07   0.08     0.00  -0.00   0.00    -0.00  -0.01  -0.02
    13   1     0.02   0.06  -0.04     0.00  -0.00  -0.00     0.57  -0.20  -0.11
    14   1    -0.04   0.01  -0.01    -0.00   0.00  -0.00    -0.00   0.30   0.51
    15   1     0.06   0.03   0.02     0.00   0.00   0.00    -0.15   0.31  -0.39
                     34                     35                     36
                      A                      A                      A
 Frequencies --   3108.6419              3150.2990              3154.8774
 Red. masses --      1.0609                 1.1014                 1.1047
 Frc consts  --      6.0403                 6.4399                 6.4785
 IR Inten    --     16.1385                15.1502                 1.9986
  Atom  AN      X      Y      Z        X      Y      Z        X      Y      Z
     1   8    -0.00  -0.00  -0.00     0.00  -0.00   0.00     0.00   0.00   0.00
     2   1     0.00  -0.00   0.00    -0.00   0.00  -0.00    -0.00   0.00  -0.00
     3   6    -0.00   0.00   0.00     0.00  -0.00  -0.00    -0.00  -0.00   0.00
     4   1     0.00  -0.00  -0.00    -0.00   0.00   0.00    -0.00   0.00   0.00
     5   6     0.00  -0.00  -0.00    -0.00   0.00   0.00    -0.00   0.00   0.00
     6   6    -0.00   0.00  -0.00     0.00  -0.00   0.00    -0.00   0.00   0.00
     7   8    -0.00   0.00   0.00     0.00   0.00  -0.00    -0.00  -0.00  -0.00
     8   8     0.00  -0.00   0.00     0.00  -0.00  -0.00     0.00   0.00  -0.00
     9   6     0.01  -0.06  -0.02    -0.01   0.01  -0.02     0.01  -0.01   0.05
    10   6    -0.01   0.01   0.01    -0.05   0.05   0.06    -0.05   0.04  -0.05
    11   1    -0.15   0.33  -0.42     0.08  -0.18   0.22    -0.11   0.26  -0.32
    12   1     0.04   0.41   0.71    -0.00   0.01   0.02    -0.02  -0.19  -0.31
    13   1     0.12  -0.05  -0.02     0.61  -0.21  -0.11     0.37  -0.13  -0.08
    14   1    -0.00  -0.03  -0.06    -0.01  -0.35  -0.59    -0.01   0.10   0.14
    15   1     0.01  -0.01   0.02    -0.02   0.02  -0.00     0.19  -0.42   0.53
                     37                     38                     39
                      A                      A                      A
 Frequencies --   3175.8302              3487.3153              3798.8360
 Red. masses --      1.1074                 1.1658                 1.0673
 Frc consts  --      6.5808                 8.3530                 9.0745
 IR Inten    --     14.8652                66.5167                37.2893
  Atom  AN      X      Y      Z        X      Y      Z        X      Y      Z
     1   8    -0.00  -0.00   0.00    -0.00  -0.00  -0.00    -0.04   0.01  -0.05
     2   1     0.00   0.00  -0.00     0.00   0.00   0.00     0.64  -0.21   0.74
     3   6     0.00  -0.00  -0.00    -0.10   0.05   0.04     0.00  -0.00  -0.00
     4   1    -0.00   0.00   0.00     0.84  -0.43  -0.32     0.00  -0.00  -0.00
     5   6    -0.00  -0.00   0.00     0.03  -0.01  -0.01     0.00   0.00   0.00
     6   6     0.00   0.00  -0.00    -0.00   0.00   0.00    -0.00   0.00   0.00
     7   8    -0.00   0.00   0.00     0.00  -0.00   0.00     0.00   0.00  -0.00
     8   8    -0.00  -0.00   0.00     0.00  -0.00  -0.00     0.00  -0.00   0.00
     9   6    -0.02   0.01  -0.07    -0.00   0.00  -0.00    -0.00   0.00   0.00
    10   6    -0.02   0.01  -0.05    -0.00  -0.00  -0.00     0.00  -0.00  -0.00
    11   1     0.17  -0.40   0.49     0.00  -0.00   0.00     0.00  -0.00   0.00
    12   1     0.03   0.23   0.37     0.00  -0.00  -0.00     0.00  -0.00  -0.00
    13   1     0.07  -0.02  -0.02     0.00  -0.00  -0.00     0.00  -0.00  -0.00
    14   1     0.00   0.19   0.30    -0.00   0.00   0.00    -0.00   0.00   0.00
    15   1     0.14  -0.30   0.37    -0.00  -0.00   0.00    -0.00  -0.00   0.00

 -------------------
 - Thermochemistry -
 -------------------
 Temperature   298.150 Kelvin.  Pressure   1.00000 Atm.
 Atom     1 has atomic number  8 and mass  15.99491
 Atom     2 has atomic number  1 and mass   1.00783
 Atom     3 has atomic number  6 and mass  12.00000
 Atom     4 has atomic number  1 and mass   1.00783
 Atom     5 has atomic number  6 and mass  12.00000
 Atom     6 has atomic number  6 and mass  12.00000
 Atom     7 has atomic number  8 and mass  15.99491
 Atom     8 has atomic number  8 and mass  15.99491
 Atom     9 has atomic number  6 and mass  12.00000
 Atom    10 has atomic number  6 and mass  12.00000
 Atom    11 has atomic number  1 and mass   1.00783
 Atom    12 has atomic number  1 and mass   1.00783
 Atom    13 has atomic number  1 and mass   1.00783
 Atom    14 has atomic number  1 and mass   1.00783
 Atom    15 has atomic number  1 and mass   1.00783
 Molecular mass:   115.03952 amu.
 Principal axes and moments of inertia in atomic units:
                           1         2         3
     Eigenvalues --   467.508321554.245681644.92276
           X            0.99998  -0.00379   0.00552
           Y            0.00334   0.99681   0.07977
           Z           -0.00580  -0.07975   0.99680
 This molecule is an asymmetric top.
 Rotational symmetry number  1.
 Warning -- assumption of classical behavior for rotation
           may cause significant error
 Rotational temperatures (Kelvin)      0.18527     0.05573     0.05266
 Rotational constants (GHZ):           3.86034     1.16117     1.09716
    1 imaginary frequencies ignored.
 Zero-point vibrational energy     293693.0 (Joules/Mol)
                                   70.19432 (Kcal/Mol)
 Warning -- explicit consideration of  13 degrees of freedom as
           vibrations may cause significant error
 Vibrational temperatures:     67.19   152.68   163.81   227.96   275.03
          (Kelvin)            292.27   329.35   383.24   486.83   604.44
                              786.62   832.08   875.96  1039.02  1083.30
                             1122.07  1150.53  1288.85  1335.58  1549.47
                             1622.09  1730.87  1860.58  1938.95  2014.98
                             2057.06  2146.91  2162.16  2179.11  2649.23
                             3216.77  4424.46  4472.64  4532.58  4539.16
                             4569.31  5017.47  5465.68
 
 Zero-point correction=                           0.111862 (Hartree/Particle)
 Thermal correction to Energy=                    0.121472
 Thermal correction to Enthalpy=                  0.122416
 Thermal correction to Gibbs Free Energy=         0.076292
 Sum of electronic and zero-point Energies=           -420.094047
 Sum of electronic and thermal Energies=              -420.084437
 Sum of electronic and thermal Enthalpies=            -420.083493
 Sum of electronic and thermal Free Energies=         -420.129617
 
                     E (Thermal)             CV                S
                      KCal/Mol        Cal/Mol-Kelvin    Cal/Mol-Kelvin
 Total                   76.225             32.511             97.076
 Electronic               0.000              0.000              1.377
 Translational            0.889              2.981             40.136
 Rotational               0.889              2.981             28.571
 Vibrational             74.447             26.549             26.992
 Vibration     1          0.595              1.979              4.953
 Vibration     2          0.605              1.944              3.339
 Vibration     3          0.607              1.938              3.202
 Vibration     4          0.621              1.893              2.568
 Vibration     5          0.634              1.852              2.217
 Vibration     6          0.639              1.835              2.105
 Vibration     7          0.652              1.797              1.887
 Vibration     8          0.672              1.735              1.620
 Vibration     9          0.719              1.599              1.220
 Vibration    10          0.783              1.427              0.892
 Vibration    11          0.902              1.147              0.551
 Vibration    12          0.935              1.078              0.488
 Vibration    13          0.968              1.013              0.435
                       Q            Log10(Q)             Ln(Q)
 Total Bot       0.809190D-35        -35.091949        -80.802199
 Total V=0       0.229533D+17         16.360844         37.672236
 Vib (Bot)       0.213169D-48        -48.671277       -112.069756
 Vib (Bot)    1  0.442831D+01          0.646238          1.488018
 Vib (Bot)    2  0.193162D+01          0.285921          0.658357
 Vib (Bot)    3  0.179745D+01          0.254656          0.586367
 Vib (Bot)    4  0.127658D+01          0.106049          0.244186
 Vib (Bot)    5  0.104655D+01          0.019760          0.045499
 Vib (Bot)    6  0.980397D+00         -0.008598         -0.019798
 Vib (Bot)    7  0.860831D+00         -0.065082         -0.149857
 Vib (Bot)    8  0.726890D+00         -0.138531         -0.318980
 Vib (Bot)    9  0.549337D+00         -0.260161         -0.599043
 Vib (Bot)   10  0.417926D+00         -0.378900         -0.872450
 Vib (Bot)   11  0.287937D+00         -0.540702         -1.245013
 Vib (Bot)   12  0.263932D+00         -0.578507         -1.332062
 Vib (Bot)   13  0.243030D+00         -0.614339         -1.414569
 Vib (V=0)       0.604668D+03          2.781517          6.404679
 Vib (V=0)    1  0.495645D+01          0.695171          1.600690
 Vib (V=0)    2  0.249528D+01          0.397119          0.914400
 Vib (V=0)    3  0.236569D+01          0.373959          0.861072
 Vib (V=0)    4  0.187101D+01          0.272075          0.626477
 Vib (V=0)    5  0.165986D+01          0.220070          0.506731
 Vib (V=0)    6  0.160054D+01          0.204265          0.470338
 Vib (V=0)    7  0.149550D+01          0.174788          0.402464
 Vib (V=0)    8  0.138225D+01          0.140587          0.323714
 Vib (V=0)    9  0.124281D+01          0.094406          0.217377
 Vib (V=0)   10  0.115166D+01          0.061325          0.141205
 Vib (V=0)   11  0.107698D+01          0.032208          0.074162
 Vib (V=0)   12  0.106539D+01          0.027507          0.063336
 Vib (V=0)   13  0.105594D+01          0.023637          0.054427
 Electronic      0.200000D+01          0.301030          0.693147
 Translational   0.484981D+08          7.685724         17.697035
 Rotational      0.391357D+06          5.592573         12.877375
 ***** Axes restored to original set *****
 -------------------------------------------------------------------
 Center     Atomic                   Forces (Hartrees/Bohr)
 Number     Number              X              Y              Z
 -------------------------------------------------------------------
      1        8           0.003758517    0.009857186    0.000862586
      2        1          -0.000156410    0.000173690    0.000014600
      3        6           0.000634261   -0.000616670   -0.000427583
      4        1           0.000204147    0.000370494    0.000021549
      5        6          -0.003620406   -0.009080908   -0.000917388
      6        6          -0.000978620   -0.002400211   -0.000164226
      7        8          -0.000142120    0.001256096    0.000392732
      8        8          -0.000030522   -0.000253255    0.000084482
      9        6           0.000129363    0.000348956    0.000102979
     10        6           0.000128164    0.000246964    0.000013808
     11        1           0.000019680    0.000019716    0.000004279
     12        1           0.000015866    0.000026277    0.000007318
     13        1           0.000007286    0.000011137   -0.000001643
     14        1           0.000019540    0.000020872    0.000001321
     15        1           0.000011254    0.000019656    0.000005186
 -------------------------------------------------------------------
 Cartesian Forces:  Max     0.009857186 RMS     0.002203261

 GradGradGradGradGradGradGradGradGradGradGradGradGradGradGradGradGradGrad
 Berny optimization.
 Search for a local minimum.
 Step number   1 out of a maximum of    2
 All quantities printed in internal units (Hartrees-Bohrs-Radians)
 Second derivative matrix not updated -- analytic derivatives used.
 ITU=  0
     Eigenvalues ---   -0.00032   0.00028   0.00147   0.00222   0.00284
     Eigenvalues ---    0.00376   0.00554   0.00934   0.01668   0.02161
     Eigenvalues ---    0.02562   0.03194   0.03433   0.05227   0.06295
     Eigenvalues ---    0.07617   0.08171   0.08366   0.09665   0.10256
     Eigenvalues ---    0.11370   0.14173   0.17095   0.17415   0.19956
     Eigenvalues ---    0.28769   0.29807   0.43785   0.49376   0.62897
     Eigenvalues ---    0.71005   0.76478   0.78757   0.86524   0.89944
     Eigenvalues ---    0.92582   0.97210   1.72824   2.66332
 Eigenvalue     1 is  -3.22D-04 should be greater than     0.000000 Eigenvector:
                          Z2        Z1        X1        Y2        Y7
   1                    0.50771   0.30293   0.26954  -0.26749   0.23845
                          Y14       Z14       Z15       Z12       Z11
   1                   -0.21524   0.20058   0.19920  -0.18188  -0.17879
 Quadratic step=3.276D+00 exceeds max=3.000D-01 adjusted using Lamda=-2.552D-02.
 Angle between NR and scaled steps=  71.27 degrees.
 Angle between quadratic step and forces=  10.56 degrees.
 Linear search not attempted -- first point.
 B after Tr=    -0.001027   -0.000066   -0.000691
         Rot=    1.000000    0.000387   -0.000116   -0.000040 Ang=   0.05 deg.
 Variable       Old X    -DE/DX   Delta X   Delta X   Delta X     New X
                                 (Linear)    (Quad)   (Total)
    X1        4.17739   0.00376   0.00000   0.07183   0.07056   4.24795
    Y1        2.71686   0.00986   0.00000   0.19944   0.19967   2.91654
    Z1       -0.06657   0.00086   0.00000   0.01827   0.01434  -0.05223
    X2        5.35262  -0.00016   0.00000   0.00772   0.00681   5.35943
    Y2        2.34120   0.00017   0.00000   0.01904   0.02042   2.36162
    Z2        1.29272   0.00001   0.00000   0.02407   0.02031   1.31303
    X3        4.64472   0.00063   0.00000  -0.00365  -0.00473   4.64000
    Y3       -2.28387  -0.00062   0.00000  -0.03354  -0.03402  -2.31790
    Z3       -1.00181  -0.00043   0.00000  -0.01311  -0.01309  -1.01490
    X4        6.34047   0.00020   0.00000   0.02464   0.02348   6.36394
    Y4       -3.15794   0.00037   0.00000   0.01877   0.01793  -3.14001
    Z4       -1.64305   0.00002   0.00000  -0.00621  -0.00596  -1.64900
    X5        2.74380  -0.00362   0.00000  -0.07377  -0.07476   2.66904
    Y5       -1.24805  -0.00908   0.00000  -0.17608  -0.17619  -1.42423
    Z5       -0.31143  -0.00092   0.00000  -0.01932  -0.01953  -0.33096
    X6        0.28921  -0.00098   0.00000  -0.01874  -0.01959   0.26962
    Y6       -0.38738  -0.00240   0.00000  -0.05234  -0.05191  -0.43929
    Z6        0.62161  -0.00016   0.00000  -0.00453  -0.00495   0.61666
    X7       -0.33510  -0.00014   0.00000   0.00082   0.00049  -0.33461
    Y7       -0.57119   0.00126   0.00000   0.02296   0.02503  -0.54616
    Z7        2.79258   0.00039   0.00000   0.00877   0.00858   2.80116
    X8       -1.11969  -0.00003   0.00000  -0.00617  -0.00753  -1.12721
    Y8        0.51777  -0.00025   0.00000  -0.02384  -0.02497   0.49280
    Z8       -1.24599   0.00008   0.00000  -0.00208  -0.00290  -1.24888
    X9       -3.63260   0.00013   0.00000   0.00353   0.00227  -3.63033
    Y9        1.32388   0.00035   0.00000   0.00242   0.00163   1.32551
    Z9       -0.56673   0.00010   0.00000   0.00050  -0.00037  -0.56710
   X10       -5.40796   0.00013   0.00000  -0.00217  -0.00321  -5.41117
   Y10       -0.91627   0.00025   0.00000   0.00651   0.00574  -0.91053
   Z10       -0.35628   0.00001   0.00000   0.00037   0.00164  -0.35464
   X11       -4.17965   0.00002   0.00000   0.00812   0.00640  -4.17325
   Y11        2.58944   0.00002   0.00000   0.00317   0.00115   2.59059
   Z11       -2.09287   0.00000   0.00000  -0.00035  -0.00207  -2.09494
   X12       -3.53114   0.00002   0.00000   0.00894   0.00800  -3.52314
   Y12        2.37975   0.00003   0.00000   0.00194   0.00252   2.38227
   Z12        1.19993   0.00001   0.00000   0.00009  -0.00162   1.19831
   X13       -7.32211   0.00001   0.00000  -0.00220  -0.00320  -7.32532
   Y13       -0.24669   0.00001   0.00000   0.00485   0.00422  -0.24247
   Z13        0.02324  -0.00000   0.00000   0.00077   0.00197   0.02521
   X14       -5.42806   0.00002   0.00000  -0.00064  -0.00200  -5.43006
   Y14       -1.98664   0.00002   0.00000   0.00624   0.00411  -1.98253
   Z14       -2.11831   0.00000   0.00000   0.00024   0.00235  -2.11597
   X15       -4.83601   0.00001   0.00000  -0.00241  -0.00299  -4.83901
   Y15       -2.15660   0.00002   0.00000   0.00420   0.00467  -2.15193
   Z15        1.18602   0.00001   0.00000  -0.00079   0.00131   1.18733
         Item               Value     Threshold  Converged?
 Maximum Force            0.009857     0.000450     NO 
 RMS     Force            0.002203     0.000300     NO 
 Maximum Displacement     0.199671     0.001800     NO 
 RMS     Displacement     0.044710     0.001200     NO 
 Predicted change in Energy=-3.328819D-03
 GradGradGradGradGradGradGradGradGradGradGradGradGradGradGradGradGradGrad


 ----------------------------------------------------------------------

 Electric dipole moment (input orientation):
 (Debye = 10**-18 statcoulomb cm , SI units = C m)
                  (au)            (Debye)         (10**-30 SI)
   Tot        0.379747D+00      0.965220D+00      0.321963D+01
   x          0.107784D+00      0.273959D+00      0.913829D+00
   y         -0.240481D+00     -0.611242D+00     -0.203889D+01
   z         -0.273421D+00     -0.694967D+00     -0.231816D+01

 Dipole polarizability, Alpha (input orientation).
 (esu units = cm**3 , SI units = C**2 m**2 J**-1)
 Alpha(0;0):
               (au)            (10**-24 esu)      (10**-40 SI)
   iso        0.719460D+02      0.106613D+02      0.118623D+02
   aniso      0.287241D+02      0.425647D+01      0.473597D+01
   xx         0.869854D+02      0.128899D+02      0.143420D+02
   yx        -0.779613D+01     -0.115527D+01     -0.128541D+01
   yy         0.686557D+02      0.101737D+02      0.113198D+02
   zx        -0.405326D+01     -0.600632D+00     -0.668293D+00
   zy         0.320783D+01      0.475352D+00      0.528900D+00
   zz         0.601968D+02      0.892025D+01      0.992512D+01

 ----------------------------------------------------------------------

 Dipole orientation:
     8          4.24675125         -2.56210735         -0.48690233
     1          5.71348310         -1.53605163         -0.89413738
     6          3.90416800          0.63158979          3.48593159
     1          5.24714878          0.71858787          4.98244851
     6          2.39647910          0.47311054          1.79335609
     6          0.41161574          0.66048295         -0.12016094
     8          0.41352703          2.24147763         -1.74407662
     8         -1.36678649         -1.06908425          0.25143200
     6         -3.48496943         -0.99449495         -1.46136438
     6         -5.35154413          1.04214553         -0.69817957
     1         -4.30731312         -2.87427189         -1.31923677
     1         -2.77649673         -0.69602426         -3.37322450
     1         -6.99835246          0.96905039         -1.93875156
     1         -5.98267031          0.74921755          1.24262611
     1         -4.49824539          2.91020647         -0.86084934

 Electric dipole moment (dipole orientation):
 (Debye = 10**-18 statcoulomb cm , SI units = C m)
                  (au)            (Debye)         (10**-30 SI)
   Tot        0.379747D+00      0.965220D+00      0.321963D+01
   x          0.000000D+00      0.000000D+00      0.000000D+00
   y          0.000000D+00      0.000000D+00      0.000000D+00
   z          0.379747D+00      0.965220D+00      0.321963D+01

 Dipole polarizability, Alpha (dipole orientation).
 (esu units = cm**3 , SI units = C**2 m**2 J**-1)
 Alpha(0;0):
               (au)            (10**-24 esu)      (10**-40 SI)
   iso        0.719460D+02      0.106613D+02      0.118623D+02
   aniso      0.287241D+02      0.425647D+01      0.473597D+01
   xx         0.810713D+02      0.120135D+02      0.133668D+02
   yx        -0.374863D+00     -0.555490D-01     -0.618066D-01
   yy         0.616351D+02      0.913337D+01      0.101622D+02
   zx         0.127993D+02      0.189666D+01      0.211032D+01
   zy         0.394541D+01      0.584649D+00      0.650510D+00
   zz         0.731317D+02      0.108370D+02      0.120578D+02

 ----------------------------------------------------------------------
 1\1\GINC-AJ\Freq\UM062X\6-311++G(d,p)\C5H7O3(2)\AAYUSH\23-Jun-2025\0\\
 # freq 6-311++g(d,p) m062x\\Title Card Required\\0,2\O,2.210579,1.4377
 03,-0.035226\H,2.832482,1.23891,0.684076\C,2.457881,-1.208574,-0.53013
 7\H,3.355231,-1.671111,-0.869463\C,1.451959,-0.660437,-0.164803\C,0.15
 3044,-0.204993,0.328941\O,-0.177326,-0.302259,1.477768\O,-0.592513,0.2
 73992,-0.659347\C,-1.922289,0.700567,-0.299899\C,-2.861771,-0.484867,-
 0.188535\H,-2.211776,1.370272,-1.107498\H,-1.868601,1.259311,0.634974\
 H,-3.874696,-0.130543,0.012298\H,-2.872405,-1.051283,-1.120962\H,-2.55
 9108,-1.141222,0.627614\\Version=ES64L-G16RevA.03\State=2-A\HF=-420.20
 59087\S2=0.758563\S2-1=0.\S2A=0.750044\RMSD=7.502e-09\RMSF=2.203e-03\Z
 eroPoint=0.1118618\Thermal=0.1214718\Dipole=0.1077837,-0.2404813,-0.27
 3421\DipoleDeriv=-0.3283823,-0.0474555,0.0829044,0.0530729,-0.0689722,
 0.0281603,0.0730105,-0.0540171,-0.2475737,0.2660278,0.0928223,-0.05072
 56,0.0526939,0.3041125,0.0330195,-0.0457635,0.0869385,0.2272638,-0.376
 1504,-0.1384753,0.0148713,0.0655821,-0.0957084,-0.0027969,0.0268507,0.
 0605432,-0.1348423,0.2478569,-0.0388808,-0.0169803,-0.0315641,0.221641
 4,0.0049816,-0.0107452,0.0058016,0.2259762,-0.3867533,0.2052911,0.0962
 634,0.0194794,-0.4933156,-0.109141,0.0964719,-0.1182762,-0.1648013,2.0
 682113,-0.351226,-0.0208975,-0.6621847,0.6334293,-0.2236191,0.3338016,
 -0.3388371,1.7213743,-0.8093137,0.0477929,0.2355786,0.1441936,-0.39187
 36,0.0492405,0.0346069,0.1478462,-1.1378318,-1.5749761,0.3098245,-0.32
 0208,0.5070011,-0.4667897,0.2291812,-0.4355876,0.2000237,-0.7975415,0.
 9934133,-0.1053323,0.0504704,-0.1363741,0.3700095,-0.0631059,-0.087699
 ,0.0125124,0.2464778,-0.0912986,-0.0189125,-0.0166516,-0.0506564,-0.06
 58273,0.0582538,0.015722,0.0148171,0.0458359,-0.0211216,0.0091992,-0.0
 090279,0.0316388,-0.0089937,0.0674051,-0.0330284,0.1015923,-0.0102895,
 -0.0296105,-0.0301176,-0.0472038,-0.0040116,0.0057451,-0.0317029,0.036
 2843,-0.0918144,-0.0093917,-0.1114877,0.0414735,0.0213612,0.0513831,0.
 0459969,-0.025338,0.0325875,-0.0136449,0.0895791,0.0717069,-0.0058907,
 0.0301087,-0.0399522,0.0095306,-0.0566218,-0.0108858,-0.0839198,-0.055
 3027,0.081878,0.0298872,-0.0498633,-0.0003017,0.0010151,0.0420836,-0.0
 25626,0.0704347,0.0010673\Polar=86.9853948,-7.7961302,68.6557436,-4.05
 32648,3.2078331,60.1968404\Quadrupole=8.7033476,-2.3104733,-6.3928743,
 -3.8679669,1.8976722,2.8969048\PG=C01 [X(C5H7O3)]\NImag=1\\0.21742846,
 -0.06280299,0.04335515,0.24596848,-0.07940502,0.28477467,-0.21232018,0
 .06571707,-0.24404513,0.21372105,0.07141983,-0.02985299,0.08274846,-0.
 06693903,0.03336439,-0.24525393,0.07745810,-0.28413832,0.24456173,-0.0
 7873898,0.28349731,0.00342169,0.01133097,-0.00045698,0.00060633,-0.001
 27197,0.00086500,1.10422527,-0.00351474,-0.01522816,-0.00161966,0.0004
 1917,-0.00060686,-0.00029853,-0.55098215,0.35130598,-0.00179381,-0.004
 86458,0.00037743,0.00026409,-0.00068466,-0.00034387,-0.38439787,0.2046
 7558,0.19613144,-0.00013505,-0.00022751,0.00001755,0.00031101,0.000171
 88,0.00001023,-0.30973414,0.14595724,0.10631373,0.29914563,-0.00016773
 ,0.00022160,0.00018863,0.00029945,-0.00016617,-0.00030417,0.14260321,-
 0.10112794,-0.05476891,-0.14554235,0.09165018,0.00010535,-0.00002920,-
 0.00001538,0.00006499,-0.00017033,-0.00009521,0.10664582,-0.05612144,-
 0.06626062,-0.10643579,0.05566375,0.05637359,-0.00293337,-0.00903758,-
 0.00247148,-0.00133142,-0.00245169,0.00087939,-0.80272050,0.41180823,0
 .27901763,0.00931591,0.00166828,-0.00209773,1.08334677,0.00004431,0.00
 685958,-0.00221285,0.00097431,-0.00270162,0.00180383,0.39201560,-0.235
 57745,-0.14118229,-0.00179670,0.00639631,0.00184657,-0.49024743,0.2893
 4136,-0.00059452,0.00613934,-0.00008661,0.00010196,-0.00347144,0.00022
 989,0.27751384,-0.14739424,-0.13466547,-0.00133631,0.00002753,0.004976
 13,-0.35251180,0.16137934,0.23532676,-0.00550043,-0.00615399,0.0018735
 0,-0.00189270,-0.00223112,-0.00260919,0.01421907,-0.00856827,-0.002209
 53,0.00060130,0.00198786,0.00215974,-0.22514735,0.06792585,0.05743041,
 0.60640027,-0.00267381,-0.00558283,0.00017816,0.00004110,0.00080746,0.
 00055730,0.00379046,0.00143691,-0.00253463,0.00248958,0.00390570,-0.00
 110338,0.05386201,-0.08613000,-0.02137829,-0.13187878,0.28330067,0.003
 34915,0.00168293,-0.00427214,-0.00299953,0.00024534,0.00266152,-0.0011
 3570,0.00171258,0.00325838,0.00150146,-0.00047881,0.00493972,0.0438061
 8,-0.02205942,-0.07462879,-0.14642963,-0.08758976,0.96836755,0.0000847
 3,0.00027457,-0.00010677,0.00045450,0.00081340,0.00063172,-0.00460836,
 0.00226985,0.00055471,-0.00005758,-0.00015769,-0.00154135,-0.01533512,
 0.00391201,0.04811610,-0.16377883,-0.00470248,0.19249470,0.15527995,-0
 .00111563,0.00018223,0.00099880,0.00032583,-0.00033964,-0.00038965,0.0
 0088531,-0.00002492,-0.00011609,-0.00048180,-0.00063663,0.00033124,0.0
 0777493,0.01883523,-0.00850479,-0.00240583,-0.08784386,0.04293585,-0.0
 0731853,0.05273779,-0.00135809,-0.00115232,0.00275994,0.00124898,-0.00
 018407,-0.00183523,0.00121747,-0.00105874,0.00113750,-0.00006263,-0.00
 025498,0.00056107,0.04103019,-0.00362306,-0.03703166,0.18340669,0.0497
 1443,-0.69992640,-0.20790794,-0.07362668,0.83412082,-0.00082699,0.0007
 7970,-0.00089927,0.00055918,0.00066626,0.00102633,-0.00618117,0.002875
 86,0.00246913,0.00076590,-0.00071298,0.00098296,-0.04647321,0.02563736
 ,-0.02683453,-0.17965417,0.05780116,-0.08583896,0.02866616,0.00786776,
 -0.02716416,0.45239051,-0.00129118,-0.00041535,-0.00071202,-0.00088183
 ,-0.00051842,-0.00014895,0.00214134,-0.00025457,-0.00064612,-0.0004848
 9,-0.00002729,-0.00031465,0.02401589,-0.00070818,0.01069712,0.05663351
 ,-0.09999607,0.06251543,0.00667388,0.02072372,0.03498814,-0.15045920,0
 .15846984,-0.00060203,0.00002229,0.00076662,0.00083366,0.00020366,-0.0
 0008453,0.00049508,-0.00027845,-0.00028069,-0.00002991,0.00000059,-0.0
 0066377,-0.00486682,0.00172067,0.00863025,-0.06403616,0.05227750,-0.21
 353654,-0.02714120,0.03629697,-0.09736646,0.06216741,-0.08429283,0.400
 41239,0.00088372,0.00016027,0.00031980,-0.00015997,-0.00035927,-0.0002
 8758,0.00184429,-0.00064122,-0.00059473,-0.00033375,0.00011029,0.00004
 546,0.00305857,0.00058545,-0.00039017,-0.04582173,0.02554144,-0.026843
 68,-0.00055821,-0.00516143,0.01851264,-0.16213294,0.03535780,0.0257738
 7,0.44044706,-0.00007761,0.00039875,-0.00025057,0.00003132,0.00004835,
 0.00012733,-0.00084570,0.00009412,0.00012560,-0.00005062,-0.00024765,-
 0.00008940,0.00282358,0.00415333,0.00231970,0.02523422,-0.01279495,0.0
 1093586,0.00047570,-0.00445251,-0.00772309,0.03187881,-0.07712871,-0.0
 0702090,-0.00984341,0.56161119,0.00024234,0.00018781,-0.00027027,-0.00
 006095,0.00008783,0.00014510,-0.00090715,0.00042185,0.00072581,0.00003
 436,-0.00007546,0.00020775,-0.00350063,0.00285117,-0.00306277,-0.02813
 330,0.00794009,0.01951501,-0.00032108,0.00038567,-0.00541777,0.0470158
 5,-0.01375106,-0.10533494,0.05387878,-0.01591244,0.64390659,-0.0000860
 1,0.00011124,-0.00009827,0.00001846,0.00004818,0.00007170,-0.00044807,
 0.00013837,0.00011250,0.00002264,-0.00009291,0.00001197,-0.00006046,0.
 00133937,-0.00004433,0.00108410,-0.00432356,0.00619866,-0.00022292,-0.
 00079468,-0.00254912,-0.04495716,-0.02142867,0.00417132,-0.11293657,-0
 .05679972,0.00103876,0.54636165,0.00011658,0.00002698,0.00006844,0.000
 00417,-0.00002831,-0.00004552,0.00033146,-0.00006230,-0.00007410,-0.00
 000482,0.00005637,-0.00000031,-0.00043431,-0.00069614,0.00011993,-0.00
 011005,0.00315055,-0.00615102,-0.00185985,-0.00082315,0.00231520,0.012
 77107,0.01232167,0.00177309,-0.06875159,-0.17667972,0.00785467,-0.0490
 6015,0.53263743,0.00001685,-0.00001414,0.00003896,-0.00000262,-0.00003
 009,-0.00002070,0.00014963,-0.00006127,-0.00006651,-0.00000285,0.00002
 016,0.00001108,0.00006350,-0.00038273,-0.00003924,-0.00188810,-0.00023
 371,-0.00006887,0.00109212,0.00084267,0.00090886,0.01096946,0.00473003
 ,0.00110809,-0.00011511,0.00628883,-0.08528538,0.00531077,0.00448284,0
 .58815214,-0.00003519,-0.00006341,0.00002229,0.00006484,0.00008705,0.0
 0005233,-0.00048732,0.00015616,0.00024374,0.00005966,-0.00000471,0.000
 04597,-0.00116411,0.00019154,-0.00108471,-0.00288363,0.00204322,0.0056
 4222,0.00098423,-0.00012186,-0.00134918,-0.02682385,0.02557167,-0.0264
 4410,-0.06059938,0.03708989,-0.04749478,0.00726361,-0.01369550,0.01706
 627,0.08402326,0.00003684,0.00001846,0.00001191,-0.00000329,-0.0000150
 9,-0.00001308,0.00011658,-0.00005828,-0.00002778,-0.00002132,0.0000004
 5,-0.00001210,0.00046664,0.00000643,0.00026793,0.00004531,0.00005832,-
 0.00382710,-0.00113617,0.00074096,0.00066566,0.01006917,-0.00697539,0.
 00827567,0.04246537,-0.15203538,0.12261955,0.00512884,-0.01585096,0.02
 019181,-0.04897994,0.16319321,-0.00001915,0.00000200,0.00001288,0.0000
 2158,0.00002237,0.00000666,-0.00001261,-0.00000707,-0.00005745,-0.0000
 0706,-0.00002360,-0.00002364,0.00044195,0.00009926,0.00040361,0.002346
 55,-0.00068742,-0.00264392,-0.00187257,0.00079240,0.00143842,0.0067834
 5,-0.00883984,0.00944060,-0.05865096,0.12813272,-0.21276525,0.00029050
 ,-0.00079064,0.00042335,0.05608590,-0.13592779,0.21914719,0.00003955,-
 0.00010700,-0.00011571,-0.00002276,0.00006999,0.00006724,-0.00013687,0
 .00003761,0.00000770,0.00005329,0.00001635,0.00000820,-0.00047293,-0.0
 0075155,-0.00028698,0.00266163,-0.00076167,0.00769885,-0.00000979,0.00
 071266,-0.00331647,-0.01580336,0.02500368,0.03128663,-0.05069456,-0.01
 286356,-0.02374461,0.00015012,-0.01124235,-0.01899455,0.00086369,-0.00
 513935,-0.00633262,0.06477563,0.00004848,-0.00000106,0.00004362,0.0000
 3388,0.00002152,-0.00001537,-0.00008698,0.00006678,0.00005930,-0.00001
 665,-0.00001307,-0.00002833,0.00004858,0.00008001,0.00029449,0.0000492
 5,0.00147849,-0.00570026,-0.00141240,-0.00015232,0.00243164,0.00756380
 ,-0.00718195,-0.00795626,-0.00820339,-0.11938798,-0.11299294,-0.003023
 44,-0.01298530,-0.02248989,0.00017340,0.01242088,0.01707031,0.00732776
 ,0.12742322,-0.00002496,-0.00002171,0.00002978,-0.00001494,-0.00004834
 ,-0.00002799,0.00016965,-0.00000589,0.00000098,-0.00000306,0.00001785,
 0.00000473,0.00010779,-0.00046871,-0.00018823,-0.00258268,0.00198663,-
 0.00152694,-0.00179320,0.00151479,0.00041844,0.00891920,-0.00479432,-0
 .00487659,-0.01412057,-0.11918751,-0.25287342,-0.00060528,0.00311591,0
 .00505943,-0.00195504,-0.01156152,-0.01735718,0.01203142,0.12856821,0.
 26980360,-0.00007474,0.00000157,-0.00002816,0.00002269,0.00003540,0.00
 003392,-0.00019653,0.00005766,0.00003573,0.00002490,-0.00003015,-0.000
 00664,-0.00004044,0.00027281,0.00003654,0.00161926,-0.00110510,0.00231
 212,-0.00005755,-0.00010058,-0.00096906,-0.00436948,-0.00352663,-0.000
 86237,-0.01665266,0.01064887,0.00319081,-0.28039678,0.08163053,0.04629
 514,0.00055160,-0.00011589,0.00041411,0.00036234,-0.00008073,-0.000609
 13,0.30438571,-0.00002184,0.00000518,-0.00002979,-0.00000799,0.0000070
 7,0.00001254,-0.00011540,0.00006329,0.00005212,-0.00000386,-0.00002848
 ,0.00000869,-0.00006311,0.00031462,-0.00016638,0.00016453,-0.00149378,
 0.00286937,0.00054961,0.00032963,-0.00115858,-0.00813436,-0.00297787,-
 0.00016232,-0.02147680,0.01152289,0.00462480,0.08374610,-0.07751324,-0
 .01692357,0.00094685,0.00079269,0.00050470,0.00079741,0.00076563,-0.00
 074561,-0.08899502,0.08028448,-0.00000058,0.,0.00000758,0.00000374,0.0
 0000268,-0.00000069,-0.00003233,0.00000351,0.00000913,-0.00000470,-0.0
 0000186,-0.00000302,0.00007472,0.00007915,0.00005819,0.00009624,0.0006
 1393,-0.00135571,-0.00062546,-0.00050073,0.00038557,0.00129106,0.00029
 326,0.00148206,0.00132899,-0.00121370,-0.00252994,0.04615947,-0.016238
 66,-0.05471598,-0.00014342,-0.00005754,-0.00005991,0.00007603,0.000092
 71,0.00001103,-0.05124537,0.01781914,0.05504219,-0.00000266,-0.0000067
 3,0.00002775,0.00000020,-0.00001711,-0.00002461,0.00001703,0.00000054,
 0.00001456,-0.00001736,0.00000501,-0.00000753,0.00001134,0.00002742,0.
 00000965,-0.00052715,0.00043561,-0.00158870,-0.00042829,-0.00010348,0.
 00070036,0.00303118,0.00084760,0.00010958,-0.00233230,-0.01267598,-0.0
 1950277,-0.04634760,0.00119324,-0.00056074,0.00058109,0.00093136,0.000
 38804,-0.00229317,-0.00350268,0.00070672,0.00197427,0.01534580,0.02651
 021,0.04730004,-0.00003122,0.00000019,0.00002681,0.00001449,-0.0000023
 6,-0.00000719,-0.00002619,0.00001146,0.00001467,0.00000789,0.00000176,
 -0.00000356,-0.00006457,-0.00004587,-0.00006213,-0.00005840,0.00004019
 ,0.00007311,0.00030354,0.00020650,0.00004513,0.00160616,0.00219042,0.0
 0102137,0.00057438,-0.01640924,-0.02538612,-0.00081363,-0.11855820,-0.
 11776359,0.00066649,0.00068508,0.00008636,-0.00371405,-0.00328041,0.00
 166285,-0.00064902,-0.00576004,-0.00761262,0.00331383,0.12912633,-0.00
 002683,-0.00001331,0.00001558,0.00001021,-0.00000231,-0.00000982,-0.00
 005433,0.00004575,0.00001701,-0.00000515,-0.00001484,-0.00000746,-0.00
 002769,0.00010970,0.00009755,0.00014574,-0.00025151,-0.00081102,-0.000
 57822,-0.00020517,0.00037817,-0.00107336,0.00051845,0.00048285,0.00051
 443,0.00248938,0.00377902,-0.00154189,-0.12000261,-0.25065505,-0.00050
 473,-0.00033845,0.00074133,0.00111477,0.00081399,0.00103579,-0.0002900
 2,-0.00120568,-0.00415103,0.00104344,0.13106441,0.26749789,0.00005647,
 0.00002380,-0.00000757,-0.00003124,-0.00004180,-0.00002427,0.00017927,
 -0.00001429,-0.00003757,-0.00002237,0.00001807,0.00001859,-0.00005367,
 -0.00013035,-0.00012515,-0.00137964,-0.00055918,0.00183288,-0.00041292
 ,0.00003733,-0.00143967,0.00180940,0.00182703,-0.00085496,0.00598843,-
 0.01502577,0.01826438,-0.06944502,0.04911159,-0.05939975,-0.00239850,-
 0.00386416,0.00012288,0.00052720,0.00108112,-0.00022591,-0.00715256,0.
 01726807,-0.02348859,-0.00096664,-0.00112971,0.00127362,0.07330178,0.0
 0003072,0.00001227,-0.00003493,-0.00002866,-0.00001733,0.00000234,0.00
 011346,-0.00003803,-0.00002811,0.00000392,0.00001485,0.00002245,-0.000
 16947,-0.00012763,-0.00026810,-0.00063407,-0.00033680,0.00283589,0.001
 31455,0.00051697,-0.00137869,-0.00021057,0.00247815,-0.00188105,0.0096
 4212,-0.01869247,0.02114457,0.04582465,-0.14499569,0.12134264,-0.00406
 084,-0.00298138,-0.00043378,0.00061408,0.00074554,-0.00003264,0.001956
 26,-0.00631209,0.00672073,-0.00579442,0.01179418,-0.01300780,-0.048601
 75,0.15793948,-0.00000827,0.00000780,-0.00000071,0.00001223,0.00001986
 ,0.00001588,-0.00005951,-0.00001398,0.00001694,0.00001014,0.00000410,-
 0.00000497,0.00005481,0.00003937,-0.00001961,0.00042974,0.00051066,0.0
 0002815,-0.00100155,-0.00075529,-0.00053126,0.00018544,-0.00024262,-0.
 00017934,0.00062884,0.00097817,-0.00073954,-0.05852676,0.12357277,-0.2
 0485018,-0.00018274,-0.00026716,0.00129332,0.00050011,-0.00019122,0.00
 048657,0.00169238,-0.00549944,0.00582053,-0.00782596,0.01684050,-0.018
 41081,0.06409110,-0.13500350,0.21707502\\-0.00375852,-0.00985719,-0.00
 086259,0.00015641,-0.00017369,-0.00001460,-0.00063426,0.00061667,0.000
 42758,-0.00020415,-0.00037049,-0.00002155,0.00362041,0.00908091,0.0009
 1739,0.00097862,0.00240021,0.00016423,0.00014212,-0.00125610,-0.000392
 73,0.00003052,0.00025326,-0.00008448,-0.00012936,-0.00034896,-0.000102
 98,-0.00012816,-0.00024696,-0.00001381,-0.00001968,-0.00001972,-0.0000
 0428,-0.00001587,-0.00002628,-0.00000732,-0.00000729,-0.00001114,0.000
 00164,-0.00001954,-0.00002087,-0.00000132,-0.00001125,-0.00001966,-0.0
 0000519\\\@


 IT IS NOT EASY TO DESCRIBE
     THE SEA WITH THE MOUTH

                   -- KOKYU
 Job cpu time:       0 days  0 hours 58 minutes 51.6 seconds.
 Elapsed time:       0 days  0 hours  2 minutes 27.5 seconds.
 File lengths (MBytes):  RWF=    153 Int=      0 D2E=      0 Chk=      9 Scr=      1
 Normal termination of Gaussian 16 at Mon Jun 23 07:10:05 2025.
