 Entering Gaussian System, Link 0=g16
 Initial command:
 /opt/g16/l1.exe "/home/chem-lab/scratches/g16/Gau-8618.inp" -scrdir="/home/chem-lab/scratches/g16/"
 Entering Link 1 = /opt/g16/l1.exe PID=      8621.
  
 Copyright (c) 1988,1990,1992,1993,1995,1998,2003,2009,2016,
            Gaussian, Inc.  All Rights Reserved.
  
 This is part of the Gaussian(R) 16 program.  It is based on
 the Gaussian(R) 09 system (copyright 2009, Gaussian, Inc.),
 the Gaussian(R) 03 system (copyright 2003, Gaussian, Inc.),
 the Gaussian(R) 98 system (copyright 1998, Gaussian, Inc.),
 the Gaussian(R) 94 system (copyright 1995, Gaussian, Inc.),
 the Gaussian 92(TM) system (copyright 1992, Gaussian, Inc.),
 the Gaussian 90(TM) system (copyright 1990, Gaussian, Inc.),
 the Gaussian 88(TM) system (copyright 1988, Gaussian, Inc.),
 the Gaussian 86(TM) system (copyright 1986, Carnegie Mellon
 University), and the Gaussian 82(TM) system (copyright 1983,
 Carnegie Mellon University). Gaussian is a federally registered
 trademark of Gaussian, Inc.
  
 This software contains proprietary and confidential information,
 including trade secrets, belonging to Gaussian, Inc.
  
 This software is provided under written license and may be
 used, copied, transmitted, or stored only in accord with that
 written license.
  
 The following legend is applicable only to US Government
 contracts under FAR:
  
                    RESTRICTED RIGHTS LEGEND
  
 Use, reproduction and disclosure by the US Government is
 subject to restrictions as set forth in subparagraphs (a)
 and (c) of the Commercial Computer Software - Restricted
 Rights clause in FAR 52.227-19.
  
 Gaussian, Inc.
 340 Quinnipiac St., Bldg. 40, Wallingford CT 06492
  
  
 ---------------------------------------------------------------
 Warning -- This program may not be used in any manner that
 competes with the business of Gaussian, Inc. or will provide
 assistance to any competitor of Gaussian, Inc.  The licensee
 of this program is prohibited from giving any competitor of
 Gaussian, Inc. access to this program.  By using this program,
 the user acknowledges that Gaussian, Inc. is engaged in the
 business of creating and licensing software in the field of
 computational chemistry and represents and warrants to the
 licensee that it is not a competitor of Gaussian, Inc. and that
 it will not use this program in any manner prohibited above.
 ---------------------------------------------------------------
  

 Cite this work as:
 Gaussian 16, Revision A.03,
 M. J. Frisch, G. W. Trucks, H. B. Schlegel, G. E. Scuseria, 
 M. A. Robb, J. R. Cheeseman, G. Scalmani, V. Barone, 
 G. A. Petersson, H. Nakatsuji, X. Li, M. Caricato, A. V. Marenich, 
 J. Bloino, B. G. Janesko, R. Gomperts, B. Mennucci, H. P. Hratchian, 
 J. V. Ortiz, A. F. Izmaylov, J. L. Sonnenberg, D. Williams-Young, 
 F. Ding, F. Lipparini, F. Egidi, J. Goings, B. Peng, A. Petrone, 
 T. Henderson, D. Ranasinghe, V. G. Zakrzewski, J. Gao, N. Rega, 
 G. Zheng, W. Liang, M. Hada, M. Ehara, K. Toyota, R. Fukuda, 
 J. Hasegawa, M. Ishida, T. Nakajima, Y. Honda, O. Kitao, H. Nakai, 
 T. Vreven, K. Throssell, J. A. Montgomery, Jr., J. E. Peralta, 
 F. Ogliaro, M. J. Bearpark, J. J. Heyd, E. N. Brothers, K. N. Kudin, 
 V. N. Staroverov, T. A. Keith, R. Kobayashi, J. Normand, 
 K. Raghavachari, A. P. Rendell, J. C. Burant, S. S. Iyengar, 
 J. Tomasi, M. Cossi, J. M. Millam, M. Klene, C. Adamo, R. Cammi, 
 J. W. Ochterski, R. L. Martin, K. Morokuma, O. Farkas, 
 J. B. Foresman, and D. J. Fox, Gaussian, Inc., Wallingford CT, 2016.
 
 ******************************************
 Gaussian 16:  ES64L-G16RevA.03 25-Dec-2016
                 4-Aug-2025 
 ******************************************
 %nprocshared=24
 Will use up to   24 processors via shared memory.
 %mem=12GB
 %chk=ethyl_propiolate_ts1.chk
 --------------------------
 # ccsd(t)/6-311++g(d,p) sp
 --------------------------
 1/38=1,172=1/1;
 2/12=2,17=6,18=5,40=1/2;
 3/5=4,6=6,7=1111,11=9,25=1,30=1/1,2,3;
 4//1;
 5/5=2,38=5/2;
 8/6=4,9=120000,10=2/1,4;
 9/5=7,14=2/13;
 6/7=2,8=2,9=2,10=2/1;
 99/5=1,9=1/99;
 -------------------
 Title Card Required
 -------------------
 Symbolic Z-matrix:
 Charge =  0 Multiplicity = 2
 O                     2.12487   1.2705    0.02328 
 H                     2.78688   1.17058   0.71955 
 C                     2.44193  -1.16138  -0.59138 
 H                     3.32791  -1.62426  -0.96483 
 C                     1.57722  -0.34692  -0.16369 
 C                     0.16697  -0.19576   0.32028 
 O                    -0.16912  -0.40252   1.45111 
 O                    -0.595     0.30112  -0.64363 
 C                    -1.93053   0.69216  -0.26079 
 C                    -2.85747  -0.50566  -0.21537 
 H                    -2.22658   1.40424  -1.0288 
 H                    -1.87857   1.19754   0.70427 
 H                    -3.87368  -0.17337   0.00554 
 H                    -2.86403  -1.0187   -1.17828 
 H                    -2.54664  -1.20356   0.56219 
 
                          Input orientation:                          
 ---------------------------------------------------------------------
 Center     Atomic      Atomic             Coordinates (Angstroms)
 Number     Number       Type             X           Y           Z
 ---------------------------------------------------------------------
      1          8           0        2.124868    1.270496    0.023276
      2          1           0        2.786880    1.170581    0.719551
      3          6           0        2.441934   -1.161379   -0.591383
      4          1           0        3.327905   -1.624259   -0.964834
      5          6           0        1.577218   -0.346916   -0.163685
      6          6           0        0.166973   -0.195756    0.320280
      7          8           0       -0.169118   -0.402516    1.451105
      8          8           0       -0.595002    0.301124   -0.643629
      9          6           0       -1.930530    0.692158   -0.260791
     10          6           0       -2.857474   -0.505659   -0.215365
     11          1           0       -2.226576    1.404236   -1.028798
     12          1           0       -1.878566    1.197538    0.704265
     13          1           0       -3.873683   -0.173366    0.005542
     14          1           0       -2.864034   -1.018697   -1.178275
     15          1           0       -2.546640   -1.203558    0.562191
 ---------------------------------------------------------------------
                    Distance matrix (angstroms):
                    1          2          3          4          5
     1  O    0.000000
     2  H    0.965941   0.000000
     3  C    2.528310   2.697327   0.000000
     4  H    3.286832   3.307717   1.067084   0.000000
     5  C    1.717817   2.132178   1.262541   2.310487   0.000000
     6  C    2.464033   2.981645   2.634199   3.699139   1.498620
     7  O    3.178055   3.427496   3.400768   4.422509   2.379144
     8  O    2.963467   3.748512   3.371146   4.381720   2.317076
     9  C    4.106266   4.841892   4.760602   5.789007   3.659699
    10  C    5.294847   5.961760   5.353044   6.330236   4.437833
    11  H    4.478818   5.314702   5.344969   6.326779   4.275956
    12  H    4.061595   4.665549   5.090178   6.152704   3.883442
    13  H    6.169900   6.832211   6.420242   7.410101   5.456288
    14  H    5.619010   6.350395   5.340234   6.225140   4.604932
    15  H    5.313601   5.840183   5.120389   6.084330   4.273984
                    6          7          8          9         10
     6  C    0.000000
     7  O    1.197694   0.000000
     8  O    1.325374   2.250422   0.000000
     9  C    2.350650   2.689140   1.443297   0.000000
    10  C    3.087108   3.164651   2.439895   1.515274   0.000000
    11  H    3.179475   3.694239   2.006800   1.088363   2.169655
    12  H    2.504584   2.457673   2.065893   1.090616   2.169069
    13  H    4.052957   3.983210   3.375843   2.143807   1.091741
    14  H    3.479929   3.815218   2.678858   2.154120   1.091076
    15  H    2.904803   2.661662   2.743531   2.156532   1.090080
                   11         12         13         14         15
    11  H    0.000000
    12  H    1.779703   0.000000
    13  H    2.504326   2.519540   0.000000
    14  H    2.509841   3.070310   1.770706   0.000000
    15  H    3.071527   2.496351   1.769801   1.778801   0.000000
 Stoichiometry    C5H7O3(2)
 Framework group  C1[X(C5H7O3)]
 Deg. of freedom    39
 Full point group                 C1      NOp   1
 Largest Abelian subgroup         C1      NOp   1
 Largest concise Abelian subgroup C1      NOp   1
                         Standard orientation:                         
 ---------------------------------------------------------------------
 Center     Atomic      Atomic             Coordinates (Angstroms)
 Number     Number       Type             X           Y           Z
 ---------------------------------------------------------------------
      1          8           0        2.124868    1.270496    0.023276
      2          1           0        2.786880    1.170581    0.719551
      3          6           0        2.441934   -1.161379   -0.591383
      4          1           0        3.327905   -1.624259   -0.964834
      5          6           0        1.577218   -0.346916   -0.163685
      6          6           0        0.166973   -0.195756    0.320280
      7          8           0       -0.169118   -0.402516    1.451105
      8          8           0       -0.595002    0.301124   -0.643629
      9          6           0       -1.930530    0.692158   -0.260791
     10          6           0       -2.857474   -0.505659   -0.215365
     11          1           0       -2.226576    1.404236   -1.028798
     12          1           0       -1.878566    1.197538    0.704265
     13          1           0       -3.873683   -0.173366    0.005542
     14          1           0       -2.864034   -1.018697   -1.178275
     15          1           0       -2.546640   -1.203558    0.562191
 ---------------------------------------------------------------------
 Rotational constants (GHZ):           4.2492619           1.1708931           1.1307490
 Standard basis: 6-311++G(d,p) (5D, 7F)
 There are   233 symmetry adapted cartesian basis functions of A   symmetry.
 There are   225 symmetry adapted basis functions of A   symmetry.
   225 basis functions,   351 primitive gaussians,   233 cartesian basis functions
    31 alpha electrons       30 beta electrons
       nuclear repulsion energy       362.1106823718 Hartrees.
 NAtoms=   15 NActive=   15 NUniq=   15 SFac= 1.00D+00 NAtFMM=   60 NAOKFM=F Big=F
 Integral buffers will be    131072 words long.
 Raffenetti 2 integral format.
 Two-electron integral symmetry is turned on.
 One-electron integrals computed using PRISM.
 NBasis=   225 RedAO= T EigKep=  7.76D-06  NBF=   225
 NBsUse=   225 1.00D-06 EigRej= -1.00D+00 NBFU=   225
 ExpMin= 3.60D-02 ExpMax= 8.59D+03 ExpMxC= 1.30D+03 IAcc=3 IRadAn=         5 AccDes= 0.00D+00
 Harris functional with IExCor=  205 and IRadAn=       5 diagonalized for initial guess.
 HarFok:  IExCor=  205 AccDes= 0.00D+00 IRadAn=         5 IDoV= 1 UseB2=F ITyADJ=14
 ICtDFT=  3500011 ScaDFX=  1.000000  1.000000  1.000000  1.000000
 FoFCou: FMM=F IPFlag=           0 FMFlag=      100000 FMFlg1=           0
         NFxFlg=           0 DoJE=T BraDBF=F KetDBF=T FulRan=T
         wScrn=  0.000000 ICntrl=       500 IOpCl=  0 I1Cent=   200000004 NGrid=           0
         NMat0=    1 NMatS0=      1 NMatT0=    0 NMatD0=    1 NMtDS0=    0 NMtDT0=    0
 Petite list used in FoFCou.
 Initial guess <Sx>= 0.0000 <Sy>= 0.0000 <Sz>= 0.5000 <S**2>= 0.7500 S= 0.5000
 Requested convergence on RMS density matrix=1.00D-08 within 128 cycles.
 Requested convergence on MAX density matrix=1.00D-06.
 Requested convergence on             energy=1.00D-06.
 No special actions if energy rises.
 Initial convergence to 1.0D-05 achieved.  Increase integral accuracy.
 SCF Done:  E(UHF) =  -417.983859411     A.U. after   28 cycles
            NFock= 28  Conv=0.93D-08     -V/T= 2.0011
 <Sx>= 0.0000 <Sy>= 0.0000 <Sz>= 0.5000 <S**2>= 1.0467 S= 0.6387
 <L.S>=  0.00000000000    
 Annihilation of the first spin contaminant:
 S**2 before annihilation     1.0467,   after     0.8113
 ExpMin= 3.60D-02 ExpMax= 8.59D+03 ExpMxC= 1.30D+03 IAcc=3 IRadAn=         5 AccDes= 0.00D+00
 HarFok:  IExCor=  205 AccDes= 0.00D+00 IRadAn=         5 IDoV=-2 UseB2=F ITyADJ=14
 ICtDFT= 12500011 ScaDFX=  1.000000  1.000000  1.000000  1.000000
 Range of M.O.s used for correlation:     9   225
 NBasis=   225 NAE=    31 NBE=    30 NFC=     8 NFV=     0
 NROrb=    217 NOA=    23 NOB=    22 NVA=   194 NVB=   195

 **** Warning!!: The largest alpha MO coefficient is  0.10989061D+03


 **** Warning!!: The largest beta MO coefficient is  0.10456515D+03

 Semi-Direct transformation.
 ModeAB=           4 MOrb=            23 LenV=    1609176031
 LASXX=    109339976 LTotXX=   109339976 LenRXX=   221407890
 LTotAB=   112067914 MaxLAS=   128727872 LenRXY=           0
 NonZer=   330747866 LenScr=   498067456 LnRSAI=   128727872
 LnScr1=   193869312 LExtra=           0 Total=   1042072530
 MaxDsk=          -1 SrtSym=           T ITran=            4
 JobTyp=1 Pass  1:  I=   1 to  23.
 (rs|ai) integrals will be sorted in core.
 ModeAB=           4 MOrb=            22 LenV=    1609176031
 LASXX=    104936601 LTotXX=   104936601 LenRXX=   190867446
 LTotAB=    85930845 MaxLAS=   123131008 LenRXY=           0
 NonZer=   295804047 LenScr=   445446144 LnRSAI=   123131008
 LnScr1=   185477120 LExtra=           0 Total=    944921718
 MaxDsk=          -1 SrtSym=           T ITran=            4
 JobTyp=2 Pass  1:  I=   1 to  22.
 (rs|ai) integrals will be sorted in core.
 SymMOI:  orbitals are not symmetric.
 Spin components of T(2) and E(2):
     alpha-alpha T2 =       0.5224490192D-01 E2=     -0.1708357812D+00
     alpha-beta  T2 =       0.2810888173D+00 E2=     -0.9344139171D+00
     beta-beta   T2 =       0.5003010119D-01 E2=     -0.1604249031D+00
 ANorm=    0.1176164878D+01
 E2 =    -0.1265674601D+01 EUMP2 =    -0.41924953401250D+03
 (S**2,0)=  0.10467D+01           (S**2,1)=  0.96267D+00
 E(PUHF)=      -0.41800927746D+03        E(PMP2)=      -0.41927174398D+03
 Keep R2 and R3 ints in memory in canonical form, NReq=652884060.
 CIDS: In Core Option IDoMem=           1.
 Iterations=  50 Convergence= 0.100D-06
 Produce multiple copies of IABC intergrals
 Iteration Nr.   1
 **********************
 DD1Dir will call FoFMem   1 times, MxPair=      1496
 NAB=   506 NAA=   253 NBB=   231.
 E(PMP3)=      -0.41929432586D+03
 MP4(R+Q)=  0.24565517D-01
 E3=       -0.27710044D-01        EUMP3=      -0.41927724406D+03
 E4(DQ)=   -0.66587602D-02        UMP4(DQ)=   -0.41928390282D+03
 E4(SDQ)=  -0.28838167D-01        UMP4(SDQ)=  -0.41930608222D+03
 DE(Corr)=  -1.2685306     E(Corr)=     -419.25239005    
 NORM(A)=   0.11863523D+01
 Iteration Nr.   2
 **********************
 DD1Dir will call FoFMem   1 times, MxPair=      1496
 NAB=   506 NAA=   253 NBB=   231.
 DE(Corr)=  -1.3135018     E(CORR)=     -419.29736125     Delta=-4.50D-02
 NORM(A)=   0.12090533D+01
 Iteration Nr.   3
 **********************
 DD1Dir will call FoFMem   1 times, MxPair=      1496
 NAB=   506 NAA=   253 NBB=   231.
 DE(Corr)=  -1.3171993     E(CORR)=     -419.30105871     Delta=-3.70D-03
 NORM(A)=   0.12228521D+01
 Iteration Nr.   4
 **********************
 DD1Dir will call FoFMem   1 times, MxPair=      1496
 NAB=   506 NAA=   253 NBB=   231.
 DE(Corr)=  -1.3254648     E(CORR)=     -419.30932421     Delta=-8.27D-03
 NORM(A)=   0.12318182D+01
 Iteration Nr.   5
 **********************
 DD1Dir will call FoFMem   1 times, MxPair=      1496
 NAB=   506 NAA=   253 NBB=   231.
 DE(Corr)=  -1.3278998     E(CORR)=     -419.31175925     Delta=-2.44D-03
 NORM(A)=   0.12360212D+01
 Iteration Nr.   6
 **********************
 DD1Dir will call FoFMem   1 times, MxPair=      1496
 NAB=   506 NAA=   253 NBB=   231.
 DE(Corr)=  -1.3286165     E(CORR)=     -419.31247595     Delta=-7.17D-04
 NORM(A)=   0.12366724D+01
 Iteration Nr.   7
 **********************
 DD1Dir will call FoFMem   1 times, MxPair=      1496
 NAB=   506 NAA=   253 NBB=   231.
 DE(Corr)=  -1.3287212     E(CORR)=     -419.31258062     Delta=-1.05D-04
 NORM(A)=   0.12368396D+01
 Iteration Nr.   8
 **********************
 DD1Dir will call FoFMem   1 times, MxPair=      1496
 NAB=   506 NAA=   253 NBB=   231.
 DE(Corr)=  -1.3286977     E(CORR)=     -419.31255707     Delta= 2.36D-05
 NORM(A)=   0.12368861D+01
 Iteration Nr.   9
 **********************
 DD1Dir will call FoFMem   1 times, MxPair=      1496
 NAB=   506 NAA=   253 NBB=   231.
 DE(Corr)=  -1.3287214     E(CORR)=     -419.31258081     Delta=-2.37D-05
 NORM(A)=   0.12368980D+01
 Iteration Nr.  10
 **********************
 DD1Dir will call FoFMem   1 times, MxPair=      1496
 NAB=   506 NAA=   253 NBB=   231.
 DE(Corr)=  -1.3287162     E(CORR)=     -419.31257557     Delta= 5.24D-06
 NORM(A)=   0.12369138D+01
 Iteration Nr.  11
 **********************
 DD1Dir will call FoFMem   1 times, MxPair=      1496
 NAB=   506 NAA=   253 NBB=   231.
 DE(Corr)=  -1.3287314     E(CORR)=     -419.31259077     Delta=-1.52D-05
 NORM(A)=   0.12369408D+01
 Iteration Nr.  12
 **********************
 DD1Dir will call FoFMem   1 times, MxPair=      1496
 NAB=   506 NAA=   253 NBB=   231.
 DE(Corr)=  -1.3287351     E(CORR)=     -419.31259449     Delta=-3.73D-06
 NORM(A)=   0.12369730D+01
 Iteration Nr.  13
 **********************
 DD1Dir will call FoFMem   1 times, MxPair=      1496
 NAB=   506 NAA=   253 NBB=   231.
 DE(Corr)=  -1.3287426     E(CORR)=     -419.31260197     Delta=-7.48D-06
 NORM(A)=   0.12369973D+01
 Iteration Nr.  14
 **********************
 DD1Dir will call FoFMem   1 times, MxPair=      1496
 NAB=   506 NAA=   253 NBB=   231.
 DE(Corr)=  -1.3287474     E(CORR)=     -419.31260685     Delta=-4.87D-06
 NORM(A)=   0.12370112D+01
 Iteration Nr.  15
 **********************
 DD1Dir will call FoFMem   1 times, MxPair=      1496
 NAB=   506 NAA=   253 NBB=   231.
 DE(Corr)=  -1.3287490     E(CORR)=     -419.31260842     Delta=-1.57D-06
 NORM(A)=   0.12370178D+01
 Iteration Nr.  16
 **********************
 DD1Dir will call FoFMem   1 times, MxPair=      1496
 NAB=   506 NAA=   253 NBB=   231.
 DE(Corr)=  -1.3287506     E(CORR)=     -419.31261004     Delta=-1.63D-06
 NORM(A)=   0.12370204D+01
 Iteration Nr.  17
 **********************
 DD1Dir will call FoFMem   1 times, MxPair=      1496
 NAB=   506 NAA=   253 NBB=   231.
 DE(Corr)=  -1.3287508     E(CORR)=     -419.31261020     Delta=-1.62D-07
 NORM(A)=   0.12370217D+01
 Iteration Nr.  18
 **********************
 DD1Dir will call FoFMem   1 times, MxPair=      1496
 NAB=   506 NAA=   253 NBB=   231.
 DE(Corr)=  -1.3287511     E(CORR)=     -419.31261050     Delta=-2.97D-07
 NORM(A)=   0.12370222D+01
 Iteration Nr.  19
 **********************
 DD1Dir will call FoFMem   1 times, MxPair=      1496
 NAB=   506 NAA=   253 NBB=   231.
 DE(Corr)=  -1.3287512     E(CORR)=     -419.31261061     Delta=-1.06D-07
 NORM(A)=   0.12370227D+01
 Iteration Nr.  20
 **********************
 DD1Dir will call FoFMem   1 times, MxPair=      1496
 NAB=   506 NAA=   253 NBB=   231.
 DE(Corr)=  -1.3287513     E(CORR)=     -419.31261066     Delta=-5.84D-08
 NORM(A)=   0.12370228D+01
 Wavefunction amplitudes converged. E(Corr)=     -419.31261066    
 Largest amplitude= 7.69D-02
 Time for triples=    66793.16 seconds.
 T4(CCSD)= -0.59053617D-01
 T5(CCSD)=  0.41265620D-02
 CCSD(T)= -0.41936753772D+03

 S**2, projected HF & approx projected MPn energies after annihilation of
 unwanted spin states (see manual for definitions):

 spins       (S**2,0) (S**2,1)    PUHF        PMP2        PMP3        PMP4
 annihilated
 s+1         0.71384  0.73704 -418.009277 -419.271744 -419.294326
 s+1,s+2     0.75066  0.74985 -418.006765 -419.269366 -419.292127
 s+1 to s+3  0.75000  0.75000 -418.006819 -419.269405 -419.292143
 s+1 to s+4  0.75000  0.75000 -418.006819 -419.269404 -419.292143
 s+1 to s+5  0.75000  0.75000 -418.006819
 s+1 to s+6  0.75000  0.75000 -418.006819

 Discarding MO integrals.

 **********************************************************************

            Population analysis using the SCF density.

 **********************************************************************

 Orbital symmetries:
 Alpha Orbitals:
       Occupied  (A) (A) (A) (A) (A) (A) (A) (A) (A) (A) (A) (A)
                 (A) (A) (A) (A) (A) (A) (A) (A) (A) (A) (A) (A)
                 (A) (A) (A) (A) (A) (A) (A)
       Virtual   (A) (A) (A) (A) (A) (A) (A) (A) (A) (A) (A) (A)
                 (A) (A) (A) (A) (A) (A) (A) (A) (A) (A) (A) (A)
                 (A) (A) (A) (A) (A) (A) (A) (A) (A) (A) (A) (A)
                 (A) (A) (A) (A) (A) (A) (A) (A) (A) (A) (A) (A)
                 (A) (A) (A) (A) (A) (A) (A) (A) (A) (A) (A) (A)
                 (A) (A) (A) (A) (A) (A) (A) (A) (A) (A) (A) (A)
                 (A) (A) (A) (A) (A) (A) (A) (A) (A) (A) (A) (A)
                 (A) (A) (A) (A) (A) (A) (A) (A) (A) (A) (A) (A)
                 (A) (A) (A) (A) (A) (A) (A) (A) (A) (A) (A) (A)
                 (A) (A) (A) (A) (A) (A) (A) (A) (A) (A) (A) (A)
                 (A) (A) (A) (A) (A) (A) (A) (A) (A) (A) (A) (A)
                 (A) (A) (A) (A) (A) (A) (A) (A) (A) (A) (A) (A)
                 (A) (A) (A) (A) (A) (A) (A) (A) (A) (A) (A) (A)
                 (A) (A) (A) (A) (A) (A) (A) (A) (A) (A) (A) (A)
                 (A) (A) (A) (A) (A) (A) (A) (A) (A) (A) (A) (A)
                 (A) (A) (A) (A) (A) (A) (A) (A) (A) (A) (A) (A)
                 (A) (A)
 Beta  Orbitals:
       Occupied  (A) (A) (A) (A) (A) (A) (A) (A) (A) (A) (A) (A)
                 (A) (A) (A) (A) (A) (A) (A) (A) (A) (A) (A) (A)
                 (A) (A) (A) (A) (A) (A)
       Virtual   (A) (A) (A) (A) (A) (A) (A) (A) (A) (A) (A) (A)
                 (A) (A) (A) (A) (A) (A) (A) (A) (A) (A) (A) (A)
                 (A) (A) (A) (A) (A) (A) (A) (A) (A) (A) (A) (A)
                 (A) (A) (A) (A) (A) (A) (A) (A) (A) (A) (A) (A)
                 (A) (A) (A) (A) (A) (A) (A) (A) (A) (A) (A) (A)
                 (A) (A) (A) (A) (A) (A) (A) (A) (A) (A) (A) (A)
                 (A) (A) (A) (A) (A) (A) (A) (A) (A) (A) (A) (A)
                 (A) (A) (A) (A) (A) (A) (A) (A) (A) (A) (A) (A)
                 (A) (A) (A) (A) (A) (A) (A) (A) (A) (A) (A) (A)
                 (A) (A) (A) (A) (A) (A) (A) (A) (A) (A) (A) (A)
                 (A) (A) (A) (A) (A) (A) (A) (A) (A) (A) (A) (A)
                 (A) (A) (A) (A) (A) (A) (A) (A) (A) (A) (A) (A)
                 (A) (A) (A) (A) (A) (A) (A) (A) (A) (A) (A) (A)
                 (A) (A) (A) (A) (A) (A) (A) (A) (A) (A) (A) (A)
                 (A) (A) (A) (A) (A) (A) (A) (A) (A) (A) (A) (A)
                 (A) (A) (A) (A) (A) (A) (A) (A) (A) (A) (A) (A)
                 (A) (A) (A)
 The electronic state is 2-A.
 Alpha  occ. eigenvalues --  -20.61211 -20.59802 -20.55828 -11.41186 -11.30452
 Alpha  occ. eigenvalues --  -11.29598 -11.28453 -11.22530  -1.48236  -1.37939
 Alpha  occ. eigenvalues --   -1.35486  -1.08777  -1.04624  -0.92646  -0.84322
 Alpha  occ. eigenvalues --   -0.76743  -0.73196  -0.69874  -0.67735  -0.65154
 Alpha  occ. eigenvalues --   -0.63193  -0.61115  -0.58226  -0.54501  -0.53726
 Alpha  occ. eigenvalues --   -0.52314  -0.50241  -0.47929  -0.46211  -0.43899
 Alpha  occ. eigenvalues --   -0.41771
 Alpha virt. eigenvalues --    0.03689   0.04506   0.05819   0.06641   0.07005
 Alpha virt. eigenvalues --    0.08226   0.09239   0.11290   0.11364   0.12835
 Alpha virt. eigenvalues --    0.13373   0.13588   0.14395   0.14659   0.16732
 Alpha virt. eigenvalues --    0.17310   0.17723   0.18411   0.18866   0.19353
 Alpha virt. eigenvalues --    0.19853   0.20576   0.20954   0.21828   0.22408
 Alpha virt. eigenvalues --    0.23279   0.24772   0.25325   0.27303   0.29972
 Alpha virt. eigenvalues --    0.31013   0.31241   0.32530   0.32932   0.33195
 Alpha virt. eigenvalues --    0.35247   0.36518   0.37258   0.38037   0.39675
 Alpha virt. eigenvalues --    0.39786   0.41241   0.42740   0.43830   0.45125
 Alpha virt. eigenvalues --    0.46142   0.46644   0.46814   0.47853   0.50088
 Alpha virt. eigenvalues --    0.51330   0.54826   0.57860   0.58132   0.59602
 Alpha virt. eigenvalues --    0.64018   0.66318   0.67328   0.69463   0.70050
 Alpha virt. eigenvalues --    0.71116   0.75319   0.77131   0.79312   0.80574
 Alpha virt. eigenvalues --    0.82011   0.85946   0.86718   0.88154   0.88910
 Alpha virt. eigenvalues --    0.89738   0.90868   0.92444   0.94465   0.97218
 Alpha virt. eigenvalues --    0.98765   1.03583   1.06769   1.12157   1.13379
 Alpha virt. eigenvalues --    1.19594   1.20837   1.22235   1.25152   1.29287
 Alpha virt. eigenvalues --    1.35026   1.37500   1.38642   1.41000   1.43576
 Alpha virt. eigenvalues --    1.46371   1.48031   1.49062   1.52061   1.54468
 Alpha virt. eigenvalues --    1.55714   1.56902   1.59380   1.62075   1.67733
 Alpha virt. eigenvalues --    1.69665   1.71362   1.75099   1.77386   1.80365
 Alpha virt. eigenvalues --    1.80884   1.82219   1.84114   1.84864   1.87352
 Alpha virt. eigenvalues --    1.89308   1.90846   1.95496   1.95848   1.98143
 Alpha virt. eigenvalues --    2.02201   2.05565   2.09248   2.11145   2.12547
 Alpha virt. eigenvalues --    2.16023   2.18001   2.25614   2.31795   2.35956
 Alpha virt. eigenvalues --    2.38276   2.39159   2.41424   2.48472   2.51022
 Alpha virt. eigenvalues --    2.60133   2.63513   2.68210   2.78435   2.82441
 Alpha virt. eigenvalues --    2.83669   2.84840   2.88616   2.91248   2.93984
 Alpha virt. eigenvalues --    2.94841   2.95964   3.00480   3.01782   3.05057
 Alpha virt. eigenvalues --    3.08616   3.10855   3.12981   3.18598   3.23847
 Alpha virt. eigenvalues --    3.27311   3.28705   3.31074   3.33129   3.40431
 Alpha virt. eigenvalues --    3.46063   3.46571   3.48270   3.50460   3.55881
 Alpha virt. eigenvalues --    3.58761   3.65338   3.68848   3.70260   3.80839
 Alpha virt. eigenvalues --    3.83279   4.00129   4.02030   4.12534   4.21295
 Alpha virt. eigenvalues --    4.22640   4.26798   4.28306   4.39389   4.47279
 Alpha virt. eigenvalues --    4.57539   4.66928   5.59987   5.60736   5.64217
 Alpha virt. eigenvalues --    5.66959   5.78339   5.92551   6.07610   6.21032
 Alpha virt. eigenvalues --    6.42971  24.65308  24.99420  25.02258  25.14428
 Alpha virt. eigenvalues --   25.82841  51.57029  51.61123  51.70830
  Beta  occ. eigenvalues --  -20.61217 -20.57540 -20.56089 -11.40848 -11.32644
  Beta  occ. eigenvalues --  -11.29601 -11.25348 -11.22530  -1.48328  -1.38357
  Beta  occ. eigenvalues --   -1.28669  -1.07310  -1.03273  -0.91121  -0.82921
  Beta  occ. eigenvalues --   -0.76261  -0.71615  -0.70038  -0.66750  -0.64454
  Beta  occ. eigenvalues --   -0.63095  -0.58778  -0.55070  -0.53941  -0.51462
  Beta  occ. eigenvalues --   -0.49660  -0.49135  -0.47648  -0.46830  -0.42153
  Beta virt. eigenvalues --    0.03825   0.04118   0.04538   0.06440   0.06901
  Beta virt. eigenvalues --    0.07362   0.08497   0.09268   0.10434   0.12801
  Beta virt. eigenvalues --    0.13217   0.13646   0.13998   0.14704   0.16501
  Beta virt. eigenvalues --    0.17059   0.17748   0.18036   0.18589   0.19055
  Beta virt. eigenvalues --    0.19688   0.20273   0.20697   0.21554   0.22234
  Beta virt. eigenvalues --    0.22895   0.23365   0.24777   0.25609   0.27589
  Beta virt. eigenvalues --    0.29801   0.30481   0.31529   0.32803   0.33242
  Beta virt. eigenvalues --    0.34044   0.36438   0.37414   0.37677   0.38156
  Beta virt. eigenvalues --    0.39681   0.39936   0.41531   0.42705   0.43603
  Beta virt. eigenvalues --    0.45072   0.46475   0.46697   0.47084   0.48333
  Beta virt. eigenvalues --    0.50083   0.51515   0.54780   0.57910   0.59527
  Beta virt. eigenvalues --    0.59687   0.64168   0.66470   0.67882   0.69642
  Beta virt. eigenvalues --    0.72056   0.74816   0.76215   0.78083   0.79759
  Beta virt. eigenvalues --    0.81805   0.85132   0.85674   0.86042   0.87999
  Beta virt. eigenvalues --    0.88293   0.89055   0.90780   0.92894   0.94100
  Beta virt. eigenvalues --    0.97456   0.98575   1.03561   1.07809   1.12162
  Beta virt. eigenvalues --    1.13557   1.19755   1.21203   1.22057   1.25107
  Beta virt. eigenvalues --    1.30676   1.36550   1.37458   1.40643   1.42070
  Beta virt. eigenvalues --    1.44126   1.46850   1.49121   1.52085   1.55097
  Beta virt. eigenvalues --    1.56113   1.56571   1.58917   1.60159   1.63452
  Beta virt. eigenvalues --    1.69550   1.70347   1.71756   1.75515   1.77673
  Beta virt. eigenvalues --    1.80624   1.81399   1.82332   1.84411   1.85084
  Beta virt. eigenvalues --    1.87308   1.88828   1.90797   1.95391   1.96035
  Beta virt. eigenvalues --    1.98059   2.02494   2.05489   2.09434   2.11389
  Beta virt. eigenvalues --    2.12835   2.16311   2.18428   2.25677   2.31862
  Beta virt. eigenvalues --    2.36739   2.38889   2.39495   2.41460   2.48472
  Beta virt. eigenvalues --    2.50951   2.60177   2.63532   2.68335   2.79284
  Beta virt. eigenvalues --    2.82445   2.83682   2.84839   2.88927   2.91474
  Beta virt. eigenvalues --    2.93996   2.95210   2.96085   3.00699   3.02155
  Beta virt. eigenvalues --    3.05265   3.09769   3.12343   3.14627   3.21803
  Beta virt. eigenvalues --    3.23829   3.27194   3.29099   3.30949   3.32820
  Beta virt. eigenvalues --    3.45088   3.46363   3.47333   3.49439   3.51615
  Beta virt. eigenvalues --    3.58610   3.59715   3.65131   3.69095   3.70226
  Beta virt. eigenvalues --    3.80570   3.85226   4.00042   4.03234   4.12370
  Beta virt. eigenvalues --    4.21289   4.22635   4.27383   4.29799   4.39346
  Beta virt. eigenvalues --    4.47077   4.57463   4.66920   5.60067   5.61275
  Beta virt. eigenvalues --    5.65732   5.71863   5.78391   5.92525   6.09023
  Beta virt. eigenvalues --    6.20963   6.42917  24.65228  24.99612  25.02306
  Beta virt. eigenvalues --   25.14428  25.83471  51.57911  51.61514  51.70687
          Condensed to atoms (all electrons):
               1          2          3          4          5          6
     1  O    8.070998   0.254382  -0.090867  -0.000674   0.410287  -0.389327
     2  H    0.254382   0.471846  -0.052428  -0.002546   0.031329   0.038564
     3  C   -0.090867  -0.052428  10.131185   0.488829  -0.704215  -3.599996
     4  H   -0.000674  -0.002546   0.488829   0.401117  -0.078662  -0.048783
     5  C    0.410287   0.031329  -0.704215  -0.078662   8.607790  -1.935035
     6  C   -0.389327   0.038564  -3.599996  -0.048783  -1.935035  11.514646
     7  O   -0.005548  -0.001029  -0.063424  -0.001710   0.161333   0.324483
     8  O    0.016078  -0.001488  -0.092741  -0.002658  -0.134573   0.133320
     9  C   -0.007725   0.000901  -0.070426  -0.001010  -0.189652   0.084221
    10  C    0.002233  -0.000628  -0.018014   0.000510  -0.097629   0.083351
    11  H   -0.001624   0.000006  -0.001563   0.000121  -0.032695   0.036901
    12  H    0.001166  -0.000238   0.000243  -0.000166   0.009980  -0.026607
    13  H    0.000100   0.000014   0.002174   0.000052   0.005949  -0.005837
    14  H    0.000117   0.000024   0.000573  -0.000178   0.005619  -0.010768
    15  H   -0.001301   0.000129  -0.018764  -0.000191  -0.048807   0.050226
               7          8          9         10         11         12
     1  O   -0.005548   0.016078  -0.007725   0.002233  -0.001624   0.001166
     2  H   -0.001029  -0.001488   0.000901  -0.000628   0.000006  -0.000238
     3  C   -0.063424  -0.092741  -0.070426  -0.018014  -0.001563   0.000243
     4  H   -0.001710  -0.002658  -0.001010   0.000510   0.000121  -0.000166
     5  C    0.161333  -0.134573  -0.189652  -0.097629  -0.032695   0.009980
     6  C    0.324483   0.133320   0.084221   0.083351   0.036901  -0.026607
     7  O    8.039966  -0.120970   0.047874  -0.071287   0.003347  -0.018280
     8  O   -0.120970   8.282044   0.173113  -0.100379  -0.086770  -0.019405
     9  C    0.047874   0.173113   5.385376  -0.037052   0.448478   0.430682
    10  C   -0.071287  -0.100379  -0.037052   5.496608  -0.058951  -0.038274
    11  H    0.003347  -0.086770   0.448478  -0.058951   0.553652  -0.031324
    12  H   -0.018280  -0.019405   0.430682  -0.038274  -0.031324   0.516179
    13  H   -0.001671   0.016593  -0.037097   0.398587  -0.002486  -0.004398
    14  H    0.003902  -0.003275  -0.036442   0.419236  -0.004956  -0.000336
    15  H   -0.002893  -0.015287  -0.037587   0.419063   0.007977  -0.003298
              13         14         15
     1  O    0.000100   0.000117  -0.001301
     2  H    0.000014   0.000024   0.000129
     3  C    0.002174   0.000573  -0.018764
     4  H    0.000052  -0.000178  -0.000191
     5  C    0.005949   0.005619  -0.048807
     6  C   -0.005837  -0.010768   0.050226
     7  O   -0.001671   0.003902  -0.002893
     8  O    0.016593  -0.003275  -0.015287
     9  C   -0.037097  -0.036442  -0.037587
    10  C    0.398587   0.419236   0.419063
    11  H   -0.002486  -0.004956   0.007977
    12  H   -0.004398  -0.000336  -0.003298
    13  H    0.566480  -0.031840  -0.036623
    14  H   -0.031840   0.561157  -0.046870
    15  H   -0.036623  -0.046870   0.551383
          Atomic-Atomic Spin Densities.
               1          2          3          4          5          6
     1  O    0.533629   0.004305  -0.258308  -0.005719   0.079976   0.150184
     2  H    0.004305  -0.024853   0.025280   0.000620  -0.010553  -0.012155
     3  C   -0.258308   0.025280   1.643581  -0.004465  -0.371816   0.567697
     4  H   -0.005719   0.000620  -0.004465  -0.088891  -0.016335   0.008570
     5  C    0.079976  -0.010553  -0.371816  -0.016335  -1.095409   0.263093
     6  C    0.150184  -0.012155   0.567697   0.008570   0.263093  -0.768844
     7  O    0.001388  -0.000050  -0.005574  -0.000107   0.015940   0.002929
     8  O    0.000600   0.000151  -0.012135  -0.000545   0.030297  -0.024886
     9  C   -0.004937   0.000511   0.005046   0.000027  -0.011876   0.011006
    10  C    0.000470  -0.000027  -0.014021  -0.000180  -0.003513   0.014655
    11  H    0.000151   0.000017   0.003098   0.000016   0.006323  -0.008821
    12  H    0.000800  -0.000112   0.000456  -0.000013   0.004010  -0.004261
    13  H   -0.000203   0.000008  -0.000949  -0.000004  -0.002080   0.002775
    14  H    0.000252  -0.000010   0.001361   0.000007   0.002711  -0.003734
    15  H    0.000224   0.000028   0.004958   0.000056   0.009016  -0.014006
               7          8          9         10         11         12
     1  O    0.001388   0.000600  -0.004937   0.000470   0.000151   0.000800
     2  H   -0.000050   0.000151   0.000511  -0.000027   0.000017  -0.000112
     3  C   -0.005574  -0.012135   0.005046  -0.014021   0.003098   0.000456
     4  H   -0.000107  -0.000545   0.000027  -0.000180   0.000016  -0.000013
     5  C    0.015940   0.030297  -0.011876  -0.003513   0.006323   0.004010
     6  C    0.002929  -0.024886   0.011006   0.014655  -0.008821  -0.004261
     7  O   -0.070112   0.001457   0.005023  -0.001302   0.000086  -0.000356
     8  O    0.001457   0.009586  -0.005282   0.001997   0.000344   0.000871
     9  C    0.005023  -0.005282   0.011052  -0.009032   0.000368  -0.002377
    10  C   -0.001302   0.001997  -0.009032   0.008657  -0.000118   0.001364
    11  H    0.000086   0.000344   0.000368  -0.000118  -0.000865  -0.000150
    12  H   -0.000356   0.000871  -0.002377   0.001364  -0.000150   0.000468
    13  H    0.000434  -0.000327   0.000647  -0.001362   0.000173  -0.000295
    14  H   -0.000311   0.000320  -0.000355   0.000964  -0.000141  -0.000016
    15  H   -0.000121   0.000458   0.001911  -0.000307  -0.000370  -0.000369
              13         14         15
     1  O   -0.000203   0.000252   0.000224
     2  H    0.000008  -0.000010   0.000028
     3  C   -0.000949   0.001361   0.004958
     4  H   -0.000004   0.000007   0.000056
     5  C   -0.002080   0.002711   0.009016
     6  C    0.002775  -0.003734  -0.014006
     7  O    0.000434  -0.000311  -0.000121
     8  O   -0.000327   0.000320   0.000458
     9  C    0.000647  -0.000355   0.001911
    10  C   -0.001362   0.000964  -0.000307
    11  H    0.000173  -0.000141  -0.000370
    12  H   -0.000295  -0.000016  -0.000369
    13  H    0.000339   0.000121   0.000813
    14  H    0.000121  -0.000546  -0.000552
    15  H    0.000813  -0.000552  -0.001445
 Mulliken charges and spin densities:
               1          2
     1  O   -0.258296   0.502813
     2  H    0.261162  -0.016841
     3  C    0.089432   1.584210
     4  H    0.245948  -0.106964
     5  C   -0.011019  -1.100214
     6  C   -0.249357   0.184204
     7  O   -0.294093  -0.050678
     8  O   -0.043601   0.002908
     9  C   -0.153655   0.001732
    10  C   -0.397372  -0.001756
    11  H    0.169888   0.000112
    12  H    0.184077   0.000021
    13  H    0.130003   0.000088
    14  H    0.144037   0.000071
    15  H    0.182844   0.000294
 Sum of Mulliken charges =  -0.00000   1.00000
 Mulliken charges and spin densities with hydrogens summed into heavy atoms:
               1          2
     1  O    0.002866   0.485972
     3  C    0.335380   1.477245
     5  C   -0.011019  -1.100214
     6  C   -0.249357   0.184204
     7  O   -0.294093  -0.050678
     8  O   -0.043601   0.002908
     9  C    0.200310   0.001865
    10  C    0.059512  -0.001302
 Electronic spatial extent (au):  <R**2>=           1116.4048
 Charge=             -0.0000 electrons
 Dipole moment (field-independent basis, Debye):
    X=              0.3547    Y=             -1.0305    Z=             -0.9844  Tot=              1.4686
 Quadrupole moment (field-independent basis, Debye-Ang):
   XX=            -32.3105   YY=            -47.4580   ZZ=            -52.0619
   XY=             -6.2057   XZ=              2.0482   YZ=              4.3784
 Traceless Quadrupole moment (field-independent basis, Debye-Ang):
   XX=             11.6330   YY=             -3.5145   ZZ=             -8.1185
   XY=             -6.2057   XZ=              2.0482   YZ=              4.3784
 Octapole moment (field-independent basis, Debye-Ang**2):
  XXX=             28.6025  YYY=              2.3702  ZZZ=             -3.2825  XYY=              1.1213
  XXY=             -6.6403  XXZ=              1.8738  XZZ=              3.4082  YZZ=              4.9691
  YYZ=              0.1560  XYZ=             10.3299
 Hexadecapole moment (field-independent basis, Debye-Ang**3):
 XXXX=           -904.4793 YYYY=           -224.4738 ZZZZ=           -182.1514 XXXY=            -38.7365
 XXXZ=              3.3083 YYYX=             -5.1090 YYYZ=              3.7976 ZZZX=              7.7749
 ZZZY=              3.5256 XXYY=           -192.6938 XXZZ=           -193.5991 YYZZ=            -61.6993
 XXYZ=             31.0046 YYXZ=             -0.3009 ZZXY=              1.5682
 N-N= 3.621106823718D+02 E-N=-1.707134324410D+03  KE= 4.175412909402D+02
 1\1\GINC-CHEM-LAB-HP-Z2-TOWER-G9-WORKSTATION-DESKTOP-PC\SP\UCCSD(T)-FC
 \6-311++G(d,p)\C5H7O3(2)\CHEM-LAB\04-Aug-2025\0\\# ccsd(t)/6-311++g(d,
 p) sp\\Title Card Required\\0,2\O,0,2.124868,1.270496,0.023276\H,0,2.7
 8688,1.170581,0.719551\C,0,2.441934,-1.161379,-0.591383\H,0,3.327905,-
 1.624259,-0.964834\C,0,1.577218,-0.346916,-0.163685\C,0,0.166973,-0.19
 5756,0.32028\O,0,-0.169118,-0.402516,1.451105\O,0,-0.595002,0.301124,-
 0.643629\C,0,-1.93053,0.692158,-0.260791\C,0,-2.857474,-0.505659,-0.21
 5365\H,0,-2.226576,1.404236,-1.028798\H,0,-1.878566,1.197538,0.704265\
 H,0,-3.873683,-0.173366,0.005542\H,0,-2.864034,-1.018697,-1.178275\H,0
 ,-2.54664,-1.203558,0.562191\\Version=ES64L-G16RevA.03\State=2-A\HF=-4
 17.9838594\MP2=-419.249534\MP3=-419.2772441\MP4D=-419.3084683\MP4DQ=-4
 19.2839028\PUHF=-418.0092775\PMP2-0=-419.271744\PMP3-0=-419.2943259\MP
 4SDQ=-419.3060822\CCSD=-419.3126107\CCSD(T)=-419.3675377\S2=1.046689\S
 2-1=0.962671\S2A=0.811279\RMSD=9.316e-09\PG=C01 [X(C5H7O3)]\\@


 "I COULD HAVE DONE IT IN A MUCH MORE COMPLICATED WAY"
 SAID THE RED QUEEN, IMMENSELY PROUD.

                                      -- LEWIS CARROLL
 Job cpu time:       1 days  2 hours  4 minutes 16.5 seconds.
 Elapsed time:       0 days  1 hours  5 minutes 11.0 seconds.
 File lengths (MBytes):  RWF=  44733 Int=      0 D2E=      0 Chk=      8 Scr=      1
 Normal termination of Gaussian 16 at Mon Aug  4 13:19:08 2025.
