 Entering Gaussian System, Link 0=g16
 Initial command:
 /opt/g16/l1.exe "/home/aayush/scratches/g16/Gau-90404.inp" -scrdir="/home/aayush/scratches/g16/"
 Entering Link 1 = /opt/g16/l1.exe PID=     90407.
  
 Copyright (c) 1988,1990,1992,1993,1995,1998,2003,2009,2016,
            Gaussian, Inc.  All Rights Reserved.
  
 This is part of the Gaussian(R) 16 program.  It is based on
 the Gaussian(R) 09 system (copyright 2009, Gaussian, Inc.),
 the Gaussian(R) 03 system (copyright 2003, Gaussian, Inc.),
 the Gaussian(R) 98 system (copyright 1998, Gaussian, Inc.),
 the Gaussian(R) 94 system (copyright 1995, Gaussian, Inc.),
 the Gaussian 92(TM) system (copyright 1992, Gaussian, Inc.),
 the Gaussian 90(TM) system (copyright 1990, Gaussian, Inc.),
 the Gaussian 88(TM) system (copyright 1988, Gaussian, Inc.),
 the Gaussian 86(TM) system (copyright 1986, Carnegie Mellon
 University), and the Gaussian 82(TM) system (copyright 1983,
 Carnegie Mellon University). Gaussian is a federally registered
 trademark of Gaussian, Inc.
  
 This software contains proprietary and confidential information,
 including trade secrets, belonging to Gaussian, Inc.
  
 This software is provided under written license and may be
 used, copied, transmitted, or stored only in accord with that
 written license.
  
 The following legend is applicable only to US Government
 contracts under FAR:
  
                    RESTRICTED RIGHTS LEGEND
  
 Use, reproduction and disclosure by the US Government is
 subject to restrictions as set forth in subparagraphs (a)
 and (c) of the Commercial Computer Software - Restricted
 Rights clause in FAR 52.227-19.
  
 Gaussian, Inc.
 340 Quinnipiac St., Bldg. 40, Wallingford CT 06492
  
  
 ---------------------------------------------------------------
 Warning -- This program may not be used in any manner that
 competes with the business of Gaussian, Inc. or will provide
 assistance to any competitor of Gaussian, Inc.  The licensee
 of this program is prohibited from giving any competitor of
 Gaussian, Inc. access to this program.  By using this program,
 the user acknowledges that Gaussian, Inc. is engaged in the
 business of creating and licensing software in the field of
 computational chemistry and represents and warrants to the
 licensee that it is not a competitor of Gaussian, Inc. and that
 it will not use this program in any manner prohibited above.
 ---------------------------------------------------------------
  

 Cite this work as:
 Gaussian 16, Revision A.03,
 M. J. Frisch, G. W. Trucks, H. B. Schlegel, G. E. Scuseria, 
 M. A. Robb, J. R. Cheeseman, G. Scalmani, V. Barone, 
 G. A. Petersson, H. Nakatsuji, X. Li, M. Caricato, A. V. Marenich, 
 J. Bloino, B. G. Janesko, R. Gomperts, B. Mennucci, H. P. Hratchian, 
 J. V. Ortiz, A. F. Izmaylov, J. L. Sonnenberg, D. Williams-Young, 
 F. Ding, F. Lipparini, F. Egidi, J. Goings, B. Peng, A. Petrone, 
 T. Henderson, D. Ranasinghe, V. G. Zakrzewski, J. Gao, N. Rega, 
 G. Zheng, W. Liang, M. Hada, M. Ehara, K. Toyota, R. Fukuda, 
 J. Hasegawa, M. Ishida, T. Nakajima, Y. Honda, O. Kitao, H. Nakai, 
 T. Vreven, K. Throssell, J. A. Montgomery, Jr., J. E. Peralta, 
 F. Ogliaro, M. J. Bearpark, J. J. Heyd, E. N. Brothers, K. N. Kudin, 
 V. N. Staroverov, T. A. Keith, R. Kobayashi, J. Normand, 
 K. Raghavachari, A. P. Rendell, J. C. Burant, S. S. Iyengar, 
 J. Tomasi, M. Cossi, J. M. Millam, M. Klene, C. Adamo, R. Cammi, 
 J. W. Ochterski, R. L. Martin, K. Morokuma, O. Farkas, 
 J. B. Foresman, and D. J. Fox, Gaussian, Inc., Wallingford CT, 2016.
 
 ******************************************
 Gaussian 16:  ES64L-G16RevA.03 25-Dec-2016
                20-Jun-2025 
 ******************************************
 %nprocshared=24
 Will use up to   24 processors via shared memory.
 %mem=12GB
 %chk=ethyl_propiolate_ts1.chk
 -------------------
 # freq 6-31+g m062x
 -------------------
 1/10=4,30=1,38=1/1,3;
 2/12=2,17=6,18=5,40=1/2;
 3/5=1,6=6,7=10,11=2,25=1,30=1,71=2,74=-55,140=1/1,2,3;
 4//1;
 5/5=2,38=5,98=1/2;
 8/6=4,10=90,11=11/1;
 11/6=1,8=1,9=11,15=111,16=1/1,2,10;
 10/6=1/2;
 6/7=2,8=2,9=2,10=2,28=1/1;
 7/8=1,10=1,25=1/1,2,3,16;
 1/10=4,30=1/3;
 99//99;
 -------------------
 Title Card Required
 -------------------
 Symbolic Z-matrix:
 Charge =  0 Multiplicity = 2
 O                     2.08232   1.2941   -0.02504 
 H                     2.73864   1.18837   0.67775 
 C                     2.38149  -1.18881  -0.56418 
 H                     3.25457  -1.68502  -0.92189 
 C                     1.48792  -0.42139  -0.16775 
 C                     0.10106  -0.18897   0.31682 
 O                    -0.23415  -0.35406   1.45444 
 O                    -0.65603   0.28197  -0.66313 
 C                    -1.98954   0.69172  -0.29331 
 C                    -2.92255  -0.4995   -0.20908 
 H                    -2.28203   1.37971  -1.08425 
 H                    -1.93541   1.22817   0.65463 
 H                    -3.93698  -0.15485   0.00077 
 H                    -2.93185  -1.04361  -1.15475 
 H                    -2.61547  -1.1733    0.59093 
 

 GradGradGradGradGradGradGradGradGradGradGradGradGradGradGradGradGradGrad
 Berny optimization.
 Initialization pass.
 Trust Radius=3.00D-01 FncErr=1.00D-07 GrdErr=1.00D-07 EigMax=2.50D+02 EigMin=1.00D-04
 Number of steps in this run=      2 maximum allowed number of steps=      2.
 GradGradGradGradGradGradGradGradGradGradGradGradGradGradGradGradGradGrad

                          Input orientation:                          
 ---------------------------------------------------------------------
 Center     Atomic      Atomic             Coordinates (Angstroms)
 Number     Number       Type             X           Y           Z
 ---------------------------------------------------------------------
      1          8           0        2.082316    1.294095   -0.025044
      2          1           0        2.738638    1.188366    0.677745
      3          6           0        2.381487   -1.188811   -0.564179
      4          1           0        3.254575   -1.685019   -0.921888
      5          6           0        1.487924   -0.421388   -0.167745
      6          6           0        0.101062   -0.188972    0.316819
      7          8           0       -0.234148   -0.354056    1.454444
      8          8           0       -0.656026    0.281967   -0.663129
      9          6           0       -1.989537    0.691723   -0.293311
     10          6           0       -2.922553   -0.499498   -0.209081
     11          1           0       -2.282031    1.379707   -1.084249
     12          1           0       -1.935412    1.228171    0.654627
     13          1           0       -3.936980   -0.154846    0.000770
     14          1           0       -2.931847   -1.043614   -1.154750
     15          1           0       -2.615472   -1.173300    0.590926
 ---------------------------------------------------------------------
                    Distance matrix (angstroms):
                    1          2          3          4          5
     1  O    0.000000
     2  H    0.967393   0.000000
     3  C    2.558318   2.705717   0.000000
     4  H    3.324702   3.328867   1.066049   0.000000
     5  C    1.821139   2.206909   1.242800   2.299250   0.000000
     6  C    2.498345   2.997355   2.641245   3.703673   1.487349
     7  O    3.204886   3.437991   3.407815   4.426015   2.366762
     8  O    2.988323   3.760751   3.376309   4.385064   2.310116
     9  C    4.124901   4.852344   4.766092   5.791781   3.653426
    10  C    5.319733   5.973645   5.360419   6.330124   4.411362
    11  H    4.491856   5.324317   5.349407   6.330317   4.277439
    12  H    4.075345   4.674277   5.095381   6.156951   3.888003
    13  H    6.191286   6.842981   6.427385   7.410209   5.434062
    14  H    5.646499   6.363503   5.348025   6.223941   4.571184
    15  H    5.341972   5.852478   5.128753   6.083413   4.240143
                    6          7          8          9         10
     6  C    0.000000
     7  O    1.197418   0.000000
     8  O    1.324864   2.250916   0.000000
     9  C    2.349146   2.688809   1.443231   0.000000
    10  C    3.084679   3.164805   2.440080   1.515461   0.000000
    11  H    3.178502   3.693876   2.006556   1.088328   2.169700
    12  H    2.503924   2.457122   2.066062   1.090547   2.169166
    13  H    4.050535   3.982941   3.375830   2.143758   1.091735
    14  H    3.477710   3.815883   2.679220   2.154395   1.091072
    15  H    2.902343   2.662241   2.744064   2.156845   1.090100
                   11         12         13         14         15
    11  H    0.000000
    12  H    1.779550   0.000000
    13  H    2.504192   2.519234   0.000000
    14  H    2.509923   3.070462   1.770714   0.000000
    15  H    3.071683   2.496718   1.769722   1.778847   0.000000
 Stoichiometry    C5H7O3(2)
 Framework group  C1[X(C5H7O3)]
 Deg. of freedom    39
 Full point group                 C1      NOp   1
 Largest Abelian subgroup         C1      NOp   1
 Largest concise Abelian subgroup C1      NOp   1
                         Standard orientation:                         
 ---------------------------------------------------------------------
 Center     Atomic      Atomic             Coordinates (Angstroms)
 Number     Number       Type             X           Y           Z
 ---------------------------------------------------------------------
      1          8           0        2.140278    1.303931    0.008952
      2          1           0        2.796983    1.187654    0.709714
      3          6           0        2.448378   -1.167545   -0.575749
      4          1           0        3.323243   -1.653944   -0.942476
      5          6           0        1.552063   -0.410765   -0.165316
      6          6           0        0.164377   -0.192294    0.323362
      7          8           0       -0.170226   -0.379483    1.457738
      8          8           0       -0.594409    0.293864   -0.647801
      9          6           0       -1.929383    0.691946   -0.270584
     10          6           0       -2.858105   -0.503972   -0.208335
     11          1           0       -2.224358    1.393307   -1.048749
     12          1           0       -1.877181    1.211057    0.687065
     13          1           0       -3.873764   -0.166892    0.007763
     14          1           0       -2.865449   -1.030630   -1.163853
     15          1           0       -2.548594   -1.191267    0.579160
 ---------------------------------------------------------------------
 Rotational constants (GHZ):           4.1777214           1.1689698           1.1249433
 Standard basis: 6-31+G (6D, 7F)
 There are   118 symmetry adapted cartesian basis functions of A   symmetry.
 There are   118 symmetry adapted basis functions of A   symmetry.
   118 basis functions,   236 primitive gaussians,   118 cartesian basis functions
    31 alpha electrons       30 beta electrons
       nuclear repulsion energy       361.1079277855 Hartrees.
 NAtoms=   15 NActive=   15 NUniq=   15 SFac= 1.00D+00 NAtFMM=   60 NAOKFM=F Big=F
 Integral buffers will be    131072 words long.
 Raffenetti 2 integral format.
 Two-electron integral symmetry is turned on.
 One-electron integrals computed using PRISM.
 NBasis=   118 RedAO= T EigKep=  8.52D-06  NBF=   118
 NBsUse=   118 1.00D-06 EigRej= -1.00D+00 NBFU=   118
 ExpMin= 4.38D-02 ExpMax= 5.48D+03 ExpMxC= 8.25D+02 IAcc=3 IRadAn=         5 AccDes= 0.00D+00
 Harris functional with IExCor= 1009 and IRadAn=       5 diagonalized for initial guess.
 HarFok:  IExCor= 1009 AccDes= 0.00D+00 IRadAn=         5 IDoV= 1 UseB2=F ITyADJ=14
 ICtDFT=  3500011 ScaDFX=  1.000000  1.000000  1.000000  1.000000
 FoFCou: FMM=F IPFlag=           0 FMFlag=      100000 FMFlg1=           0
         NFxFlg=           0 DoJE=T BraDBF=F KetDBF=T FulRan=T
         wScrn=  0.000000 ICntrl=       500 IOpCl=  0 I1Cent=   200000004 NGrid=           0
         NMat0=    1 NMatS0=      1 NMatT0=    0 NMatD0=    1 NMtDS0=    0 NMtDT0=    0
 Petite list used in FoFCou.
 Initial guess <Sx>= 0.0000 <Sy>= 0.0000 <Sz>= 0.5000 <S**2>= 0.7500 S= 0.5000
 Requested convergence on RMS density matrix=1.00D-08 within 128 cycles.
 Requested convergence on MAX density matrix=1.00D-06.
 Requested convergence on             energy=1.00D-06.
 No special actions if energy rises.
 Restarting incremental Fock formation.
 SCF Done:  E(UM062X) =  -419.956838969     A.U. after   21 cycles
            NFock= 21  Conv=0.19D-08     -V/T= 2.0053
 <Sx>= 0.0000 <Sy>= 0.0000 <Sz>= 0.5000 <S**2>= 0.7857 S= 0.5177
 <L.S>=  0.00000000000    
 Annihilation of the first spin contaminant:
 S**2 before annihilation     0.7857,   after     0.7506
 DoSCS=F DFT=T ScalE2(SS,OS)=  1.000000  1.000000
 Range of M.O.s used for correlation:     1   118
 NBasis=   118 NAE=    31 NBE=    30 NFC=     0 NFV=     0
 NROrb=    118 NOA=    31 NOB=    30 NVA=    87 NVB=    88

 **** Warning!!: The largest alpha MO coefficient is  0.95485671D+02


 **** Warning!!: The largest beta MO coefficient is  0.86396003D+02

 Symmetrizing basis deriv contribution to polar:
 IMax=3 JMax=2 DiffMx= 0.00D+00
 G2DrvN: will do    16 centers at a time, making    1 passes.
 Calling FoFCou, ICntrl=  3107 FMM=F I1Cent=   0 AccDes= 0.00D+00.
 End of G2Drv F.D. properties file   721 does not exist.
 End of G2Drv F.D. properties file   722 does not exist.
 End of G2Drv F.D. properties file   788 does not exist.
          IDoAtm=111111111111111
          Differentiating once with respect to electric field.
                with respect to dipole field.
          Differentiating once with respect to nuclear coordinates.
 Keep R1 and R2 ints in memory in canonical form, NReq=71861356.
          There are    48 degrees of freedom in the 1st order CPHF.  IDoFFX=6 NUNeed=     3.
     45 vectors produced by pass  0 Test12= 1.11D-14 2.08D-09 XBig12= 8.62D+01 3.95D+00.
 AX will form    45 AO Fock derivatives at one time.
     45 vectors produced by pass  1 Test12= 1.11D-14 2.08D-09 XBig12= 1.22D+01 4.44D-01.
     45 vectors produced by pass  2 Test12= 1.11D-14 2.08D-09 XBig12= 3.63D-01 8.07D-02.
     45 vectors produced by pass  3 Test12= 1.11D-14 2.08D-09 XBig12= 3.82D-03 7.48D-03.
     45 vectors produced by pass  4 Test12= 1.11D-14 2.08D-09 XBig12= 3.86D-05 9.11D-04.
     45 vectors produced by pass  5 Test12= 1.11D-14 2.08D-09 XBig12= 4.90D-07 8.31D-05.
     34 vectors produced by pass  6 Test12= 1.11D-14 2.08D-09 XBig12= 3.33D-09 6.24D-06.
     12 vectors produced by pass  7 Test12= 1.11D-14 2.08D-09 XBig12= 1.67D-11 3.14D-07.
      3 vectors produced by pass  8 Test12= 1.11D-14 2.08D-09 XBig12= 1.41D-13 3.02D-08.
      2 vectors produced by pass  9 Test12= 1.11D-14 2.08D-09 XBig12= 1.47D-15 3.48D-09.
 InvSVY:  IOpt=1 It=  1 EMax= 3.55D-15
 Solved reduced A of dimension   321 with    48 vectors.
 Isotropic polarizability for W=    0.000000       70.22 Bohr**3.
 End of Minotr F.D. properties file   721 does not exist.
 End of Minotr F.D. properties file   722 does not exist.
 End of Minotr F.D. properties file   788 does not exist.

 **********************************************************************

            Population analysis using the SCF density.

 **********************************************************************

 Orbital symmetries:
 Alpha Orbitals:
       Occupied  (A) (A) (A) (A) (A) (A) (A) (A) (A) (A) (A) (A)
                 (A) (A) (A) (A) (A) (A) (A) (A) (A) (A) (A) (A)
                 (A) (A) (A) (A) (A) (A) (A)
       Virtual   (A) (A) (A) (A) (A) (A) (A) (A) (A) (A) (A) (A)
                 (A) (A) (A) (A) (A) (A) (A) (A) (A) (A) (A) (A)
                 (A) (A) (A) (A) (A) (A) (A) (A) (A) (A) (A) (A)
                 (A) (A) (A) (A) (A) (A) (A) (A) (A) (A) (A) (A)
                 (A) (A) (A) (A) (A) (A) (A) (A) (A) (A) (A) (A)
                 (A) (A) (A) (A) (A) (A) (A) (A) (A) (A) (A) (A)
                 (A) (A) (A) (A) (A) (A) (A) (A) (A) (A) (A) (A)
                 (A) (A) (A)
 Beta  Orbitals:
       Occupied  (A) (A) (A) (A) (A) (A) (A) (A) (A) (A) (A) (A)
                 (A) (A) (A) (A) (A) (A) (A) (A) (A) (A) (A) (A)
                 (A) (A) (A) (A) (A) (A)
       Virtual   (A) (A) (A) (A) (A) (A) (A) (A) (A) (A) (A) (A)
                 (A) (A) (A) (A) (A) (A) (A) (A) (A) (A) (A) (A)
                 (A) (A) (A) (A) (A) (A) (A) (A) (A) (A) (A) (A)
                 (A) (A) (A) (A) (A) (A) (A) (A) (A) (A) (A) (A)
                 (A) (A) (A) (A) (A) (A) (A) (A) (A) (A) (A) (A)
                 (A) (A) (A) (A) (A) (A) (A) (A) (A) (A) (A) (A)
                 (A) (A) (A) (A) (A) (A) (A) (A) (A) (A) (A) (A)
                 (A) (A) (A) (A)
 The electronic state is 2-A.
 Alpha  occ. eigenvalues --  -19.70741 -19.67002 -19.66536 -10.73101 -10.63819
 Alpha  occ. eigenvalues --  -10.61566 -10.61186 -10.54656  -1.28326  -1.18949
 Alpha  occ. eigenvalues --   -1.12127  -0.92352  -0.88623  -0.78823  -0.71883
 Alpha  occ. eigenvalues --   -0.65062  -0.62871  -0.58922  -0.57426  -0.54579
 Alpha  occ. eigenvalues --   -0.53564  -0.49807  -0.48187  -0.46504  -0.45342
 Alpha  occ. eigenvalues --   -0.42231  -0.40287  -0.39788  -0.38271  -0.36829
 Alpha  occ. eigenvalues --   -0.31867
 Alpha virt. eigenvalues --   -0.00265   0.01772   0.02470   0.02756   0.03846
 Alpha virt. eigenvalues --    0.04186   0.05270   0.06004   0.07719   0.08006
 Alpha virt. eigenvalues --    0.08480   0.08983   0.09464   0.11281   0.11976
 Alpha virt. eigenvalues --    0.13177   0.13722   0.14645   0.15683   0.16383
 Alpha virt. eigenvalues --    0.17495   0.18525   0.18749   0.21796   0.22278
 Alpha virt. eigenvalues --    0.22468   0.24678   0.25122   0.25855   0.26891
 Alpha virt. eigenvalues --    0.27990   0.28816   0.30163   0.30557   0.31082
 Alpha virt. eigenvalues --    0.33443   0.33936   0.34436   0.36847   0.36915
 Alpha virt. eigenvalues --    0.38236   0.39534   0.41421   0.42281   0.44390
 Alpha virt. eigenvalues --    0.46765   0.55931   0.57533   0.69101   0.70082
 Alpha virt. eigenvalues --    0.70478   0.71667   0.73164   0.74431   0.77550
 Alpha virt. eigenvalues --    0.79934   0.82969   0.83355   0.85717   0.88973
 Alpha virt. eigenvalues --    0.92646   0.96861   0.98792   1.06314   1.09958
 Alpha virt. eigenvalues --    1.11184   1.14003   1.16189   1.18547   1.20541
 Alpha virt. eigenvalues --    1.21360   1.23975   1.28495   1.29879   1.32259
 Alpha virt. eigenvalues --    1.34350   1.37689   1.40473   1.42986   1.45542
 Alpha virt. eigenvalues --    1.47518   1.51022   1.67225   1.70075   1.85703
 Alpha virt. eigenvalues --    2.00630   2.01748
  Beta  occ. eigenvalues --  -19.70741 -19.66554 -19.66054 -10.73043 -10.63988
  Beta  occ. eigenvalues --  -10.61565 -10.60668 -10.54656  -1.28311  -1.18966
  Beta  occ. eigenvalues --   -1.08923  -0.91341  -0.87898  -0.78388  -0.71334
  Beta  occ. eigenvalues --   -0.64806  -0.62036  -0.58672  -0.57210  -0.54241
  Beta  occ. eigenvalues --   -0.52241  -0.49320  -0.46953  -0.45311  -0.42551
  Beta  occ. eigenvalues --   -0.41392  -0.39461  -0.38533  -0.38073  -0.35403
  Beta virt. eigenvalues --   -0.09775   0.00930   0.01676   0.02597   0.02799
  Beta virt. eigenvalues --    0.03863   0.04162   0.05276   0.05848   0.07661
  Beta virt. eigenvalues --    0.08098   0.08306   0.08904   0.09559   0.11146
  Beta virt. eigenvalues --    0.12129   0.13278   0.13663   0.15221   0.15758
  Beta virt. eigenvalues --    0.16461   0.17467   0.18325   0.19648   0.21762
  Beta virt. eigenvalues --    0.22325   0.22772   0.24299   0.25325   0.25927
  Beta virt. eigenvalues --    0.26904   0.28017   0.28859   0.30173   0.30549
  Beta virt. eigenvalues --    0.30965   0.33513   0.33969   0.34342   0.36664
  Beta virt. eigenvalues --    0.36892   0.38259   0.39510   0.41433   0.42396
  Beta virt. eigenvalues --    0.44340   0.46759   0.56217   0.57563   0.69282
  Beta virt. eigenvalues --    0.70368   0.71206   0.72657   0.74165   0.75458
  Beta virt. eigenvalues --    0.77777   0.79772   0.82557   0.83252   0.85894
  Beta virt. eigenvalues --    0.88808   0.92326   0.97483   0.98869   1.06076
  Beta virt. eigenvalues --    1.09948   1.11233   1.14245   1.16778   1.19125
  Beta virt. eigenvalues --    1.20684   1.21902   1.24782   1.28831   1.30488
  Beta virt. eigenvalues --    1.32648   1.34510   1.37944   1.41901   1.43526
  Beta virt. eigenvalues --    1.45950   1.47628   1.51409   1.67365   1.70041
  Beta virt. eigenvalues --    1.87078   2.00639   2.01818
          Condensed to atoms (all electrons):
               1          2          3          4          5          6
     1  O    8.382262   0.147548  -0.316132  -0.001202   0.571912  -0.287631
     2  H    0.147548   0.429788   0.053580  -0.000261  -0.026344  -0.014423
     3  C   -0.316132   0.053580  12.316187   0.506371  -1.617643  -5.059572
     4  H   -0.001202  -0.000261   0.506371   0.381972  -0.166574  -0.020947
     5  C    0.571912  -0.026344  -1.617643  -0.166574  11.555532  -2.825960
     6  C   -0.287631  -0.014423  -5.059572  -0.020947  -2.825960  13.459919
     7  O   -0.014010  -0.000523   0.031212   0.000097   0.148815   0.019329
     8  O    0.006520  -0.000149  -0.231589   0.000202  -0.767246   0.476781
     9  C   -0.002787   0.000618   0.082596   0.000804  -0.090685  -0.129071
    10  C    0.002063  -0.000509  -0.112733  -0.000203  -0.224440   0.158449
    11  H    0.000034  -0.000000  -0.000742   0.000000  -0.006634   0.022247
    12  H   -0.000099  -0.000001   0.004800  -0.000000   0.030616  -0.034812
    13  H    0.000001  -0.000000  -0.000068   0.000000   0.001322   0.005220
    14  H    0.000012   0.000000  -0.000788  -0.000000   0.002721   0.003460
    15  H    0.000024   0.000000  -0.001420   0.000000  -0.009082   0.009913
               7          8          9         10         11         12
     1  O   -0.014010   0.006520  -0.002787   0.002063   0.000034  -0.000099
     2  H   -0.000523  -0.000149   0.000618  -0.000509  -0.000000  -0.000001
     3  C    0.031212  -0.231589   0.082596  -0.112733  -0.000742   0.004800
     4  H    0.000097   0.000202   0.000804  -0.000203   0.000000  -0.000000
     5  C    0.148815  -0.767246  -0.090685  -0.224440  -0.006634   0.030616
     6  C    0.019329   0.476781  -0.129071   0.158449   0.022247  -0.034812
     7  O    8.471109  -0.258616   0.016907  -0.062733  -0.000911   0.001300
     8  O   -0.258616   9.056196  -0.036245   0.058793  -0.070821  -0.035628
     9  C    0.016907  -0.036245   5.857678  -0.171479   0.425711   0.422057
    10  C   -0.062733   0.058793  -0.171479   5.870059  -0.057269  -0.078073
    11  H   -0.000911  -0.070821   0.425711  -0.057269   0.496078  -0.030931
    12  H    0.001300  -0.035628   0.422057  -0.078073  -0.030931   0.486512
    13  H   -0.000304   0.006651  -0.071464   0.400595  -0.000637  -0.000790
    14  H   -0.000121  -0.001720  -0.056531   0.396606  -0.004460   0.003769
    15  H    0.001160  -0.008648  -0.051019   0.406911   0.003577  -0.004640
              13         14         15
     1  O    0.000001   0.000012   0.000024
     2  H   -0.000000   0.000000   0.000000
     3  C   -0.000068  -0.000788  -0.001420
     4  H    0.000000  -0.000000   0.000000
     5  C    0.001322   0.002721  -0.009082
     6  C    0.005220   0.003460   0.009913
     7  O   -0.000304  -0.000121   0.001160
     8  O    0.006651  -0.001720  -0.008648
     9  C   -0.071464  -0.056531  -0.051019
    10  C    0.400595   0.396606   0.406911
    11  H   -0.000637  -0.004460   0.003577
    12  H   -0.000790   0.003769  -0.004640
    13  H    0.499924  -0.025324  -0.022861
    14  H   -0.025324   0.490524  -0.027321
    15  H   -0.022861  -0.027321   0.469314
          Atomic-Atomic Spin Densities.
               1          2          3          4          5          6
     1  O    0.626611  -0.000390  -0.238357  -0.000909   0.005072   0.081978
     2  H   -0.000390  -0.019371   0.019419   0.000072  -0.004664  -0.008848
     3  C   -0.238357   0.019419   0.968185   0.001241  -0.119337   0.195111
     4  H   -0.000909   0.000072   0.001241  -0.023300  -0.008236   0.000523
     5  C    0.005072  -0.004664  -0.119337  -0.008236  -0.555194   0.310047
     6  C    0.081978  -0.008848   0.195111   0.000523   0.310047  -0.459542
     7  O    0.001581  -0.000097   0.004277  -0.000019   0.019248  -0.022535
     8  O    0.004440  -0.000005  -0.002107  -0.000024   0.006520  -0.012040
     9  C   -0.000929   0.000070   0.003086  -0.000014   0.011662  -0.013506
    10  C    0.000097   0.000043   0.002570   0.000009  -0.000082   0.000358
    11  H   -0.000003   0.000000   0.000240   0.000000   0.000874  -0.001080
    12  H   -0.000000  -0.000000   0.000051   0.000000   0.000197  -0.000190
    13  H   -0.000001   0.000000   0.000042   0.000000   0.000208  -0.000218
    14  H    0.000001  -0.000000  -0.000072  -0.000000  -0.000088   0.000005
    15  H    0.000001  -0.000000   0.000128   0.000000   0.000361  -0.000496
               7          8          9         10         11         12
     1  O    0.001581   0.004440  -0.000929   0.000097  -0.000003  -0.000000
     2  H   -0.000097  -0.000005   0.000070   0.000043   0.000000  -0.000000
     3  C    0.004277  -0.002107   0.003086   0.002570   0.000240   0.000051
     4  H   -0.000019  -0.000024  -0.000014   0.000009   0.000000   0.000000
     5  C    0.019248   0.006520   0.011662  -0.000082   0.000874   0.000197
     6  C   -0.022535  -0.012040  -0.013506   0.000358  -0.001080  -0.000190
     7  O   -0.010621   0.000078   0.000877  -0.000304   0.000009   0.000171
     8  O    0.000078   0.004920  -0.000615  -0.001118   0.000114  -0.000147
     9  C    0.000877  -0.000615   0.000019   0.001727  -0.000069  -0.000257
    10  C   -0.000304  -0.001118   0.001727  -0.003586  -0.000014   0.000177
    11  H    0.000009   0.000114  -0.000069  -0.000014  -0.000208  -0.000008
    12  H    0.000171  -0.000147  -0.000257   0.000177  -0.000008  -0.000106
    13  H    0.000029  -0.000026  -0.000221   0.000110   0.000001   0.000003
    14  H    0.000001   0.000020  -0.000103   0.000291  -0.000005  -0.000002
    15  H   -0.000065   0.000060  -0.000076   0.000121  -0.000003  -0.000007
              13         14         15
     1  O   -0.000001   0.000001   0.000001
     2  H    0.000000  -0.000000  -0.000000
     3  C    0.000042  -0.000072   0.000128
     4  H    0.000000  -0.000000   0.000000
     5  C    0.000208  -0.000088   0.000361
     6  C   -0.000218   0.000005  -0.000496
     7  O    0.000029   0.000001  -0.000065
     8  O   -0.000026   0.000020   0.000060
     9  C   -0.000221  -0.000103  -0.000076
    10  C    0.000110   0.000291   0.000121
    11  H    0.000001  -0.000005  -0.000003
    12  H    0.000003  -0.000002  -0.000007
    13  H    0.000312  -0.000025  -0.000019
    14  H   -0.000025  -0.000060  -0.000013
    15  H   -0.000019  -0.000013  -0.000024
 Mulliken charges and spin densities:
               1          2
     1  O   -0.488514   0.479193
     2  H    0.410677  -0.013771
     3  C    0.345942   0.834476
     4  H    0.299742  -0.030656
     5  C   -0.576309  -0.333412
     6  C    0.217100   0.069567
     7  O   -0.352710  -0.007369
     8  O   -0.194481   0.000072
     9  C   -0.197089   0.001652
    10  C   -0.586038   0.000402
    11  H    0.224759  -0.000153
    12  H    0.235922  -0.000116
    13  H    0.207735   0.000196
    14  H    0.219173  -0.000049
    15  H    0.234093  -0.000033
 Sum of Mulliken charges =  -0.00000   1.00000
 Mulliken charges and spin densities with hydrogens summed into heavy atoms:
               1          2
     1  O   -0.077837   0.465422
     3  C    0.645683   0.803821
     5  C   -0.576309  -0.333412
     6  C    0.217100   0.069567
     7  O   -0.352710  -0.007369
     8  O   -0.194481   0.000072
     9  C    0.263592   0.001382
    10  C    0.074962   0.000517
 APT charges:
               1
     1  O   -0.365049
     2  H    0.226853
     3  C   -0.176060
     4  H    0.252005
     5  C   -0.164497
     6  C    1.387757
     7  O   -0.746470
     8  O   -0.928293
     9  C    0.502286
    10  C   -0.054863
    11  H   -0.001400
    12  H   -0.003759
    13  H    0.015414
    14  H    0.017997
    15  H    0.038078
 Sum of APT charges =   0.00000
 APT charges with hydrogens summed into heavy atoms:
               1
     1  O   -0.138195
     3  C    0.075945
     5  C   -0.164497
     6  C    1.387757
     7  O   -0.746470
     8  O   -0.928293
     9  C    0.497127
    10  C    0.016627
 Electronic spatial extent (au):  <R**2>=           1121.7871
 Charge=             -0.0000 electrons
 Dipole moment (field-independent basis, Debye):
    X=              0.0965    Y=             -1.5026    Z=             -0.6666  Tot=              1.6467
 Quadrupole moment (field-independent basis, Debye-Ang):
   XX=            -31.8961   YY=            -48.0067   ZZ=            -52.8422
   XY=             -7.2206   XZ=              2.2827   YZ=              4.6397
 Traceless Quadrupole moment (field-independent basis, Debye-Ang):
   XX=             12.3523   YY=             -3.7584   ZZ=             -8.5939
   XY=             -7.2206   XZ=              2.2827   YZ=              4.6397
 Octapole moment (field-independent basis, Debye-Ang**2):
  XXX=             27.1998  YYY=              0.4679  ZZZ=             -3.9202  XYY=              0.4977
  XXY=             -9.5928  XXZ=              1.4037  XZZ=              3.1461  YZZ=              4.3308
  YYZ=              0.3834  XYZ=             11.2379
 Hexadecapole moment (field-independent basis, Debye-Ang**3):
 XXXX=           -904.1750 YYYY=           -233.6490 ZZZZ=           -186.5763 XXXY=            -45.9028
 XXXZ=              3.4826 YYYX=            -10.0724 YYYZ=              5.0018 ZZZX=              7.0530
 ZZZY=              3.8940 XXYY=           -194.2874 XXZZ=           -197.1193 YYZZ=            -63.5778
 XXYZ=             33.2665 YYXZ=              0.2399 ZZXY=              0.4067
 N-N= 3.611079277855D+02 E-N=-1.704750254472D+03  KE= 4.177270592378D+02
  Exact polarizability:  79.948  -5.848  72.609  -2.721   4.482  58.110
 Approx polarizability:  76.304 -10.765  83.695  -5.992   4.236  73.441
                          Isotropic Fermi Contact Couplings
        Atom                 a.u.       MegaHertz       Gauss      10(-4) cm-1
     1  O(17)              0.07204     -43.67242     -15.58340     -14.56755
     2  H(1)              -0.00849     -37.93260     -13.53529     -12.65295
     3  C(13)              0.09388     105.53818      37.65865      35.20375
     4  H(1)              -0.01289     -57.63845     -20.56683     -19.22612
     5  C(13)             -0.02609     -29.32844     -10.46512      -9.78291
     6  C(13)              0.03241      36.43841      13.00213      12.15454
     7  O(17)             -0.00241       1.46369       0.52228       0.48823
     8  O(17)              0.00366      -2.21728      -0.79118      -0.73961
     9  C(13)              0.00015       0.16575       0.05915       0.05529
    10  C(13)              0.00006       0.06752       0.02409       0.02252
    11  H(1)              -0.00004      -0.15983      -0.05703      -0.05331
    12  H(1)              -0.00010      -0.44798      -0.15985      -0.14943
    13  H(1)               0.00010       0.42922       0.15315       0.14317
    14  H(1)              -0.00000      -0.01289      -0.00460      -0.00430
    15  H(1)               0.00003       0.11939       0.04260       0.03982
 --------------------------------------------------------
       Center         ----  Spin Dipole Couplings  ----
                      3XX-RR        3YY-RR        3ZZ-RR
 --------------------------------------------------------
     1   Atom       -0.913398      1.780298     -0.866899
     2   Atom        0.003417     -0.024985      0.021568
     3   Atom       -0.090640      0.381802     -0.291162
     4   Atom        0.034405      0.002609     -0.037014
     5   Atom        0.090936     -0.039387     -0.051549
     6   Atom        0.027447     -0.007334     -0.020113
     7   Atom        0.064713     -0.072721      0.008008
     8   Atom        0.015179     -0.018090      0.002911
     9   Atom        0.004127     -0.001980     -0.002147
    10   Atom        0.001753     -0.000811     -0.000942
    11   Atom        0.001741     -0.000712     -0.001029
    12   Atom        0.002235     -0.000963     -0.001272
    13   Atom        0.000999     -0.000450     -0.000550
    14   Atom        0.001444     -0.000635     -0.000809
    15   Atom        0.001493     -0.000640     -0.000854
 --------------------------------------------------------
                        XY            XZ            YZ
 --------------------------------------------------------
     1   Atom        0.124412      0.009603      0.366962
     2   Atom       -0.010160      0.078895     -0.003364
     3   Atom        0.500319      0.051958     -0.010202
     4   Atom       -0.027906     -0.031294      0.019861
     5   Atom       -0.065481     -0.059009      0.031212
     6   Atom        0.005610     -0.016298      0.002294
     7   Atom        0.024829      0.001583     -0.023272
     8   Atom        0.005599      0.011071      0.004711
     9   Atom       -0.000750     -0.000568      0.000031
    10   Atom        0.000056     -0.000004      0.000035
    11   Atom       -0.000616      0.000536     -0.000135
    12   Atom       -0.000503     -0.000854      0.000298
    13   Atom        0.000011     -0.000110      0.000026
    14   Atom        0.000211      0.000320      0.000092
    15   Atom        0.000348     -0.000564     -0.000067
 --------------------------------------------------------


 ---------------------------------------------------------------------------------
              Anisotropic Spin Dipole Couplings in Principal Axis System
 ---------------------------------------------------------------------------------

       Atom             a.u.   MegaHertz   Gauss  10(-4) cm-1        Axes

              Baa    -0.9253    66.952    23.890    22.333  0.7579 -0.1218  0.6410
     1 O(17)  Bbb    -0.9106    65.890    23.511    21.979 -0.6508 -0.0730  0.7557
              Bcc     1.8359  -132.842   -47.401   -44.311  0.0453  0.9899  0.1346
 
              Baa    -0.0676   -36.069   -12.870   -12.031  0.7453  0.1260 -0.6547
     2 H(1)   Bbb    -0.0250   -13.359    -4.767    -4.456 -0.0420  0.9889  0.1425
              Bcc     0.0926    49.428    17.637    16.487  0.6654 -0.0787  0.7423
 
              Baa    -0.4258   -57.142   -20.390   -19.060  0.7960 -0.4975 -0.3448
     3 C(13)  Bbb    -0.2734   -36.689   -13.091   -12.238  0.2814 -0.2002  0.9385
              Bcc     0.6992    93.831    33.481    31.298  0.5359  0.8441  0.0194
 
              Baa    -0.0506   -27.008    -9.637    -9.009  0.2784 -0.2042  0.9385
     4 H(1)   Bbb    -0.0136    -7.236    -2.582    -2.414  0.5182  0.8546  0.0322
              Bcc     0.0642    34.244    12.219    11.423  0.8087 -0.4774 -0.3438
 
              Baa    -0.0776   -10.412    -3.715    -3.473  0.0818 -0.5427  0.8359
     5 C(13)  Bbb    -0.0635    -8.524    -3.041    -2.843  0.4879  0.7532  0.4412
              Bcc     0.1411    18.935     6.757     6.316  0.8691 -0.3717 -0.3264
 
              Baa    -0.0260    -3.485    -1.244    -1.163  0.3053 -0.2063  0.9296
     6 C(13)  Bbb    -0.0071    -0.949    -0.338    -0.316 -0.0486  0.9716  0.2316
              Bcc     0.0330     4.434     1.582     1.479  0.9510  0.1159 -0.2866
 
              Baa    -0.0830     6.005     2.143     2.003 -0.1632  0.9551  0.2471
     7 O(17)  Bbb     0.0138    -1.000    -0.357    -0.334  0.0850 -0.2359  0.9680
              Bcc     0.0692    -5.005    -1.786    -1.669  0.9829  0.1790 -0.0427
 
              Baa    -0.0194     1.407     0.502     0.469 -0.1101  0.9822 -0.1525
     8 O(17)  Bbb    -0.0035     0.255     0.091     0.085 -0.5241  0.0730  0.8485
              Bcc     0.0230    -1.662    -0.593    -0.554  0.8445  0.1733  0.5068
 
              Baa    -0.0022    -0.296    -0.106    -0.099  0.1160  0.2523  0.9607
     9 C(13)  Bbb    -0.0021    -0.276    -0.099    -0.092  0.0923  0.9603 -0.2633
              Bcc     0.0043     0.573     0.204     0.191  0.9890 -0.1192 -0.0881
 
              Baa    -0.0010    -0.128    -0.046    -0.043  0.0066 -0.2435  0.9699
    10 C(13)  Bbb    -0.0008    -0.108    -0.038    -0.036 -0.0208  0.9697  0.2436
              Bcc     0.0018     0.235     0.084     0.079  0.9998  0.0217 -0.0014
 
              Baa    -0.0011    -0.603    -0.215    -0.201 -0.1684  0.0700  0.9832
    11 H(1)   Bbb    -0.0009    -0.458    -0.163    -0.153  0.2361  0.9713 -0.0288
              Bcc     0.0020     1.061     0.379     0.354  0.9570 -0.2273  0.1801
 
              Baa    -0.0015    -0.818    -0.292    -0.273  0.1647 -0.3396  0.9261
    12 H(1)   Bbb    -0.0010    -0.527    -0.188    -0.176  0.2241  0.9272  0.3001
              Bcc     0.0025     1.345     0.480     0.449  0.9606 -0.1581 -0.2288
 
              Baa    -0.0006    -0.301    -0.107    -0.100  0.0702 -0.2266  0.9715
    13 H(1)   Bbb    -0.0004    -0.237    -0.084    -0.079  0.0099  0.9740  0.2264
              Bcc     0.0010     0.537     0.192     0.179  0.9975  0.0063 -0.0706
 
              Baa    -0.0009    -0.465    -0.166    -0.155 -0.1070 -0.2762  0.9551
    14 H(1)   Bbb    -0.0006    -0.341    -0.122    -0.114 -0.1369  0.9556  0.2610
              Bcc     0.0015     0.806     0.288     0.269  0.9848  0.1028  0.1401
 
              Baa    -0.0010    -0.524    -0.187    -0.175  0.2273 -0.0414  0.9730
    15 H(1)   Bbb    -0.0007    -0.370    -0.132    -0.123 -0.1381  0.9876  0.0742
              Bcc     0.0017     0.894     0.319     0.298  0.9640  0.1513 -0.2187
 

 ---------------------------------------------------------------------------------

 Calling FoFJK, ICntrl=    100127 FMM=F ISym2X=0 I1Cent= 0 IOpClX= 1 NMat=1 NMatS=1 NMatT=0.
 Full mass-weighted force constant matrix:
 Low frequencies --- -681.6817 -472.6503 -137.8166  -79.8898  -50.8292    0.0006
 Low frequencies ---    0.0008    0.0011   12.6913
 ******    3 imaginary frequencies (negative Signs) ****** 
 Diagonal vibrational polarizability:
       61.6121352      74.6787022      36.2887316
 Harmonic frequencies (cm**-1), IR intensities (KM/Mole), Raman scattering
 activities (A**4/AMU), depolarization ratios for plane and unpolarized
 incident light, reduced masses (AMU), force constants (mDyne/A),
 and normal coordinates:
                      1                      2                      3
                      A                      A                      A
 Frequencies --   -681.6592              -471.9714               -87.3226
 Red. masses --     11.8041                 1.0711                 7.0469
 Frc consts  --      3.2316                 0.1406                 0.0317
 IR Inten    --      0.9325               113.5158                 5.8895
  Atom  AN      X      Y      Z        X      Y      Z        X      Y      Z
     1   8    -0.16  -0.44  -0.04    -0.05   0.01   0.04     0.06  -0.07   0.29
     2   1    -0.05   0.07  -0.09     0.71  -0.12  -0.69     0.11  -0.26   0.21
     3   6    -0.14  -0.12   0.01     0.00  -0.00   0.01    -0.09   0.07  -0.33
     4   1     0.09   0.27   0.01    -0.02  -0.05   0.01    -0.13   0.15  -0.55
     5   6     0.31   0.74   0.09     0.00  -0.00   0.00     0.01  -0.01   0.01
     6   6     0.02   0.00  -0.01     0.00   0.00   0.01     0.02   0.01   0.04
     7   8     0.01  -0.03  -0.02    -0.01  -0.01  -0.00     0.09   0.34   0.12
     8   8     0.00  -0.01  -0.00     0.00   0.00   0.00    -0.03  -0.24  -0.05
     9   6    -0.00  -0.01  -0.00     0.00  -0.00  -0.01     0.01  -0.08  -0.09
    10   6    -0.00  -0.00  -0.00     0.00  -0.00  -0.01    -0.08  -0.01  -0.05
    11   1     0.00  -0.00   0.00     0.00  -0.00  -0.01     0.08  -0.10  -0.13
    12   1     0.01  -0.01  -0.00    -0.00  -0.00  -0.01     0.04  -0.04  -0.11
    13   1    -0.00  -0.00  -0.00     0.00  -0.00  -0.01    -0.06   0.06  -0.03
    14   1    -0.00  -0.00  -0.00     0.00  -0.00  -0.01    -0.14  -0.02  -0.04
    15   1    -0.00  -0.00  -0.00    -0.00  -0.00  -0.01    -0.11  -0.02  -0.04
                      4                      5                      6
                      A                      A                      A
 Frequencies --     39.8184                58.9754               141.7990
 Red. masses --      2.6494                 3.4849                 2.7800
 Frc consts  --      0.0025                 0.0071                 0.0329
 IR Inten    --      2.8245                 5.4914                 4.8711
  Atom  AN      X      Y      Z        X      Y      Z        X      Y      Z
     1   8    -0.06   0.01   0.08     0.14  -0.04   0.07     0.08  -0.02   0.12
     2   1    -0.04   0.02   0.07     0.11  -0.18   0.08     0.08  -0.19   0.09
     3   6     0.06   0.07  -0.03    -0.15  -0.07  -0.07     0.06  -0.03   0.15
     4   1     0.09   0.14  -0.05    -0.22  -0.17  -0.11     0.11  -0.09   0.35
     5   6     0.02   0.00   0.02    -0.04   0.01   0.00     0.01   0.03  -0.09
     6   6    -0.01  -0.06  -0.04    -0.03   0.10  -0.01    -0.01   0.03  -0.15
     7   8    -0.08  -0.09  -0.07    -0.09   0.04  -0.03     0.05   0.06  -0.12
     8   8     0.03  -0.06  -0.08     0.02   0.20  -0.00    -0.09  -0.01  -0.11
     9   6     0.05   0.03  -0.12    -0.06  -0.02  -0.06    -0.06  -0.02   0.05
    10   6     0.01   0.08   0.23     0.16  -0.19   0.09    -0.05  -0.02   0.10
    11   1     0.03  -0.15  -0.29    -0.19  -0.18  -0.16    -0.14   0.02   0.13
    12   1     0.11   0.28  -0.26    -0.17   0.11  -0.13     0.05  -0.08   0.08
    13   1     0.02   0.20   0.08     0.08  -0.35  -0.05     0.03  -0.06   0.54
    14   1     0.01  -0.22   0.39     0.33  -0.36   0.18    -0.40   0.19  -0.02
    15   1    -0.05   0.33   0.46     0.24   0.01   0.23     0.21  -0.21  -0.17
                      7                      8                      9
                      A                      A                      A
 Frequencies --    186.8035               208.2386               279.9103
 Red. masses --      2.0235                 2.8577                 2.6630
 Frc consts  --      0.0416                 0.0730                 0.1229
 IR Inten    --      4.6725                 0.4535                 8.0905
  Atom  AN      X      Y      Z        X      Y      Z        X      Y      Z
     1   8     0.17   0.03  -0.00     0.21   0.07  -0.08     0.07  -0.18  -0.07
     2   1     0.16  -0.09  -0.01     0.19   0.06  -0.07     0.11  -0.18  -0.11
     3   6     0.01   0.02   0.05    -0.07   0.06  -0.04     0.16   0.16  -0.01
     4   1     0.01  -0.02   0.10    -0.13   0.06  -0.18     0.48   0.75  -0.03
     5   6     0.01   0.07  -0.03     0.02   0.08   0.11    -0.04  -0.07   0.02
     6   6     0.00   0.02  -0.01    -0.01   0.00   0.08    -0.06  -0.03   0.01
     7   8     0.05  -0.06  -0.01    -0.14  -0.10   0.02    -0.11   0.07   0.01
     8   8    -0.07  -0.04   0.02     0.02  -0.07   0.01    -0.03   0.05   0.01
     9   6    -0.07  -0.03   0.01     0.01  -0.04  -0.06    -0.03   0.02   0.05
    10   6    -0.13   0.01  -0.02    -0.06   0.01   0.00     0.01  -0.02   0.00
    11   1    -0.04  -0.02   0.01     0.05  -0.07  -0.10    -0.05   0.04   0.07
    12   1    -0.08  -0.03   0.01     0.00   0.01  -0.09    -0.04  -0.02   0.07
    13   1    -0.21   0.12  -0.55     0.06   0.06   0.51    -0.02  -0.07  -0.05
    14   1     0.24  -0.25   0.12    -0.51   0.23  -0.11     0.07  -0.01  -0.01
    15   1    -0.49   0.22   0.30     0.19  -0.19  -0.28    -0.00  -0.02   0.01
                     10                     11                     12
                      A                      A                      A
 Frequencies --    315.6727               406.3314               428.8393
 Red. masses --      2.8967                 2.4965                 1.9886
 Frc consts  --      0.1701                 0.2429                 0.2155
 IR Inten    --     17.1490                16.5207                22.3854
  Atom  AN      X      Y      Z        X      Y      Z        X      Y      Z
     1   8    -0.01  -0.06   0.01     0.04   0.07   0.01    -0.02   0.07   0.02
     2   1    -0.02  -0.13   0.00     0.05  -0.11  -0.03     0.02   0.13  -0.00
     3   6     0.04   0.02   0.02    -0.15  -0.07   0.05    -0.07  -0.18  -0.02
     4   1     0.14   0.15   0.09     0.30   0.68   0.11     0.43   0.75  -0.07
     5   6    -0.04  -0.02  -0.08    -0.10   0.05  -0.05     0.04  -0.04   0.03
     6   6    -0.01   0.01   0.05    -0.06  -0.05  -0.01     0.05   0.02  -0.01
     7   8     0.19  -0.07   0.09     0.05  -0.04   0.03    -0.00   0.02  -0.03
     8   8    -0.02   0.09   0.11    -0.08  -0.13  -0.02     0.07   0.08  -0.00
     9   6    -0.11   0.03  -0.21     0.02   0.11   0.00     0.01  -0.08   0.00
    10   6    -0.06   0.00  -0.02     0.16   0.03  -0.02    -0.10  -0.02   0.01
    11   1    -0.04  -0.20  -0.45     0.05   0.11  -0.00    -0.02  -0.07   0.02
    12   1    -0.31   0.32  -0.35     0.09   0.10  -0.00    -0.02  -0.10   0.01
    13   1    -0.00  -0.02   0.28     0.08  -0.22  -0.03    -0.03   0.18   0.02
    14   1    -0.32   0.01  -0.02     0.32   0.06  -0.04    -0.22  -0.04   0.03
    15   1     0.16   0.00  -0.11     0.31   0.07  -0.04    -0.23  -0.05   0.04
                     13                     14                     15
                      A                      A                      A
 Frequencies --    572.0569               617.9105               717.2972
 Red. masses --      3.4193                 6.1734                 4.2345
 Frc consts  --      0.6593                 1.3888                 1.2837
 IR Inten    --     14.5887                14.6875                53.1603
  Atom  AN      X      Y      Z        X      Y      Z        X      Y      Z
     1   8     0.01   0.03   0.01    -0.01  -0.11  -0.03    -0.04  -0.07   0.01
     2   1     0.10   0.54  -0.00     0.06   0.23  -0.04    -0.02   0.10   0.02
     3   6     0.11  -0.12  -0.07    -0.16   0.18   0.08    -0.01   0.01  -0.12
     4   1     0.06  -0.02  -0.34    -0.35   0.25  -0.40     0.35   0.01   0.75
     5   6     0.22  -0.09   0.20    -0.16  -0.09   0.39    -0.02  -0.08  -0.01
     6   6     0.01  -0.00  -0.05    -0.04   0.10  -0.09     0.13   0.44   0.11
     7   8     0.01  -0.00  -0.05     0.28  -0.09  -0.04    -0.04  -0.11  -0.03
     8   8    -0.14  -0.03   0.02     0.01   0.06  -0.20    -0.04  -0.12  -0.02
     9   6    -0.18   0.15   0.01     0.03  -0.03  -0.02    -0.00   0.00  -0.00
    10   6    -0.00   0.01  -0.01    -0.00  -0.01   0.01     0.01   0.01  -0.00
    11   1    -0.12   0.07  -0.09    -0.11   0.13   0.19     0.02   0.04   0.03
    12   1    -0.18   0.23  -0.03     0.18  -0.23   0.08     0.05  -0.04   0.02
    13   1    -0.12  -0.36   0.00     0.02   0.09  -0.00    -0.01  -0.05  -0.01
    14   1     0.21   0.05  -0.03    -0.06  -0.07   0.04     0.06   0.01  -0.00
    15   1     0.25   0.06  -0.06    -0.06   0.02   0.05     0.07   0.03  -0.01
                     16                     17                     18
                      A                      A                      A
 Frequencies --    721.6577               814.7703               864.2528
 Red. masses --      1.5841                 1.2838                 1.2718
 Frc consts  --      0.4861                 0.5021                 0.5597
 IR Inten    --     38.9346                 7.5742                57.9363
  Atom  AN      X      Y      Z        X      Y      Z        X      Y      Z
     1   8     0.02   0.01  -0.00    -0.00  -0.01  -0.00     0.03  -0.05   0.03
     2   1     0.06   0.22  -0.01     0.00  -0.00  -0.01     0.21   0.94   0.02
     3   6    -0.06   0.03  -0.13    -0.03   0.03   0.01     0.00   0.00   0.03
     4   1     0.25  -0.18   0.89    -0.03   0.03   0.01    -0.04   0.01  -0.09
     5   6     0.01  -0.00   0.08    -0.03  -0.01   0.03    -0.05  -0.00  -0.09
     6   6    -0.05  -0.13  -0.04     0.03   0.01  -0.04    -0.03   0.00  -0.00
     7   8     0.02   0.02   0.01     0.01   0.01  -0.06    -0.01   0.00   0.01
     8   8     0.01   0.04  -0.00    -0.01  -0.02   0.05    -0.03   0.00   0.02
     9   6     0.00  -0.00  -0.00     0.03  -0.02   0.08     0.03  -0.04  -0.01
    10   6    -0.00  -0.00   0.00     0.02   0.00   0.03     0.04   0.01  -0.01
    11   1    -0.01  -0.00   0.00    -0.05  -0.45  -0.29     0.01  -0.03   0.00
    12   1    -0.01  -0.00   0.00    -0.01   0.48  -0.20    -0.01  -0.05  -0.00
    13   1     0.00   0.02   0.00    -0.00   0.07  -0.17     0.08   0.14   0.01
    14   1    -0.02  -0.01   0.00     0.16   0.36  -0.18    -0.05  -0.02   0.01
    15   1    -0.02  -0.01   0.01    -0.25  -0.33  -0.16    -0.03   0.01   0.02
                     19                     20                     21
                      A                      A                      A
 Frequencies --    894.2479               940.1207              1110.5720
 Red. masses --      3.3382                 2.4568                 4.1288
 Frc consts  --      1.5728                 1.2794                 3.0003
 IR Inten    --     22.8555                 7.4045                 6.8795
  Atom  AN      X      Y      Z        X      Y      Z        X      Y      Z
     1   8    -0.01  -0.01  -0.01    -0.00   0.03  -0.01     0.00   0.01  -0.00
     2   1    -0.04  -0.19  -0.02    -0.06  -0.26  -0.01    -0.01  -0.06  -0.00
     3   6    -0.06   0.05   0.02     0.07  -0.05  -0.04     0.05  -0.04  -0.03
     4   1    -0.06   0.06   0.03     0.08  -0.06  -0.04     0.05  -0.04  -0.05
     5   6    -0.03  -0.02   0.08     0.08  -0.00   0.04     0.04  -0.00   0.03
     6   6     0.11  -0.02  -0.12    -0.13   0.04   0.01    -0.15   0.07  -0.03
     7   8    -0.00   0.05  -0.19     0.01  -0.02   0.06     0.02  -0.01   0.00
     8   8    -0.08  -0.04   0.26    -0.15   0.04  -0.03    -0.16   0.04   0.07
     9   6     0.04  -0.06  -0.04     0.02  -0.12  -0.02     0.34   0.15  -0.06
    10   6     0.07   0.04  -0.07     0.19   0.06  -0.02    -0.12  -0.21   0.01
    11   1     0.33   0.11   0.01    -0.27  -0.16   0.05     0.39   0.23  -0.01
    12   1    -0.30  -0.27   0.10    -0.08  -0.13  -0.01     0.46   0.18  -0.08
    13   1     0.18   0.23   0.18     0.37   0.66  -0.05    -0.10  -0.13  -0.01
    14   1    -0.24  -0.33   0.15    -0.15   0.10  -0.03    -0.19  -0.24   0.01
    15   1     0.20   0.35   0.16    -0.23  -0.04   0.05    -0.23  -0.30  -0.00
                     22                     23                     24
                      A                      A                      A
 Frequencies --   1156.8221              1227.0923              1323.6840
 Red. masses --      2.0584                 1.7411                 2.0798
 Frc consts  --      1.6230                 1.5446                 2.1470
 IR Inten    --     18.0663                 6.0354               338.0441
  Atom  AN      X      Y      Z        X      Y      Z        X      Y      Z
     1   8    -0.00  -0.00   0.00     0.00   0.00  -0.00     0.00   0.01   0.00
     2   1     0.00   0.02   0.00    -0.00  -0.00  -0.00     0.00  -0.00  -0.00
     3   6    -0.02   0.01   0.01     0.02  -0.01  -0.01     0.03  -0.02  -0.02
     4   1    -0.02   0.01   0.02     0.02  -0.01  -0.01     0.03  -0.03  -0.03
     5   6    -0.01   0.00  -0.01     0.01   0.00  -0.00     0.00   0.01   0.01
     6   6     0.06  -0.02   0.01    -0.07   0.03  -0.01    -0.21   0.08  -0.06
     7   8    -0.01  -0.00  -0.00     0.01  -0.01   0.02     0.03  -0.00  -0.02
     8   8     0.05  -0.06  -0.03     0.00   0.01  -0.06     0.12  -0.05   0.03
     9   6    -0.08   0.20   0.06     0.05  -0.05   0.18    -0.09  -0.00   0.01
    10   6     0.07  -0.15  -0.05    -0.03   0.03  -0.13     0.03  -0.01   0.07
    11   1    -0.11   0.10  -0.02     0.29  -0.38  -0.21     0.76   0.16  -0.15
    12   1    -0.23   0.21   0.07    -0.20   0.38  -0.04    -0.35  -0.18   0.11
    13   1     0.27   0.50   0.03     0.01  -0.09   0.25     0.01   0.04  -0.10
    14   1    -0.48  -0.24   0.01    -0.12  -0.39   0.12     0.06   0.23  -0.06
    15   1    -0.37  -0.11   0.15     0.24   0.39   0.10    -0.11  -0.16  -0.02
                     25                     26                     27
                      A                      A                      A
 Frequencies --   1371.6677              1443.2661              1456.0926
 Red. masses --      1.6901                 1.3565                 1.2726
 Frc consts  --      1.8735                 1.6648                 1.5898
 IR Inten    --    258.2517                32.3201                14.5012
  Atom  AN      X      Y      Z        X      Y      Z        X      Y      Z
     1   8     0.00   0.00  -0.00    -0.00  -0.00  -0.00     0.00   0.00  -0.00
     2   1    -0.00   0.00  -0.00     0.00   0.00   0.00     0.00  -0.00  -0.00
     3   6     0.02  -0.01  -0.01    -0.01   0.01   0.01     0.00  -0.00  -0.00
     4   1     0.02  -0.02  -0.02    -0.01   0.01   0.01     0.00  -0.00  -0.00
     5   6     0.00   0.00   0.01     0.00  -0.00  -0.00    -0.00   0.00   0.00
     6   6    -0.13   0.05  -0.05     0.08  -0.03   0.01    -0.03   0.01  -0.01
     7   8     0.02   0.00  -0.03    -0.01  -0.00   0.02     0.00  -0.00  -0.00
     8   8     0.10  -0.04   0.10    -0.05   0.04  -0.02     0.02  -0.01   0.01
     9   6    -0.08  -0.00   0.01    -0.10  -0.05   0.01     0.05   0.03  -0.00
    10   6     0.00  -0.00  -0.05     0.00  -0.07  -0.00    -0.10  -0.09   0.01
    11   1    -0.45  -0.08   0.09     0.60   0.21  -0.03    -0.23  -0.10  -0.01
    12   1     0.80   0.12  -0.11     0.53   0.21  -0.16    -0.22  -0.10   0.08
    13   1     0.04   0.03   0.05     0.12   0.29  -0.00     0.12   0.51   0.05
    14   1    -0.09  -0.10   0.00     0.07   0.19  -0.13     0.43   0.28  -0.19
    15   1     0.06   0.16   0.06     0.12   0.15   0.12     0.45   0.26   0.08
                     28                     29                     30
                      A                      A                      A
 Frequencies --   1528.1038              1538.0618              1546.1890
 Red. masses --      1.0419                 1.0645                 1.0779
 Frc consts  --      1.4334                 1.4837                 1.5182
 IR Inten    --     14.3404                 2.0168                20.2764
  Atom  AN      X      Y      Z        X      Y      Z        X      Y      Z
     1   8     0.00   0.00   0.00     0.00   0.00   0.00     0.00   0.00  -0.00
     2   1    -0.00   0.00   0.00     0.00   0.00   0.00    -0.00   0.00   0.00
     3   6     0.00   0.00   0.00     0.00  -0.00  -0.00     0.00  -0.00  -0.00
     4   1    -0.00  -0.00   0.00     0.00  -0.00  -0.00     0.00  -0.00  -0.00
     5   6    -0.00   0.00   0.00    -0.00   0.00   0.00    -0.00   0.00   0.00
     6   6    -0.00  -0.00   0.00    -0.02   0.00   0.00    -0.02   0.00   0.00
     7   8     0.00   0.00  -0.01     0.00   0.00  -0.01     0.00   0.00  -0.01
     8   8     0.00  -0.00   0.00     0.02  -0.01   0.00     0.01  -0.01   0.00
     9   6    -0.01  -0.00  -0.02    -0.00  -0.05   0.00     0.03  -0.05  -0.01
    10   6    -0.02   0.02  -0.04    -0.02   0.02   0.02     0.02  -0.03  -0.01
    11   1     0.02   0.10   0.05    -0.04   0.36   0.37    -0.12   0.29   0.34
    12   1    -0.00   0.03  -0.04    -0.18   0.44  -0.24    -0.25   0.32  -0.19
    13   1     0.15   0.03   0.66     0.02   0.23  -0.17    -0.05  -0.26   0.09
    14   1     0.55  -0.14   0.05     0.08  -0.30   0.18    -0.15   0.39  -0.23
    15   1    -0.42  -0.14   0.00     0.26  -0.25  -0.32    -0.20   0.32   0.37
                     31                     32                     33
                      A                      A                      A
 Frequencies --   1909.0816              2001.6046              3107.5308
 Red. masses --     11.3385                 7.1087                 1.0352
 Frc consts  --     24.3474                16.7801                 5.8896
 IR Inten    --    289.0819                52.4415                13.4938
  Atom  AN      X      Y      Z        X      Y      Z        X      Y      Z
     1   8     0.01   0.02   0.00    -0.02  -0.03  -0.00    -0.00  -0.00   0.00
     2   1    -0.01   0.02   0.02    -0.02  -0.03   0.01    -0.00   0.00  -0.00
     3   6     0.14  -0.11  -0.06    -0.30   0.23   0.13     0.00  -0.00  -0.00
     4   1     0.23  -0.18  -0.08    -0.50   0.38   0.23    -0.00   0.00   0.00
     5   6    -0.19   0.10   0.06     0.48  -0.23  -0.19    -0.00   0.00  -0.00
     6   6    -0.14  -0.13   0.70    -0.15  -0.02   0.18     0.00  -0.00   0.00
     7   8     0.14   0.07  -0.46     0.03   0.02  -0.10     0.00   0.00  -0.00
     8   8    -0.03   0.03  -0.06    -0.01   0.01  -0.01    -0.00   0.00  -0.00
     9   6    -0.02   0.00   0.01     0.00  -0.00   0.00     0.00   0.00   0.00
    10   6     0.01  -0.01  -0.00     0.00  -0.00  -0.00    -0.04  -0.03  -0.00
    11   1     0.12  -0.07  -0.11     0.02  -0.02  -0.02     0.00  -0.00   0.00
    12   1     0.12  -0.06   0.06     0.02  -0.01   0.01    -0.00  -0.01  -0.02
    13   1     0.01   0.05  -0.03     0.00   0.01  -0.01     0.57  -0.20  -0.12
    14   1    -0.03   0.01  -0.01    -0.01   0.00  -0.00    -0.01   0.28   0.52
    15   1     0.04   0.02   0.02     0.01   0.01   0.00    -0.16   0.32  -0.37
                     34                     35                     36
                      A                      A                      A
 Frequencies --   3139.6577              3186.9770              3191.9633
 Red. masses --      1.0603                 1.0998                 1.1028
 Frc consts  --      6.1580                 6.5816                 6.6198
 IR Inten    --     15.8205                15.5710                 3.9909
  Atom  AN      X      Y      Z        X      Y      Z        X      Y      Z
     1   8    -0.00  -0.00  -0.00     0.00   0.00  -0.00     0.00   0.00  -0.00
     2   1     0.00  -0.00   0.00     0.00  -0.00   0.00    -0.00   0.00  -0.00
     3   6    -0.00  -0.00   0.00    -0.00   0.00   0.00     0.00   0.00  -0.00
     4   1     0.00  -0.00  -0.00     0.00  -0.00  -0.00    -0.00   0.00   0.00
     5   6     0.00  -0.00  -0.00     0.00   0.00  -0.00    -0.00   0.00  -0.00
     6   6    -0.00   0.00  -0.00    -0.00   0.00  -0.00    -0.00   0.00   0.00
     7   8    -0.00   0.00   0.00    -0.00  -0.00   0.00    -0.00  -0.00  -0.00
     8   8     0.00  -0.00  -0.00    -0.00   0.00   0.00     0.00  -0.00   0.00
     9   6     0.01  -0.06  -0.03     0.01  -0.02   0.03     0.01  -0.01   0.05
    10   6    -0.01   0.01   0.01     0.04  -0.04  -0.06    -0.05   0.04  -0.03
    11   1    -0.15   0.34  -0.41    -0.10   0.23  -0.26    -0.12   0.29  -0.32
    12   1     0.04   0.38   0.73    -0.00  -0.04  -0.07    -0.02  -0.19  -0.34
    13   1     0.12  -0.04  -0.02    -0.56   0.18   0.11     0.44  -0.14  -0.10
    14   1    -0.00  -0.03  -0.06     0.01   0.33   0.61    -0.01   0.03   0.03
    15   1     0.01  -0.01   0.02     0.04  -0.07   0.05     0.18  -0.40   0.47
                     37                     38                     39
                      A                      A                      A
 Frequencies --   3213.1783              3501.2851              3856.6409
 Red. masses --      1.1054                 1.1349                 1.0673
 Frc consts  --      6.7244                 8.1971                 9.3532
 IR Inten    --     17.0760                67.7957                32.6778
  Atom  AN      X      Y      Z        X      Y      Z        X      Y      Z
     1   8    -0.00  -0.00   0.00    -0.00  -0.00  -0.00    -0.04   0.01  -0.05
     2   1    -0.00   0.00  -0.00     0.00  -0.00   0.00     0.68  -0.12   0.72
     3   6     0.00  -0.00   0.00    -0.08   0.05   0.04     0.00  -0.00  -0.00
     4   1    -0.00   0.00   0.00     0.82  -0.45  -0.34    -0.00   0.00   0.00
     5   6    -0.00  -0.00   0.00     0.02  -0.01  -0.01    -0.00   0.00   0.00
     6   6     0.00   0.00  -0.00    -0.00  -0.00   0.00    -0.00   0.00  -0.00
     7   8    -0.00  -0.00   0.00     0.00   0.00   0.00     0.00  -0.00  -0.00
     8   8    -0.00  -0.00  -0.00     0.00  -0.00   0.00     0.00  -0.00   0.00
     9   6    -0.02   0.02  -0.07    -0.00   0.00  -0.00    -0.00   0.00   0.00
    10   6    -0.02   0.02  -0.06    -0.00  -0.00  -0.00     0.00   0.00  -0.00
    11   1     0.16  -0.39   0.43     0.00  -0.00   0.00     0.00  -0.00   0.00
    12   1     0.02   0.19   0.35     0.00  -0.00  -0.00     0.00  -0.00  -0.00
    13   1     0.10  -0.03  -0.04     0.00  -0.00  -0.00     0.00  -0.00  -0.00
    14   1    -0.00   0.19   0.33    -0.00   0.00   0.00    -0.00   0.00  -0.00
    15   1     0.16  -0.36   0.40    -0.00  -0.00   0.00    -0.00  -0.00   0.00

 -------------------
 - Thermochemistry -
 -------------------
 Temperature   298.150 Kelvin.  Pressure   1.00000 Atm.
 Atom     1 has atomic number  8 and mass  15.99491
 Atom     2 has atomic number  1 and mass   1.00783
 Atom     3 has atomic number  6 and mass  12.00000
 Atom     4 has atomic number  1 and mass   1.00783
 Atom     5 has atomic number  6 and mass  12.00000
 Atom     6 has atomic number  6 and mass  12.00000
 Atom     7 has atomic number  8 and mass  15.99491
 Atom     8 has atomic number  8 and mass  15.99491
 Atom     9 has atomic number  6 and mass  12.00000
 Atom    10 has atomic number  6 and mass  12.00000
 Atom    11 has atomic number  1 and mass   1.00783
 Atom    12 has atomic number  1 and mass   1.00783
 Atom    13 has atomic number  1 and mass   1.00783
 Atom    14 has atomic number  1 and mass   1.00783
 Atom    15 has atomic number  1 and mass   1.00783
 Molecular mass:   115.03952 amu.
 Principal axes and moments of inertia in atomic units:
                           1         2         3
     Eigenvalues --   431.991761543.873201604.29531
           X            0.99998  -0.00356   0.00503
           Y            0.00285   0.99089   0.13461
           Z           -0.00546  -0.13459   0.99089
 This molecule is an asymmetric top.
 Rotational symmetry number  1.
 Rotational temperatures (Kelvin)      0.20050     0.05610     0.05399
 Rotational constants (GHZ):           4.17772     1.16897     1.12494
    3 imaginary frequencies ignored.
 Zero-point vibrational energy     293193.8 (Joules/Mol)
                                   70.07500 (Kcal/Mol)
 Warning -- explicit consideration of  11 degrees of freedom as
           vibrations may cause significant error
 Vibrational temperatures:     57.29    84.85   204.02   268.77   299.61
          (Kelvin)            402.73   454.18   584.62   617.00   823.06
                              889.04  1032.03  1038.30  1172.27  1243.47
                             1286.62  1352.62  1597.87  1664.41  1765.51
                             1904.49  1973.52  2076.54  2094.99  2198.60
                             2212.93  2224.62  2746.74  2879.86  4471.04
                             4517.27  4585.35  4592.52  4623.05  5037.57
                             5548.85
 
 Zero-point correction=                           0.111672 (Hartree/Particle)
 Thermal correction to Energy=                    0.120274
 Thermal correction to Enthalpy=                  0.121218
 Thermal correction to Gibbs Free Energy=         0.076623
 Sum of electronic and zero-point Energies=           -419.845167
 Sum of electronic and thermal Energies=              -419.836565
 Sum of electronic and thermal Enthalpies=            -419.835621
 Sum of electronic and thermal Free Energies=         -419.880216
 
                     E (Thermal)             CV                S
                      KCal/Mol        Cal/Mol-Kelvin    Cal/Mol-Kelvin
 Total                   75.473             28.888             93.860
 Electronic               0.000              0.000              1.377
 Translational            0.889              2.981             40.136
 Rotational               0.889              2.981             28.461
 Vibrational             73.696             22.926             23.886
 Vibration     1          0.594              1.981              5.268
 Vibration     2          0.596              1.974              4.491
 Vibration     3          0.615              1.911              2.779
 Vibration     4          0.632              1.858              2.259
 Vibration     5          0.642              1.828              2.059
 Vibration     6          0.680              1.711              1.534
 Vibration     7          0.703              1.644              1.332
 Vibration     8          0.771              1.456              0.940
 Vibration     9          0.790              1.407              0.862
 Vibration    10          0.928              1.092              0.500
 Vibration    11          0.978              0.994              0.420
                       Q            Log10(Q)             Ln(Q)
 Total Bot       0.570308D-35        -35.243891        -81.152058
 Total V=0       0.132264D+17         16.121442         37.120991
 Vib (Bot)       0.158790D-48        -48.799177       -112.364257
 Vib (Bot)    1  0.519625D+01          0.715690          1.647937
 Vib (Bot)    2  0.350192D+01          0.544306          1.253310
 Vib (Bot)    3  0.143327D+01          0.156328          0.359959
 Vib (Bot)    4  0.107263D+01          0.030450          0.070114
 Vib (Bot)    5  0.954461D+00         -0.020242         -0.046608
 Vib (Bot)    6  0.686901D+00         -0.163106         -0.375565
 Vib (Bot)    7  0.597030D+00         -0.224004         -0.515789
 Vib (Bot)    8  0.436605D+00         -0.359911         -0.828727
 Vib (Bot)    9  0.406670D+00         -0.390758         -0.899753
 Vib (Bot)   10  0.268491D+00         -0.571070         -1.314937
 Vib (Bot)   11  0.237191D+00         -0.624902         -1.438890
 Vib (V=0)       0.368261D+03          2.566156          5.908792
 Vib (V=0)    1  0.572025D+01          0.757415          1.744013
 Vib (V=0)    2  0.403743D+01          0.606105          1.395608
 Vib (V=0)    3  0.201798D+01          0.304917          0.702097
 Vib (V=0)    4  0.168344D+01          0.226198          0.520841
 Vib (V=0)    5  0.157750D+01          0.197968          0.455838
 Vib (V=0)    6  0.134961D+01          0.130208          0.299814
 Vib (V=0)    7  0.127875D+01          0.106784          0.245879
 Vib (V=0)    8  0.116379D+01          0.065876          0.151686
 Vib (V=0)    9  0.114450D+01          0.058616          0.134968
 Vib (V=0)   10  0.106753D+01          0.028379          0.065345
 Vib (V=0)   11  0.105341D+01          0.022596          0.052030
 Electronic      0.200000D+01          0.301030          0.693147
 Translational   0.484981D+08          7.685724         17.697035
 Rotational      0.370281D+06          5.568531         12.822017
 ***** Axes restored to original set *****
 -------------------------------------------------------------------
 Center     Atomic                   Forces (Hartrees/Bohr)
 Number     Number              X              Y              Z
 -------------------------------------------------------------------
      1        8          -0.021604489   -0.024745111   -0.012725678
      2        1           0.012644138    0.000493726    0.012095491
      3        6           0.007452555   -0.013522728   -0.004564486
      4        1           0.000395974   -0.000344542   -0.000412520
      5        6          -0.003544318    0.039796908    0.008392609
      6        6           0.042279878   -0.002218148   -0.034281698
      7        8          -0.016028719   -0.008172402    0.046538753
      8        8          -0.002833207    0.002235290   -0.015071330
      9        6          -0.016087240    0.007409371   -0.001582030
     10        6          -0.000593254   -0.000121114    0.000071784
     11        1          -0.000299588    0.000552207   -0.000463731
     12        1          -0.000223580    0.000771008    0.001508293
     13        1          -0.001490997   -0.000068014    0.000374596
     14        1           0.000006617   -0.000740341   -0.000992564
     15        1          -0.000073770   -0.001326112    0.001112510
 -------------------------------------------------------------------
 Cartesian Forces:  Max     0.046538753 RMS     0.014528434

 GradGradGradGradGradGradGradGradGradGradGradGradGradGradGradGradGradGrad
 Berny optimization.
 Search for a local minimum.
 Step number   1 out of a maximum of    2
 All quantities printed in internal units (Hartrees-Bohrs-Radians)
 Second derivative matrix not updated -- analytic derivatives used.
 ITU=  0
     Eigenvalues ---   -0.22684  -0.01171  -0.00407   0.00018   0.00067
     Eigenvalues ---    0.00158   0.00504   0.00711   0.01171   0.01975
     Eigenvalues ---    0.03316   0.03373   0.03583   0.04741   0.06047
     Eigenvalues ---    0.06654   0.07781   0.08663   0.10598   0.11411
     Eigenvalues ---    0.12345   0.14922   0.17777   0.18219   0.21346
     Eigenvalues ---    0.24768   0.29887   0.42731   0.49837   0.63876
     Eigenvalues ---    0.71461   0.77761   0.80208   0.88409   0.94758
     Eigenvalues ---    0.96567   1.01331   1.87106   2.17336
 Eigenvalue     1 is  -2.27D-01 should be greater than     0.000000 Eigenvector:
                          Y5        Y1        X5        X1        X3
   1                    0.74187  -0.52482   0.31722  -0.17330  -0.12292
                          Y3        Z5        Y4        Z2        X2
   1                   -0.11905   0.06793   0.05074  -0.05061  -0.04548
 Eigenvalue     2 is  -1.17D-02 should be greater than     0.000000 Eigenvector:
                          Z2        X2        X1        Z1        Y2
   1                    0.65863  -0.65206   0.24488  -0.20703   0.09358
                          Y7        X7        Y1        Z5        Z11
   1                    0.06762   0.06109  -0.05596  -0.04345   0.04323
 Eigenvalue     3 is  -4.07D-03 should be greater than     0.000000 Eigenvector:
                          Y7        Z4        Y8        Z1        Z3
   1                    0.55004  -0.34738  -0.31057   0.25501  -0.22670
                          Y2        Z7        X7        Z15       Y12
   1                   -0.20219   0.19075   0.18479  -0.17214  -0.15772
 Quadratic step=7.000D-01 exceeds max=3.000D-01 adjusted using Lamda=-4.184D-03.
 Angle between NR and scaled steps=  52.43 degrees.
 Angle between quadratic step and forces=  56.77 degrees.
 Linear search not attempted -- first point.
 B after Tr=     0.002227   -0.003797    0.003848
         Rot=    0.999999   -0.001532    0.000385   -0.000360 Ang=  -0.19 deg.
 Variable       Old X    -DE/DX   Delta X   Delta X   Delta X     New X
                                 (Linear)    (Quad)   (Total)
    X1        3.93501  -0.02160   0.00000  -0.09002  -0.08947   3.84554
    Y1        2.44549  -0.02475   0.00000  -0.12388  -0.12491   2.32058
    Z1       -0.04733  -0.01273   0.00000   0.04204   0.05597   0.00865
    X2        5.17528   0.01264   0.00000   0.04710   0.04666   5.22194
    Y2        2.24569   0.00049   0.00000   0.08040   0.07644   2.32213
    Z2        1.28075   0.01210   0.00000  -0.00519   0.00981   1.29056
    X3        4.50036   0.00745   0.00000   0.05328   0.05797   4.55832
    Y3       -2.24653  -0.01352   0.00000   0.00593   0.00877  -2.23776
    Z3       -1.06614  -0.00456   0.00000  -0.02569  -0.02519  -1.09133
    X4        6.15026   0.00040   0.00000   0.00571   0.01166   6.16191
    Y4       -3.18422  -0.00034   0.00000  -0.08575  -0.07966  -3.26388
    Z4       -1.74212  -0.00041   0.00000  -0.03497  -0.03638  -1.77849
    X5        2.81177  -0.00354   0.00000   0.09154   0.09447   2.90624
    Y5       -0.79631   0.03980   0.00000   0.13290   0.13212  -0.66419
    Z5       -0.31699   0.00839   0.00000   0.01555   0.01961  -0.29738
    X6        0.19098   0.04228   0.00000   0.05822   0.06026   0.25124
    Y6       -0.35711  -0.00222   0.00000  -0.01703  -0.02245  -0.37955
    Z6        0.59870  -0.03428   0.00000  -0.01194  -0.00905   0.58965
    X7       -0.44248  -0.01603   0.00000   0.01642   0.01700  -0.42548
    Y7       -0.66907  -0.00817   0.00000  -0.00388  -0.01650  -0.68557
    Z7        2.74850   0.04654   0.00000   0.03170   0.03315   2.78165
    X8       -1.23971  -0.00283   0.00000  -0.00363  -0.00078  -1.24049
    Y8        0.53284   0.00224   0.00000  -0.02733  -0.02811   0.50473
    Z8       -1.25313  -0.01507   0.00000  -0.02481  -0.02036  -1.27350
    X9       -3.75968  -0.01609   0.00000  -0.04230  -0.04059  -3.80027
    Y9        1.30717   0.00741   0.00000   0.01948   0.01468   1.32185
    Z9       -0.55428  -0.00158   0.00000  -0.01413  -0.00915  -0.56342
   X10       -5.52282  -0.00059   0.00000  -0.03829  -0.03508  -5.55791
   Y10       -0.94391  -0.00012   0.00000   0.01369   0.00710  -0.93682
   Z10       -0.39511   0.00007   0.00000   0.00433   0.00104  -0.39407
   X11       -4.31241  -0.00030   0.00000  -0.01224  -0.01030  -4.32271
   Y11        2.60727   0.00055   0.00000   0.01234   0.01180   2.61907
   Z11       -2.04893  -0.00046   0.00000  -0.03241  -0.02386  -2.07279
   X12       -3.65740  -0.00022   0.00000  -0.01493  -0.01534  -3.67274
   Y12        2.32091   0.00077   0.00000   0.02646   0.01626   2.33717
   Z12        1.23707   0.00151   0.00000  -0.01461  -0.00641   1.23066
   X13       -7.43981  -0.00149   0.00000  -0.04617  -0.04373  -7.48355
   Y13       -0.29262  -0.00007   0.00000   0.00378  -0.00542  -0.29803
   Z13        0.00146   0.00037   0.00000   0.00246  -0.00036   0.00110
   X14       -5.54039   0.00001   0.00000  -0.03059  -0.02526  -5.56565
   Y14       -1.97214  -0.00074   0.00000  -0.00133  -0.00247  -1.97461
   Z14       -2.18216  -0.00099   0.00000   0.00939   0.00290  -2.17926
   X15       -4.94253  -0.00007   0.00000  -0.03041  -0.02747  -4.96999
   Y15       -2.21722  -0.00133   0.00000   0.02317   0.01234  -2.20488
   Z15        1.11669   0.00111   0.00000   0.01499   0.00827   1.12496
         Item               Value     Threshold  Converged?
 Maximum Force            0.046539     0.000450     NO 
 RMS     Force            0.014528     0.000300     NO 
 Maximum Displacement     0.132120     0.001800     NO 
 RMS     Displacement     0.044406     0.001200     NO 
 Predicted change in Energy=-1.709889D-02
 GradGradGradGradGradGradGradGradGradGradGradGradGradGradGradGradGradGrad


 ----------------------------------------------------------------------

 Electric dipole moment (input orientation):
 (Debye = 10**-18 statcoulomb cm , SI units = C m)
                  (au)            (Debye)         (10**-30 SI)
   Tot        0.647858D+00      0.164669D+01      0.549277D+01
   x          0.358409D-01      0.910984D-01      0.303871D+00
   y         -0.596040D+00     -0.151498D+01     -0.505344D+01
   z         -0.251340D+00     -0.638843D+00     -0.213095D+01

 Dipole polarizability, Alpha (input orientation).
 (esu units = cm**3 , SI units = C**2 m**2 J**-1)
 Alpha(0;0):
               (au)            (10**-24 esu)      (10**-40 SI)
   iso        0.702222D+02      0.104059D+02      0.115781D+02
   aniso      0.235703D+02      0.349275D+01      0.388621D+01
   xx         0.799054D+02      0.118408D+02      0.131746D+02
   yx        -0.592302D+01     -0.877700D+00     -0.976573D+00
   yy         0.728112D+02      0.107895D+02      0.120049D+02
   zx        -0.259765D+01     -0.384932D+00     -0.428295D+00
   zy         0.422121D+01      0.625519D+00      0.695984D+00
   zz         0.579500D+02      0.858730D+01      0.955466D+01

 ----------------------------------------------------------------------

 Dipole orientation:
     8          4.01338931         -1.14197202         -2.01383294
     1          5.31706858          0.11235425         -2.27663593
     6          4.34907175         -0.26939437          2.72942716
     1          5.92354869         -0.58594998          3.94564670
     6          2.75883094         -0.08405932          1.01114798
     6          0.21058449          0.68313989          0.10683871
     8         -0.31398232          2.80593572         -0.47522039
     8         -1.28676211         -1.31533443         -0.07264564
     6         -3.73411884         -0.88207946         -1.19557330
     6         -5.56711858          0.20729987          0.71616600
     1         -4.32064552         -2.74416670         -1.84240601
     1         -3.49578764          0.36671349         -2.81753346
     1         -7.43405862          0.38832885         -0.14293848
     1         -5.72121244         -1.03500132          2.35448091
     1         -4.95115637          2.07368711          1.33321842

 Electric dipole moment (dipole orientation):
 (Debye = 10**-18 statcoulomb cm , SI units = C m)
                  (au)            (Debye)         (10**-30 SI)
   Tot        0.647858D+00      0.164669D+01      0.549277D+01
   x          0.000000D+00      0.000000D+00      0.000000D+00
   y          0.000000D+00      0.000000D+00      0.000000D+00
   z          0.647858D+00      0.164669D+01      0.549277D+01

 Dipole polarizability, Alpha (dipole orientation).
 (esu units = cm**3 , SI units = C**2 m**2 J**-1)
 Alpha(0;0):
               (au)            (10**-24 esu)      (10**-40 SI)
   iso        0.702222D+02      0.104059D+02      0.115781D+02
   aniso      0.235703D+02      0.349275D+01      0.388621D+01
   xx         0.791256D+02      0.117252D+02      0.130460D+02
   yx        -0.103021D+01     -0.152662D+00     -0.169859D+00
   yy         0.572171D+02      0.847870D+01      0.943383D+01
   zx         0.685850D+01      0.101632D+01      0.113081D+01
   zy         0.211477D+01      0.313377D+00      0.348679D+00
   zz         0.743239D+02      0.110137D+02      0.122544D+02

 ----------------------------------------------------------------------
 1\1\GINC-AJ\Freq\UM062X\6-31+G\C5H7O3(2)\AAYUSH\20-Jun-2025\0\\# freq 
 6-31+g m062x\\Title Card Required\\0,2\O,2.082316,1.294095,-0.025044\H
 ,2.738638,1.188366,0.677745\C,2.381487,-1.188811,-0.564179\H,3.254575,
 -1.685019,-0.921888\C,1.487924,-0.421388,-0.167745\C,0.101062,-0.18897
 2,0.316819\O,-0.234148,-0.354056,1.454444\O,-0.656026,0.281967,-0.6631
 29\C,-1.989537,0.691723,-0.293311\C,-2.922553,-0.499498,-0.209081\H,-2
 .282031,1.379707,-1.084249\H,-1.935412,1.228171,0.654627\H,-3.93698,-0
 .154846,0.00077\H,-2.931847,-1.043614,-1.15475\H,-2.615472,-1.1733,0.5
 90926\\Version=ES64L-G16RevA.03\State=2-A\HF=-419.956839\S2=0.785709\S
 2-1=0.\S2A=0.750581\RMSD=1.903e-09\RMSF=1.453e-02\ZeroPoint=0.1116716\
 Thermal=0.1202741\Dipole=0.0358409,-0.5960401,-0.2513401\DipoleDeriv=-
 0.4871829,-0.1163675,0.1671429,0.0269108,-0.2756027,-0.0763721,0.12951
 03,-0.138574,-0.3323603,0.2320557,0.1290748,-0.1084947,0.0433261,0.245
 0352,0.0602964,-0.1051091,0.106866,0.2034689,-0.3503549,-0.1608377,0.0
 139864,0.1187249,-0.0176007,0.0000577,0.0214687,0.1081708,-0.1602234,0
 .2339214,-0.0073792,0.0027471,-0.0495908,0.2634596,0.0127673,0.0023685
 ,-0.0067076,0.2586328,-0.1437382,0.199124,0.0332258,-0.1046282,-0.2801
 943,0.016393,0.0687754,-0.0601626,-0.0695586,2.0184106,-0.2277359,0.02
 00436,-0.4370612,0.5266262,-0.3166957,0.3565689,-0.4003218,1.6182337,-
 0.8031204,0.0038748,0.2003861,0.0921692,-0.3793107,0.0991001,-0.002177
 7,0.2071438,-1.0569804,-1.5354319,0.2506398,-0.3299154,0.4219704,-0.46
 63325,0.2083486,-0.4268101,0.1769906,-0.783113,0.9024222,-0.1016128,0.
 0786305,-0.1229971,0.3585727,-0.055612,-0.0493622,0.01933,0.2458618,-0
 .1219564,-0.0249769,-0.0140584,-0.0575122,-0.084977,0.0533573,0.013183
 1,0.0109605,0.0423444,-0.005673,0.0088106,-0.0096049,0.036889,0.000900
 9,0.0742764,-0.0341322,0.1078873,0.0005736,-0.0202182,-0.0332725,-0.05
 46961,-0.002333,0.0204758,-0.0358133,0.0314128,-0.1002577,-0.0115351,-
 0.1185492,0.0437965,0.0258613,0.0697341,0.0608804,-0.0282386,0.0428046
 ,-0.0161834,0.1039123,0.097582,-0.0048926,0.0342356,-0.0405425,0.02083
 91,-0.0635317,-0.0160835,-0.0972167,-0.0644305,0.1018332,0.0417544,-0.
 0594897,0.0049404,0.007228,0.0516665,-0.0324176,0.0820749,0.005174\Pol
 ar=79.9053834,-5.9230159,72.8111783,-2.5976512,4.2212141,57.9499876\Qu
 adrupole=9.1450066,-2.6300107,-6.5149959,-5.3787326,1.8079001,3.374479
 2\PG=C01 [X(C5H7O3)]\NImag=3\\0.26359090,-0.05899328,-0.00661296,0.268
 53810,-0.04724441,0.29413983,-0.24160911,0.02767544,-0.26404934,0.2449
 4415,0.04888178,-0.02144920,0.05487819,-0.03248633,0.02913180,-0.26961
 858,0.03547233,-0.27648668,0.26721409,-0.04142846,0.27598972,0.0192357
 3,0.04605294,0.00176103,0.00265416,-0.00064597,0.00247229,0.79932082,-
 0.02166256,-0.09623698,-0.01073806,-0.00203364,-0.00115329,-0.00241627
 ,-0.54132343,0.41141469,-0.00830717,-0.03385822,0.00332931,-0.00054265
 ,0.00046673,0.00001069,-0.31982528,0.22609735,0.18353481,0.00003261,0.
 00016944,0.00000609,0.00031260,0.00001282,-0.00015452,-0.29460008,0.16
 992347,0.11278616,0.28410743,0.00045634,0.00362426,0.00056952,0.000464
 08,-0.00038544,-0.00031838,0.15427581,-0.09534549,-0.06033267,-0.16016
 743,0.09715719,0.00056945,0.00077620,-0.00033430,-0.00016474,-0.000169
 37,-0.00020480,0.11034759,-0.06510784,-0.07134703,-0.11112017,0.064279
 90,0.06140748,-0.02782916,0.00429858,-0.00862358,-0.00470269,-0.015205
 92,0.00082647,-0.53099384,0.40790825,0.21798439,0.00956498,0.00484684,
 -0.00123720,0.83085975,0.05129698,0.14205882,0.00436217,0.00801030,-0.
 00347739,0.00834274,0.32014408,-0.20622305,-0.12289650,-0.01111363,-0.
 00755930,0.00162592,-0.44733426,0.09495659,0.00568373,0.04578292,-0.02
 425704,-0.00147433,-0.01482248,-0.00037294,0.20269059,-0.14862729,-0.1
 1841309,-0.00316940,-0.00353885,0.00556336,-0.27431993,0.11372806,0.24
 151847,-0.01346064,-0.01805681,0.00486450,-0.00258790,-0.00111773,-0.0
 0285094,0.01239133,-0.01684827,-0.00388940,0.00028277,0.00105350,0.001
 92688,-0.21066964,0.05429090,0.04963048,0.62016271,-0.02175779,-0.0280
 7986,-0.00191256,-0.00091355,-0.00306224,0.00109277,0.02368654,-0.0169
 8873,-0.01084416,0.00196799,0.00325028,-0.00125774,0.02566825,-0.03517
 494,-0.00292454,-0.09978365,0.25962723,0.00374510,-0.00347332,-0.00146
 550,-0.00388291,0.00052902,0.00260180,0.00382563,-0.00090408,0.0012265
 7,0.00175341,-0.00027185,0.00509458,0.03626935,-0.00783512,-0.07395285
 ,-0.14147202,-0.15904317,1.03226914,-0.00058313,-0.00046941,-0.0021349
 9,0.00020153,0.00004433,0.00074905,-0.00303737,0.00187585,0.00064563,-
 0.00021278,-0.00016037,-0.00156144,-0.01892492,-0.00089778,0.05135557,
 -0.15343855,-0.02226689,0.21978807,0.14919525,0.00127142,0.00371626,0.
 00096439,0.00037747,0.00025005,-0.00039102,-0.00161965,0.00250394,0.00
 140151,-0.00041045,-0.00054654,0.00008069,0.00191861,0.01360256,-0.002
 65168,-0.01735790,-0.07416800,0.09354007,0.01385660,0.04003590,-0.0000
 2719,0.00149799,0.00452104,0.00186985,0.00041044,-0.00190243,0.0002404
 8,0.00080038,0.00114443,0.00005894,-0.00018179,0.00028864,0.03094375,0
 .00016976,-0.03255974,0.21268922,0.10101039,-0.75406669,-0.23279073,-0
 .13467005,0.88012009,-0.00068889,-0.00093701,-0.00036390,0.00081876,0.
 00069980,0.00127813,-0.00515515,0.00233885,0.00130515,0.00066341,-0.00
 080200,0.00111630,-0.04998997,0.02349136,-0.02839108,-0.19978432,0.070
 80686,-0.12147191,0.02665964,0.00803031,-0.02147149,0.49883187,-0.0006
 1725,0.00130428,-0.00078225,-0.00128970,0.00006125,-0.00041279,0.00091
 070,0.00051196,-0.00074229,-0.00034345,-0.00004141,-0.00025338,0.01709
 205,-0.00001324,0.01123141,0.06918898,-0.09669868,0.07906767,0.0100019
 6,0.01779521,0.03498522,-0.16541253,0.15365297,-0.00092907,0.00115518,
 0.00066194,0.00100542,0.00000580,0.00022691,-0.00079585,0.00072647,0.0
 0004648,-0.00018116,-0.00018787,-0.00065298,0.00096688,-0.00034858,0.0
 0482556,-0.08620993,0.06137944,-0.21830567,-0.03049702,0.04030382,-0.0
 9672655,0.08629685,-0.09809046,0.39895695,0.00139358,0.00037675,0.0002
 4600,-0.00008948,-0.00027085,-0.00015087,0.00108871,-0.00049190,-0.000
 47329,-0.00023608,0.00013715,0.00002313,0.00387882,0.00124540,-0.00043
 066,-0.05249004,0.02589848,-0.01942842,0.00007929,-0.00565104,0.016731
 45,-0.18061104,0.04320586,0.01977196,0.47124619,0.00087385,0.00175321,
 -0.00020370,0.00018192,0.00005331,0.00013259,-0.00176338,0.00176881,0.
 00082294,-0.00003686,-0.00022403,0.00002914,0.00100039,0.00188211,0.00
 151317,0.02955791,-0.01108045,0.00866081,0.00027777,-0.00399146,-0.006
 93749,0.03791560,-0.07647147,-0.00570248,-0.01883829,0.57147348,0.0005
 1628,-0.00012036,-0.00026491,0.00001884,0.00016008,0.00018164,-0.00081
 619,0.00022955,0.00054364,0.00003994,-0.00002797,0.00020443,-0.0034798
 9,0.00340189,-0.00277773,-0.03424053,0.01034492,0.01222719,-0.00109663
 ,0.00038697,-0.00388439,0.05312123,-0.01643279,-0.09440064,0.05732930,
 -0.01835877,0.64729462,0.00013688,0.00042889,-0.00010712,0.00004258,0.
 00006434,0.00010406,-0.00069565,0.00042452,0.00025482,0.00003215,-0.00
 006648,0.00004698,-0.00024780,0.00082002,-0.00022899,0.00171618,-0.004
 24253,0.00569765,-0.00046169,-0.00065139,-0.00268840,-0.04524191,-0.02
 389672,0.00453576,-0.11585494,-0.05513901,-0.00046753,0.56016422,0.000
 06859,-0.00016062,0.00007899,-0.00001148,0.00000177,-0.00004948,0.0003
 9312,-0.00027397,-0.00014132,0.00000534,0.00006544,-0.00001932,-0.0004
 1706,-0.00024473,0.00018690,-0.00012922,0.00269736,-0.00615233,-0.0018
 8474,-0.00086682,0.00201693,0.01324036,0.01163273,0.00218036,-0.068045
 77,-0.17984715,0.00555730,-0.04914849,0.54532230,-0.00001924,-0.000045
 79,0.00007442,-0.00001557,-0.00002893,-0.00003262,0.00014458,-0.000159
 74,-0.00008399,0.00000049,0.00002118,0.00001298,0.00025243,-0.00020386
 ,-0.00002570,-0.00187782,-0.00015534,-0.00036929,0.00096156,0.00059796
 ,0.00099679,0.01188466,0.00500425,0.00216998,-0.00198679,0.00448289,-0
 .08910416,0.00461246,0.00274535,0.60215454,-0.00013871,-0.00031659,0.0
 0003293,0.00006743,0.00003160,0.00007303,-0.00027985,0.00001477,0.0001
 2559,0.00003623,-0.00002166,0.00004319,-0.00086757,0.00048121,-0.00092
 877,-0.00354218,0.00242731,0.00504018,0.00092958,-0.00023274,-0.001090
 86,-0.02849000,0.02664971,-0.02564590,-0.06150357,0.03996278,-0.048795
 81,0.00682403,-0.01589268,0.01690920,0.08672684,0.00010056,0.00008940,
 -0.00000259,0.00000095,-0.00000195,-0.00000783,0.00006114,-0.00002256,
 -0.00002350,-0.00001022,0.00000351,-0.00000213,0.00049798,-0.00004024,
 0.00025201,-0.00018982,-0.00000631,-0.00373171,-0.00106015,0.00077399,
 0.00057177,0.00942431,-0.00655729,0.00872259,0.04600696,-0.16085376,0.
 12541669,0.00465649,-0.01776836,0.02106856,-0.05145072,0.17386030,0.00
 002355,0.00010367,-0.00001716,0.00002699,0.00001333,0.00001975,-0.0000
 9730,0.00016146,0.00001540,-0.00000435,-0.00001235,-0.00002175,0.00022
 279,-0.00021057,0.00041793,0.00320054,-0.00054886,-0.00217014,-0.00184
 925,0.00068386,0.00128665,0.00877624,-0.00944768,0.00819906,-0.0605018
 1,0.13112357,-0.20965742,-0.00025251,-0.00165899,0.00098274,0.05715168
 ,-0.13928105,0.21761837,-0.00010454,-0.00027410,-0.00019618,-0.0000410
 6,-0.00000727,0.00008152,0.00004593,-0.00008816,-0.00004740,0.00003667
 ,-0.00001337,0.00000120,-0.00005150,-0.00060330,-0.00028117,0.00236075
 ,-0.00048059,0.00831274,0.00017728,0.00068008,-0.00310476,-0.01854648,
 0.02535530,0.03287697,-0.05069948,-0.01173499,-0.02422643,-0.00012132,
 -0.01230940,-0.01973571,0.00137926,-0.00528554,-0.00735215,0.06695642,
 0.00008219,0.00000573,0.00002397,0.00004790,0.00001833,-0.00000495,-0.
 00016034,0.00007449,0.00005332,-0.00000915,0.00000741,-0.00002190,-0.0
 0005969,0.00007291,0.00039227,0.00059323,0.00153354,-0.00567238,-0.001
 82168,-0.00019711,0.00234745,0.00678640,-0.00647942,-0.00925121,-0.006
 77223,-0.11620370,-0.11105939,-0.00406961,-0.01365174,-0.02397249,0.00
 065330,0.01184499,0.01914787,0.00692903,0.12463177,-0.00013159,-0.0000
 6178,0.00009413,-0.00002914,-0.00002719,-0.00004569,0.00016306,-0.0001
 5788,-0.00006193,-0.00000832,0.00001325,0.00000801,0.00026170,-0.00023
 571,-0.00015133,-0.00283488,0.00191340,-0.00132939,-0.00154586,0.00120
 332,0.00070812,0.00781809,-0.00484143,-0.00629111,-0.01370143,-0.11758
 704,-0.26202701,0.00004600,0.00370477,0.00423431,-0.00211115,-0.012307
 06,-0.01857308,0.01215152,0.12753829,0.28197845,-0.00009350,0.00004834
 ,-0.00003435,0.00001887,0.00002266,0.00003179,-0.00023783,0.00015051,0
 .00006209,0.00001584,-0.00003605,-0.00000144,-0.00002762,0.00010226,0.
 00000612,0.00175236,-0.00086138,0.00212199,-0.00014114,-0.00013356,-0.
 00097130,-0.00378132,-0.00388850,-0.00098023,-0.01853552,0.01096721,0.
 00411018,-0.28522236,0.08018200,0.04889905,0.00058406,-0.00001689,0.00
 047138,0.00030321,-0.00002838,-0.00067288,0.31265445,0.00003065,0.0000
 6004,-0.00001690,-0.00000569,0.00001071,0.00000642,-0.00012382,0.00008
 484,0.00003788,-0.00000501,-0.00002347,0.00002040,-0.00007676,0.000197
 96,-0.00016547,-0.00012494,-0.00144530,0.00249466,0.00062376,0.0003537
 7,-0.00098374,-0.00750327,-0.00333549,-0.00009752,-0.02510144,0.009735
 31,0.00537251,0.08298105,-0.07779937,-0.01749352,0.00095327,0.00090039
 ,0.00051633,0.00080689,0.00086384,-0.00070397,-0.08810099,0.08189281,0
 .00001446,0.00001237,-0.00000292,-0.00000197,0.00000145,0.00000272,0.0
 0000193,0.00002251,0.00001104,-0.00000811,-0.00000163,-0.00000338,-0.0
 0000685,0.00003968,0.00006190,0.00013297,0.00059140,-0.00109864,-0.000
 56932,-0.00051965,0.00022122,0.00094258,0.00032503,0.00123992,0.001180
 78,-0.00131752,-0.00137379,0.04889673,-0.01655209,-0.05764999,-0.00007
 578,0.00006877,-0.00015875,0.00000525,-0.00001242,-0.00005425,-0.05478
 545,0.01856698,0.05847160,0.00000982,-0.00000049,0.00004923,-0.0000003
 9,-0.00001133,-0.00002489,0.00006891,-0.00003736,-0.00001623,-0.000024
 82,0.00000151,-0.00000633,-0.00000386,0.00003395,0.00001636,-0.0007993
 6,0.00038377,-0.00176995,-0.00037379,-0.00015707,0.00076883,0.00322517
 ,0.00121559,0.00027410,-0.00286923,-0.01482343,-0.02039916,-0.04857551
 ,0.00185300,-0.00022160,0.00059684,0.00107800,0.00026827,-0.00223046,-
 0.00339528,0.00068002,0.00101255,0.01610247,0.02861419,0.05014339,-0.0
 0005986,-0.00002202,0.00004987,0.00001187,-0.00000032,-0.00001251,-0.0
 0001077,-0.00001147,0.00001050,0.00000559,0.00000151,-0.00000461,-0.00
 005372,-0.00001738,-0.00008087,0.00005586,0.00006970,0.00001843,0.0002
 5090,0.00012067,0.00016415,0.00202657,0.00216893,0.00103675,-0.0009357
 9,-0.01721629,-0.02747727,-0.00047041,-0.11564322,-0.11539961,0.000684
 91,0.00071902,0.00007822,-0.00355464,-0.00330611,0.00156503,-0.0006398
 4,-0.00526827,-0.00892940,0.00321261,0.12712230,-0.00005285,0.00000502
 ,0.00002787,0.00000694,0.00000090,-0.00001005,-0.00005038,0.00005202,0
 .00002419,-0.00001243,-0.00002276,-0.00001262,-0.00006009,0.00001848,0
 .00008556,0.00028945,-0.00022841,-0.00063332,-0.00063881,-0.00020292,0
 .00024995,-0.00136645,0.00078457,0.00037418,0.00212775,0.00284499,0.00
 298682,-0.00162214,-0.11822625,-0.26036321,-0.00047398,-0.00028865,0.0
 0077642,0.00101497,0.00079232,0.00106728,-0.00129256,-0.00186360,-0.00
 519612,0.00075223,0.13000854,0.28053449,0.00010817,-0.00000268,0.00001
 158,-0.00002945,-0.00001192,-0.00003062,0.00019420,-0.00015090,-0.0000
 6242,-0.00001093,0.00003212,0.00001660,0.00000502,0.00003252,-0.000158
 53,-0.00189346,-0.00053282,0.00147110,-0.00006920,0.00007932,-0.001157
 78,0.00209024,0.00182799,-0.00048878,0.00520280,-0.01840147,0.01838640
 ,-0.07249485,0.05209642,-0.05980770,-0.00232239,-0.00381307,-0.0000840
 9,0.00053531,0.00122430,-0.00008514,-0.00830206,0.01954384,-0.02434141
 ,-0.00017927,-0.00052329,0.00137834,0.07716589,0.00002838,-0.00005036,
 -0.00002664,-0.00002954,0.00000262,-0.00000515,0.00012304,-0.00010318,
 -0.00005156,0.00001157,0.00001608,0.00002405,-0.00008355,-0.00002067,-
 0.00027555,-0.00113204,-0.00047361,0.00277331,0.00162984,0.00061760,-0
 .00120141,-0.00010562,0.00246967,-0.00183228,0.00923671,-0.02077793,0.
 02260664,0.04830931,-0.15346361,0.12353909,-0.00394447,-0.00294113,-0.
 00066881,0.00058008,0.00078508,-0.00001598,0.00223260,-0.00622779,0.00
 770452,-0.00545595,0.01128296,-0.01367425,-0.05140036,0.16888429,-0.00
 000499,-0.00000181,-0.00002003,0.00001852,0.00001049,0.00002198,-0.000
 06219,0.00002142,0.00001947,0.00001345,0.00001227,-0.00000261,-0.00000
 023,0.00004164,0.00003764,0.00064147,0.00058247,-0.00002778,-0.0008158
 3,-0.00072726,-0.00039713,0.00052559,-0.00039508,-0.00032402,-0.000737
 09,0.00049692,0.00005171,-0.05882778,0.12632918,-0.20299680,-0.0002535
 5,-0.00045585,0.00128197,0.00049963,-0.00030074,0.00044348,0.00303560,
 -0.00569046,0.00552944,-0.00898505,0.01897279,-0.01991144,0.06495245,-
 0.13889598,0.21629409\\0.02160449,0.02474511,0.01272568,-0.01264414,-0
 .00049373,-0.01209549,-0.00745256,0.01352273,0.00456449,-0.00039597,0.
 00034454,0.00041252,0.00354432,-0.03979691,-0.00839261,-0.04227988,0.0
 0221815,0.03428170,0.01602872,0.00817240,-0.04653875,0.00283321,-0.002
 23529,0.01507133,0.01608724,-0.00740937,0.00158203,0.00059325,0.000121
 11,-0.00007178,0.00029959,-0.00055221,0.00046373,0.00022358,-0.0007710
 1,-0.00150829,0.00149100,0.00006801,-0.00037460,-0.00000662,0.00074034
 ,0.00099256,0.00007377,0.00132611,-0.00111251\\\@


 IT WAS AN ACT OF DESPARATION. FOR SIX YEARS I HAD STRUGGLED WITH THE
 BLACKBODY THEORY. I KNEW THE PROBLEM WAS FUNDAMENTAL, AND I KNEW
 THE ANSWER. I HAD TO FIND A THEORETICAL EXPLANATION AT ANY COST,
 EXCEPT FOR THE INVIOLABLITY OF THE TWO LAWS OF THERMODYNAMICS.
   -- MAX PLANCK, 1931
 Job cpu time:       0 days  0 hours 19 minutes 16.4 seconds.
 Elapsed time:       0 days  0 hours  0 minutes 48.2 seconds.
 File lengths (MBytes):  RWF=     59 Int=      0 D2E=      0 Chk=      8 Scr=      1
 Normal termination of Gaussian 16 at Fri Jun 20 14:33:42 2025.
