 Entering Gaussian System, Link 0=g16
 Initial command:
 /opt/g16/l1.exe "/home/aayush/scratches/g16/Gau-66539.inp" -scrdir="/home/aayush/scratches/g16/"
 Entering Link 1 = /opt/g16/l1.exe PID=     66542.
  
 Copyright (c) 1988,1990,1992,1993,1995,1998,2003,2009,2016,
            Gaussian, Inc.  All Rights Reserved.
  
 This is part of the Gaussian(R) 16 program.  It is based on
 the Gaussian(R) 09 system (copyright 2009, Gaussian, Inc.),
 the Gaussian(R) 03 system (copyright 2003, Gaussian, Inc.),
 the Gaussian(R) 98 system (copyright 1998, Gaussian, Inc.),
 the Gaussian(R) 94 system (copyright 1995, Gaussian, Inc.),
 the Gaussian 92(TM) system (copyright 1992, Gaussian, Inc.),
 the Gaussian 90(TM) system (copyright 1990, Gaussian, Inc.),
 the Gaussian 88(TM) system (copyright 1988, Gaussian, Inc.),
 the Gaussian 86(TM) system (copyright 1986, Carnegie Mellon
 University), and the Gaussian 82(TM) system (copyright 1983,
 Carnegie Mellon University). Gaussian is a federally registered
 trademark of Gaussian, Inc.
  
 This software contains proprietary and confidential information,
 including trade secrets, belonging to Gaussian, Inc.
  
 This software is provided under written license and may be
 used, copied, transmitted, or stored only in accord with that
 written license.
  
 The following legend is applicable only to US Government
 contracts under FAR:
  
                    RESTRICTED RIGHTS LEGEND
  
 Use, reproduction and disclosure by the US Government is
 subject to restrictions as set forth in subparagraphs (a)
 and (c) of the Commercial Computer Software - Restricted
 Rights clause in FAR 52.227-19.
  
 Gaussian, Inc.
 340 Quinnipiac St., Bldg. 40, Wallingford CT 06492
  
  
 ---------------------------------------------------------------
 Warning -- This program may not be used in any manner that
 competes with the business of Gaussian, Inc. or will provide
 assistance to any competitor of Gaussian, Inc.  The licensee
 of this program is prohibited from giving any competitor of
 Gaussian, Inc. access to this program.  By using this program,
 the user acknowledges that Gaussian, Inc. is engaged in the
 business of creating and licensing software in the field of
 computational chemistry and represents and warrants to the
 licensee that it is not a competitor of Gaussian, Inc. and that
 it will not use this program in any manner prohibited above.
 ---------------------------------------------------------------
  

 Cite this work as:
 Gaussian 16, Revision A.03,
 M. J. Frisch, G. W. Trucks, H. B. Schlegel, G. E. Scuseria, 
 M. A. Robb, J. R. Cheeseman, G. Scalmani, V. Barone, 
 G. A. Petersson, H. Nakatsuji, X. Li, M. Caricato, A. V. Marenich, 
 J. Bloino, B. G. Janesko, R. Gomperts, B. Mennucci, H. P. Hratchian, 
 J. V. Ortiz, A. F. Izmaylov, J. L. Sonnenberg, D. Williams-Young, 
 F. Ding, F. Lipparini, F. Egidi, J. Goings, B. Peng, A. Petrone, 
 T. Henderson, D. Ranasinghe, V. G. Zakrzewski, J. Gao, N. Rega, 
 G. Zheng, W. Liang, M. Hada, M. Ehara, K. Toyota, R. Fukuda, 
 J. Hasegawa, M. Ishida, T. Nakajima, Y. Honda, O. Kitao, H. Nakai, 
 T. Vreven, K. Throssell, J. A. Montgomery, Jr., J. E. Peralta, 
 F. Ogliaro, M. J. Bearpark, J. J. Heyd, E. N. Brothers, K. N. Kudin, 
 V. N. Staroverov, T. A. Keith, R. Kobayashi, J. Normand, 
 K. Raghavachari, A. P. Rendell, J. C. Burant, S. S. Iyengar, 
 J. Tomasi, M. Cossi, J. M. Millam, M. Klene, C. Adamo, R. Cammi, 
 J. W. Ochterski, R. L. Martin, K. Morokuma, O. Farkas, 
 J. B. Foresman, and D. J. Fox, Gaussian, Inc., Wallingford CT, 2016.
 
 ******************************************
 Gaussian 16:  ES64L-G16RevA.03 25-Dec-2016
                16-Aug-2025 
 ******************************************
 %chk=ethyl_propiolate.chk
 %nprocshared=24
 Will use up to   24 processors via shared memory.
 %mem=12GB
 --------------------------
 # freq 6-311++g(d,p) m062x
 --------------------------
 1/10=4,30=1,38=1/1,3;
 2/12=2,17=6,18=5,40=1/2;
 3/5=4,6=6,7=1111,11=2,25=1,30=1,71=2,74=-55,140=1/1,2,3;
 4//1;
 5/5=2,38=5,98=1/2;
 8/6=4,10=90,11=11/1;
 11/6=1,8=1,9=11,15=111,16=1/1,2,10;
 10/6=1/2;
 6/7=2,8=2,9=2,10=2,28=1/1;
 7/8=1,10=1,25=1/1,2,3,16;
 1/10=4,30=1/3;
 99//99;
 -------------------
 Title Card Required
 -------------------
 Symbolic Z-matrix:
 Charge =  0 Multiplicity = 2
 O                     2.12021   1.39482  -0.01615 
 H                     2.7613    1.22452   0.69256 
 C                     2.39622  -1.17944  -0.56688 
 H                     3.27875  -1.6596   -0.92072 
 C                     1.42325  -0.57683  -0.18295 
 C                     0.09772  -0.19869   0.3158 
 O                    -0.23571  -0.34654   1.45764 
 O                    -0.6562    0.28501  -0.66261 
 C                    -1.98906   0.69327  -0.29266 
 C                    -2.92184  -0.49905  -0.20908 
 H                    -2.28285   1.38087  -1.08353 
 H                    -1.93744   1.22955   0.65548 
 H                    -3.93644  -0.15479   0.00071 
 H                    -2.93047  -1.04302  -1.15481 
 H                    -2.61482  -1.17302   0.59085 
 

 GradGradGradGradGradGradGradGradGradGradGradGradGradGradGradGradGradGrad
 Berny optimization.
 Initialization pass.
 Trust Radius=3.00D-01 FncErr=1.00D-07 GrdErr=1.00D-07 EigMax=2.50D+02 EigMin=1.00D-04
 Number of steps in this run=      2 maximum allowed number of steps=      2.
 GradGradGradGradGradGradGradGradGradGradGradGradGradGradGradGradGradGrad

                          Input orientation:                          
 ---------------------------------------------------------------------
 Center     Atomic      Atomic             Coordinates (Angstroms)
 Number     Number       Type             X           Y           Z
 ---------------------------------------------------------------------
      1          8           0        2.120208    1.394819   -0.016148
      2          1           0        2.761300    1.224516    0.692561
      3          6           0        2.396216   -1.179441   -0.566884
      4          1           0        3.278746   -1.659595   -0.920718
      5          6           0        1.423248   -0.576829   -0.182946
      6          6           0        0.097720   -0.198685    0.315804
      7          8           0       -0.235706   -0.346538    1.457638
      8          8           0       -0.656200    0.285014   -0.662610
      9          6           0       -1.989060    0.693266   -0.292656
     10          6           0       -2.921843   -0.499050   -0.209077
     11          1           0       -2.282845    1.380873   -1.083528
     12          1           0       -1.937440    1.229549    0.655483
     13          1           0       -3.936438   -0.154786    0.000706
     14          1           0       -2.930465   -1.043017   -1.154812
     15          1           0       -2.614816   -1.173019    0.590854
 ---------------------------------------------------------------------
                    Distance matrix (angstroms):
                    1          2          3          4          5
     1  O    0.000000
     2  H    0.970706   0.000000
     3  C    2.646943   2.738338   0.000000
     4  H    3.389676   3.344924   1.065179   0.000000
     5  C    2.097849   2.408680   1.207152   2.271467   0.000000
     6  C    2.596133   3.043371   2.650303   3.712435   1.465868
     7  O    3.279436   3.469236   3.423365   4.442079   2.344500
     8  O    3.059088   3.794530   3.386892   4.396808   2.301511
     9  C    4.177884   4.880451   4.776283   5.803464   3.642667
    10  C    5.389456   6.006808   5.373333   6.348275   4.345866
    11  H    4.530604   5.349985   5.358707   6.340524   4.287047
    12  H    4.116177   4.698889   5.106661   6.167670   3.906429
    13  H    6.251761   6.873197   6.440076   7.427809   5.379413
    14  H    5.722665   6.399272   5.360765   6.244139   4.485161
    15  H    5.420581   5.887371   5.143038   6.103743   4.154536
                    6          7          8          9         10
     6  C    0.000000
     7  O    1.198674   0.000000
     8  O    1.326520   2.251916   0.000000
     9  C    2.349564   2.686814   1.442238   0.000000
    10  C    3.079526   3.164890   2.439997   1.516142   0.000000
    11  H    3.181230   3.692188   2.006004   1.088389   2.169584
    12  H    2.509404   2.454262   2.066662   1.090519   2.169002
    13  H    4.046683   3.981813   3.375407   2.144186   1.091755
    14  H    3.470665   3.817290   2.679218   2.155049   1.091050
    15  H    2.895312   2.663560   2.744669   2.157587   1.090133
                   11         12         13         14         15
    11  H    0.000000
    12  H    1.779428   0.000000
    13  H    2.503634   2.518156   0.000000
    14  H    2.509927   3.070476   1.770920   0.000000
    15  H    3.071827   2.497068   1.769677   1.778731   0.000000
 Stoichiometry    C5H7O3(2)
 Framework group  C1[X(C5H7O3)]
 Deg. of freedom    39
 Full point group                 C1      NOp   1
 Largest Abelian subgroup         C1      NOp   1
 Largest concise Abelian subgroup C1      NOp   1
                         Standard orientation:                         
 ---------------------------------------------------------------------
 Center     Atomic      Atomic             Coordinates (Angstroms)
 Number     Number       Type             X           Y           Z
 ---------------------------------------------------------------------
      1          8           0        2.185803    1.390990   -0.020440
      2          1           0        2.826422    1.226485    0.690064
      3          6           0        2.455701   -1.189475   -0.544519
      4          1           0        3.337111   -1.675368   -0.893273
      5          6           0        1.484143   -0.580604   -0.166939
      6          6           0        0.159479   -0.194158    0.327726
      7          8           0       -0.174402   -0.329408    1.470989
      8          8           0       -0.593194    0.281208   -0.655719
      9          6           0       -1.925107    0.696447   -0.290155
     10          6           0       -2.860747   -0.492708   -0.194368
     11          1           0       -2.217175    1.376547   -1.088122
     12          1           0       -1.872289    1.242372    0.652399
     13          1           0       -3.874535   -0.143869    0.011731
     14          1           0       -2.870586   -1.046394   -1.134434
     15          1           0       -2.555405   -1.159108    0.612518
 ---------------------------------------------------------------------
 Rotational constants (GHZ):           3.9749307           1.1640458           1.1075435
 Standard basis: 6-311++G(d,p) (5D, 7F)
 There are   233 symmetry adapted cartesian basis functions of A   symmetry.
 There are   225 symmetry adapted basis functions of A   symmetry.
   225 basis functions,   351 primitive gaussians,   233 cartesian basis functions
    31 alpha electrons       30 beta electrons
       nuclear repulsion energy       358.4100379597 Hartrees.
 NAtoms=   15 NActive=   15 NUniq=   15 SFac= 1.00D+00 NAtFMM=   60 NAOKFM=F Big=F
 Integral buffers will be    131072 words long.
 Raffenetti 2 integral format.
 Two-electron integral symmetry is turned on.
 One-electron integrals computed using PRISM.
 NBasis=   225 RedAO= T EigKep=  1.88D-06  NBF=   225
 NBsUse=   225 1.00D-06 EigRej= -1.00D+00 NBFU=   225
 ExpMin= 3.60D-02 ExpMax= 8.59D+03 ExpMxC= 1.30D+03 IAcc=3 IRadAn=         5 AccDes= 0.00D+00
 Harris functional with IExCor= 1009 and IRadAn=       5 diagonalized for initial guess.
 HarFok:  IExCor= 1009 AccDes= 0.00D+00 IRadAn=         5 IDoV= 1 UseB2=F ITyADJ=14
 ICtDFT=  3500011 ScaDFX=  1.000000  1.000000  1.000000  1.000000
 FoFCou: FMM=F IPFlag=           0 FMFlag=      100000 FMFlg1=           0
         NFxFlg=           0 DoJE=T BraDBF=F KetDBF=T FulRan=T
         wScrn=  0.000000 ICntrl=       500 IOpCl=  0 I1Cent=   200000004 NGrid=           0
         NMat0=    1 NMatS0=      1 NMatT0=    0 NMatD0=    1 NMtDS0=    0 NMtDT0=    0
 Petite list used in FoFCou.
 Initial guess <Sx>= 0.0000 <Sy>= 0.0000 <Sz>= 0.5000 <S**2>= 0.7500 S= 0.5000
 Requested convergence on RMS density matrix=1.00D-08 within 128 cycles.
 Requested convergence on MAX density matrix=1.00D-06.
 Requested convergence on             energy=1.00D-06.
 No special actions if energy rises.
 Restarting incremental Fock formation.
 SCF Done:  E(UM062X) =  -420.202939856     A.U. after   25 cycles
            NFock= 25  Conv=0.30D-08     -V/T= 2.0032
 <Sx>= 0.0000 <Sy>= 0.0000 <Sz>= 0.5000 <S**2>= 0.7655 S= 0.5077
 <L.S>=  0.00000000000    
 Annihilation of the first spin contaminant:
 S**2 before annihilation     0.7655,   after     0.7501
 DoSCS=F DFT=T ScalE2(SS,OS)=  1.000000  1.000000
 Range of M.O.s used for correlation:     1   225
 NBasis=   225 NAE=    31 NBE=    30 NFC=     0 NFV=     0
 NROrb=    225 NOA=    31 NOB=    30 NVA=   194 NVB=   195

 **** Warning!!: The largest alpha MO coefficient is  0.30221146D+03


 **** Warning!!: The largest beta MO coefficient is  0.25041998D+03

 Symmetrizing basis deriv contribution to polar:
 IMax=3 JMax=2 DiffMx= 0.00D+00
 G2DrvN: will do    16 centers at a time, making    1 passes.
 Calling FoFCou, ICntrl=  3107 FMM=F I1Cent=   0 AccDes= 0.00D+00.
 End of G2Drv F.D. properties file   721 does not exist.
 End of G2Drv F.D. properties file   722 does not exist.
 End of G2Drv F.D. properties file   788 does not exist.
          IDoAtm=111111111111111
          Differentiating once with respect to electric field.
                with respect to dipole field.
          Differentiating once with respect to nuclear coordinates.
 Keep R1 and R2 ints in memory in canonical form, NReq=671901991.
          There are    48 degrees of freedom in the 1st order CPHF.  IDoFFX=6 NUNeed=     3.
     45 vectors produced by pass  0 Test12= 2.47D-14 2.08D-09 XBig12= 7.87D+01 3.95D+00.
 AX will form    45 AO Fock derivatives at one time.
     45 vectors produced by pass  1 Test12= 2.47D-14 2.08D-09 XBig12= 1.25D+01 4.03D-01.
     45 vectors produced by pass  2 Test12= 2.47D-14 2.08D-09 XBig12= 4.35D-01 9.21D-02.
     45 vectors produced by pass  3 Test12= 2.47D-14 2.08D-09 XBig12= 6.86D-03 1.07D-02.
     45 vectors produced by pass  4 Test12= 2.47D-14 2.08D-09 XBig12= 7.20D-05 1.53D-03.
     45 vectors produced by pass  5 Test12= 2.47D-14 2.08D-09 XBig12= 9.08D-07 8.32D-05.
     38 vectors produced by pass  6 Test12= 2.47D-14 2.08D-09 XBig12= 7.34D-09 9.73D-06.
     20 vectors produced by pass  7 Test12= 2.47D-14 2.08D-09 XBig12= 4.97D-11 7.23D-07.
      4 vectors produced by pass  8 Test12= 2.47D-14 2.08D-09 XBig12= 4.93D-13 5.53D-08.
      3 vectors produced by pass  9 Test12= 2.47D-14 2.08D-09 XBig12= 8.22D-15 1.21D-08.
      2 vectors produced by pass 10 Test12= 2.47D-14 2.08D-09 XBig12= 3.80D-15 1.00D-08.
      1 vectors produced by pass 11 Test12= 2.47D-14 2.08D-09 XBig12= 2.98D-16 2.36D-09.
 InvSVY:  IOpt=1 It=  1 EMax= 3.55D-15
 Solved reduced A of dimension   338 with    48 vectors.
 Isotropic polarizability for W=    0.000000       74.00 Bohr**3.
 End of Minotr F.D. properties file   721 does not exist.
 End of Minotr F.D. properties file   722 does not exist.
 End of Minotr F.D. properties file   788 does not exist.

 **********************************************************************

            Population analysis using the SCF density.

 **********************************************************************

 Orbital symmetries:
 Alpha Orbitals:
       Occupied  (A) (A) (A) (A) (A) (A) (A) (A) (A) (A) (A) (A)
                 (A) (A) (A) (A) (A) (A) (A) (A) (A) (A) (A) (A)
                 (A) (A) (A) (A) (A) (A) (A)
       Virtual   (A) (A) (A) (A) (A) (A) (A) (A) (A) (A) (A) (A)
                 (A) (A) (A) (A) (A) (A) (A) (A) (A) (A) (A) (A)
                 (A) (A) (A) (A) (A) (A) (A) (A) (A) (A) (A) (A)
                 (A) (A) (A) (A) (A) (A) (A) (A) (A) (A) (A) (A)
                 (A) (A) (A) (A) (A) (A) (A) (A) (A) (A) (A) (A)
                 (A) (A) (A) (A) (A) (A) (A) (A) (A) (A) (A) (A)
                 (A) (A) (A) (A) (A) (A) (A) (A) (A) (A) (A) (A)
                 (A) (A) (A) (A) (A) (A) (A) (A) (A) (A) (A) (A)
                 (A) (A) (A) (A) (A) (A) (A) (A) (A) (A) (A) (A)
                 (A) (A) (A) (A) (A) (A) (A) (A) (A) (A) (A) (A)
                 (A) (A) (A) (A) (A) (A) (A) (A) (A) (A) (A) (A)
                 (A) (A) (A) (A) (A) (A) (A) (A) (A) (A) (A) (A)
                 (A) (A) (A) (A) (A) (A) (A) (A) (A) (A) (A) (A)
                 (A) (A) (A) (A) (A) (A) (A) (A) (A) (A) (A) (A)
                 (A) (A) (A) (A) (A) (A) (A) (A) (A) (A) (A) (A)
                 (A) (A) (A) (A) (A) (A) (A) (A) (A) (A) (A) (A)
                 (A) (A)
 Beta  Orbitals:
       Occupied  (A) (A) (A) (A) (A) (A) (A) (A) (A) (A) (A) (A)
                 (A) (A) (A) (A) (A) (A) (A) (A) (A) (A) (A) (A)
                 (A) (A) (A) (A) (A) (A)
       Virtual   (A) (A) (A) (A) (A) (A) (A) (A) (A) (A) (A) (A)
                 (A) (A) (A) (A) (A) (A) (A) (A) (A) (A) (A) (A)
                 (A) (A) (A) (A) (A) (A) (A) (A) (A) (A) (A) (A)
                 (A) (A) (A) (A) (A) (A) (A) (A) (A) (A) (A) (A)
                 (A) (A) (A) (A) (A) (A) (A) (A) (A) (A) (A) (A)
                 (A) (A) (A) (A) (A) (A) (A) (A) (A) (A) (A) (A)
                 (A) (A) (A) (A) (A) (A) (A) (A) (A) (A) (A) (A)
                 (A) (A) (A) (A) (A) (A) (A) (A) (A) (A) (A) (A)
                 (A) (A) (A) (A) (A) (A) (A) (A) (A) (A) (A) (A)
                 (A) (A) (A) (A) (A) (A) (A) (A) (A) (A) (A) (A)
                 (A) (A) (A) (A) (A) (A) (A) (A) (A) (A) (A) (A)
                 (A) (A) (A) (A) (A) (A) (A) (A) (A) (A) (A) (A)
                 (A) (A) (A) (A) (A) (A) (A) (A) (A) (A) (A) (A)
                 (A) (A) (A) (A) (A) (A) (A) (A) (A) (A) (A) (A)
                 (A) (A) (A) (A) (A) (A) (A) (A) (A) (A) (A) (A)
                 (A) (A) (A) (A) (A) (A) (A) (A) (A) (A) (A) (A)
                 (A) (A) (A)
 The electronic state is 2-A.
 Alpha  occ. eigenvalues --  -19.68128 -19.66442 -19.62986 -10.70598 -10.60427
 Alpha  occ. eigenvalues --  -10.58560 -10.58020 -10.53707  -1.25631  -1.16312
 Alpha  occ. eigenvalues --   -1.12443  -0.90876  -0.87455  -0.78130  -0.70731
 Alpha  occ. eigenvalues --   -0.64496  -0.61882  -0.58509  -0.56717  -0.54513
 Alpha  occ. eigenvalues --   -0.53471  -0.50541  -0.48341  -0.46313  -0.45240
 Alpha  occ. eigenvalues --   -0.42113  -0.41361  -0.39656  -0.38321  -0.36560
 Alpha  occ. eigenvalues --   -0.34811
 Alpha virt. eigenvalues --   -0.00765  -0.00312   0.00525   0.01536   0.02349
 Alpha virt. eigenvalues --    0.02772   0.03454   0.04140   0.05512   0.06671
 Alpha virt. eigenvalues --    0.07287   0.07795   0.08150   0.09129   0.10359
 Alpha virt. eigenvalues --    0.11096   0.11838   0.12564   0.13189   0.13433
 Alpha virt. eigenvalues --    0.14207   0.14639   0.14968   0.15390   0.15800
 Alpha virt. eigenvalues --    0.16508   0.18051   0.18957   0.19899   0.20988
 Alpha virt. eigenvalues --    0.21483   0.21806   0.22132   0.23639   0.24216
 Alpha virt. eigenvalues --    0.25629   0.26692   0.27173   0.29139   0.29863
 Alpha virt. eigenvalues --    0.30466   0.31360   0.33048   0.33160   0.34016
 Alpha virt. eigenvalues --    0.35028   0.36163   0.37352   0.38622   0.39378
 Alpha virt. eigenvalues --    0.40570   0.43502   0.44576   0.46908   0.48600
 Alpha virt. eigenvalues --    0.51744   0.53937   0.55408   0.56210   0.58679
 Alpha virt. eigenvalues --    0.59915   0.61459   0.63573   0.64943   0.66854
 Alpha virt. eigenvalues --    0.68714   0.70157   0.71445   0.72504   0.72967
 Alpha virt. eigenvalues --    0.73819   0.75722   0.78011   0.78658   0.80541
 Alpha virt. eigenvalues --    0.81446   0.87444   0.92218   0.94150   0.96547
 Alpha virt. eigenvalues --    1.01943   1.05608   1.06332   1.07851   1.09514
 Alpha virt. eigenvalues --    1.14265   1.17626   1.18684   1.20743   1.22708
 Alpha virt. eigenvalues --    1.24697   1.26492   1.29508   1.31692   1.34453
 Alpha virt. eigenvalues --    1.35929   1.36107   1.38474   1.40262   1.44990
 Alpha virt. eigenvalues --    1.46017   1.48482   1.51675   1.53616   1.56641
 Alpha virt. eigenvalues --    1.58437   1.60062   1.60357   1.61847   1.64740
 Alpha virt. eigenvalues --    1.66091   1.68366   1.70886   1.72858   1.74864
 Alpha virt. eigenvalues --    1.78683   1.81749   1.83580   1.85726   1.87436
 Alpha virt. eigenvalues --    1.91798   1.95525   1.99805   2.03910   2.05835
 Alpha virt. eigenvalues --    2.10107   2.10846   2.13383   2.21106   2.31799
 Alpha virt. eigenvalues --    2.35612   2.38950   2.47099   2.51281   2.52871
 Alpha virt. eigenvalues --    2.54377   2.55536   2.60862   2.61994   2.62872
 Alpha virt. eigenvalues --    2.64898   2.66363   2.72488   2.73090   2.76114
 Alpha virt. eigenvalues --    2.81173   2.81307   2.84605   2.91425   2.92583
 Alpha virt. eigenvalues --    2.94742   2.95186   3.00895   3.03216   3.05155
 Alpha virt. eigenvalues --    3.10350   3.13613   3.15128   3.17454   3.18253
 Alpha virt. eigenvalues --    3.25246   3.26287   3.31916   3.36043   3.38057
 Alpha virt. eigenvalues --    3.45040   3.50648   3.65821   3.76839   3.84969
 Alpha virt. eigenvalues --    3.86302   3.88403   3.91508   4.03129   4.13629
 Alpha virt. eigenvalues --    4.19773   4.28240   5.10124   5.13244   5.15409
 Alpha virt. eigenvalues --    5.20745   5.33471   5.47448   5.58274   5.74018
 Alpha virt. eigenvalues --    5.94974  23.61593  23.93507  23.94786  24.05877
 Alpha virt. eigenvalues --   25.07675  49.95486  50.00956  50.11445
  Beta  occ. eigenvalues --  -19.68133 -19.64954 -19.63004 -10.70578 -10.60427
  Beta  occ. eigenvalues --  -10.58584 -10.57841 -10.53708  -1.25638  -1.16349
  Beta  occ. eigenvalues --   -1.05902  -0.90432  -0.87066  -0.77947  -0.70538
  Beta  occ. eigenvalues --   -0.64423  -0.61482  -0.58415  -0.56458  -0.53558
  Beta  occ. eigenvalues --   -0.51792  -0.49215  -0.46621  -0.45237  -0.42015
  Beta  occ. eigenvalues --   -0.39534  -0.39097  -0.38330  -0.37963  -0.35984
  Beta virt. eigenvalues --   -0.09247  -0.00251   0.00088   0.00745   0.01855
  Beta virt. eigenvalues --    0.02449   0.02812   0.03455   0.04220   0.05540
  Beta virt. eigenvalues --    0.06573   0.07401   0.07840   0.08208   0.09213
  Beta virt. eigenvalues --    0.10500   0.11216   0.12289   0.12601   0.13151
  Beta virt. eigenvalues --    0.13445   0.14278   0.14786   0.15050   0.15415
  Beta virt. eigenvalues --    0.16064   0.16988   0.18117   0.18943   0.19965
  Beta virt. eigenvalues --    0.20990   0.21506   0.22003   0.22315   0.23690
  Beta virt. eigenvalues --    0.24354   0.25641   0.26547   0.27304   0.29161
  Beta virt. eigenvalues --    0.29919   0.30515   0.31420   0.33035   0.33233
  Beta virt. eigenvalues --    0.33991   0.35084   0.36181   0.37273   0.38904
  Beta virt. eigenvalues --    0.39389   0.40620   0.43499   0.44596   0.46918
  Beta virt. eigenvalues --    0.48712   0.51733   0.53942   0.55434   0.56692
  Beta virt. eigenvalues --    0.59145   0.60183   0.61730   0.63680   0.65018
  Beta virt. eigenvalues --    0.66951   0.68747   0.70125   0.71466   0.72419
  Beta virt. eigenvalues --    0.73019   0.73912   0.75711   0.77972   0.78775
  Beta virt. eigenvalues --    0.80550   0.81469   0.87457   0.92547   0.94398
  Beta virt. eigenvalues --    0.96566   1.01985   1.06124   1.06602   1.08250
  Beta virt. eigenvalues --    1.11333   1.14827   1.18143   1.19047   1.21142
  Beta virt. eigenvalues --    1.23261   1.25071   1.26733   1.29650   1.32637
  Beta virt. eigenvalues --    1.34715   1.36104   1.36459   1.39106   1.40791
  Beta virt. eigenvalues --    1.45631   1.46503   1.48753   1.51820   1.54275
  Beta virt. eigenvalues --    1.56931   1.58488   1.60094   1.60417   1.61900
  Beta virt. eigenvalues --    1.64768   1.66044   1.68384   1.70923   1.73175
  Beta virt. eigenvalues --    1.74962   1.79227   1.81768   1.83914   1.85853
  Beta virt. eigenvalues --    1.87622   1.91880   1.95935   1.99898   2.03959
  Beta virt. eigenvalues --    2.05974   2.10502   2.11779   2.13407   2.21122
  Beta virt. eigenvalues --    2.31822   2.35617   2.39232   2.47172   2.51283
  Beta virt. eigenvalues --    2.52868   2.54376   2.55568   2.61316   2.62255
  Beta virt. eigenvalues --    2.62963   2.65356   2.66445   2.72720   2.73104
  Beta virt. eigenvalues --    2.76379   2.81293   2.81986   2.87022   2.91793
  Beta virt. eigenvalues --    2.94954   2.95164   2.97143   3.00999   3.04528
  Beta virt. eigenvalues --    3.06425   3.12965   3.13629   3.15478   3.19490
  Beta virt. eigenvalues --    3.20079   3.25866   3.27520   3.31929   3.36355
  Beta virt. eigenvalues --    3.38118   3.45006   3.51219   3.65807   3.76888
  Beta virt. eigenvalues --    3.84972   3.86302   3.91328   3.91852   4.03125
  Beta virt. eigenvalues --    4.13574   4.19726   4.28236   5.12043   5.15311
  Beta virt. eigenvalues --    5.20537   5.21683   5.33541   5.47476   5.60635
  Beta virt. eigenvalues --    5.74015   5.94962  23.61649  23.93511  23.94794
  Beta virt. eigenvalues --   24.05878  25.07987  49.95022  50.00919  50.11468
          Condensed to atoms (all electrons):
               1          2          3          4          5          6
     1  O    8.077805   0.238914  -0.226059  -0.002026   0.412259  -0.254249
     2  H    0.238914   0.505578  -0.119522  -0.002394   0.061832   0.080445
     3  C   -0.226059  -0.119522  30.800976   0.642997  -7.399048 -16.598953
     4  H   -0.002026  -0.002394   0.642997   0.429763  -0.169661  -0.086044
     5  C    0.412259   0.061832  -7.399048  -0.169661  17.149802  -4.245552
     6  C   -0.254249   0.080445 -16.598953  -0.086044  -4.245552  26.527332
     7  O   -0.014255  -0.001676   0.125026  -0.000810   0.297838  -0.013909
     8  O   -0.002178  -0.001079  -0.017159  -0.003340  -0.164564   0.048720
     9  C   -0.014762   0.002259  -0.456243  -0.001109  -0.743919   0.966501
    10  C    0.004091  -0.001047   0.057632  -0.000131   0.041535  -0.152691
    11  H   -0.001485   0.000298  -0.030151   0.000121  -0.048051   0.091867
    12  H    0.001429  -0.000521   0.033065  -0.000078   0.063320  -0.106465
    13  H   -0.000034  -0.000017   0.005749   0.000033   0.017582  -0.015872
    14  H    0.000359   0.000004  -0.002826  -0.000221   0.003162  -0.003994
    15  H   -0.000839   0.000232  -0.033663   0.000048  -0.073018   0.086355
               7          8          9         10         11         12
     1  O   -0.014255  -0.002178  -0.014762   0.004091  -0.001485   0.001429
     2  H   -0.001676  -0.001079   0.002259  -0.001047   0.000298  -0.000521
     3  C    0.125026  -0.017159  -0.456243   0.057632  -0.030151   0.033065
     4  H   -0.000810  -0.003340  -0.001109  -0.000131   0.000121  -0.000078
     5  C    0.297838  -0.164564  -0.743919   0.041535  -0.048051   0.063320
     6  C   -0.013909   0.048720   0.966501  -0.152691   0.091867  -0.106465
     7  O    7.995583  -0.143854   0.048490  -0.082830   0.001606  -0.014349
     8  O   -0.143854   8.246324   0.137530  -0.053686  -0.094294  -0.004856
     9  C    0.048490   0.137530   5.585314  -0.015053   0.451214   0.378412
    10  C   -0.082830  -0.053686  -0.015053   5.496305  -0.063236  -0.016484
    11  H    0.001606  -0.094294   0.451214  -0.063236   0.527370  -0.034546
    12  H   -0.014349  -0.004856   0.378412  -0.016484  -0.034546   0.513663
    13  H   -0.001598   0.017132  -0.048732   0.401427  -0.003622  -0.002974
    14  H    0.002895  -0.001568  -0.040654   0.423441  -0.009131   0.003332
    15  H    0.001500  -0.019983   0.009442   0.379124   0.010459  -0.010571
              13         14         15
     1  O   -0.000034   0.000359  -0.000839
     2  H   -0.000017   0.000004   0.000232
     3  C    0.005749  -0.002826  -0.033663
     4  H    0.000033  -0.000221   0.000048
     5  C    0.017582   0.003162  -0.073018
     6  C   -0.015872  -0.003994   0.086355
     7  O   -0.001598   0.002895   0.001500
     8  O    0.017132  -0.001568  -0.019983
     9  C   -0.048732  -0.040654   0.009442
    10  C    0.401427   0.423441   0.379124
    11  H   -0.003622  -0.009131   0.010459
    12  H   -0.002974   0.003332  -0.010571
    13  H    0.535629  -0.030709  -0.035592
    14  H   -0.030709   0.536854  -0.046550
    15  H   -0.035592  -0.046550   0.541316
          Atomic-Atomic Spin Densities.
               1          2          3          4          5          6
     1  O    0.945887   0.012095  -0.297780  -0.003925   0.010183   0.172186
     2  H    0.012095  -0.032358   0.024384   0.000345  -0.009989  -0.013561
     3  C   -0.297780   0.024384   1.117642   0.033847  -0.557189  -0.075409
     4  H   -0.003925   0.000345   0.033847  -0.008367  -0.021865  -0.012951
     5  C    0.010183  -0.009989  -0.557189  -0.021865  -0.032460   0.463334
     6  C    0.172186  -0.013561  -0.075409  -0.012951   0.463334  -0.439286
     7  O    0.001639  -0.000091   0.009014  -0.000009   0.012335  -0.021640
     8  O    0.001905   0.000255  -0.012699  -0.000230  -0.000450   0.017702
     9  C   -0.000799   0.000503   0.016839  -0.000026   0.042185  -0.059673
    10  C   -0.001065   0.000065  -0.006517   0.000086  -0.032472   0.041151
    11  H    0.000248   0.000006   0.003476  -0.000005   0.008290  -0.011549
    12  H    0.000194  -0.000076  -0.004341  -0.000023  -0.006306   0.010686
    13  H   -0.000132   0.000025   0.000402   0.000009  -0.001141   0.000161
    14  H    0.000205  -0.000031  -0.002070  -0.000025   0.000150   0.002399
    15  H    0.000008   0.000006   0.004773   0.000007   0.008706  -0.013488
               7          8          9         10         11         12
     1  O    0.001639   0.001905  -0.000799  -0.001065   0.000248   0.000194
     2  H   -0.000091   0.000255   0.000503   0.000065   0.000006  -0.000076
     3  C    0.009014  -0.012699   0.016839  -0.006517   0.003476  -0.004341
     4  H   -0.000009  -0.000230  -0.000026   0.000086  -0.000005  -0.000023
     5  C    0.012335  -0.000450   0.042185  -0.032472   0.008290  -0.006306
     6  C   -0.021640   0.017702  -0.059673   0.041151  -0.011549   0.010686
     7  O   -0.011394   0.000098   0.001452   0.000532   0.000050  -0.000092
     8  O    0.000098  -0.004477   0.000135  -0.002319   0.000548  -0.000320
     9  C    0.001452   0.000135  -0.003897   0.008233  -0.002050  -0.000125
    10  C    0.000532  -0.002319   0.008233  -0.012726   0.002278  -0.000315
    11  H    0.000050   0.000548  -0.002050   0.002278  -0.000997   0.000164
    12  H   -0.000092  -0.000320  -0.000125  -0.000315   0.000164   0.000058
    13  H    0.000388  -0.000253   0.002216  -0.002439   0.000376  -0.000397
    14  H   -0.000355   0.000045  -0.001142   0.001497  -0.000201   0.000180
    15  H   -0.000162   0.000429  -0.002250   0.003262  -0.000409   0.000035
              13         14         15
     1  O   -0.000132   0.000205   0.000008
     2  H    0.000025  -0.000031   0.000006
     3  C    0.000402  -0.002070   0.004773
     4  H    0.000009  -0.000025   0.000007
     5  C   -0.001141   0.000150   0.008706
     6  C    0.000161   0.002399  -0.013488
     7  O    0.000388  -0.000355  -0.000162
     8  O   -0.000253   0.000045   0.000429
     9  C    0.002216  -0.001142  -0.002250
    10  C   -0.002439   0.001497   0.003262
    11  H    0.000376  -0.000201  -0.000409
    12  H   -0.000397   0.000180   0.000035
    13  H    0.000533  -0.000187   0.000700
    14  H   -0.000187   0.000060  -0.000519
    15  H    0.000700  -0.000519  -0.000938
 Mulliken charges and spin densities:
               1          2
     1  O   -0.218972   0.840849
     2  H    0.236694  -0.018422
     3  C   -0.781821   0.254373
     4  H    0.192850  -0.013133
     5  C    0.796482  -0.116689
     6  C   -0.323490   0.060062
     7  O   -0.199657  -0.008235
     8  O    0.056853   0.000368
     9  C   -0.258688   0.001602
    10  C   -0.418398  -0.000750
    11  H    0.201580   0.000227
    12  H    0.197624  -0.000678
    13  H    0.161598   0.000260
    14  H    0.165604   0.000007
    15  H    0.191741   0.000160
 Sum of Mulliken charges =  -0.00000   1.00000
 Mulliken charges and spin densities with hydrogens summed into heavy atoms:
               1          2
     1  O    0.017722   0.822427
     3  C   -0.588971   0.241240
     5  C    0.796482  -0.116689
     6  C   -0.323490   0.060062
     7  O   -0.199657  -0.008235
     8  O    0.056853   0.000368
     9  C    0.140516   0.001150
    10  C    0.100545  -0.000322
 APT charges:
               1
     1  O   -0.153340
     2  H    0.257538
     3  C   -0.167775
     4  H    0.234088
     5  C   -0.443906
     6  C    1.475142
     7  O   -0.777698
     8  O   -0.943376
     9  C    0.536592
    10  C   -0.036859
    11  H   -0.013699
    12  H   -0.011757
    13  H    0.007922
    14  H    0.008689
    15  H    0.028439
 Sum of APT charges =  -0.00000
 APT charges with hydrogens summed into heavy atoms:
               1
     1  O    0.104198
     3  C    0.066313
     5  C   -0.443906
     6  C    1.475142
     7  O   -0.777698
     8  O   -0.943376
     9  C    0.511136
    10  C    0.008192
 Electronic spatial extent (au):  <R**2>=           1134.0571
 Charge=              0.0000 electrons
 Dipole moment (field-independent basis, Debye):
    X=              0.2086    Y=             -0.8059    Z=             -0.7613  Tot=              1.1280
 Quadrupole moment (field-independent basis, Debye-Ang):
   XX=            -31.9625   YY=            -46.5634   ZZ=            -51.8982
   XY=             -5.7406   XZ=              2.3170   YZ=              4.0348
 Traceless Quadrupole moment (field-independent basis, Debye-Ang):
   XX=             11.5122   YY=             -3.0887   ZZ=             -8.4235
   XY=             -5.7406   XZ=              2.3170   YZ=              4.0348
 Octapole moment (field-independent basis, Debye-Ang**2):
  XXX=             29.1939  YYY=              3.7821  ZZZ=             -3.2750  XYY=              3.3611
  XXY=             -7.8570  XXZ=              1.6940  XZZ=              2.5539  YZZ=              4.3856
  YYZ=              0.5182  XYZ=             11.0249
 Hexadecapole moment (field-independent basis, Debye-Ang**3):
 XXXX=           -900.4859 YYYY=           -239.4630 ZZZZ=           -183.8785 XXXY=            -43.3032
 XXXZ=              3.9146 YYYX=             -4.1405 YYYZ=              5.1922 ZZZX=              7.4749
 ZZZY=              2.5138 XXYY=           -190.9323 XXZZ=           -197.2615 YYZZ=            -64.8494
 XXYZ=             32.9196 YYXZ=              0.1273 ZZXY=              1.8122
 N-N= 3.584100379597D+02 E-N=-1.701667771020D+03  KE= 4.188663976702D+02
  Exact polarizability:  86.544  -6.192  75.066  -3.696   4.514  60.377
 Approx polarizability:  88.240 -12.700  82.635  -7.597   3.988  78.518
                          Isotropic Fermi Contact Couplings
        Atom                 a.u.       MegaHertz       Gauss      10(-4) cm-1
     1  O(17)              0.13147     -79.69829     -28.43833     -26.58449
     2  H(1)              -0.01417     -63.34790     -22.60411     -21.13059
     3  C(13)              0.03997      44.93763      16.03486      14.98958
     4  H(1)              -0.00450     -20.12826      -7.18226      -6.71407
     5  C(13)              0.01568      17.62183       6.28791       5.87801
     6  C(13)              0.01224      13.75586       4.90843       4.58846
     7  O(17)             -0.00308       1.86826       0.66664       0.62319
     8  O(17)             -0.00035       0.21474       0.07662       0.07163
     9  C(13)             -0.00003      -0.02863      -0.01022      -0.00955
    10  C(13)             -0.00017      -0.18618      -0.06643      -0.06210
    11  H(1)              -0.00001      -0.04441      -0.01585      -0.01482
    12  H(1)              -0.00006      -0.27185      -0.09700      -0.09068
    13  H(1)               0.00002       0.07902       0.02820       0.02636
    14  H(1)               0.00000       0.00106       0.00038       0.00035
    15  H(1)               0.00001       0.04045       0.01443       0.01349
 --------------------------------------------------------
       Center         ----  Spin Dipole Couplings  ----
                      3XX-RR        3YY-RR        3ZZ-RR
 --------------------------------------------------------
     1   Atom       -1.631165      3.162182     -1.531017
     2   Atom        0.002470     -0.037922      0.035452
     3   Atom       -0.084724      0.211881     -0.127157
     4   Atom        0.011352      0.005434     -0.016786
     5   Atom        0.037414     -0.001993     -0.035421
     6   Atom        0.017635     -0.002558     -0.015077
     7   Atom        0.040216     -0.053016      0.012800
     8   Atom        0.012994     -0.015234      0.002240
     9   Atom        0.003642     -0.001736     -0.001906
    10   Atom        0.001398     -0.000592     -0.000806
    11   Atom        0.002408     -0.001213     -0.001195
    12   Atom        0.003291     -0.001607     -0.001684
    13   Atom        0.000997     -0.000442     -0.000555
    14   Atom        0.001151     -0.000423     -0.000727
    15   Atom        0.001213     -0.000391     -0.000822
 --------------------------------------------------------
                        XY            XZ            YZ
 --------------------------------------------------------
     1   Atom        0.335912      0.047549      0.822836
     2   Atom       -0.021263      0.134096     -0.015577
     3   Atom        0.179321      0.021610      0.008372
     4   Atom       -0.013312     -0.012246      0.008918
     5   Atom       -0.015330     -0.024702      0.014852
     6   Atom        0.014699     -0.007336     -0.002065
     7   Atom        0.003926     -0.004034     -0.019032
     8   Atom        0.000917      0.005889      0.001417
     9   Atom        0.000374      0.000063      0.000010
    10   Atom        0.000454     -0.000009      0.000015
    11   Atom       -0.000120      0.000841     -0.000001
    12   Atom        0.000098     -0.000944      0.000074
    13   Atom        0.000280     -0.000050      0.000006
    14   Atom        0.000606      0.000328      0.000132
    15   Atom        0.000785     -0.000403     -0.000097
 --------------------------------------------------------


 ---------------------------------------------------------------------------------
              Anisotropic Spin Dipole Couplings in Principal Axis System
 ---------------------------------------------------------------------------------

       Atom             a.u.   MegaHertz   Gauss  10(-4) cm-1        Axes

              Baa    -1.6754   121.229    43.258    40.438  0.4103 -0.1805  0.8939
     1 O(17)  Bbb    -1.6501   119.399    42.605    39.827  0.9094  0.0076 -0.4159
              Bcc     3.3255  -240.628   -85.862   -80.265  0.0683  0.9835  0.1673
 
              Baa    -0.1166   -62.190   -22.191   -20.744  0.7516  0.0734 -0.6555
     2 H(1)   Bbb    -0.0409   -21.826    -7.788    -7.280  0.0314  0.9887  0.1466
              Bcc     0.1575    84.016    29.979    28.025  0.6589 -0.1308  0.7408
 
              Baa    -0.1746   -23.427    -8.359    -7.814  0.8611 -0.3926 -0.3231
     3 C(13)  Bbb    -0.1224   -16.420    -5.859    -5.477  0.2764 -0.1720  0.9455
              Bcc     0.2969    39.847    14.218    13.292  0.4267  0.9035  0.0396
 
              Baa    -0.0220   -11.746    -4.191    -3.918  0.2781 -0.1721  0.9450
     4 H(1)   Bbb    -0.0052    -2.784    -0.993    -0.929  0.6099  0.7917 -0.0353
              Bcc     0.0272    14.530     5.185     4.847  0.7421 -0.5862 -0.3252
 
              Baa    -0.0454    -6.091    -2.174    -2.032  0.2368 -0.2387  0.9418
     5 C(13)  Bbb    -0.0064    -0.865    -0.309    -0.289  0.3925  0.9102  0.1320
              Bcc     0.0518     6.957     2.482     2.321  0.8888 -0.3384 -0.3092
 
              Baa    -0.0168    -2.252    -0.804    -0.751  0.2589 -0.1286  0.9573
     6 C(13)  Bbb    -0.0099    -1.331    -0.475    -0.444 -0.4099  0.8828  0.2294
              Bcc     0.0267     3.583     1.279     1.195  0.8746  0.4518 -0.1759
 
              Baa    -0.0582     4.211     1.503     1.405 -0.0280  0.9659  0.2573
     7 O(17)  Bbb     0.0169    -1.221    -0.436    -0.407  0.2052 -0.2464  0.9472
              Bcc     0.0413    -2.990    -1.067    -0.997  0.9783  0.0793 -0.1913
 
              Baa    -0.0154     1.111     0.396     0.371 -0.0167  0.9971 -0.0747
     8 O(17)  Bbb    -0.0003     0.022     0.008     0.007 -0.4078  0.0614  0.9110
              Bcc     0.0157    -1.133    -0.404    -0.378  0.9129  0.0457  0.4055
 
              Baa    -0.0019    -0.256    -0.091    -0.085 -0.0088 -0.0394  0.9992
     9 C(13)  Bbb    -0.0018    -0.236    -0.084    -0.079 -0.0695  0.9968  0.0387
              Bcc     0.0037     0.492     0.176     0.164  0.9975  0.0691  0.0115
 
              Baa    -0.0008    -0.108    -0.039    -0.036  0.0323 -0.1364  0.9901
    10 C(13)  Bbb    -0.0007    -0.092    -0.033    -0.031 -0.2098  0.9676  0.1402
              Bcc     0.0015     0.201     0.072     0.067  0.9772  0.2123 -0.0026
 
              Baa    -0.0014    -0.739    -0.264    -0.246 -0.2184 -0.1476  0.9646
    11 H(1)   Bbb    -0.0012    -0.647    -0.231    -0.216 -0.0023  0.9886  0.1507
              Bcc     0.0026     1.386     0.495     0.462  0.9759 -0.0308  0.2163
 
              Baa    -0.0019    -1.006    -0.359    -0.336  0.1764 -0.3084  0.9348
    12 H(1)   Bbb    -0.0016    -0.843    -0.301    -0.281  0.0402  0.9511  0.3062
              Bcc     0.0035     1.849     0.660     0.617  0.9835  0.0164 -0.1802
 
              Baa    -0.0006    -0.299    -0.107    -0.100  0.0706 -0.2177  0.9735
    13 H(1)   Bbb    -0.0005    -0.262    -0.093    -0.087 -0.1729  0.9585  0.2269
              Bcc     0.0011     0.561     0.200     0.187  0.9824  0.1843 -0.0300
 
              Baa    -0.0008    -0.420    -0.150    -0.140 -0.1153 -0.1622  0.9800
    14 H(1)   Bbb    -0.0006    -0.335    -0.119    -0.112 -0.3393  0.9337  0.1146
              Bcc     0.0014     0.755     0.269     0.252  0.9336  0.3193  0.1627
 
              Baa    -0.0009    -0.485    -0.173    -0.162  0.2576 -0.2134  0.9424
    15 H(1)   Bbb    -0.0007    -0.370    -0.132    -0.123 -0.3115  0.9049  0.2900
              Bcc     0.0016     0.855     0.305     0.285  0.9147  0.3683 -0.1666
 

 ---------------------------------------------------------------------------------

 Calling FoFJK, ICntrl=    100127 FMM=F ISym2X=0 I1Cent= 0 IOpClX= 1 NMat=1 NMatS=1 NMatT=0.
 Full mass-weighted force constant matrix:
 Low frequencies --- -297.8019  -62.1084  -38.5391  -15.1956    0.0005    0.0007
 Low frequencies ---    0.0008   23.5093   60.1587
 ******    2 imaginary frequencies (negative Signs) ****** 
 Diagonal vibrational polarizability:
      183.7880644     104.1489864      60.1893829
 Harmonic frequencies (cm**-1), IR intensities (KM/Mole), Raman scattering
 activities (A**4/AMU), depolarization ratios for plane and unpolarized
 incident light, reduced masses (AMU), force constants (mDyne/A),
 and normal coordinates:
                      1                      2                      3
                      A                      A                      A
 Frequencies --   -297.8008               -33.2094                57.0755
 Red. masses --     11.7823                 4.8440                 3.9614
 Frc consts  --      0.6156                 0.0031                 0.0076
 IR Inten    --     35.2669                 8.3954                 1.9317
  Atom  AN      X      Y      Z        X      Y      Z        X      Y      Z
     1   8    -0.18  -0.52  -0.05     0.21  -0.09   0.27     0.22  -0.02  -0.12
     2   1    -0.01  -0.14  -0.13    -0.13  -0.25   0.53     0.22  -0.08  -0.12
     3   6    -0.06   0.02   0.03    -0.07   0.01  -0.12    -0.12  -0.04  -0.01
     4   1    -0.20  -0.23   0.01    -0.08  -0.00  -0.14    -0.17  -0.10  -0.05
     5   6     0.28   0.68   0.07    -0.04   0.04  -0.09    -0.06   0.03   0.03
     6   6     0.04   0.12   0.01    -0.02   0.08  -0.07    -0.02   0.09   0.07
     7   8     0.01  -0.06  -0.02     0.04   0.22  -0.04    -0.01   0.05   0.07
     8   8     0.00   0.01  -0.00    -0.07  -0.05  -0.09    -0.03   0.15   0.10
     9   6    -0.01  -0.02  -0.00    -0.08  -0.07  -0.09    -0.09  -0.04   0.09
    10   6    -0.00  -0.02  -0.00    -0.01  -0.11   0.13     0.05  -0.18  -0.20
    11   1    -0.01  -0.02  -0.00    -0.16  -0.20  -0.17    -0.11   0.07   0.19
    12   1    -0.01  -0.02  -0.00    -0.06   0.07  -0.17    -0.21  -0.21   0.19
    13   1    -0.00  -0.02  -0.00    -0.02  -0.14   0.13    -0.01  -0.35  -0.18
    14   1    -0.01  -0.02  -0.00    -0.02  -0.25   0.22     0.17   0.01  -0.31
    15   1     0.00  -0.01  -0.00     0.07   0.03   0.22     0.09  -0.30  -0.32
                      4                      5                      6
                      A                      A                      A
 Frequencies --    112.9648               123.6812               160.5425
 Red. masses --      4.3937                 4.5576                 2.4420
 Frc consts  --      0.0330                 0.0411                 0.0371
 IR Inten    --      1.1359                15.4390                15.5194
  Atom  AN      X      Y      Z        X      Y      Z        X      Y      Z
     1   8    -0.12  -0.01   0.05     0.28  -0.03  -0.12    -0.05  -0.01   0.01
     2   1    -0.13   0.01   0.07    -0.25   0.01   0.36    -0.32   0.02   0.26
     3   6    -0.00  -0.00  -0.14     0.13   0.21   0.10     0.06  -0.10   0.18
     4   1    -0.03   0.02  -0.25     0.24   0.36   0.16     0.11  -0.17   0.41
     5   6     0.03  -0.03  -0.01     0.01   0.08   0.02    -0.00  -0.02  -0.11
     6   6     0.06  -0.01   0.07    -0.04  -0.07  -0.01     0.02   0.03  -0.11
     7   8     0.18   0.20   0.13    -0.03  -0.10  -0.01     0.10   0.04  -0.09
     8   8    -0.02  -0.20   0.05    -0.09  -0.14  -0.01    -0.05   0.06  -0.04
     9   6     0.03  -0.04   0.05    -0.05  -0.02   0.04    -0.03   0.01   0.12
    10   6    -0.14   0.07  -0.22    -0.20   0.10  -0.01    -0.00  -0.03  -0.00
    11   1     0.17   0.14   0.16     0.02   0.06   0.08    -0.10   0.13   0.25
    12   1     0.06  -0.22   0.15     0.03  -0.08   0.07     0.03  -0.15   0.20
    13   1    -0.09   0.16  -0.13    -0.14   0.23   0.07     0.03  -0.09   0.30
    14   1    -0.22   0.29  -0.35    -0.33   0.17  -0.05    -0.19   0.22  -0.14
    15   1    -0.21  -0.16  -0.38    -0.26  -0.00  -0.07     0.17  -0.23  -0.24
                      7                      8                      9
                      A                      A                      A
 Frequencies --    193.5997               229.4360               253.4661
 Red. masses --      1.4002                 1.3144                 2.7237
 Frc consts  --      0.0309                 0.0408                 0.1031
 IR Inten    --     44.5425                 1.8789                13.5376
  Atom  AN      X      Y      Z        X      Y      Z        X      Y      Z
     1   8     0.04   0.07   0.07    -0.00  -0.02  -0.01     0.06   0.18  -0.02
     2   1     0.73  -0.06  -0.58     0.01   0.00  -0.02    -0.46   0.27   0.47
     3   6    -0.01  -0.04   0.04    -0.01   0.04  -0.04    -0.15  -0.18  -0.03
     4   1    -0.05  -0.14   0.08    -0.01   0.10  -0.12    -0.31  -0.43  -0.09
     5   6     0.03   0.06  -0.01    -0.01  -0.02   0.06     0.07   0.14   0.04
     6   6     0.01   0.01  -0.02    -0.02  -0.01   0.02     0.04   0.01   0.02
     7   8     0.01  -0.01  -0.03    -0.08   0.02   0.01    -0.00  -0.09  -0.00
     8   8    -0.03  -0.05  -0.03     0.03  -0.02  -0.02     0.03  -0.06  -0.00
     9   6    -0.02  -0.03   0.01     0.04  -0.00  -0.02     0.03  -0.03  -0.03
    10   6    -0.07   0.01   0.01     0.05  -0.01   0.02    -0.03   0.02   0.01
    11   1    -0.02  -0.00   0.03     0.02  -0.01  -0.02     0.05  -0.05  -0.06
    12   1     0.02  -0.05   0.02     0.06   0.01  -0.03     0.04  -0.00  -0.05
    13   1    -0.03   0.06   0.12     0.16  -0.05   0.60     0.02   0.08   0.12
    14   1    -0.19   0.07  -0.02    -0.39   0.27  -0.13    -0.16   0.04  -0.00
    15   1    -0.03  -0.06  -0.06     0.40  -0.24  -0.31     0.00  -0.02  -0.04
                     10                     11                     12
                      A                      A                      A
 Frequencies --    337.9525               417.3555               561.1713
 Red. masses --      2.8857                 3.7890                 3.5119
 Frc consts  --      0.1942                 0.3889                 0.6516
 IR Inten    --     11.8845                 0.3949                 9.4279
  Atom  AN      X      Y      Z        X      Y      Z        X      Y      Z
     1   8     0.01   0.02  -0.00     0.02   0.03   0.00     0.01  -0.01   0.01
     2   1     0.01   0.07   0.01     0.04  -0.11  -0.05     0.08   0.46   0.05
     3   6    -0.02  -0.00  -0.03    -0.10   0.04   0.07     0.13  -0.08  -0.08
     4   1    -0.06  -0.01  -0.11    -0.07   0.02   0.20     0.04  -0.07  -0.33
     5   6     0.03   0.02   0.08    -0.13   0.10  -0.11     0.21  -0.08   0.21
     6   6    -0.02  -0.01  -0.06    -0.09  -0.07   0.01     0.01  -0.02  -0.05
     7   8    -0.18   0.09  -0.09     0.08  -0.05   0.07     0.01   0.01  -0.05
     8   8     0.00  -0.09  -0.11    -0.13  -0.20  -0.00    -0.15  -0.03   0.02
     9   6     0.11  -0.02   0.21     0.02   0.16  -0.02    -0.20   0.16   0.00
    10   6     0.07  -0.00   0.02     0.23   0.05  -0.04     0.00   0.01  -0.01
    11   1     0.04   0.22   0.45     0.09   0.16  -0.05    -0.13   0.08  -0.09
    12   1     0.32  -0.30   0.36     0.12   0.18  -0.03    -0.19   0.24  -0.04
    13   1     0.01  -0.01  -0.31     0.11  -0.34  -0.03    -0.12  -0.39   0.02
    14   1     0.37  -0.01   0.02     0.48   0.10  -0.07     0.24   0.06  -0.04
    15   1    -0.15   0.01   0.11     0.49   0.11  -0.09     0.28   0.07  -0.06
                     13                     14                     15
                      A                      A                      A
 Frequencies --    607.5640               667.6883               709.7727
 Red. masses --      6.4014                 1.1322                 1.3358
 Frc consts  --      1.3922                 0.2974                 0.3965
 IR Inten    --     11.6458                86.2156                30.8417
  Atom  AN      X      Y      Z        X      Y      Z        X      Y      Z
     1   8    -0.01  -0.04   0.00     0.01  -0.05   0.02     0.00   0.01   0.00
     2   1     0.08   0.21  -0.02     0.21   0.95   0.08     0.01   0.01  -0.01
     3   6    -0.23   0.11   0.08    -0.02   0.00  -0.01    -0.02  -0.12   0.09
     4   1    -0.24   0.41  -0.33     0.06   0.04   0.14     0.21   0.77  -0.58
     5   6    -0.16  -0.06   0.39    -0.04   0.00  -0.06     0.01   0.04  -0.05
     6   6    -0.03   0.06  -0.12    -0.01  -0.02   0.00    -0.00  -0.02  -0.00
     7   8     0.31  -0.11  -0.04    -0.00   0.01   0.01    -0.01   0.01  -0.00
     8   8     0.01   0.06  -0.21     0.01   0.01   0.01     0.00   0.00   0.01
     9   6     0.03  -0.03  -0.02     0.02  -0.02  -0.00     0.00  -0.00   0.00
    10   6    -0.01  -0.01   0.01     0.00  -0.00  -0.00     0.00  -0.00  -0.00
    11   1    -0.11   0.14   0.17     0.01  -0.01   0.00     0.01  -0.02  -0.01
    12   1     0.17  -0.22   0.08     0.01  -0.02  -0.00    -0.01   0.01  -0.01
    13   1     0.02   0.10  -0.01     0.02   0.05  -0.00     0.00   0.01  -0.00
    14   1    -0.07  -0.08   0.05    -0.02  -0.00   0.00    -0.00   0.01  -0.00
    15   1    -0.07   0.03   0.06    -0.03  -0.01   0.01    -0.01  -0.01  -0.00
                     16                     17                     18
                      A                      A                      A
 Frequencies --    736.8422               773.8465               799.7805
 Red. masses --      1.3236                 8.8024                 1.1906
 Frc consts  --      0.4234                 3.1057                 0.4487
 IR Inten    --     22.3618                58.4442                 4.9157
  Atom  AN      X      Y      Z        X      Y      Z        X      Y      Z
     1   8     0.00   0.01  -0.00    -0.02  -0.05   0.00    -0.00  -0.00   0.00
     2   1    -0.01  -0.11  -0.02     0.01   0.15   0.02     0.00   0.00  -0.00
     3   6    -0.08  -0.06  -0.11     0.01  -0.03  -0.02    -0.03   0.02   0.01
     4   1     0.52   0.41   0.72     0.27   0.35   0.11    -0.03   0.02   0.00
     5   6     0.04   0.02   0.06    -0.07  -0.15  -0.06    -0.02  -0.01   0.02
     6   6    -0.01  -0.02  -0.01     0.25   0.68   0.16     0.02   0.02  -0.03
     7   8     0.01   0.01  -0.00    -0.08  -0.19  -0.04     0.01   0.00  -0.05
     8   8     0.00   0.01   0.00    -0.06  -0.19  -0.02    -0.01  -0.01   0.03
     9   6    -0.01   0.00   0.00    -0.02   0.01  -0.01     0.03  -0.02   0.07
    10   6    -0.00  -0.00   0.00     0.00   0.02  -0.00     0.02   0.00   0.03
    11   1    -0.00  -0.00  -0.00     0.05   0.12   0.06    -0.08  -0.45  -0.26
    12   1    -0.01   0.01  -0.00     0.07  -0.10   0.04     0.02   0.46  -0.21
    13   1    -0.01  -0.01   0.00    -0.04  -0.11   0.02    -0.01   0.06  -0.18
    14   1     0.00   0.00  -0.00     0.07  -0.03   0.03     0.17   0.37  -0.19
    15   1     0.00  -0.00  -0.00     0.15   0.10   0.00    -0.25  -0.35  -0.16
                     19                     20                     21
                      A                      A                      A
 Frequencies --    895.8633               928.2790              1077.9382
 Red. masses --      3.1348                 2.8761                 4.1264
 Frc consts  --      1.4823                 1.4602                 2.8249
 IR Inten    --     15.1546                 7.0613                20.4127
  Atom  AN      X      Y      Z        X      Y      Z        X      Y      Z
     1   8    -0.00  -0.00   0.00     0.00   0.01  -0.00     0.00   0.00   0.00
     2   1     0.00  -0.02  -0.01    -0.01  -0.01   0.01    -0.00  -0.01  -0.00
     3   6    -0.03   0.02   0.01     0.10  -0.06  -0.04     0.06  -0.03  -0.03
     4   1    -0.04   0.02  -0.01     0.11  -0.06  -0.04     0.06  -0.04  -0.05
     5   6    -0.01  -0.01   0.06     0.08  -0.01  -0.01     0.04  -0.01   0.02
     6   6     0.03   0.01  -0.10    -0.14   0.05   0.07    -0.14   0.07  -0.02
     7   8     0.00   0.03  -0.15     0.01  -0.04   0.14     0.02  -0.01   0.01
     8   8    -0.13  -0.02   0.23    -0.14   0.06  -0.13    -0.20   0.07   0.06
     9   6     0.05  -0.12  -0.03    -0.01  -0.10  -0.02     0.36   0.10  -0.08
    10   6     0.15   0.06  -0.07     0.17   0.05   0.00    -0.12  -0.17   0.01
    11   1     0.19  -0.07  -0.04    -0.42  -0.14   0.09     0.40   0.20  -0.02
    12   1    -0.33  -0.21   0.06     0.02  -0.11  -0.01     0.47   0.17  -0.11
    13   1     0.34   0.53   0.11     0.33   0.60  -0.12    -0.14  -0.24   0.00
    14   1    -0.27  -0.21   0.10    -0.10   0.18  -0.07    -0.14  -0.24   0.05
    15   1     0.05   0.27   0.15    -0.27  -0.11   0.03    -0.18  -0.26  -0.03
                     22                     23                     24
                      A                      A                      A
 Frequencies --   1127.8252              1203.0075              1291.6925
 Red. masses --      2.0959                 1.7738                 3.5906
 Frc consts  --      1.5707                 1.5125                 3.5297
 IR Inten    --     20.5073                 5.6700               569.9003
  Atom  AN      X      Y      Z        X      Y      Z        X      Y      Z
     1   8    -0.00  -0.00  -0.00     0.00   0.00   0.00    -0.00  -0.01  -0.00
     2   1     0.00   0.00   0.00     0.00   0.00   0.00    -0.00  -0.02   0.00
     3   6    -0.01   0.01   0.01     0.02  -0.01  -0.01    -0.06   0.04   0.03
     4   1    -0.01   0.01   0.01     0.02  -0.01  -0.01    -0.07   0.05   0.05
     5   6    -0.01   0.00  -0.00     0.01   0.00  -0.00    -0.02  -0.00  -0.01
     6   6     0.03  -0.01   0.00    -0.06   0.03  -0.00     0.35  -0.15   0.11
     7   8    -0.00  -0.00  -0.01     0.01  -0.01   0.03    -0.05   0.01   0.01
     8   8     0.05  -0.06  -0.02     0.00   0.01  -0.07    -0.17   0.07  -0.07
     9   6    -0.05   0.22   0.05     0.04  -0.03   0.18     0.11   0.01  -0.01
    10   6     0.06  -0.17  -0.04    -0.03   0.02  -0.13    -0.02   0.02  -0.06
    11   1    -0.06   0.14  -0.02     0.19  -0.41  -0.19    -0.77  -0.13   0.17
    12   1    -0.15   0.23   0.06    -0.17   0.41  -0.06     0.10   0.15  -0.08
    13   1     0.25   0.44  -0.00     0.03  -0.06   0.28    -0.02  -0.08   0.10
    14   1    -0.51  -0.24   0.01    -0.12  -0.39   0.12    -0.07  -0.24   0.09
    15   1    -0.43  -0.15   0.16     0.23   0.40   0.09     0.04   0.09  -0.01
                     25                     26                     27
                      A                      A                      A
 Frequencies --   1348.5972              1400.6857              1430.6250
 Red. masses --      1.2544                 1.2850                 1.3912
 Frc consts  --      1.3441                 1.4853                 1.6776
 IR Inten    --    109.1743                34.7856                 7.5206
  Atom  AN      X      Y      Z        X      Y      Z        X      Y      Z
     1   8     0.00   0.00   0.00    -0.00  -0.00  -0.00    -0.00  -0.00  -0.00
     2   1     0.00   0.00   0.00    -0.00  -0.00   0.00    -0.00  -0.00   0.00
     3   6     0.01  -0.01  -0.00    -0.01   0.01   0.00    -0.01   0.01   0.00
     4   1     0.01  -0.01  -0.01    -0.01   0.01   0.01    -0.01   0.01   0.01
     5   6     0.00  -0.00   0.00    -0.00  -0.00  -0.00    -0.00  -0.00  -0.00
     6   6    -0.06   0.03  -0.03     0.05  -0.02   0.01     0.06  -0.02   0.01
     7   8     0.01   0.00  -0.02    -0.01   0.00   0.01    -0.01   0.00   0.01
     8   8     0.05  -0.02   0.08    -0.03   0.03  -0.02    -0.03   0.03  -0.02
     9   6    -0.04  -0.00  -0.00    -0.05  -0.02   0.01    -0.11  -0.07   0.02
    10   6    -0.01  -0.01  -0.06    -0.06  -0.11   0.00     0.09   0.05  -0.01
    11   1    -0.55  -0.09   0.11     0.37   0.14  -0.01     0.54   0.17  -0.03
    12   1     0.76   0.10  -0.12     0.27   0.15  -0.10     0.49   0.18  -0.16
    13   1     0.03   0.04   0.06     0.16   0.51   0.01    -0.04  -0.31  -0.04
    14   1    -0.06  -0.10   0.00     0.29   0.29  -0.22    -0.34  -0.09   0.07
    15   1     0.09   0.17   0.05     0.34   0.26   0.15    -0.32  -0.09   0.03
                     28                     29                     30
                      A                      A                      A
 Frequencies --   1492.0833              1502.7513              1514.8986
 Red. masses --      1.0408                 1.0608                 1.0854
 Frc consts  --      1.3653                 1.4115                 1.4676
 IR Inten    --     10.5133                 1.6292                16.2045
  Atom  AN      X      Y      Z        X      Y      Z        X      Y      Z
     1   8     0.00   0.00   0.00     0.00   0.00   0.00     0.00   0.00   0.00
     2   1    -0.00   0.00   0.00     0.00   0.00   0.00    -0.00   0.00   0.00
     3   6     0.00  -0.00  -0.00     0.00  -0.00  -0.00     0.00  -0.00  -0.00
     4   1    -0.00  -0.00  -0.00     0.00  -0.00  -0.00     0.00  -0.00  -0.00
     5   6    -0.00   0.00   0.00    -0.00   0.00   0.00    -0.00   0.00   0.00
     6   6    -0.00   0.00   0.00    -0.02   0.00   0.00    -0.02   0.01   0.01
     7   8     0.00   0.00  -0.01     0.00   0.00  -0.01     0.01   0.00  -0.01
     8   8     0.00  -0.00   0.00     0.01  -0.01   0.00     0.02  -0.01   0.01
     9   6    -0.02  -0.01  -0.02    -0.01  -0.05   0.01     0.04  -0.05  -0.01
    10   6    -0.01   0.02  -0.04    -0.02   0.03   0.02     0.02  -0.03  -0.01
    11   1     0.04   0.12   0.06    -0.03   0.35   0.34    -0.15   0.31   0.35
    12   1     0.01   0.04  -0.05    -0.14   0.42  -0.25    -0.27   0.33  -0.21
    13   1     0.15   0.06   0.65     0.02   0.22  -0.21    -0.05  -0.26   0.10
    14   1     0.55  -0.15   0.06     0.04  -0.32   0.21    -0.13   0.36  -0.22
    15   1    -0.42  -0.16  -0.01     0.25  -0.28  -0.33    -0.18   0.31   0.34
                     31                     32                     33
                      A                      A                      A
 Frequencies --   1844.2521              2193.7656              3075.2417
 Red. masses --     11.9680                 6.0455                 1.0354
 Frc consts  --     23.9835                17.1420                 5.7691
 IR Inten    --    334.7235                76.3494                10.7097
  Atom  AN      X      Y      Z        X      Y      Z        X      Y      Z
     1   8     0.00   0.01  -0.00    -0.00  -0.01  -0.00    -0.00  -0.00   0.00
     2   1    -0.02   0.01   0.02    -0.00  -0.00   0.00    -0.00   0.00  -0.00
     3   6     0.06  -0.04  -0.02    -0.32   0.19   0.12     0.00  -0.00  -0.00
     4   1     0.10  -0.06  -0.01    -0.59   0.36   0.24    -0.00   0.00   0.00
     5   6    -0.05   0.03   0.00     0.46  -0.23  -0.17    -0.00   0.00   0.00
     6   6    -0.21  -0.09   0.75    -0.10   0.02   0.05     0.00  -0.00   0.00
     7   8     0.15   0.05  -0.49     0.01   0.00  -0.01     0.00   0.00  -0.00
     8   8    -0.01   0.02  -0.07    -0.00   0.00  -0.00    -0.00   0.00  -0.00
     9   6    -0.03   0.01   0.02     0.00  -0.00   0.00     0.00   0.00   0.00
    10   6     0.01  -0.01  -0.00    -0.00  -0.00  -0.00    -0.04  -0.04  -0.00
    11   1     0.15  -0.09  -0.12     0.01  -0.00  -0.00     0.00  -0.01   0.01
    12   1     0.14  -0.07   0.08     0.00  -0.00   0.00    -0.00  -0.01  -0.02
    13   1     0.02   0.06  -0.04     0.00   0.00  -0.00     0.57  -0.20  -0.12
    14   1    -0.04   0.01  -0.01    -0.00   0.00  -0.00    -0.00   0.30   0.52
    15   1     0.06   0.03   0.02     0.00   0.00   0.00    -0.15   0.31  -0.38
                     34                     35                     36
                      A                      A                      A
 Frequencies --   3108.1405              3150.1701              3155.0663
 Red. masses --      1.0609                 1.1014                 1.1048
 Frc consts  --      6.0384                 6.4394                 6.4794
 IR Inten    --     15.4278                14.8716                 1.9976
  Atom  AN      X      Y      Z        X      Y      Z        X      Y      Z
     1   8    -0.00  -0.00  -0.00     0.00   0.00   0.00     0.00   0.00   0.00
     2   1     0.00  -0.00   0.00    -0.00   0.00  -0.00    -0.00   0.00  -0.00
     3   6     0.00   0.00   0.00     0.00  -0.00  -0.00    -0.00   0.00   0.00
     4   1     0.00  -0.00  -0.00    -0.00   0.00   0.00    -0.00   0.00   0.00
     5   6     0.00  -0.00  -0.00    -0.00  -0.00   0.00    -0.00   0.00   0.00
     6   6    -0.00   0.00  -0.00     0.00  -0.00   0.00    -0.00   0.00   0.00
     7   8    -0.00   0.00   0.00     0.00   0.00  -0.00    -0.00  -0.00  -0.00
     8   8     0.00  -0.00   0.00     0.00  -0.00  -0.00     0.00   0.00  -0.00
     9   6     0.01  -0.06  -0.02    -0.01   0.02  -0.02     0.01  -0.01   0.05
    10   6    -0.01   0.01   0.01    -0.05   0.04   0.06    -0.05   0.04  -0.05
    11   1    -0.15   0.33  -0.41     0.08  -0.19   0.22    -0.12   0.27  -0.32
    12   1     0.04   0.40   0.71    -0.00   0.01   0.02    -0.02  -0.18  -0.31
    13   1     0.12  -0.05  -0.02     0.60  -0.20  -0.11     0.38  -0.13  -0.09
    14   1    -0.00  -0.03  -0.06    -0.01  -0.35  -0.60    -0.01   0.08   0.13
    15   1     0.00  -0.01   0.02    -0.02   0.02  -0.01     0.19  -0.42   0.51
                     37                     38                     39
                      A                      A                      A
 Frequencies --   3175.8451              3482.9560              3807.6869
 Red. masses --      1.1073                 1.1595                 1.0674
 Frc consts  --      6.5803                 8.2876                 9.1178
 IR Inten    --     14.9095                67.7039                44.2180
  Atom  AN      X      Y      Z        X      Y      Z        X      Y      Z
     1   8    -0.00  -0.00   0.00    -0.00  -0.00  -0.00    -0.04   0.01  -0.05
     2   1    -0.00   0.00  -0.00     0.00   0.00   0.00     0.66  -0.17   0.73
     3   6     0.00  -0.00  -0.00    -0.09   0.05   0.04     0.00  -0.00  -0.00
     4   1    -0.00   0.00   0.00     0.82  -0.45  -0.32     0.00   0.00   0.00
     5   6    -0.00  -0.00   0.00     0.03  -0.01  -0.01     0.00   0.00   0.00
     6   6     0.00   0.00  -0.00    -0.00   0.00   0.00    -0.00   0.00   0.00
     7   8    -0.00  -0.00   0.00     0.00  -0.00   0.00     0.00  -0.00  -0.00
     8   8    -0.00  -0.00   0.00     0.00  -0.00   0.00     0.00  -0.00   0.00
     9   6    -0.02   0.02  -0.07    -0.00   0.00   0.00    -0.00   0.00   0.00
    10   6    -0.02   0.01  -0.05    -0.00  -0.00  -0.00     0.00  -0.00  -0.00
    11   1     0.17  -0.40   0.48     0.00  -0.00   0.00     0.00  -0.00   0.00
    12   1     0.03   0.22   0.37     0.00  -0.00  -0.00     0.00  -0.00  -0.00
    13   1     0.08  -0.03  -0.03     0.00  -0.00  -0.00     0.00  -0.00  -0.00
    14   1     0.00   0.19   0.30    -0.00   0.00   0.00    -0.00   0.00   0.00
    15   1     0.14  -0.31   0.37    -0.00  -0.00   0.00    -0.00  -0.00   0.00

 -------------------
 - Thermochemistry -
 -------------------
 Temperature   298.150 Kelvin.  Pressure   1.00000 Atm.
 Atom     1 has atomic number  8 and mass  15.99491
 Atom     2 has atomic number  1 and mass   1.00783
 Atom     3 has atomic number  6 and mass  12.00000
 Atom     4 has atomic number  1 and mass   1.00783
 Atom     5 has atomic number  6 and mass  12.00000
 Atom     6 has atomic number  6 and mass  12.00000
 Atom     7 has atomic number  8 and mass  15.99491
 Atom     8 has atomic number  8 and mass  15.99491
 Atom     9 has atomic number  6 and mass  12.00000
 Atom    10 has atomic number  6 and mass  12.00000
 Atom    11 has atomic number  1 and mass   1.00783
 Atom    12 has atomic number  1 and mass   1.00783
 Atom    13 has atomic number  1 and mass   1.00783
 Atom    14 has atomic number  1 and mass   1.00783
 Atom    15 has atomic number  1 and mass   1.00783
 Molecular mass:   115.03952 amu.
 Principal axes and moments of inertia in atomic units:
                           1         2         3
     Eigenvalues --   454.030861550.403961629.49918
           X            0.99998  -0.00365   0.00536
           Y            0.00312   0.99542   0.09557
           Z           -0.00568  -0.09555   0.99541
 This molecule is an asymmetric top.
 Rotational symmetry number  1.
 Warning -- assumption of classical behavior for rotation
           may cause significant error
 Rotational temperatures (Kelvin)      0.19077     0.05587     0.05315
 Rotational constants (GHZ):           3.97493     1.16405     1.10754
    2 imaginary frequencies ignored.
 Zero-point vibrational energy     292786.7 (Joules/Mol)
                                   69.97770 (Kcal/Mol)
 Warning -- explicit consideration of  11 degrees of freedom as
           vibrations may cause significant error
 Vibrational temperatures:     82.12   162.53   177.95   230.98   278.55
          (Kelvin)            330.11   364.68   486.24   600.48   807.40
                              874.15   960.65  1021.20  1060.15  1113.39
                             1150.71  1288.95  1335.59  1550.91  1622.69
                             1730.86  1858.46  1940.33  2015.27  2058.35
                             2146.78  2162.12  2179.60  2653.47  3156.34
                             4424.59  4471.92  4532.39  4539.44  4569.33
                             5011.20  5478.41
 
 Zero-point correction=                           0.111517 (Hartree/Particle)
 Thermal correction to Energy=                    0.120488
 Thermal correction to Enthalpy=                  0.121432
 Thermal correction to Gibbs Free Energy=         0.076692
 Sum of electronic and zero-point Energies=           -420.091423
 Sum of electronic and thermal Energies=              -420.082452
 Sum of electronic and thermal Enthalpies=            -420.081508
 Sum of electronic and thermal Free Energies=         -420.126247
 
                     E (Thermal)             CV                S
                      KCal/Mol        Cal/Mol-Kelvin    Cal/Mol-Kelvin
 Total                   75.607             30.526             94.163
 Electronic               0.000              0.000              1.377
 Translational            0.889              2.981             40.136
 Rotational               0.889              2.981             28.530
 Vibrational             73.830             24.564             24.120
 Vibration     1          0.596              1.975              4.556
 Vibration     2          0.607              1.939              3.217
 Vibration     3          0.610              1.929              3.042
 Vibration     4          0.622              1.891              2.543
 Vibration     5          0.635              1.849              2.193
 Vibration     6          0.652              1.796              1.883
 Vibration     7          0.665              1.757              1.706
 Vibration     8          0.718              1.600              1.222
 Vibration     9          0.780              1.433              0.901
 Vibration    10          0.917              1.115              0.521
 Vibration    11          0.966              1.016              0.437
                       Q            Log10(Q)             Ln(Q)
 Total Bot       0.529639D-35        -35.276020        -81.226038
 Total V=0       0.104229D+17         16.017990         36.882785
 Vib (Bot)       0.142425D-48        -48.846412       -112.473021
 Vib (Bot)    1  0.361926D+01          0.558620          1.286269
 Vib (Bot)    2  0.181190D+01          0.258134          0.594376
 Vib (Bot)    3  0.165086D+01          0.217710          0.501297
 Vib (Bot)    4  0.125905D+01          0.100044          0.230360
 Vib (Bot)    5  0.103242D+01          0.013856          0.031904
 Vib (Bot)    6  0.858656D+00         -0.066181         -0.152386
 Vib (Bot)    7  0.768738D+00         -0.114221         -0.263005
 Vib (Bot)    8  0.550150D+00         -0.259519         -0.597564
 Vib (Bot)    9  0.421567D+00         -0.375133         -0.863776
 Vib (Bot)   10  0.276644D+00         -0.558078         -1.285023
 Vib (Bot)   11  0.243854D+00         -0.612871         -1.411187
 Vib (V=0)       0.280284D+03          2.447598          5.635802
 Vib (V=0)    1  0.415363D+01          0.618428          1.423983
 Vib (V=0)    2  0.237962D+01          0.376508          0.866942
 Vib (V=0)    3  0.222492D+01          0.347314          0.799720
 Vib (V=0)    4  0.185470D+01          0.268274          0.617724
 Vib (V=0)    5  0.164712D+01          0.216726          0.499029
 Vib (V=0)    6  0.149363D+01          0.174242          0.401206
 Vib (V=0)    7  0.141704D+01          0.151381          0.348569
 Vib (V=0)    8  0.124341D+01          0.094616          0.217861
 Vib (V=0)    9  0.115400D+01          0.062207          0.143236
 Vib (V=0)   10  0.107143D+01          0.029964          0.068994
 Vib (V=0)   11  0.105630D+01          0.023785          0.054768
 Electronic      0.200000D+01          0.301030          0.693147
 Translational   0.484981D+08          7.685724         17.697035
 Rotational      0.383387D+06          5.583638         12.856801
 ***** Axes restored to original set *****
 -------------------------------------------------------------------
 Center     Atomic                   Forces (Hartrees/Bohr)
 Number     Number              X              Y              Z
 -------------------------------------------------------------------
      1        8           0.003476910    0.009224520    0.000949093
      2        1          -0.000028042    0.000160183   -0.000013457
      3        6           0.001133300   -0.000236151   -0.000430113
      4        1           0.000201204    0.000291394    0.000019893
      5        6          -0.004181097   -0.009499269   -0.000916967
      6        6          -0.000551412   -0.001473954   -0.000150827
      7        8          -0.000172690    0.000981400    0.000369442
      8        8          -0.000007813    0.000247211    0.000087694
      9        6           0.000038279    0.000204567    0.000071951
     10        6           0.000082115    0.000065043   -0.000001169
     11        1          -0.000003344    0.000009840    0.000007464
     12        1          -0.000009944    0.000013087    0.000005796
     13        1           0.000005436    0.000001864   -0.000000695
     14        1           0.000011302    0.000005941    0.000000012
     15        1           0.000005797    0.000004324    0.000001884
 -------------------------------------------------------------------
 Cartesian Forces:  Max     0.009499269 RMS     0.002170895

 GradGradGradGradGradGradGradGradGradGradGradGradGradGradGradGradGradGrad
 Berny optimization.
 Search for a local minimum.
 Step number   1 out of a maximum of    2
 All quantities printed in internal units (Hartrees-Bohrs-Radians)
 Second derivative matrix not updated -- analytic derivatives used.
 ITU=  0
     Eigenvalues ---   -0.04374  -0.00029   0.00049   0.00152   0.00228
     Eigenvalues ---    0.00319   0.00433   0.00631   0.01054   0.02013
     Eigenvalues ---    0.02645   0.03185   0.03403   0.05229   0.06305
     Eigenvalues ---    0.07593   0.07706   0.08357   0.09861   0.10298
     Eigenvalues ---    0.11364   0.14172   0.17067   0.17425   0.19973
     Eigenvalues ---    0.28391   0.29795   0.43661   0.49353   0.62819
     Eigenvalues ---    0.70797   0.76473   0.78793   0.86566   0.89916
     Eigenvalues ---    0.92913   0.97802   1.73440   2.57032
 Eigenvalue     1 is  -4.37D-02 should be greater than     0.000000 Eigenvector:
                          Y5        Y1        X5        X1        Y6
   1                    0.67724  -0.60958   0.28418  -0.20383   0.10348
                          X4        Z5        Y7        Z2        Z1
   1                   -0.07741   0.07645  -0.06523  -0.06170  -0.05414
 Eigenvalue     2 is  -2.88D-04 should be greater than     0.000000 Eigenvector:
                          Z2        Z1        Y2        X1        Y7
   1                    0.51616   0.29829  -0.28213   0.24368   0.23367
                          Y14       Z15       Z14       Z11       Z12
   1                   -0.21827   0.20192   0.19530  -0.18755  -0.18259
 Quadratic step=6.009D-01 exceeds max=3.000D-01 adjusted using Lamda=-5.347D-03.
 Angle between NR and scaled steps=  48.30 degrees.
 Angle between quadratic step and forces=   9.88 degrees.
 Linear search not attempted -- first point.
 B after Tr=    -0.000393    0.004393    0.000120
         Rot=    1.000000    0.000214   -0.000060   -0.000211 Ang=   0.04 deg.
 Variable       Old X    -DE/DX   Delta X   Delta X   Delta X     New X
                                 (Linear)    (Quad)   (Total)
    X1        4.00661   0.00348   0.00000   0.07181   0.07021   4.07682
    Y1        2.63583   0.00922   0.00000   0.19309   0.19919   2.83502
    Z1       -0.03052   0.00095   0.00000   0.00348   0.00190  -0.02861
    X2        5.21810  -0.00003   0.00000   0.01927   0.01806   5.23616
    Y2        2.31400   0.00016   0.00000  -0.01173  -0.00456   2.30944
    Z2        1.30875  -0.00001   0.00000   0.00038  -0.00111   1.30764
    X3        4.52819   0.00113   0.00000   0.00516   0.00558   4.53378
    Y3       -2.22882  -0.00024   0.00000  -0.01091  -0.00506  -2.23388
    Z3       -1.07126  -0.00043   0.00000  -0.00203  -0.00149  -1.07275
    X4        6.19593   0.00020   0.00000   0.00139   0.00212   6.19805
    Y4       -3.13618   0.00029   0.00000  -0.01361  -0.00734  -3.14352
    Z4       -1.73990   0.00002   0.00000   0.00296   0.00369  -1.73621
    X5        2.68955  -0.00418   0.00000  -0.08510  -0.08499   2.60456
    Y5       -1.09005  -0.00950   0.00000  -0.19309  -0.18775  -1.27780
    Z5       -0.34572  -0.00092   0.00000  -0.01794  -0.01758  -0.36330
    X6        0.18466  -0.00055   0.00000  -0.01150  -0.01166   0.17301
    Y6       -0.37546  -0.00147   0.00000  -0.02641  -0.02169  -0.39715
    Z6        0.59678  -0.00015   0.00000   0.00015   0.00042   0.59721
    X7       -0.44542  -0.00017   0.00000  -0.00885  -0.00864  -0.45406
    Y7       -0.65486   0.00098   0.00000   0.00808   0.01346  -0.64140
    Z7        2.75454   0.00037   0.00000   0.00788   0.00833   2.76286
    X8       -1.24004  -0.00001   0.00000   0.00173   0.00096  -1.23908
    Y8        0.53860   0.00025   0.00000   0.01454   0.01787   0.55647
    Z8       -1.25215   0.00009   0.00000   0.00677   0.00680  -1.24535
    X9       -3.75878   0.00004   0.00000  -0.00051  -0.00153  -3.76031
    Y9        1.31008   0.00020   0.00000   0.00339   0.00595   1.31604
    Z9       -0.55304   0.00007   0.00000   0.00393   0.00393  -0.54911
   X10       -5.52148   0.00008   0.00000   0.00644   0.00640  -5.51508
   Y10       -0.94307   0.00007   0.00000  -0.00447  -0.00258  -0.94565
   Z10       -0.39510  -0.00000   0.00000  -0.00421  -0.00303  -0.39813
   X11       -4.31395  -0.00000   0.00000  -0.00441  -0.00615  -4.32010
   Y11        2.60947   0.00001   0.00000   0.00234   0.00403   2.61350
   Z11       -2.04757   0.00001   0.00000   0.00477   0.00429  -2.04329
   X12       -3.66123  -0.00001   0.00000  -0.00954  -0.01077  -3.67200
   Y12        2.32351   0.00001   0.00000  -0.00120   0.00217   2.32568
   Z12        1.23868   0.00001   0.00000   0.00635   0.00591   1.24460
   X13       -7.43879   0.00001   0.00000   0.00402   0.00375  -7.43504
   Y13       -0.29250   0.00000   0.00000  -0.01039  -0.00914  -0.30165
   Z13        0.00133  -0.00000   0.00000  -0.00511  -0.00397  -0.00264
   X14       -5.53778   0.00001   0.00000   0.00984   0.01002  -5.52775
   Y14       -1.97102   0.00001   0.00000  -0.00189  -0.00077  -1.97179
   Z14       -2.18228   0.00000   0.00000  -0.00582  -0.00419  -2.18647
   X15       -4.94129   0.00001   0.00000   0.00595   0.00663  -4.93466
   Y15       -2.21668   0.00000   0.00000  -0.00657  -0.00378  -2.22047
   Z15        1.11655   0.00000   0.00000  -0.00555  -0.00389   1.11266
         Item               Value     Threshold  Converged?
 Maximum Force            0.009499     0.000450     NO 
 RMS     Force            0.002171     0.000300     NO 
 Maximum Displacement     0.199194     0.001800     NO 
 RMS     Displacement     0.044675     0.001200     NO 
 Predicted change in Energy=-6.165863D-03
 GradGradGradGradGradGradGradGradGradGradGradGradGradGradGradGradGradGrad


 ----------------------------------------------------------------------

 Electric dipole moment (input orientation):
 (Debye = 10**-18 statcoulomb cm , SI units = C m)
                  (au)            (Debye)         (10**-30 SI)
   Tot        0.443807D+00      0.112805D+01      0.376275D+01
   x          0.827868D-01      0.210423D+00      0.701896D+00
   y         -0.313743D+00     -0.797456D+00     -0.266003D+01
   z         -0.302781D+00     -0.769593D+00     -0.256708D+01

 Dipole polarizability, Alpha (input orientation).
 (esu units = cm**3 , SI units = C**2 m**2 J**-1)
 Alpha(0;0):
               (au)            (10**-24 esu)      (10**-40 SI)
   iso        0.739953D+02      0.109650D+02      0.122002D+02
   aniso      0.270778D+02      0.401252D+01      0.446453D+01
   xx         0.865722D+02      0.128287D+02      0.142738D+02
   yx        -0.612508D+01     -0.907643D+00     -0.100989D+01
   yy         0.749414D+02      0.111052D+02      0.123562D+02
   zx        -0.377283D+01     -0.559076D+00     -0.622056D+00
   zy         0.465615D+01      0.689971D+00      0.767696D+00
   zz         0.604723D+02      0.896108D+01      0.997054D+01

 ----------------------------------------------------------------------

 Dipole orientation:
     8          4.12466713         -2.18842546         -1.09515650
     1          5.53569207         -1.11040084         -1.55535277
     6          4.05998168          0.45440975          3.15116044
     1          5.49736903          0.48878506          4.55987829
     6          2.48397853          0.31098367          1.50815800
     6          0.26273464          0.67133011         -0.10727358
     8          0.02628410          2.44251257         -1.49938531
     8         -1.40574149         -1.16657592          0.24219387
     6         -3.68149546         -1.01719713         -1.24999525
     6         -5.55490120          0.81642063         -0.09372660
     1         -4.40211276         -2.94358170         -1.25251791
     1         -3.17229903         -0.47056977         -3.17060474
     1         -7.30760190          0.78967524         -1.18174447
     1         -5.98481474          0.27684214          1.84920576
     1         -4.80456412          2.73482992         -0.11643449

 Electric dipole moment (dipole orientation):
 (Debye = 10**-18 statcoulomb cm , SI units = C m)
                  (au)            (Debye)         (10**-30 SI)
   Tot        0.443807D+00      0.112805D+01      0.376275D+01
   x          0.000000D+00      0.000000D+00      0.000000D+00
   y          0.000000D+00      0.000000D+00      0.000000D+00
   z          0.443807D+00      0.112805D+01      0.376275D+01

 Dipole polarizability, Alpha (dipole orientation).
 (esu units = cm**3 , SI units = C**2 m**2 J**-1)
 Alpha(0;0):
               (au)            (10**-24 esu)      (10**-40 SI)
   iso        0.739953D+02      0.109650D+02      0.122002D+02
   aniso      0.270778D+02      0.401252D+01      0.446453D+01
   xx         0.834099D+02      0.123601D+02      0.137524D+02
   yx        -0.145620D+01     -0.215786D+00     -0.240095D+00
   yy         0.628975D+02      0.932045D+01      0.103704D+02
   zx         0.964341D+01      0.142901D+01      0.158998D+01
   zy         0.647864D+01      0.960036D+00      0.106818D+01
   zz         0.756786D+02      0.112144D+02      0.124777D+02

 ----------------------------------------------------------------------
 1\1\GINC-AJ\Freq\UM062X\6-311++G(d,p)\C5H7O3(2)\AAYUSH\16-Aug-2025\0\\
 # freq 6-311++g(d,p) m062x\\Title Card Required\\0,2\O,2.120208,1.3948
 19,-0.016148\H,2.7613,1.224516,0.692561\C,2.396216,-1.179441,-0.566884
 \H,3.278746,-1.659595,-0.920718\C,1.423248,-0.576829,-0.182946\C,0.097
 72,-0.198685,0.315804\O,-0.235706,-0.346538,1.457638\O,-0.6562,0.28501
 4,-0.66261\C,-1.98906,0.693266,-0.292656\C,-2.921843,-0.49905,-0.20907
 7\H,-2.282845,1.380873,-1.083528\H,-1.93744,1.229549,0.655483\H,-3.936
 438,-0.154786,0.000706\H,-2.930465,-1.043017,-1.154812\H,-2.614816,-1.
 173019,0.590854\\Version=ES64L-G16RevA.03\State=2-A\HF=-420.2029399\S2
 =0.765534\S2-1=0.\S2A=0.750107\RMSD=2.968e-09\RMSF=2.171e-03\ZeroPoint
 =0.1115166\Thermal=0.1204882\Dipole=0.0827868,-0.3137432,-0.3027811\Di
 poleDeriv=-0.3417295,0.0157136,0.0993887,0.12726,0.1513054,0.0693503,0
 .0783103,-0.0420169,-0.2695967,0.2578519,0.1108275,-0.0458323,0.044275
 1,0.2850942,0.0308928,-0.0428408,0.0963813,0.2296683,-0.4075586,-0.251
 2195,-0.0026385,0.1011121,0.0204043,0.0171137,0.0489817,0.1185738,-0.1
 161713,0.2436893,-0.0407982,-0.0171908,-0.0397866,0.2305974,0.0089071,
 -0.0118576,0.0073999,0.2279777,-0.3465817,0.1978795,0.0901142,-0.10012
 17,-0.8161294,-0.1638763,0.0695749,-0.1855554,-0.1690075,2.1220517,-0.
 240763,-0.0113294,-0.6150174,0.6003339,-0.2741112,0.3171385,-0.398787,
 1.7030393,-0.8263263,0.0094896,0.2329216,0.1275185,-0.3824911,0.086264
 6,0.0452229,0.1975224,-1.1242775,-1.6007918,0.2770814,-0.3233108,0.495
 3587,-0.4398231,0.2315284,-0.4272676,0.198593,-0.7895138,1.0026452,-0.
 0978273,0.0496381,-0.1265208,0.3619156,-0.0580655,-0.0925687,0.0105181
 ,0.2452165,-0.0920721,-0.0217825,-0.0171506,-0.0532217,-0.0660498,0.05
 54953,0.0151996,0.0138007,0.0475461,-0.0226743,0.0070405,-0.0097784,0.
 0326674,-0.0122242,0.0673759,-0.0322428,0.1002203,-0.0061992,-0.031050
 4,-0.0314576,-0.0487321,-0.0051476,0.0082071,-0.0314622,0.0357816,-0.0
 8887,-0.0124272,-0.1116686,0.0389251,0.0223221,0.0500823,0.0468927,-0.
 0262261,0.0339231,-0.0147903,0.0885422,0.0723616,-0.0056953,0.0303767,
 -0.039221,0.0125953,-0.0549232,-0.0114245,-0.08224,-0.0588893,0.081853
 5,0.0325863,-0.0487984,0.0007627,-0.0006284,0.0417362,-0.0259306,0.069
 2502,0.0040922\Polar=86.5722416,-6.1250801,74.9413909,-3.7728325,4.656
 1528,60.4723454\Quadrupole=8.5797883,-2.3792304,-6.2005579,-4.2591196,
 1.6698485,3.0445094\PG=C01 [X(C5H7O3)]\NImag=2\\0.23196681,-0.06377950
 ,0.02018106,0.25130599,-0.07012926,0.27945849,-0.22705924,0.05657949,-
 0.24933286,0.22831186,0.06533078,-0.02838032,0.07265289,-0.05899907,0.
 03193481,-0.25107139,0.06481186,-0.27775605,0.24992488,-0.06686734,0.2
 7700589,0.00887590,0.02614768,0.00086893,0.00125061,-0.00120226,0.0011
 6659,1.02182073,-0.00796660,-0.03186972,-0.00340134,0.00002174,-0.0005
 2228,-0.00073683,-0.55648412,0.38036964,-0.00414796,-0.01277665,0.0002
 2062,0.00004764,-0.00068466,-0.00041154,-0.38035211,0.22172058,0.20419
 235,-0.00016862,-0.00043347,-0.00001927,0.00031593,0.00014671,-0.00000
 068,-0.30028456,0.15101197,0.10943888,0.28904115,-0.00018427,0.0001807
 9,0.00017373,0.00027852,-0.00018607,-0.00029944,0.14439014,-0.10495485
 ,-0.05861973,-0.14909929,0.09689197,0.00018303,0.00001248,0.00000128,0
 .00003940,-0.00014598,-0.00012471,0.10902371,-0.06089834,-0.06945595,-
 0.10906399,0.06023368,0.05968232,-0.00591810,-0.00873669,-0.00384800,-
 0.00173835,-0.00444577,0.00108571,-0.73721357,0.42066452,0.27570518,0.
 00994408,0.00368122,-0.00188440,1.02545778,0.01450439,0.04895927,0.000
 67152,0.00264718,-0.00254070,0.00301132,0.37656043,-0.24183673,-0.1448
 7618,-0.00296182,0.00543845,0.00213521,-0.48498566,0.24023532,0.001684
 67,0.01682552,-0.00166756,0.00026877,-0.00531709,0.00033302,0.26891673
 ,-0.15800850,-0.13903656,-0.00180367,-0.00064565,0.00498030,-0.3486990
 2,0.15640212,0.24041663,-0.00846779,-0.01317555,0.00203239,-0.00215773
 ,-0.00195758,-0.00290956,0.01684346,-0.01333961,-0.00431349,0.00065661
 ,0.00172111,0.00217450,-0.22754680,0.07070145,0.06069324,0.61438025,-0
 .00593045,-0.00965574,0.00004533,0.00014165,0.00031588,0.00055069,0.00
 911532,-0.00159910,-0.00439985,0.00231825,0.00335595,-0.00118736,0.044
 34228,-0.07310054,-0.01718875,-0.11359955,0.28294781,0.00389367,0.0024
 4113,-0.00400522,-0.00291648,0.00014382,0.00276709,-0.00037208,0.00223
 468,0.00308672,0.00159673,-0.00046301,0.00488740,0.04382641,-0.0215145
 9,-0.07508438,-0.14927288,-0.11787791,0.96358870,0.00031156,0.00119941
 ,-0.00032219,0.00049637,0.00071073,0.00074632,-0.00507407,0.00281240,0
 .00098180,-0.00007186,-0.00011163,-0.00157019,-0.01618631,-0.00063456,
 0.04790987,-0.16554620,-0.01494373,0.19421270,0.15814976,-0.00083999,0
 .00045822,0.00094872,0.00024406,-0.00018625,-0.00032214,0.00021536,0.0
 0046164,0.00010826,-0.00046679,-0.00052415,0.00019133,0.00492090,0.018
 46843,-0.00453709,-0.01170846,-0.09257188,0.07081388,0.00466028,0.0586
 8599,-0.00147476,-0.00182316,0.00312747,0.00117749,-0.00002025,-0.0019
 3053,0.00153785,-0.00141660,0.00087790,-0.00008919,-0.00026157,0.00051
 283,0.04055445,0.00106360,-0.03582749,0.18558115,0.07740744,-0.6964163
 8,-0.20953650,-0.10814074,0.82767702,-0.00040117,0.00210404,-0.0008437
 0,0.00065238,0.00057325,0.00117572,-0.00691146,0.00354257,0.00282437,0
 .00077804,-0.00071357,0.00097604,-0.04798661,0.02238684,-0.02702353,-0
 .18220916,0.05731127,-0.08667883,0.02859598,0.00901066,-0.02726616,0.4
 5723809,-0.00148635,-0.00094137,-0.00083414,-0.00097694,-0.00042539,-0
 .00020206,0.00224228,-0.00041269,-0.00076893,-0.00044207,-0.00002171,-
 0.00028603,0.02206049,0.00138533,0.01018088,0.05671401,-0.10007297,0.0
 6427424,0.00800386,0.01872315,0.03775665,-0.14733917,0.15769104,-0.000
 63991,0.00038458,0.00078542,0.00080674,0.00017201,-0.00000471,0.000046
 09,0.00009224,-0.00015191,-0.00009699,-0.00006661,-0.00067461,-0.00383
 970,0.00086533,0.00855746,-0.06486829,0.05367630,-0.21197838,-0.027239
 28,0.03904467,-0.09556611,0.06117572,-0.08903718,0.39734119,0.00089133
 ,-0.00015838,0.00036392,-0.00012996,-0.00029450,-0.00031289,0.00188036
 ,-0.00076903,-0.00062204,-0.00032750,0.00013613,0.00004332,0.00299510,
 0.00128885,-0.00038771,-0.04676480,0.02583164,-0.02645988,-0.00046497,
 -0.00591389,0.01847791,-0.16221296,0.03377743,0.02661016,0.44137011,0.
 00016897,0.00111445,-0.00022044,0.00004437,-0.00000704,0.00012244,-0.0
 0132198,0.00046989,0.00032392,-0.00005331,-0.00022792,-0.00004194,0.00
 268878,0.00324319,0.00210433,0.02526195,-0.01246646,0.00948476,0.00040
 353,-0.00419362,-0.00738258,0.03067051,-0.07652925,-0.00605626,-0.0108
 1838,0.56225346,0.00036232,0.00036169,-0.00027384,-0.00003650,0.000094
 35,0.00015938,-0.00102107,0.00049986,0.00076402,0.00005480,-0.00004860
 ,0.00021439,-0.00367258,0.00262695,-0.00296798,-0.02763557,0.00669727,
 0.01960379,-0.00036355,0.00048033,-0.00558115,0.04807560,-0.01274126,-
 0.10546072,0.05402140,-0.01747692,0.64300403,-0.00000528,0.00035281,-0
 .00009845,0.00002005,0.00002984,0.00008011,-0.00060405,0.00023279,0.00
 017288,0.00002649,-0.00007976,0.00002545,-0.00012517,0.00106765,-0.000
 09919,0.00117703,-0.00445919,0.00603455,-0.00024999,-0.00070653,-0.002
 58546,-0.04456794,-0.02198701,0.00367002,-0.11265141,-0.05684465,-0.00
 024729,0.54704584,0.00010193,-0.00008906,0.00006701,0.00000723,-0.0000
 0765,-0.00004415,0.00037753,-0.00012859,-0.00010286,0.00000217,0.00006
 198,-0.00000813,-0.00039169,-0.00052447,0.00016442,-0.00017771,0.00314
 946,-0.00597399,-0.00184421,-0.00093909,0.00223320,0.01215606,0.012316
 78,0.00204141,-0.06880165,-0.17828003,0.00570068,-0.04870994,0.5326306
 8,-0.00000142,-0.00007289,0.00004168,-0.00000906,-0.00002489,-0.000020
 66,0.00017530,-0.00011965,-0.00008146,-0.00000286,0.00002241,0.0000101
 3,0.00011727,-0.00024547,-0.00002748,-0.00190344,-0.00020006,-0.000219
 45,0.00104025,0.00077624,0.00099171,0.01118428,0.00508143,0.00123956,-
 0.00166818,0.00419519,-0.08502941,0.00430931,0.00303874,0.58840079,-0.
 00002314,-0.00001527,0.00002564,0.00006753,0.00007760,0.00006078,-0.00
 049333,0.00017520,0.00024368,0.00005831,-0.00000756,0.00004591,-0.0011
 5872,0.00008497,-0.00106780,-0.00280051,0.00187598,0.00567843,0.000941
 37,-0.00007507,-0.00137853,-0.02722467,0.02608667,-0.02579682,-0.06110
 107,0.03886780,-0.04734607,0.00734254,-0.01398032,0.01662812,0.0847289
 5,0.00004531,0.00001877,0.00001443,-0.00000152,-0.00001016,-0.00001370
 ,0.00010426,-0.00005561,-0.00001944,-0.00001959,0.00000319,-0.00000971
 ,0.00044420,0.00002337,0.00024057,-0.00004905,0.00013159,-0.00372200,-
 0.00108257,0.00069785,0.00065031,0.00981213,-0.00665919,0.00770477,0.0
 4446659,-0.15769951,0.12364703,0.00525393,-0.01637721,0.01989810,-0.05
 083250,0.16920250,-0.00000002,0.00006338,0.00001554,0.00002192,0.00001
 718,0.00000718,-0.00005243,0.00002369,-0.00003206,-0.00000868,-0.00002
 203,-0.00002311,0.00045561,0.00001880,0.00037682,0.00235872,-0.0005541
 6,-0.00274736,-0.00190294,0.00074670,0.00149581,0.00710967,-0.00919651
 ,0.00940698,-0.05835319,0.12904576,-0.20662126,0.00040601,-0.00117419,
 0.00086782,0.05568829,-0.13679592,0.21246748,0.00002664,-0.00007633,-0
 .00012634,-0.00001939,0.00005103,0.00007180,-0.00011699,0.00006246,0.0
 0000727,0.00004704,0.00000189,0.00000421,-0.00041888,-0.00085386,-0.00
 030043,0.00269984,-0.00077293,0.00794758,0.00001658,0.00079012,-0.0032
 8374,-0.01629155,0.02417581,0.03176592,-0.05060532,-0.01199957,-0.0237
 4041,0.00021395,-0.01072202,-0.01916144,0.00089120,-0.00505608,-0.0065
 6982,0.06494138,0.00006265,0.00002307,0.00004851,0.00003828,0.00002580
 ,-0.00001484,-0.00012979,0.00005437,0.00006128,-0.00001241,-0.00000410
 ,-0.00002589,0.00005981,0.00008280,0.00029171,0.00013335,0.00152393,-0
 .00563383,-0.00139298,-0.00026417,0.00239269,0.00728667,-0.00665024,-0
 .00779347,-0.00751382,-0.11392837,-0.10966449,-0.00294645,-0.01257548,
 -0.02301303,0.00017985,0.01223954,0.01773895,0.00674188,0.12130423,-0.
 00006737,-0.00012434,0.00003005,-0.00001825,-0.00003960,-0.00003193,0.
 00021078,-0.00005988,-0.00002912,-0.00000314,0.00001078,0.00000606,0.0
 0015508,-0.00029322,-0.00017492,-0.00266186,0.00210311,-0.00151356,-0.
 00177521,0.00136433,0.00053932,0.00906536,-0.00478689,-0.00529241,-0.0
 1387089,-0.11577002,-0.25834237,-0.00069352,0.00267353,0.00457791,-0.0
 0189677,-0.01084302,-0.01718360,0.01174729,0.12496527,0.27583501,-0.00
 006355,0.00006927,-0.00002798,0.00002221,0.00002716,0.00003574,-0.0002
 2829,0.00009710,0.00005563,0.00002137,-0.00003438,-0.00000610,-0.00004
 718,0.00016454,0.00001816,0.00164301,-0.00108433,0.00224792,-0.0000809
 8,-0.00008214,-0.00096494,-0.00425687,-0.00356613,-0.00094074,-0.01664
 596,0.01043415,0.00344160,-0.28116604,0.07942710,0.04845053,0.00054997
 ,-0.00012635,0.00040659,0.00035585,-0.00007066,-0.00060280,0.30523887,
 -0.00001424,0.00003651,-0.00002834,-0.00000862,0.00000280,0.00001116,-
 0.00013099,0.00007408,0.00005925,-0.00000320,-0.00002792,0.00001143,-0
 .00008421,0.00027008,-0.00017872,0.00019169,-0.00155375,0.00285340,0.0
 0056090,0.00039364,-0.00115005,-0.00813767,-0.00309005,-0.00026269,-0.
 02166864,0.01139907,0.00500088,0.08155716,-0.07589512,-0.01723757,0.00
 095031,0.00078811,0.00052608,0.00078708,0.00078062,-0.00072537,-0.0865
 5462,0.07853103,0.00000201,0.00000595,0.00000742,0.00000450,0.00000326
 ,-0.00000068,-0.00002779,0.00001910,0.00001578,-0.00000584,-0.00000310
 ,-0.00000443,0.00004450,0.00004700,0.00005512,0.00012950,0.00063708,-0
 .00127588,-0.00062729,-0.00051747,0.00032905,0.00109089,0.00020074,0.0
 0150087,0.00082441,-0.00089769,-0.00245410,0.04835296,-0.01653104,-0.0
 5557156,-0.00012279,-0.00003845,-0.00004709,0.00009614,0.00011044,-0.0
 0000248,-0.05359077,0.01818220,0.05596144,-0.00001361,-0.00004595,0.00
 003014,-0.00000278,-0.00001351,-0.00002614,0.00003989,-0.00001404,0.00
 000055,-0.00001794,0.00000282,-0.00000741,0.00000936,0.00007118,0.0000
 2423,-0.00054012,0.00047596,-0.00157142,-0.00042631,-0.00013170,0.0006
 9043,0.00300351,0.00087985,0.00014502,-0.00226303,-0.01214580,-0.01969
 297,-0.04634796,0.00142908,-0.00012815,0.00057062,0.00091980,0.0004099
 2,-0.00225473,-0.00351769,0.00061325,0.00191421,0.01475279,0.02690855,
 0.04726333,-0.00003776,-0.00001242,0.00002955,0.00001266,-0.00000087,-
 0.00000795,-0.00001676,0.00000515,0.00000969,0.00000733,0.00000025,-0.
 00000369,-0.00006045,-0.00003303,-0.00006043,-0.00004869,0.00005583,0.
 00008948,0.00030873,0.00019821,0.00004418,0.00158623,0.00215395,0.0010
 5986,0.00065106,-0.01589714,-0.02598348,-0.00053771,-0.11295420,-0.114
 41375,0.00067253,0.00069862,0.00008842,-0.00373419,-0.00336966,0.00155
 443,-0.00060838,-0.00548263,-0.00751293,0.00302058,0.12298410,-0.00003
 457,-0.00002214,0.00001527,0.00000801,-0.00000317,-0.00000956,-0.00004
 700,0.00004765,0.00001754,-0.00000685,-0.00001746,-0.00000888,-0.00003
 873,0.00009611,0.00009573,0.00015534,-0.00019521,-0.00079168,-0.000570
 85,-0.00021751,0.00036454,-0.00104994,0.00053808,0.00051663,0.00051368
 ,0.00202751,0.00323077,-0.00113089,-0.11668563,-0.25623160,-0.00048664
 ,-0.00034482,0.00073749,0.00102598,0.00071887,0.00109804,-0.00030329,-
 0.00125548,-0.00438897,0.00066353,0.12759711,0.27365189,0.00004827,-0.
 00003154,-0.00000821,-0.00002948,-0.00003441,-0.00002698,0.00021538,-0
 .00004734,-0.00004227,-0.00001853,0.00001861,0.00001652,-0.00006662,-0
 .00004156,-0.00013433,-0.00136709,-0.00062216,0.00183359,-0.00041093,0
 .00008319,-0.00144000,0.00179439,0.00185726,-0.00079797,0.00603008,-0.
 01535637,0.01780030,-0.07010806,0.05112643,-0.05903050,-0.00234904,-0.
 00387857,0.00003033,0.00051438,0.00108132,-0.00020196,-0.00725660,0.01
 780226,-0.02307897,-0.00093444,-0.00121520,0.00130223,0.07393831,0.000
 02512,-0.00002349,-0.00003817,-0.00002904,-0.00001257,0.00000097,0.000
 13290,-0.00005520,-0.00003468,0.00000553,0.00001414,0.00002295,-0.0001
 5772,-0.00007077,-0.00027331,-0.00066736,-0.00046000,0.00284994,0.0013
 4983,0.00059202,-0.00135311,-0.00024981,0.00253261,-0.00182497,0.00978
 661,-0.01925071,0.02080572,0.04777706,-0.15038800,0.12231520,-0.004060
 20,-0.00300184,-0.00052614,0.00060472,0.00075766,-0.00002910,0.0019076
 6,-0.00622644,0.00629490,-0.00568338,0.01165383,-0.01228391,-0.0507419
 2,0.16393877,0.00000571,0.00004184,-0.00000057,0.00001380,0.00001948,0
 .00001782,-0.00007349,0.00000335,0.00002366,0.00001076,0.00000659,-0.0
 0000302,0.00003823,-0.00000851,-0.00002870,0.00044027,0.00048607,0.000
 09860,-0.00098295,-0.00073950,-0.00059400,0.00018449,-0.00017901,-0.00
 021925,0.00081999,0.00054194,-0.00024556,-0.05819651,0.12460099,-0.198
 94797,-0.00027544,-0.00036815,0.00127934,0.00051599,-0.00018216,0.0004
 8400,0.00178046,-0.00580616,0.00587551,-0.00805953,0.01750952,-0.01829
 720,0.06377822,-0.13592630,0.21055734\\-0.00347691,-0.00922452,-0.0009
 4909,0.00002804,-0.00016018,0.00001346,-0.00113330,0.00023615,0.000430
 11,-0.00020120,-0.00029139,-0.00001989,0.00418110,0.00949927,0.0009169
 7,0.00055141,0.00147395,0.00015083,0.00017269,-0.00098140,-0.00036944,
 0.00000781,-0.00024721,-0.00008769,-0.00003828,-0.00020457,-0.00007195
 ,-0.00008211,-0.00006504,0.00000117,0.00000334,-0.00000984,-0.00000746
 ,0.00000994,-0.00001309,-0.00000580,-0.00000544,-0.00000186,0.00000070
 ,-0.00001130,-0.00000594,-0.00000001,-0.00000580,-0.00000432,-0.000001
 88\\\@


 BOOKS ARE LIGHTHOUSES ERECTED IN THE GREAT SEA OF TIME.
     -- E.P.WHIPPLE
 Job cpu time:       0 days  0 hours 56 minutes 34.0 seconds.
 Elapsed time:       0 days  0 hours  2 minutes 21.7 seconds.
 File lengths (MBytes):  RWF=    153 Int=      0 D2E=      0 Chk=      6 Scr=      1
 Normal termination of Gaussian 16 at Sat Aug 16 18:21:54 2025.
