 Entering Gaussian System, Link 0=g16
 Initial command:
 /opt/g16/l1.exe "/home/chem-lab/scratches/g16/Gau-6256.inp" -scrdir="/home/chem-lab/scratches/g16/"
 Entering Link 1 = /opt/g16/l1.exe PID=      6259.
  
 Copyright (c) 1988,1990,1992,1993,1995,1998,2003,2009,2016,
            Gaussian, Inc.  All Rights Reserved.
  
 This is part of the Gaussian(R) 16 program.  It is based on
 the Gaussian(R) 09 system (copyright 2009, Gaussian, Inc.),
 the Gaussian(R) 03 system (copyright 2003, Gaussian, Inc.),
 the Gaussian(R) 98 system (copyright 1998, Gaussian, Inc.),
 the Gaussian(R) 94 system (copyright 1995, Gaussian, Inc.),
 the Gaussian 92(TM) system (copyright 1992, Gaussian, Inc.),
 the Gaussian 90(TM) system (copyright 1990, Gaussian, Inc.),
 the Gaussian 88(TM) system (copyright 1988, Gaussian, Inc.),
 the Gaussian 86(TM) system (copyright 1986, Carnegie Mellon
 University), and the Gaussian 82(TM) system (copyright 1983,
 Carnegie Mellon University). Gaussian is a federally registered
 trademark of Gaussian, Inc.
  
 This software contains proprietary and confidential information,
 including trade secrets, belonging to Gaussian, Inc.
  
 This software is provided under written license and may be
 used, copied, transmitted, or stored only in accord with that
 written license.
  
 The following legend is applicable only to US Government
 contracts under FAR:
  
                    RESTRICTED RIGHTS LEGEND
  
 Use, reproduction and disclosure by the US Government is
 subject to restrictions as set forth in subparagraphs (a)
 and (c) of the Commercial Computer Software - Restricted
 Rights clause in FAR 52.227-19.
  
 Gaussian, Inc.
 340 Quinnipiac St., Bldg. 40, Wallingford CT 06492
  
  
 ---------------------------------------------------------------
 Warning -- This program may not be used in any manner that
 competes with the business of Gaussian, Inc. or will provide
 assistance to any competitor of Gaussian, Inc.  The licensee
 of this program is prohibited from giving any competitor of
 Gaussian, Inc. access to this program.  By using this program,
 the user acknowledges that Gaussian, Inc. is engaged in the
 business of creating and licensing software in the field of
 computational chemistry and represents and warrants to the
 licensee that it is not a competitor of Gaussian, Inc. and that
 it will not use this program in any manner prohibited above.
 ---------------------------------------------------------------
  

 Cite this work as:
 Gaussian 16, Revision A.03,
 M. J. Frisch, G. W. Trucks, H. B. Schlegel, G. E. Scuseria, 
 M. A. Robb, J. R. Cheeseman, G. Scalmani, V. Barone, 
 G. A. Petersson, H. Nakatsuji, X. Li, M. Caricato, A. V. Marenich, 
 J. Bloino, B. G. Janesko, R. Gomperts, B. Mennucci, H. P. Hratchian, 
 J. V. Ortiz, A. F. Izmaylov, J. L. Sonnenberg, D. Williams-Young, 
 F. Ding, F. Lipparini, F. Egidi, J. Goings, B. Peng, A. Petrone, 
 T. Henderson, D. Ranasinghe, V. G. Zakrzewski, J. Gao, N. Rega, 
 G. Zheng, W. Liang, M. Hada, M. Ehara, K. Toyota, R. Fukuda, 
 J. Hasegawa, M. Ishida, T. Nakajima, Y. Honda, O. Kitao, H. Nakai, 
 T. Vreven, K. Throssell, J. A. Montgomery, Jr., J. E. Peralta, 
 F. Ogliaro, M. J. Bearpark, J. J. Heyd, E. N. Brothers, K. N. Kudin, 
 V. N. Staroverov, T. A. Keith, R. Kobayashi, J. Normand, 
 K. Raghavachari, A. P. Rendell, J. C. Burant, S. S. Iyengar, 
 J. Tomasi, M. Cossi, J. M. Millam, M. Klene, C. Adamo, R. Cammi, 
 J. W. Ochterski, R. L. Martin, K. Morokuma, O. Farkas, 
 J. B. Foresman, and D. J. Fox, Gaussian, Inc., Wallingford CT, 2016.
 
 ******************************************
 Gaussian 16:  ES64L-G16RevA.03 25-Dec-2016
                 5-Aug-2025 
 ******************************************
 %nprocshared=24
 Will use up to   24 processors via shared memory.
 %mem=12GB
 %chk=ethyl_propiolate_ts1.chk
 --------------------------
 # ccsd(t)/6-311++g(d,p) sp
 --------------------------
 1/38=1,172=1/1;
 2/12=2,17=6,18=5,40=1/2;
 3/5=4,6=6,7=1111,11=9,25=1,30=1/1,2,3;
 4//1;
 5/5=2,38=5/2;
 8/6=4,9=120000,10=2/1,4;
 9/5=7,14=2/13;
 6/7=2,8=2,9=2,10=2/1;
 99/5=1,9=1/99;
 -------------------
 Title Card Required
 -------------------
 Symbolic Z-matrix:
 Charge =  0 Multiplicity = 2
 O                     2.23133   1.47397  -0.04713 
 H                     2.83085   1.24929   0.68397 
 C                     2.45642  -1.22644  -0.51942 
 H                     3.36634  -1.66882  -0.852 
 C                     1.42922  -0.71673  -0.16225 
 C                     0.14638  -0.21762   0.32975 
 O                    -0.17915  -0.28114   1.48267 
 O                    -0.59222   0.26531  -0.6623 
 C                    -1.91891   0.70499  -0.30727 
 C                    -2.86278  -0.47614  -0.18388 
 H                    -2.20483   1.36702  -1.12238 
 H                    -1.86252   1.27354   0.6214 
 H                    -3.87485  -0.11726   0.01288 
 H                    -2.8742   -1.05212  -1.11041 
 H                    -2.56253  -1.12509   0.63913 
 
                          Input orientation:                          
 ---------------------------------------------------------------------
 Center     Atomic      Atomic             Coordinates (Angstroms)
 Number     Number       Type             X           Y           Z
 ---------------------------------------------------------------------
      1          8           0        2.231333    1.473970   -0.047126
      2          1           0        2.830854    1.249288    0.683965
      3          6           0        2.456420   -1.226437   -0.519422
      4          1           0        3.366342   -1.668820   -0.851996
      5          6           0        1.429220   -0.716732   -0.162246
      6          6           0        0.146378   -0.217619    0.329745
      7          8           0       -0.179145   -0.281135    1.482666
      8          8           0       -0.592218    0.265307   -0.662304
      9          6           0       -1.918914    0.704985   -0.307274
     10          6           0       -2.862775   -0.476143   -0.183882
     11          1           0       -2.204825    1.367018   -1.122378
     12          1           0       -1.862517    1.273538    0.621399
     13          1           0       -3.874854   -0.117264    0.012875
     14          1           0       -2.874199   -1.052123   -1.110413
     15          1           0       -2.562528   -1.125093    0.639131
 ---------------------------------------------------------------------
                    Distance matrix (angstroms):
                    1          2          3          4          5
     1  O    0.000000
     2  H    0.971803   0.000000
     3  C    2.750623   2.778049   0.000000
     4  H    3.437032   3.340850   1.065019   0.000000
     5  C    2.335768   2.558493   1.201047   2.265981   0.000000
     6  C    2.711188   3.079562   2.659905   3.724334   1.461798
     7  O    3.351278   3.469901   3.442115   4.466183   2.341435
     8  O    3.132371   3.807635   3.397044   4.409878   2.302318
     9  C    4.228896   4.882532   4.787374   5.819416   3.640373
    10  C    5.456334   6.012294   5.382320   6.377363   4.298787
    11  H    4.565863   5.351149   5.368125   6.350380   4.297691
    12  H    4.152915   4.693851   5.119039   6.178133   3.925660
    13  H    6.310400   6.876361   6.449700   7.455887   5.340714
    14  H    5.794668   6.408113   5.366112   6.276261   4.419380
    15  H    5.496106   5.893069   5.151927   6.137638   4.091823
                    6          7          8          9         10
     6  C    0.000000
     7  O    1.199678   0.000000
     8  O    1.327743   2.251694   0.000000
     9  C    2.349983   2.683862   1.442042   0.000000
    10  C    3.063601   3.165009   2.435994   1.516958   0.000000
    11  H    3.185575   3.688637   2.006474   1.088314   2.170464
    12  H    2.518784   2.447965   2.068353   1.090352   2.170340
    13  H    4.034945   3.980629   3.373118   2.145761   1.091701
    14  H    3.448817   3.818612   2.672800   2.155233   1.091028
    15  H    2.873569   2.665395   2.740268   2.158496   1.090245
                   11         12         13         14         15
    11  H    0.000000
    12  H    1.779514   0.000000
    13  H    2.506170   2.520740   0.000000
    14  H    2.510069   3.071054   1.771171   0.000000
    15  H    3.072700   2.498752   1.769213   1.778586   0.000000
 Stoichiometry    C5H7O3(2)
 Framework group  C1[X(C5H7O3)]
 Deg. of freedom    39
 Full point group                 C1      NOp   1
 Largest Abelian subgroup         C1      NOp   1
 Largest concise Abelian subgroup C1      NOp   1
                         Standard orientation:                         
 ---------------------------------------------------------------------
 Center     Atomic      Atomic             Coordinates (Angstroms)
 Number     Number       Type             X           Y           Z
 ---------------------------------------------------------------------
      1          8           0        2.231333    1.473970   -0.047126
      2          1           0        2.830854    1.249288    0.683965
      3          6           0        2.456420   -1.226437   -0.519422
      4          1           0        3.366342   -1.668820   -0.851996
      5          6           0        1.429220   -0.716732   -0.162246
      6          6           0        0.146378   -0.217619    0.329745
      7          8           0       -0.179145   -0.281135    1.482666
      8          8           0       -0.592218    0.265307   -0.662304
      9          6           0       -1.918914    0.704985   -0.307274
     10          6           0       -2.862775   -0.476143   -0.183882
     11          1           0       -2.204825    1.367018   -1.122378
     12          1           0       -1.862517    1.273538    0.621399
     13          1           0       -3.874854   -0.117264    0.012875
     14          1           0       -2.874199   -1.052123   -1.110413
     15          1           0       -2.562528   -1.125093    0.639131
 ---------------------------------------------------------------------
 Rotational constants (GHZ):           3.7711835           1.1591804           1.0890481
 Standard basis: 6-311++G(d,p) (5D, 7F)
 There are   233 symmetry adapted cartesian basis functions of A   symmetry.
 There are   225 symmetry adapted basis functions of A   symmetry.
   225 basis functions,   351 primitive gaussians,   233 cartesian basis functions
    31 alpha electrons       30 beta electrons
       nuclear repulsion energy       355.7264745225 Hartrees.
 NAtoms=   15 NActive=   15 NUniq=   15 SFac= 1.00D+00 NAtFMM=   60 NAOKFM=F Big=F
 Integral buffers will be    131072 words long.
 Raffenetti 2 integral format.
 Two-electron integral symmetry is turned on.
 One-electron integrals computed using PRISM.
 NBasis=   225 RedAO= T EigKep=  7.38D-06  NBF=   225
 NBsUse=   224 1.00D-06 EigRej=  9.11D-07 NBFU=   224
 ExpMin= 3.60D-02 ExpMax= 8.59D+03 ExpMxC= 1.30D+03 IAcc=3 IRadAn=         5 AccDes= 0.00D+00
 Harris functional with IExCor=  205 and IRadAn=       5 diagonalized for initial guess.
 HarFok:  IExCor=  205 AccDes= 0.00D+00 IRadAn=         5 IDoV= 1 UseB2=F ITyADJ=14
 ICtDFT=  3500011 ScaDFX=  1.000000  1.000000  1.000000  1.000000
 FoFCou: FMM=F IPFlag=           0 FMFlag=      100000 FMFlg1=           0
         NFxFlg=           0 DoJE=T BraDBF=F KetDBF=T FulRan=T
         wScrn=  0.000000 ICntrl=       500 IOpCl=  0 I1Cent=   200000004 NGrid=           0
         NMat0=    1 NMatS0=      1 NMatT0=    0 NMatD0=    1 NMtDS0=    0 NMtDT0=    0
 Petite list used in FoFCou.
 Initial guess <Sx>= 0.0000 <Sy>= 0.0000 <Sz>= 0.5000 <S**2>= 0.7500 S= 0.5000
 Requested convergence on RMS density matrix=1.00D-08 within 128 cycles.
 Requested convergence on MAX density matrix=1.00D-06.
 Requested convergence on             energy=1.00D-06.
 No special actions if energy rises.
 Initial convergence to 1.0D-05 achieved.  Increase integral accuracy.
 Restarting incremental Fock formation.
 SCF Done:  E(UHF) =  -417.992136380     A.U. after   38 cycles
            NFock= 38  Conv=0.95D-08     -V/T= 2.0007
 <Sx>= 0.0000 <Sy>= 0.0000 <Sz>= 0.5000 <S**2>= 0.8155 S= 0.5322
 <L.S>=  0.00000000000    
 Annihilation of the first spin contaminant:
 S**2 before annihilation     0.8155,   after     0.7526
 ExpMin= 3.60D-02 ExpMax= 8.59D+03 ExpMxC= 1.30D+03 IAcc=3 IRadAn=         5 AccDes= 0.00D+00
 HarFok:  IExCor=  205 AccDes= 0.00D+00 IRadAn=         5 IDoV=-2 UseB2=F ITyADJ=14
 ICtDFT= 12500011 ScaDFX=  1.000000  1.000000  1.000000  1.000000
 Range of M.O.s used for correlation:     9   224
 NBasis=   225 NAE=    31 NBE=    30 NFC=     8 NFV=     0
 NROrb=    216 NOA=    23 NOB=    22 NVA=   193 NVB=   194

 **** Warning!!: The largest alpha MO coefficient is  0.10549498D+03


 **** Warning!!: The largest beta MO coefficient is  0.79509665D+02

 Semi-Direct transformation.
 ModeAB=           4 MOrb=            23 LenV=    1609186372
 LASXX=    107793295 LTotXX=   107793295 LenRXX=   218294035
 LTotAB=   110500740 MaxLAS=   127717344 LenRXY=           0
 NonZer=   326087330 LenScr=   491049984 LnRSAI=   127717344
 LnScr1=   192351744 LExtra=           0 Total=   1029413107
 MaxDsk=          -1 SrtSym=           T ITran=            4
 JobTyp=1 Pass  1:  I=   1 to  23.
 (rs|ai) integrals will be sorted in core.
 ModeAB=           4 MOrb=            22 LenV=    1609186372
 LASXX=    103454307 LTotXX=   103454307 LenRXX=   188091948
 LTotAB=    84637641 MaxLAS=   122164416 LenRXY=           0
 NonZer=   291546255 LenScr=   439034880 LnRSAI=   122164416
 LnScr1=   184027136 LExtra=           0 Total=    933318380
 MaxDsk=          -1 SrtSym=           T ITran=            4
 JobTyp=2 Pass  1:  I=   1 to  22.
 (rs|ai) integrals will be sorted in core.
 SymMOI:  orbitals are not symmetric.
 Spin components of T(2) and E(2):
     alpha-alpha T2 =       0.5254320159D-01 E2=     -0.1697933264D+00
     alpha-beta  T2 =       0.2867624905D+00 E2=     -0.9361726237D+00
     beta-beta   T2 =       0.4955109145D-01 E2=     -0.1552387309D+00
 ANorm=    0.1178497681D+01
 E2 =    -0.1261204681D+01 EUMP2 =    -0.41925334106079D+03
 (S**2,0)=  0.81551D+00           (S**2,1)=  0.79515D+00
 E(PUHF)=      -0.41799884249D+03        E(PMP2)=      -0.41925902910D+03
 Keep R2 and R3 ints in memory in canonical form, NReq=652883968.
 CIDS: In Core Option IDoMem=           1.
 Iterations=  50 Convergence= 0.100D-06
 Produce multiple copies of IABC intergrals
 Iteration Nr.   1
 **********************
 DD1Dir will call FoFMem   1 times, MxPair=      1496
 NAB=   506 NAA=   253 NBB=   231.
 E(PMP3)=      -0.41928473110D+03
 MP4(R+Q)=  0.25106632D-01
 E3=       -0.27364437D-01        EUMP3=      -0.41928070550D+03
 E4(DQ)=   -0.56666268D-02        UMP4(DQ)=   -0.41928637212D+03
 E4(SDQ)=  -0.24232965D-01        UMP4(SDQ)=  -0.41930493846D+03
 DE(Corr)=  -1.2628371     E(Corr)=     -419.25497351    
 NORM(A)=   0.11848185D+01
 Iteration Nr.   2
 **********************
 DD1Dir will call FoFMem   1 times, MxPair=      1496
 NAB=   506 NAA=   253 NBB=   231.
 DE(Corr)=  -1.3046651     E(CORR)=     -419.29680153     Delta=-4.18D-02
 NORM(A)=   0.12027303D+01
 Iteration Nr.   3
 **********************
 DD1Dir will call FoFMem   1 times, MxPair=      1496
 NAB=   506 NAA=   253 NBB=   231.
 DE(Corr)=  -1.3062850     E(CORR)=     -419.29842140     Delta=-1.62D-03
 NORM(A)=   0.12095301D+01
 Iteration Nr.   4
 **********************
 DD1Dir will call FoFMem   1 times, MxPair=      1496
 NAB=   506 NAA=   253 NBB=   231.
 DE(Corr)=  -1.3113756     E(CORR)=     -419.30351196     Delta=-5.09D-03
 NORM(A)=   0.12127986D+01
 Iteration Nr.   5
 **********************
 DD1Dir will call FoFMem   1 times, MxPair=      1496
 NAB=   506 NAA=   253 NBB=   231.
 DE(Corr)=  -1.3123636     E(CORR)=     -419.30449994     Delta=-9.88D-04
 NORM(A)=   0.12146183D+01
 Iteration Nr.   6
 **********************
 DD1Dir will call FoFMem   1 times, MxPair=      1496
 NAB=   506 NAA=   253 NBB=   231.
 DE(Corr)=  -1.3126556     E(CORR)=     -419.30479193     Delta=-2.92D-04
 NORM(A)=   0.12150052D+01
 Iteration Nr.   7
 **********************
 DD1Dir will call FoFMem   1 times, MxPair=      1496
 NAB=   506 NAA=   253 NBB=   231.
 DE(Corr)=  -1.3127120     E(CORR)=     -419.30484834     Delta=-5.64D-05
 NORM(A)=   0.12150839D+01
 Iteration Nr.   8
 **********************
 DD1Dir will call FoFMem   1 times, MxPair=      1496
 NAB=   506 NAA=   253 NBB=   231.
 DE(Corr)=  -1.3126994     E(CORR)=     -419.30483576     Delta= 1.26D-05
 NORM(A)=   0.12151194D+01
 Iteration Nr.   9
 **********************
 DD1Dir will call FoFMem   1 times, MxPair=      1496
 NAB=   506 NAA=   253 NBB=   231.
 DE(Corr)=  -1.3127094     E(CORR)=     -419.30484579     Delta=-1.00D-05
 NORM(A)=   0.12151224D+01
 Iteration Nr.  10
 **********************
 DD1Dir will call FoFMem   1 times, MxPair=      1496
 NAB=   506 NAA=   253 NBB=   231.
 DE(Corr)=  -1.3127103     E(CORR)=     -419.30484670     Delta=-9.04D-07
 NORM(A)=   0.12151282D+01
 Iteration Nr.  11
 **********************
 DD1Dir will call FoFMem   1 times, MxPair=      1496
 NAB=   506 NAA=   253 NBB=   231.
 DE(Corr)=  -1.3127172     E(CORR)=     -419.30485354     Delta=-6.85D-06
 NORM(A)=   0.12151344D+01
 Iteration Nr.  12
 **********************
 DD1Dir will call FoFMem   1 times, MxPair=      1496
 NAB=   506 NAA=   253 NBB=   231.
 DE(Corr)=  -1.3127183     E(CORR)=     -419.30485469     Delta=-1.15D-06
 NORM(A)=   0.12151402D+01
 Iteration Nr.  13
 **********************
 DD1Dir will call FoFMem   1 times, MxPair=      1496
 NAB=   506 NAA=   253 NBB=   231.
 DE(Corr)=  -1.3127206     E(CORR)=     -419.30485703     Delta=-2.34D-06
 NORM(A)=   0.12151458D+01
 Iteration Nr.  14
 **********************
 DD1Dir will call FoFMem   1 times, MxPair=      1496
 NAB=   506 NAA=   253 NBB=   231.
 DE(Corr)=  -1.3127218     E(CORR)=     -419.30485818     Delta=-1.15D-06
 NORM(A)=   0.12151511D+01
 Iteration Nr.  15
 **********************
 DD1Dir will call FoFMem   1 times, MxPair=      1496
 NAB=   506 NAA=   253 NBB=   231.
 DE(Corr)=  -1.3127223     E(CORR)=     -419.30485871     Delta=-5.32D-07
 NORM(A)=   0.12151571D+01
 Iteration Nr.  16
 **********************
 DD1Dir will call FoFMem   1 times, MxPair=      1496
 NAB=   506 NAA=   253 NBB=   231.
 DE(Corr)=  -1.3127240     E(CORR)=     -419.30486035     Delta=-1.64D-06
 NORM(A)=   0.12151611D+01
 Iteration Nr.  17
 **********************
 DD1Dir will call FoFMem   1 times, MxPair=      1496
 NAB=   506 NAA=   253 NBB=   231.
 DE(Corr)=  -1.3127239     E(CORR)=     -419.30486026     Delta= 8.89D-08
 NORM(A)=   0.12151615D+01
 Iteration Nr.  18
 **********************
 DD1Dir will call FoFMem   1 times, MxPair=      1496
 NAB=   506 NAA=   253 NBB=   231.
 DE(Corr)=  -1.3127245     E(CORR)=     -419.30486087     Delta=-6.10D-07
 NORM(A)=   0.12151586D+01
 Iteration Nr.  19
 **********************
 DD1Dir will call FoFMem   1 times, MxPair=      1496
 NAB=   506 NAA=   253 NBB=   231.
 DE(Corr)=  -1.3127236     E(CORR)=     -419.30485996     Delta= 9.13D-07
 NORM(A)=   0.12151555D+01
 Iteration Nr.  20
 **********************
 DD1Dir will call FoFMem   1 times, MxPair=      1496
 NAB=   506 NAA=   253 NBB=   231.
 DE(Corr)=  -1.3127230     E(CORR)=     -419.30485937     Delta= 5.89D-07
 NORM(A)=   0.12151534D+01
 Iteration Nr.  21
 **********************
 DD1Dir will call FoFMem   1 times, MxPair=      1496
 NAB=   506 NAA=   253 NBB=   231.
 DE(Corr)=  -1.3127225     E(CORR)=     -419.30485892     Delta= 4.46D-07
 NORM(A)=   0.12151524D+01
 Iteration Nr.  22
 **********************
 DD1Dir will call FoFMem   1 times, MxPair=      1496
 NAB=   506 NAA=   253 NBB=   231.
 DE(Corr)=  -1.3127223     E(CORR)=     -419.30485867     Delta= 2.55D-07
 NORM(A)=   0.12151523D+01
 Iteration Nr.  23
 **********************
 DD1Dir will call FoFMem   1 times, MxPair=      1496
 NAB=   506 NAA=   253 NBB=   231.
 DE(Corr)=  -1.3127223     E(CORR)=     -419.30485870     Delta=-3.74D-08
 NORM(A)=   0.12151526D+01
 Wavefunction amplitudes converged. E(Corr)=     -419.30485870    
 Largest amplitude= 5.70D-02
 Time for triples=    65851.95 seconds.
 T4(CCSD)= -0.55821158D-01
 T5(CCSD)=  0.34142139D-02
 CCSD(T)= -0.41935726565D+03

 S**2, projected HF & approx projected MPn energies after annihilation of
 unwanted spin states (see manual for definitions):

 spins       (S**2,0) (S**2,1)    PUHF        PMP2        PMP3        PMP4
 annihilated
 s+1         0.74843  0.74958 -417.998842 -419.259029 -419.284731
 s+1,s+2     0.75001  0.75000 -417.998683 -419.258882 -419.284599
 s+1 to s+3  0.75000  0.75000 -417.998685 -419.258883 -419.284600
 s+1 to s+4  0.75000  0.75000 -417.998685 -419.258883 -419.284599
 s+1 to s+5  0.75000  0.75000 -417.998685
 s+1 to s+6  0.75000  0.75000 -417.998685

 Discarding MO integrals.

 **********************************************************************

            Population analysis using the SCF density.

 **********************************************************************

 Orbital symmetries:
 Alpha Orbitals:
       Occupied  (A) (A) (A) (A) (A) (A) (A) (A) (A) (A) (A) (A)
                 (A) (A) (A) (A) (A) (A) (A) (A) (A) (A) (A) (A)
                 (A) (A) (A) (A) (A) (A) (A)
       Virtual   (A) (A) (A) (A) (A) (A) (A) (A) (A) (A) (A) (A)
                 (A) (A) (A) (A) (A) (A) (A) (A) (A) (A) (A) (A)
                 (A) (A) (A) (A) (A) (A) (A) (A) (A) (A) (A) (A)
                 (A) (A) (A) (A) (A) (A) (A) (A) (A) (A) (A) (A)
                 (A) (A) (A) (A) (A) (A) (A) (A) (A) (A) (A) (A)
                 (A) (A) (A) (A) (A) (A) (A) (A) (A) (A) (A) (A)
                 (A) (A) (A) (A) (A) (A) (A) (A) (A) (A) (A) (A)
                 (A) (A) (A) (A) (A) (A) (A) (A) (A) (A) (A) (A)
                 (A) (A) (A) (A) (A) (A) (A) (A) (A) (A) (A) (A)
                 (A) (A) (A) (A) (A) (A) (A) (A) (A) (A) (A) (A)
                 (A) (A) (A) (A) (A) (A) (A) (A) (A) (A) (A) (A)
                 (A) (A) (A) (A) (A) (A) (A) (A) (A) (A) (A) (A)
                 (A) (A) (A) (A) (A) (A) (A) (A) (A) (A) (A) (A)
                 (A) (A) (A) (A) (A) (A) (A) (A) (A) (A) (A) (A)
                 (A) (A) (A) (A) (A) (A) (A) (A) (A) (A) (A) (A)
                 (A) (A) (A) (A) (A) (A) (A) (A) (A) (A) (A) (A)
                 (A)
 Beta  Orbitals:
       Occupied  (A) (A) (A) (A) (A) (A) (A) (A) (A) (A) (A) (A)
                 (A) (A) (A) (A) (A) (A) (A) (A) (A) (A) (A) (A)
                 (A) (A) (A) (A) (A) (A)
       Virtual   (A) (A) (A) (A) (A) (A) (A) (A) (A) (A) (A) (A)
                 (A) (A) (A) (A) (A) (A) (A) (A) (A) (A) (A) (A)
                 (A) (A) (A) (A) (A) (A) (A) (A) (A) (A) (A) (A)
                 (A) (A) (A) (A) (A) (A) (A) (A) (A) (A) (A) (A)
                 (A) (A) (A) (A) (A) (A) (A) (A) (A) (A) (A) (A)
                 (A) (A) (A) (A) (A) (A) (A) (A) (A) (A) (A) (A)
                 (A) (A) (A) (A) (A) (A) (A) (A) (A) (A) (A) (A)
                 (A) (A) (A) (A) (A) (A) (A) (A) (A) (A) (A) (A)
                 (A) (A) (A) (A) (A) (A) (A) (A) (A) (A) (A) (A)
                 (A) (A) (A) (A) (A) (A) (A) (A) (A) (A) (A) (A)
                 (A) (A) (A) (A) (A) (A) (A) (A) (A) (A) (A) (A)
                 (A) (A) (A) (A) (A) (A) (A) (A) (A) (A) (A) (A)
                 (A) (A) (A) (A) (A) (A) (A) (A) (A) (A) (A) (A)
                 (A) (A) (A) (A) (A) (A) (A) (A) (A) (A) (A) (A)
                 (A) (A) (A) (A) (A) (A) (A) (A) (A) (A) (A) (A)
                 (A) (A) (A) (A) (A) (A) (A) (A) (A) (A) (A) (A)
                 (A) (A)
 The electronic state is 2-A.
 Alpha  occ. eigenvalues --  -20.63024 -20.61096 -20.55730 -11.41530 -11.29523
 Alpha  occ. eigenvalues --  -11.26715 -11.25843 -11.22492  -1.48091  -1.38554
 Alpha  occ. eigenvalues --   -1.37809  -1.07739  -1.04084  -0.92547  -0.83724
 Alpha  occ. eigenvalues --   -0.76319  -0.73015  -0.69558  -0.67848  -0.66819
 Alpha  occ. eigenvalues --   -0.65328  -0.62974  -0.58188  -0.55722  -0.54131
 Alpha  occ. eigenvalues --   -0.53960  -0.50353  -0.47921  -0.46129  -0.42751
 Alpha  occ. eigenvalues --   -0.42198
 Alpha virt. eigenvalues --    0.03742   0.04556   0.05788   0.06596   0.07018
 Alpha virt. eigenvalues --    0.08297   0.09379   0.09676   0.11074   0.12517
 Alpha virt. eigenvalues --    0.13493   0.13842   0.14647   0.15750   0.16439
 Alpha virt. eigenvalues --    0.17410   0.18146   0.18426   0.18907   0.19770
 Alpha virt. eigenvalues --    0.20602   0.21239   0.22109   0.22573   0.23461
 Alpha virt. eigenvalues --    0.25053   0.25932   0.26885   0.28167   0.29390
 Alpha virt. eigenvalues --    0.30048   0.31667   0.33260   0.33644   0.34453
 Alpha virt. eigenvalues --    0.34878   0.36018   0.37778   0.38692   0.39224
 Alpha virt. eigenvalues --    0.39814   0.42170   0.43105   0.44134   0.46051
 Alpha virt. eigenvalues --    0.46337   0.47279   0.48474   0.48642   0.50712
 Alpha virt. eigenvalues --    0.54527   0.57924   0.59590   0.60804   0.62363
 Alpha virt. eigenvalues --    0.65962   0.68884   0.69725   0.72462   0.74917
 Alpha virt. eigenvalues --    0.75111   0.79293   0.80287   0.83457   0.85082
 Alpha virt. eigenvalues --    0.86974   0.87914   0.88287   0.88804   0.90096
 Alpha virt. eigenvalues --    0.91981   0.93635   0.94524   0.98070   1.00247
 Alpha virt. eigenvalues --    1.06427   1.07779   1.13058   1.19591   1.21000
 Alpha virt. eigenvalues --    1.23048   1.24833   1.25657   1.30313   1.31443
 Alpha virt. eigenvalues --    1.36785   1.37952   1.39252   1.40386   1.43869
 Alpha virt. eigenvalues --    1.45152   1.47295   1.49305   1.53231   1.56170
 Alpha virt. eigenvalues --    1.56778   1.57838   1.60351   1.61960   1.63238
 Alpha virt. eigenvalues --    1.68142   1.72269   1.73679   1.77422   1.80666
 Alpha virt. eigenvalues --    1.81866   1.83462   1.84719   1.88236   1.90469
 Alpha virt. eigenvalues --    1.91543   1.93985   1.95577   1.97782   2.00659
 Alpha virt. eigenvalues --    2.06160   2.08937   2.11256   2.12118   2.18349
 Alpha virt. eigenvalues --    2.23689   2.26107   2.30168   2.33115   2.33448
 Alpha virt. eigenvalues --    2.38135   2.41782   2.49409   2.60480   2.64283
 Alpha virt. eigenvalues --    2.71718   2.78238   2.80004   2.82736   2.84676
 Alpha virt. eigenvalues --    2.85817   2.91592   2.92256   2.93651   2.95010
 Alpha virt. eigenvalues --    2.96947   3.01144   3.05260   3.06826   3.11193
 Alpha virt. eigenvalues --    3.11831   3.15776   3.17786   3.23051   3.24860
 Alpha virt. eigenvalues --    3.27998   3.32714   3.35514   3.36871   3.40113
 Alpha virt. eigenvalues --    3.45063   3.46232   3.48053   3.49374   3.58961
 Alpha virt. eigenvalues --    3.60848   3.65550   3.70243   3.72976   3.79886
 Alpha virt. eigenvalues --    3.93143   4.02071   4.13913   4.21402   4.22175
 Alpha virt. eigenvalues --    4.22730   4.28149   4.41414   4.51704   4.58382
 Alpha virt. eigenvalues --    4.67343   5.50099   5.54001   5.60124   5.66597
 Alpha virt. eigenvalues --    5.78385   5.92619   6.00358   6.21986   6.43466
 Alpha virt. eigenvalues --   24.70016  25.01333  25.02048  25.14670  26.27632
 Alpha virt. eigenvalues --   51.50150  51.60706  51.72137
  Beta  occ. eigenvalues --  -20.61102 -20.58918 -20.55978 -11.41347 -11.29523
  Beta  occ. eigenvalues --  -11.26710 -11.25669 -11.22493  -1.48198  -1.38210
  Beta  occ. eigenvalues --   -1.23098  -1.07766  -1.03701  -0.92120  -0.83554
  Beta  occ. eigenvalues --   -0.76265  -0.72539  -0.69608  -0.66602  -0.63348
  Beta  occ. eigenvalues --   -0.63009  -0.58400  -0.55221  -0.54037  -0.50742
  Beta  occ. eigenvalues --   -0.50023  -0.48437  -0.46730  -0.42918  -0.42312
  Beta virt. eigenvalues --    0.03797   0.04560   0.05087   0.06521   0.06992
  Beta virt. eigenvalues --    0.08207   0.09174   0.09562   0.10236   0.11306
  Beta virt. eigenvalues --    0.13088   0.13504   0.13974   0.14799   0.16441
  Beta virt. eigenvalues --    0.16558   0.17910   0.18182   0.18602   0.18928
  Beta virt. eigenvalues --    0.20056   0.20666   0.21311   0.22229   0.22599
  Beta virt. eigenvalues --    0.23560   0.25412   0.26081   0.27529   0.28296
  Beta virt. eigenvalues --    0.29908   0.30638   0.31632   0.33641   0.33852
  Beta virt. eigenvalues --    0.34504   0.35418   0.37598   0.38286   0.39069
  Beta virt. eigenvalues --    0.39183   0.39848   0.42263   0.43000   0.44096
  Beta virt. eigenvalues --    0.46099   0.46323   0.47703   0.48490   0.49221
  Beta virt. eigenvalues --    0.50829   0.54475   0.57944   0.59763   0.60955
  Beta virt. eigenvalues --    0.62332   0.65978   0.69164   0.70281   0.73547
  Beta virt. eigenvalues --    0.75555   0.76481   0.79851   0.80711   0.83631
  Beta virt. eigenvalues --    0.85166   0.86625   0.88065   0.88407   0.89000
  Beta virt. eigenvalues --    0.89853   0.91794   0.93752   0.94451   0.98029
  Beta virt. eigenvalues --    1.00888   1.06566   1.08401   1.13097   1.19654
  Beta virt. eigenvalues --    1.21348   1.23946   1.26192   1.30260   1.30986
  Beta virt. eigenvalues --    1.32245   1.36989   1.38437   1.40547   1.40881
  Beta virt. eigenvalues --    1.43843   1.45799   1.48676   1.50110   1.53856
  Beta virt. eigenvalues --    1.56363   1.57378   1.59811   1.60829   1.63098
  Beta virt. eigenvalues --    1.64132   1.68938   1.72704   1.73977   1.78547
  Beta virt. eigenvalues --    1.80687   1.81882   1.83496   1.84762   1.88195
  Beta virt. eigenvalues --    1.90249   1.91606   1.94374   1.95709   1.97916
  Beta virt. eigenvalues --    2.00872   2.06137   2.09071   2.11296   2.12200
  Beta virt. eigenvalues --    2.18323   2.23961   2.26280   2.30310   2.33469
  Beta virt. eigenvalues --    2.34970   2.38203   2.41797   2.49423   2.60491
  Beta virt. eigenvalues --    2.64288   2.72012   2.78208   2.79932   2.82743
  Beta virt. eigenvalues --    2.84679   2.85851   2.91663   2.92445   2.94017
  Beta virt. eigenvalues --    2.95111   2.97027   3.01654   3.05289   3.07742
  Beta virt. eigenvalues --    3.11409   3.15401   3.17384   3.24521   3.25911
  Beta virt. eigenvalues --    3.27631   3.29374   3.33268   3.37332   3.38545
  Beta virt. eigenvalues --    3.39920   3.46294   3.48996   3.50226   3.53085
  Beta virt. eigenvalues --    3.59742   3.61436   3.65558   3.70409   3.72921
  Beta virt. eigenvalues --    3.79549   3.93549   4.01993   4.13828   4.21413
  Beta virt. eigenvalues --    4.22723   4.25753   4.28128   4.41411   4.51629
  Beta virt. eigenvalues --    4.58376   4.67340   5.54198   5.60005   5.65003
  Beta virt. eigenvalues --    5.66328   5.78335   5.92720   6.02843   6.21936
  Beta virt. eigenvalues --    6.43414  24.70007  25.01467  25.02057  25.14671
  Beta virt. eigenvalues --   26.27746  51.52465  51.60738  51.72004
          Condensed to atoms (all electrons):
               1          2          3          4          5          6
     1  O    7.977757   0.272442  -0.010302   0.003371  -0.050164  -0.001270
     2  H    0.272442   0.478163   0.011657  -0.000588   0.010501  -0.005084
     3  C   -0.010302   0.011657   5.677146   0.440268  -0.562269   1.123283
     4  H    0.003371  -0.000588   0.440268   0.404165  -0.095073   0.029845
     5  C   -0.050164   0.010501  -0.562269  -0.095073   9.275127  -3.427613
     6  C   -0.001270  -0.005084   1.123283   0.029845  -3.427613   8.693592
     7  O   -0.008599  -0.001064  -0.075780  -0.002849   0.132223   0.348769
     8  O   -0.010796  -0.000576  -0.066903  -0.004301  -0.232236   0.195471
     9  C   -0.008199   0.001647   0.043910   0.001100  -0.264170   0.042719
    10  C    0.004007  -0.000997  -0.009934  -0.000632  -0.009955  -0.048117
    11  H    0.000330   0.000103   0.003317   0.000117  -0.010742   0.012127
    12  H   -0.000589  -0.000261  -0.004263  -0.000325   0.002640  -0.019595
    13  H   -0.000007   0.000001  -0.000567  -0.000001   0.001519  -0.002019
    14  H    0.000108   0.000022  -0.001064  -0.000070   0.004821  -0.008193
    15  H   -0.000060   0.000035   0.003420  -0.000049  -0.028843   0.010423
               7          8          9         10         11         12
     1  O   -0.008599  -0.010796  -0.008199   0.004007   0.000330  -0.000589
     2  H   -0.001064  -0.000576   0.001647  -0.000997   0.000103  -0.000261
     3  C   -0.075780  -0.066903   0.043910  -0.009934   0.003317  -0.004263
     4  H   -0.002849  -0.004301   0.001100  -0.000632   0.000117  -0.000325
     5  C    0.132223  -0.232236  -0.264170  -0.009955  -0.010742   0.002640
     6  C    0.348769   0.195471   0.042719  -0.048117   0.012127  -0.019595
     7  O    8.039400  -0.113283   0.039320  -0.068627   0.002870  -0.018779
     8  O   -0.113283   8.248213   0.187496  -0.087627  -0.078033  -0.010859
     9  C    0.039320   0.187496   5.425598  -0.071324   0.435316   0.430661
    10  C   -0.068627  -0.087627  -0.071324   5.517035  -0.050991  -0.032071
    11  H    0.002870  -0.078033   0.435316  -0.050991   0.551584  -0.033521
    12  H   -0.018779  -0.010859   0.430661  -0.032071  -0.033521   0.510737
    13  H   -0.001565   0.015382  -0.043827   0.406378  -0.000627  -0.002113
    14  H    0.004079  -0.004697  -0.028577   0.417865  -0.005971  -0.001794
    15  H   -0.004593  -0.008421  -0.036488   0.413570   0.007033  -0.002231
              13         14         15
     1  O   -0.000007   0.000108  -0.000060
     2  H    0.000001   0.000022   0.000035
     3  C   -0.000567  -0.001064   0.003420
     4  H   -0.000001  -0.000070  -0.000049
     5  C    0.001519   0.004821  -0.028843
     6  C   -0.002019  -0.008193   0.010423
     7  O   -0.001565   0.004079  -0.004593
     8  O    0.015382  -0.004697  -0.008421
     9  C   -0.043827  -0.028577  -0.036488
    10  C    0.406378   0.417865   0.413570
    11  H   -0.000627  -0.005971   0.007033
    12  H   -0.002113  -0.001794  -0.002231
    13  H    0.560519  -0.029809  -0.034675
    14  H   -0.029809   0.555286  -0.047888
    15  H   -0.034675  -0.047888   0.550365
          Atomic-Atomic Spin Densities.
               1          2          3          4          5          6
     1  O    1.029990   0.009374  -0.035491  -0.001517   0.033564  -0.035510
     2  H    0.009374  -0.048820   0.003028   0.000089  -0.009577   0.005631
     3  C   -0.035491   0.003028   0.494454  -0.008797   0.057897  -0.029945
     4  H   -0.001517   0.000089  -0.008797  -0.029961   0.009766  -0.003359
     5  C    0.033564  -0.009577   0.057897   0.009766  -0.638519   0.108938
     6  C   -0.035510   0.005631  -0.029945  -0.003359   0.108938   0.029868
     7  O    0.000715  -0.000028   0.001779   0.000079   0.000097   0.011115
     8  O   -0.000317   0.000350  -0.002423  -0.000191   0.024918  -0.023003
     9  C   -0.004013   0.000716  -0.001237   0.000030   0.005478  -0.011884
    10  C   -0.000258  -0.000050   0.001306  -0.000002  -0.005449   0.008895
    11  H   -0.000453   0.000039  -0.000419  -0.000024   0.002833  -0.001687
    12  H    0.000409  -0.000049   0.000091   0.000007  -0.000075   0.000620
    13  H   -0.000056   0.000016   0.000011  -0.000002  -0.000458   0.000284
    14  H    0.000122  -0.000023   0.000229   0.000016  -0.000244   0.000124
    15  H   -0.000195   0.000029  -0.000705  -0.000032   0.003053  -0.002376
               7          8          9         10         11         12
     1  O    0.000715  -0.000317  -0.004013  -0.000258  -0.000453   0.000409
     2  H   -0.000028   0.000350   0.000716  -0.000050   0.000039  -0.000049
     3  C    0.001779  -0.002423  -0.001237   0.001306  -0.000419   0.000091
     4  H    0.000079  -0.000191   0.000030  -0.000002  -0.000024   0.000007
     5  C    0.000097   0.024918   0.005478  -0.005449   0.002833  -0.000075
     6  C    0.011115  -0.023003  -0.011884   0.008895  -0.001687   0.000620
     7  O   -0.068162  -0.000649   0.004409  -0.000613   0.000285  -0.000266
     8  O   -0.000649   0.005286  -0.003939   0.000782   0.000196   0.000257
     9  C    0.004409  -0.003939   0.016470  -0.005339  -0.001059  -0.001832
    10  C   -0.000613   0.000782  -0.005339  -0.001777   0.000534   0.000819
    11  H    0.000285   0.000196  -0.001059   0.000534  -0.000645   0.000157
    12  H   -0.000266   0.000257  -0.001832   0.000819   0.000157   0.000258
    13  H    0.000227  -0.000331   0.001905  -0.001871   0.000017  -0.000096
    14  H   -0.000304   0.000047  -0.000878   0.001379   0.000063  -0.000034
    15  H    0.000229  -0.000058  -0.000602   0.000977  -0.000223   0.000013
              13         14         15
     1  O   -0.000056   0.000122  -0.000195
     2  H    0.000016  -0.000023   0.000029
     3  C    0.000011   0.000229  -0.000705
     4  H   -0.000002   0.000016  -0.000032
     5  C   -0.000458  -0.000244   0.003053
     6  C    0.000284   0.000124  -0.002376
     7  O    0.000227  -0.000304   0.000229
     8  O   -0.000331   0.000047  -0.000058
     9  C    0.001905  -0.000878  -0.000602
    10  C   -0.001871   0.001379   0.000977
    11  H    0.000017   0.000063  -0.000223
    12  H   -0.000096  -0.000034   0.000013
    13  H   -0.000029   0.000101   0.000237
    14  H    0.000101  -0.000330  -0.000147
    15  H    0.000237  -0.000147  -0.000473
 Mulliken charges and spin densities:
               1          2
     1  O   -0.168030   0.996363
     2  H    0.233998  -0.039276
     3  C   -0.571917   0.479778
     4  H    0.225024  -0.033897
     5  C    1.254233  -0.407778
     6  C   -0.944339   0.057714
     7  O   -0.271523  -0.051087
     8  O   -0.028832   0.000926
     9  C   -0.155182  -0.001776
    10  C   -0.378579  -0.000667
    11  H    0.167089  -0.000386
    12  H    0.182362   0.000280
    13  H    0.131411  -0.000044
    14  H    0.145883   0.000122
    15  H    0.178401  -0.000273
 Sum of Mulliken charges =  -0.00000   1.00000
 Mulliken charges and spin densities with hydrogens summed into heavy atoms:
               1          2
     1  O    0.065968   0.957087
     3  C   -0.346893   0.445881
     5  C    1.254233  -0.407778
     6  C   -0.944339   0.057714
     7  O   -0.271523  -0.051087
     8  O   -0.028832   0.000926
     9  C    0.194269  -0.001882
    10  C    0.077116  -0.000862
 Electronic spatial extent (au):  <R**2>=           1148.7285
 Charge=             -0.0000 electrons
 Dipole moment (field-independent basis, Debye):
    X=              0.5912    Y=             -0.2264    Z=             -0.7190  Tot=              0.9579
 Quadrupole moment (field-independent basis, Debye-Ang):
   XX=            -31.0062   YY=            -46.3969   ZZ=            -52.6904
   XY=             -4.4319   XZ=              2.8548   YZ=              3.9970
 Traceless Quadrupole moment (field-independent basis, Debye-Ang):
   XX=             12.3583   YY=             -3.0324   ZZ=             -9.3259
   XY=             -4.4319   XZ=              2.8548   YZ=              3.9970
 Octapole moment (field-independent basis, Debye-Ang**2):
  XXX=             34.9342  YYY=              8.2253  ZZZ=             -3.8973  XYY=              4.0320
  XXY=             -4.2016  XXZ=              2.8568  XZZ=              2.6645  YZZ=              5.4743
  YYZ=              1.3301  XYZ=             11.3762
 Hexadecapole moment (field-independent basis, Debye-Ang**3):
 XXXX=           -887.8871 YYYY=           -251.7524 ZZZZ=           -185.1444 XXXY=            -36.2509
 XXXZ=              6.5064 YYYX=              4.7591 YYYZ=              5.5012 ZZZX=              8.3688
 ZZZY=              1.9110 XXYY=           -190.3163 XXZZ=           -196.9375 YYZZ=            -67.4133
 XXYZ=             33.8906 YYXZ=              1.6534 ZZXY=              4.0624
 N-N= 3.557264745225D+02 E-N=-1.694625054399D+03  KE= 4.176907656219D+02
 1\1\GINC-CHEM-LAB-HP-Z2-TOWER-G9-WORKSTATION-DESKTOP-PC\SP\UCCSD(T)-FC
 \6-311++G(d,p)\C5H7O3(2)\CHEM-LAB\05-Aug-2025\0\\# ccsd(t)/6-311++g(d,
 p) sp\\Title Card Required\\0,2\O,0,2.231333,1.47397,-0.047126\H,0,2.8
 30854,1.249288,0.683965\C,0,2.45642,-1.226437,-0.519422\H,0,3.366342,-
 1.66882,-0.851996\C,0,1.42922,-0.716732,-0.162246\C,0,0.146378,-0.2176
 19,0.329745\O,0,-0.179145,-0.281135,1.482666\O,0,-0.592218,0.265307,-0
 .662304\C,0,-1.918914,0.704985,-0.307274\C,0,-2.862775,-0.476143,-0.18
 3882\H,0,-2.204825,1.367018,-1.122378\H,0,-1.862517,1.273538,0.621399\
 H,0,-3.874854,-0.117264,0.012875\H,0,-2.874199,-1.052123,-1.110413\H,0
 ,-2.562528,-1.125093,0.639131\\Version=ES64L-G16RevA.03\State=2-A\HF=-
 417.9921364\MP2=-419.2533411\MP3=-419.2807055\MP4D=-419.3114788\MP4DQ=
 -419.2863721\PUHF=-417.9988425\PMP2-0=-419.2590291\PMP3-0=-419.2847311
 \MP4SDQ=-419.3049385\CCSD=-419.3048587\CCSD(T)=-419.3572656\S2=0.81551
 4\S2-1=0.795147\S2A=0.752641\RMSD=9.534e-09\PG=C01 [X(C5H7O3)]\\@


 IF IT HAPPENS, IT MUST BE POSSIBLE.

 -- THE UNNAMED LAW FROM PAUL DICKSON'S 
    "THE OFFICIAL RULES"
 Job cpu time:       1 days  1 hours 31 minutes 12.1 seconds.
 Elapsed time:       0 days  1 hours  3 minutes 48.7 seconds.
 File lengths (MBytes):  RWF=  44258 Int=      0 D2E=      0 Chk=      6 Scr=      1
 Normal termination of Gaussian 16 at Tue Aug  5 16:20:01 2025.
