 Entering Gaussian System, Link 0=g16
 Initial command:
 /opt/g16/l1.exe "/home/aayush/scratches/g16/Gau-90892.inp" -scrdir="/home/aayush/scratches/g16/"
 Entering Link 1 = /opt/g16/l1.exe PID=     90895.
  
 Copyright (c) 1988,1990,1992,1993,1995,1998,2003,2009,2016,
            Gaussian, Inc.  All Rights Reserved.
  
 This is part of the Gaussian(R) 16 program.  It is based on
 the Gaussian(R) 09 system (copyright 2009, Gaussian, Inc.),
 the Gaussian(R) 03 system (copyright 2003, Gaussian, Inc.),
 the Gaussian(R) 98 system (copyright 1998, Gaussian, Inc.),
 the Gaussian(R) 94 system (copyright 1995, Gaussian, Inc.),
 the Gaussian 92(TM) system (copyright 1992, Gaussian, Inc.),
 the Gaussian 90(TM) system (copyright 1990, Gaussian, Inc.),
 the Gaussian 88(TM) system (copyright 1988, Gaussian, Inc.),
 the Gaussian 86(TM) system (copyright 1986, Carnegie Mellon
 University), and the Gaussian 82(TM) system (copyright 1983,
 Carnegie Mellon University). Gaussian is a federally registered
 trademark of Gaussian, Inc.
  
 This software contains proprietary and confidential information,
 including trade secrets, belonging to Gaussian, Inc.
  
 This software is provided under written license and may be
 used, copied, transmitted, or stored only in accord with that
 written license.
  
 The following legend is applicable only to US Government
 contracts under FAR:
  
                    RESTRICTED RIGHTS LEGEND
  
 Use, reproduction and disclosure by the US Government is
 subject to restrictions as set forth in subparagraphs (a)
 and (c) of the Commercial Computer Software - Restricted
 Rights clause in FAR 52.227-19.
  
 Gaussian, Inc.
 340 Quinnipiac St., Bldg. 40, Wallingford CT 06492
  
  
 ---------------------------------------------------------------
 Warning -- This program may not be used in any manner that
 competes with the business of Gaussian, Inc. or will provide
 assistance to any competitor of Gaussian, Inc.  The licensee
 of this program is prohibited from giving any competitor of
 Gaussian, Inc. access to this program.  By using this program,
 the user acknowledges that Gaussian, Inc. is engaged in the
 business of creating and licensing software in the field of
 computational chemistry and represents and warrants to the
 licensee that it is not a competitor of Gaussian, Inc. and that
 it will not use this program in any manner prohibited above.
 ---------------------------------------------------------------
  

 Cite this work as:
 Gaussian 16, Revision A.03,
 M. J. Frisch, G. W. Trucks, H. B. Schlegel, G. E. Scuseria, 
 M. A. Robb, J. R. Cheeseman, G. Scalmani, V. Barone, 
 G. A. Petersson, H. Nakatsuji, X. Li, M. Caricato, A. V. Marenich, 
 J. Bloino, B. G. Janesko, R. Gomperts, B. Mennucci, H. P. Hratchian, 
 J. V. Ortiz, A. F. Izmaylov, J. L. Sonnenberg, D. Williams-Young, 
 F. Ding, F. Lipparini, F. Egidi, J. Goings, B. Peng, A. Petrone, 
 T. Henderson, D. Ranasinghe, V. G. Zakrzewski, J. Gao, N. Rega, 
 G. Zheng, W. Liang, M. Hada, M. Ehara, K. Toyota, R. Fukuda, 
 J. Hasegawa, M. Ishida, T. Nakajima, Y. Honda, O. Kitao, H. Nakai, 
 T. Vreven, K. Throssell, J. A. Montgomery, Jr., J. E. Peralta, 
 F. Ogliaro, M. J. Bearpark, J. J. Heyd, E. N. Brothers, K. N. Kudin, 
 V. N. Staroverov, T. A. Keith, R. Kobayashi, J. Normand, 
 K. Raghavachari, A. P. Rendell, J. C. Burant, S. S. Iyengar, 
 J. Tomasi, M. Cossi, J. M. Millam, M. Klene, C. Adamo, R. Cammi, 
 J. W. Ochterski, R. L. Martin, K. Morokuma, O. Farkas, 
 J. B. Foresman, and D. J. Fox, Gaussian, Inc., Wallingford CT, 2016.
 
 ******************************************
 Gaussian 16:  ES64L-G16RevA.03 25-Dec-2016
                20-Jun-2025 
 ******************************************
 %nprocshared=24
 Will use up to   24 processors via shared memory.
 %mem=12GB
 %chk=ethyl_propiolate_ts1.chk
 -------------------
 # freq 6-31+g m062x
 -------------------
 1/10=4,30=1,38=1/1,3;
 2/12=2,17=6,18=5,40=1/2;
 3/5=1,6=6,7=10,11=2,25=1,30=1,71=2,74=-55,140=1/1,2,3;
 4//1;
 5/5=2,38=5,98=1/2;
 8/6=4,10=90,11=11/1;
 11/6=1,8=1,9=11,15=111,16=1/1,2,10;
 10/6=1/2;
 6/7=2,8=2,9=2,10=2,28=1/1;
 7/8=1,10=1,25=1/1,2,3,16;
 1/10=4,30=1/3;
 99//99;
 -------------------
 Title Card Required
 -------------------
 Symbolic Z-matrix:
 Charge =  0 Multiplicity = 2
 O                     2.10096   1.34317  -0.02082 
 H                     2.75135   1.2075    0.68508 
 C                     2.3892   -1.18171  -0.56502 
 H                     3.2616   -1.67916  -0.92128 
 C                     1.45522  -0.50036  -0.17541 
 C                     0.09984  -0.19141   0.31673 
 O                    -0.23473  -0.351     1.45575 
 O                    -0.656     0.28344  -0.66295 
 C                    -1.98934   0.69226  -0.29305 
 C                    -2.92228  -0.49938  -0.20907 
 H                    -2.28237   1.38006  -1.08399 
 H                    -1.93632   1.2287    0.65494 
 H                    -3.93675  -0.15481   0.00075 
 H                    -2.93134  -1.04345  -1.15476 
 H                    -2.61523  -1.17323   0.59092 
 

 GradGradGradGradGradGradGradGradGradGradGradGradGradGradGradGradGradGrad
 Berny optimization.
 Initialization pass.
 Trust Radius=3.00D-01 FncErr=1.00D-07 GrdErr=1.00D-07 EigMax=2.50D+02 EigMin=1.00D-04
 Number of steps in this run=      2 maximum allowed number of steps=      2.
 GradGradGradGradGradGradGradGradGradGradGradGradGradGradGradGradGradGrad

                          Input orientation:                          
 ---------------------------------------------------------------------
 Center     Atomic      Atomic             Coordinates (Angstroms)
 Number     Number       Type             X           Y           Z
 ---------------------------------------------------------------------
      1          8           0        2.100956    1.343171   -0.020817
      2          1           0        2.751350    1.207499    0.685078
      3          6           0        2.389197   -1.181705   -0.565016
      4          1           0        3.261603   -1.679164   -0.921280
      5          6           0        1.455223   -0.500363   -0.175406
      6          6           0        0.099844   -0.191410    0.316727
      7          8           0       -0.234729   -0.350997    1.455749
      8          8           0       -0.656003    0.283439   -0.662952
      9          6           0       -1.989339    0.692264   -0.293047
     10          6           0       -2.922276   -0.499377   -0.209074
     11          1           0       -2.282367    1.380062   -1.083990
     12          1           0       -1.936324    1.228698    0.654941
     13          1           0       -3.936749   -0.154809    0.000746
     14          1           0       -2.931341   -1.043453   -1.154757
     15          1           0       -2.615225   -1.173233    0.590916
 ---------------------------------------------------------------------
                    Distance matrix (angstroms):
                    1          2          3          4          5
     1  O    0.000000
     2  H    0.969385   0.000000
     3  C    2.598891   2.720696   0.000000
     4  H    3.360423   3.342689   1.065590   0.000000
     5  C    1.959461   2.310232   1.219971   2.282303   0.000000
     6  C    2.544273   3.020449   2.645618   3.707127   1.474686
     7  O    3.241277   3.455360   3.414463   4.431550   2.353490
     8  O    3.022613   3.779038   3.380752   4.389326   2.304197
     9  C    4.150699   4.867887   4.770462   5.795752   3.647082
    10  C    5.353810   5.991908   5.366937   6.335574   4.377629
    11  H    4.510567   5.338322   5.353083   6.334109   4.281484
    12  H    4.095044   4.687819   5.099850   6.161053   3.896373
    13  H    6.220795   6.859655   6.433677   7.415528   5.405904
    14  H    5.683820   6.383162   5.354907   6.229863   4.527253
    15  H    5.380415   5.871702   5.136194   6.089319   4.196254
                    6          7          8          9         10
     6  C    0.000000
     7  O    1.197822   0.000000
     8  O    1.325352   2.251416   0.000000
     9  C    2.348912   2.687999   1.442828   0.000000
    10  C    3.082940   3.164895   2.440246   1.515728   0.000000
    11  H    3.179066   3.693191   2.006219   1.088358   2.169620
    12  H    2.505409   2.456045   2.066296   1.090529   2.169070
    13  H    4.049107   3.982521   3.375774   2.143887   1.091745
    14  H    3.475532   3.816537   2.679492   2.154675   1.091062
    15  H    2.900130   2.662850   2.744564   2.157128   1.090113
                   11         12         13         14         15
    11  H    0.000000
    12  H    1.779477   0.000000
    13  H    2.503889   2.518683   0.000000
    14  H    2.509900   3.070462   1.770797   0.000000
    15  H    3.071713   2.496854   1.769721   1.778805   0.000000
 Stoichiometry    C5H7O3(2)
 Framework group  C1[X(C5H7O3)]
 Deg. of freedom    39
 Full point group                 C1      NOp   1
 Largest Abelian subgroup         C1      NOp   1
 Largest concise Abelian subgroup C1      NOp   1
                         Standard orientation:                         
 ---------------------------------------------------------------------
 Center     Atomic      Atomic             Coordinates (Angstroms)
 Number     Number       Type             X           Y           Z
 ---------------------------------------------------------------------
      1          8           0        2.162400    1.346721   -0.006119
      2          1           0        2.812908    1.209050    0.699284
      3          6           0        2.452579   -1.175989   -0.559261
      4          1           0        3.325363   -1.671511   -0.917294
      5          6           0        1.518086   -0.496751   -0.167230
      6          6           0        0.162476   -0.190588    0.326009
      7          8           0       -0.171959   -0.354466    1.464462
      8          8           0       -0.593750    0.287146   -0.651974
      9          6           0       -1.927396    0.693631   -0.280608
     10          6           0       -2.859413   -0.499019   -0.200847
     11          1           0       -2.220964    1.384000   -1.069107
     12          1           0       -1.874781    1.226744    0.669273
     13          1           0       -3.874148   -0.155978    0.010204
     14          1           0       -2.868072   -1.039749   -1.148451
     15          1           0       -2.551832   -1.175467    0.596748
 ---------------------------------------------------------------------
 Rotational constants (GHZ):           4.0809454           1.1666654           1.1168387
 Standard basis: 6-31+G (6D, 7F)
 There are   118 symmetry adapted cartesian basis functions of A   symmetry.
 There are   118 symmetry adapted basis functions of A   symmetry.
   118 basis functions,   236 primitive gaussians,   118 cartesian basis functions
    31 alpha electrons       30 beta electrons
       nuclear repulsion energy       359.8225708198 Hartrees.
 NAtoms=   15 NActive=   15 NUniq=   15 SFac= 1.00D+00 NAtFMM=   60 NAOKFM=F Big=F
 Integral buffers will be    131072 words long.
 Raffenetti 2 integral format.
 Two-electron integral symmetry is turned on.
 One-electron integrals computed using PRISM.
 NBasis=   118 RedAO= T EigKep=  5.05D-06  NBF=   118
 NBsUse=   118 1.00D-06 EigRej= -1.00D+00 NBFU=   118
 ExpMin= 4.38D-02 ExpMax= 5.48D+03 ExpMxC= 8.25D+02 IAcc=3 IRadAn=         5 AccDes= 0.00D+00
 Harris functional with IExCor= 1009 and IRadAn=       5 diagonalized for initial guess.
 HarFok:  IExCor= 1009 AccDes= 0.00D+00 IRadAn=         5 IDoV= 1 UseB2=F ITyADJ=14
 ICtDFT=  3500011 ScaDFX=  1.000000  1.000000  1.000000  1.000000
 FoFCou: FMM=F IPFlag=           0 FMFlag=      100000 FMFlg1=           0
         NFxFlg=           0 DoJE=T BraDBF=F KetDBF=T FulRan=T
         wScrn=  0.000000 ICntrl=       500 IOpCl=  0 I1Cent=   200000004 NGrid=           0
         NMat0=    1 NMatS0=      1 NMatT0=    0 NMatD0=    1 NMtDS0=    0 NMtDT0=    0
 Petite list used in FoFCou.
 Initial guess <Sx>= 0.0000 <Sy>= 0.0000 <Sz>= 0.5000 <S**2>= 0.7500 S= 0.5000
 Requested convergence on RMS density matrix=1.00D-08 within 128 cycles.
 Requested convergence on MAX density matrix=1.00D-06.
 Requested convergence on             energy=1.00D-06.
 No special actions if energy rises.
 Restarting incremental Fock formation.
 SCF Done:  E(UM062X) =  -419.952628517     A.U. after   22 cycles
            NFock= 22  Conv=0.73D-08     -V/T= 2.0051
 <Sx>= 0.0000 <Sy>= 0.0000 <Sz>= 0.5000 <S**2>= 0.7779 S= 0.5139
 <L.S>=  0.00000000000    
 Annihilation of the first spin contaminant:
 S**2 before annihilation     0.7779,   after     0.7503
 DoSCS=F DFT=T ScalE2(SS,OS)=  1.000000  1.000000
 Range of M.O.s used for correlation:     1   118
 NBasis=   118 NAE=    31 NBE=    30 NFC=     0 NFV=     0
 NROrb=    118 NOA=    31 NOB=    30 NVA=    87 NVB=    88

 **** Warning!!: The largest alpha MO coefficient is  0.10622628D+03


 **** Warning!!: The largest beta MO coefficient is  0.12793713D+03

 Symmetrizing basis deriv contribution to polar:
 IMax=3 JMax=2 DiffMx= 0.00D+00
 G2DrvN: will do    16 centers at a time, making    1 passes.
 Calling FoFCou, ICntrl=  3107 FMM=F I1Cent=   0 AccDes= 0.00D+00.
 End of G2Drv F.D. properties file   721 does not exist.
 End of G2Drv F.D. properties file   722 does not exist.
 End of G2Drv F.D. properties file   788 does not exist.
          IDoAtm=111111111111111
          Differentiating once with respect to electric field.
                with respect to dipole field.
          Differentiating once with respect to nuclear coordinates.
 Keep R1 and R2 ints in memory in canonical form, NReq=71861356.
          There are    48 degrees of freedom in the 1st order CPHF.  IDoFFX=6 NUNeed=     3.
     45 vectors produced by pass  0 Test12= 1.11D-14 2.08D-09 XBig12= 8.55D+01 4.81D+00.
 AX will form    45 AO Fock derivatives at one time.
     45 vectors produced by pass  1 Test12= 1.11D-14 2.08D-09 XBig12= 1.03D+01 4.62D-01.
     45 vectors produced by pass  2 Test12= 1.11D-14 2.08D-09 XBig12= 2.71D-01 9.95D-02.
     45 vectors produced by pass  3 Test12= 1.11D-14 2.08D-09 XBig12= 3.06D-03 8.43D-03.
     45 vectors produced by pass  4 Test12= 1.11D-14 2.08D-09 XBig12= 3.39D-05 7.21D-04.
     45 vectors produced by pass  5 Test12= 1.11D-14 2.08D-09 XBig12= 3.16D-07 5.19D-05.
     32 vectors produced by pass  6 Test12= 1.11D-14 2.08D-09 XBig12= 2.00D-09 4.58D-06.
     13 vectors produced by pass  7 Test12= 1.11D-14 2.08D-09 XBig12= 1.02D-11 2.98D-07.
      3 vectors produced by pass  8 Test12= 1.11D-14 2.08D-09 XBig12= 6.95D-14 2.40D-08.
      1 vectors produced by pass  9 Test12= 1.11D-14 2.08D-09 XBig12= 8.55D-16 3.68D-09.
 InvSVY:  IOpt=1 It=  1 EMax= 3.55D-15
 Solved reduced A of dimension   319 with    48 vectors.
 Isotropic polarizability for W=    0.000000       71.74 Bohr**3.
 End of Minotr F.D. properties file   721 does not exist.
 End of Minotr F.D. properties file   722 does not exist.
 End of Minotr F.D. properties file   788 does not exist.

 **********************************************************************

            Population analysis using the SCF density.

 **********************************************************************

 Orbital symmetries:
 Alpha Orbitals:
       Occupied  (A) (A) (A) (A) (A) (A) (A) (A) (A) (A) (A) (A)
                 (A) (A) (A) (A) (A) (A) (A) (A) (A) (A) (A) (A)
                 (A) (A) (A) (A) (A) (A) (A)
       Virtual   (A) (A) (A) (A) (A) (A) (A) (A) (A) (A) (A) (A)
                 (A) (A) (A) (A) (A) (A) (A) (A) (A) (A) (A) (A)
                 (A) (A) (A) (A) (A) (A) (A) (A) (A) (A) (A) (A)
                 (A) (A) (A) (A) (A) (A) (A) (A) (A) (A) (A) (A)
                 (A) (A) (A) (A) (A) (A) (A) (A) (A) (A) (A) (A)
                 (A) (A) (A) (A) (A) (A) (A) (A) (A) (A) (A) (A)
                 (A) (A) (A) (A) (A) (A) (A) (A) (A) (A) (A) (A)
                 (A) (A) (A)
 Beta  Orbitals:
       Occupied  (A) (A) (A) (A) (A) (A) (A) (A) (A) (A) (A) (A)
                 (A) (A) (A) (A) (A) (A) (A) (A) (A) (A) (A) (A)
                 (A) (A) (A) (A) (A) (A)
       Virtual   (A) (A) (A) (A) (A) (A) (A) (A) (A) (A) (A) (A)
                 (A) (A) (A) (A) (A) (A) (A) (A) (A) (A) (A) (A)
                 (A) (A) (A) (A) (A) (A) (A) (A) (A) (A) (A) (A)
                 (A) (A) (A) (A) (A) (A) (A) (A) (A) (A) (A) (A)
                 (A) (A) (A) (A) (A) (A) (A) (A) (A) (A) (A) (A)
                 (A) (A) (A) (A) (A) (A) (A) (A) (A) (A) (A) (A)
                 (A) (A) (A) (A) (A) (A) (A) (A) (A) (A) (A) (A)
                 (A) (A) (A) (A)
 The electronic state is 2-A.
 Alpha  occ. eigenvalues --  -19.70611 -19.67861 -19.66350 -10.73123 -10.61843
 Alpha  occ. eigenvalues --  -10.61496 -10.60509 -10.54597  -1.28178  -1.18806
 Alpha  occ. eigenvalues --   -1.12653  -0.92069  -0.88441  -0.78750  -0.71601
 Alpha  occ. eigenvalues --   -0.64867  -0.62704  -0.58714  -0.57199  -0.54366
 Alpha  occ. eigenvalues --   -0.53438  -0.50235  -0.48243  -0.46574  -0.45295
 Alpha  occ. eigenvalues --   -0.42114  -0.40565  -0.39852  -0.38186  -0.37013
 Alpha  occ. eigenvalues --   -0.33494
 Alpha virt. eigenvalues --   -0.00765   0.01849   0.02557   0.03248   0.03817
 Alpha virt. eigenvalues --    0.04359   0.05288   0.05853   0.07744   0.08002
 Alpha virt. eigenvalues --    0.08394   0.08975   0.09543   0.11429   0.12124
 Alpha virt. eigenvalues --    0.13222   0.14033   0.15077   0.15770   0.16258
 Alpha virt. eigenvalues --    0.17504   0.18801   0.19418   0.21583   0.21940
 Alpha virt. eigenvalues --    0.23335   0.23826   0.24886   0.25686   0.26834
 Alpha virt. eigenvalues --    0.28176   0.28890   0.30379   0.30455   0.31044
 Alpha virt. eigenvalues --    0.32796   0.33937   0.34072   0.36586   0.37006
 Alpha virt. eigenvalues --    0.38321   0.39242   0.41324   0.42600   0.44240
 Alpha virt. eigenvalues --    0.47021   0.57353   0.58819   0.69844   0.70230
 Alpha virt. eigenvalues --    0.70916   0.71997   0.73979   0.75348   0.77818
 Alpha virt. eigenvalues --    0.80138   0.84094   0.84582   0.88125   0.90220
 Alpha virt. eigenvalues --    0.92961   0.96461   0.98523   1.06784   1.10100
 Alpha virt. eigenvalues --    1.11158   1.13729   1.16023   1.18279   1.20536
 Alpha virt. eigenvalues --    1.22506   1.24800   1.27606   1.28248   1.32219
 Alpha virt. eigenvalues --    1.36640   1.38089   1.40361   1.42055   1.45528
 Alpha virt. eigenvalues --    1.48088   1.51425   1.65567   1.71184   1.84618
 Alpha virt. eigenvalues --    2.01940   2.02309
  Beta  occ. eigenvalues --  -19.70614 -19.66508 -19.66373 -10.73083 -10.61943
  Beta  occ. eigenvalues --  -10.61496 -10.60185 -10.54597  -1.28180  -1.18838
  Beta  occ. eigenvalues --   -1.07678  -0.91387  -0.87971  -0.78501  -0.71303
  Beta  occ. eigenvalues --   -0.64722  -0.62075  -0.58538  -0.57020  -0.54109
  Beta  occ. eigenvalues --   -0.51471  -0.49230  -0.46919  -0.45281  -0.42176
  Beta  occ. eigenvalues --   -0.40079  -0.39538  -0.38303  -0.37808  -0.35830
  Beta virt. eigenvalues --   -0.09976   0.00470   0.01881   0.02651   0.03189
  Beta virt. eigenvalues --    0.03883   0.04395   0.05307   0.05870   0.07765
  Beta virt. eigenvalues --    0.08130   0.08341   0.09006   0.09611   0.11387
  Beta virt. eigenvalues --    0.12258   0.13413   0.14112   0.15466   0.16152
  Beta virt. eigenvalues --    0.16434   0.17503   0.18816   0.19936   0.21544
  Beta virt. eigenvalues --    0.21918   0.23400   0.23790   0.25185   0.25764
  Beta virt. eigenvalues --    0.26873   0.28208   0.29014   0.30408   0.30478
  Beta virt. eigenvalues --    0.30995   0.32896   0.33959   0.34051   0.36523
  Beta virt. eigenvalues --    0.37015   0.38249   0.39257   0.41388   0.42711
  Beta virt. eigenvalues --    0.44290   0.47041   0.57398   0.58924   0.69892
  Beta virt. eigenvalues --    0.70454   0.71405   0.72695   0.74724   0.76326
  Beta virt. eigenvalues --    0.77995   0.80118   0.83826   0.84590   0.88304
  Beta virt. eigenvalues --    0.89876   0.92802   0.96900   0.98593   1.06491
  Beta virt. eigenvalues --    1.10082   1.11245   1.14190   1.17134   1.18811
  Beta virt. eigenvalues --    1.20577   1.22937   1.26200   1.28008   1.29429
  Beta virt. eigenvalues --    1.32678   1.37578   1.38203   1.41844   1.42901
  Beta virt. eigenvalues --    1.45806   1.48145   1.51810   1.66053   1.71196
  Beta virt. eigenvalues --    1.86447   2.01992   2.02389
          Condensed to atoms (all electrons):
               1          2          3          4          5          6
     1  O    8.390010   0.138600  -0.233325  -0.000500   0.496103  -0.322578
     2  H    0.138600   0.440057   0.042753  -0.000205  -0.013618  -0.010836
     3  C   -0.233325   0.042753  19.459468   0.540069  -3.816872  -9.925363
     4  H   -0.000500  -0.000205   0.540069   0.369714  -0.193663  -0.027770
     5  C    0.496103  -0.013618  -3.816872  -0.193663  15.171254  -3.896446
     6  C   -0.322578  -0.010836  -9.925363  -0.027770  -3.896446  19.125448
     7  O   -0.016170  -0.000801   0.129602   0.000013   0.208424  -0.143489
     8  O   -0.001334   0.000132  -0.311946   0.000097  -0.928779   0.695655
     9  C   -0.000240  -0.000147   0.015757   0.000718  -0.241925   0.040674
    10  C    0.002059  -0.000347  -0.135679  -0.000188  -0.248593   0.194790
    11  H    0.000022  -0.000000  -0.000475   0.000000  -0.005447   0.021525
    12  H   -0.000210  -0.000001   0.008615  -0.000000   0.042679  -0.048497
    13  H    0.000002  -0.000000  -0.000167   0.000000   0.001621   0.005712
    14  H    0.000009   0.000000  -0.000449  -0.000000   0.003833   0.002410
    15  H    0.000022   0.000000  -0.001147   0.000000  -0.010255   0.009930
               7          8          9         10         11         12
     1  O   -0.016170  -0.001334  -0.000240   0.002059   0.000022  -0.000210
     2  H   -0.000801   0.000132  -0.000147  -0.000347  -0.000000  -0.000001
     3  C    0.129602  -0.311946   0.015757  -0.135679  -0.000475   0.008615
     4  H    0.000013   0.000097   0.000718  -0.000188   0.000000  -0.000000
     5  C    0.208424  -0.928779  -0.241925  -0.248593  -0.005447   0.042679
     6  C   -0.143489   0.695655   0.040674   0.194790   0.021525  -0.048497
     7  O    8.476212  -0.254821   0.006983  -0.058899  -0.000992   0.001351
     8  O   -0.254821   9.053328  -0.002139   0.047752  -0.070980  -0.034389
     9  C    0.006983  -0.002139   5.856598  -0.135815   0.427134   0.418211
    10  C   -0.058899   0.047752  -0.135815   5.846740  -0.058849  -0.077117
    11  H   -0.000992  -0.070980   0.427134  -0.058849   0.496884  -0.031024
    12  H    0.001351  -0.034389   0.418211  -0.077117  -0.031024   0.486626
    13  H   -0.000349   0.006800  -0.072899   0.401172  -0.000664  -0.000760
    14  H   -0.000120  -0.001736  -0.056485   0.396162  -0.004440   0.003758
    15  H    0.001054  -0.008515  -0.048785   0.405514   0.003569  -0.004621
              13         14         15
     1  O    0.000002   0.000009   0.000022
     2  H   -0.000000   0.000000   0.000000
     3  C   -0.000167  -0.000449  -0.001147
     4  H    0.000000  -0.000000   0.000000
     5  C    0.001621   0.003833  -0.010255
     6  C    0.005712   0.002410   0.009930
     7  O   -0.000349  -0.000120   0.001054
     8  O    0.006800  -0.001736  -0.008515
     9  C   -0.072899  -0.056485  -0.048785
    10  C    0.401172   0.396162   0.405514
    11  H   -0.000664  -0.004440   0.003569
    12  H   -0.000760   0.003758  -0.004621
    13  H    0.500371  -0.025354  -0.022968
    14  H   -0.025354   0.490400  -0.027236
    15  H   -0.022968  -0.027236   0.469154
          Atomic-Atomic Spin Densities.
               1          2          3          4          5          6
     1  O    0.858658   0.002207  -0.206675  -0.000728  -0.029642   0.085086
     2  H    0.002207  -0.030706   0.012565   0.000058  -0.003554  -0.005604
     3  C   -0.206675   0.012565   0.371796  -0.005169   0.038183   0.291329
     4  H   -0.000728   0.000058  -0.005169  -0.015021   0.001286   0.000488
     5  C   -0.029642  -0.003554   0.038183   0.001286  -0.505332   0.244067
     6  C    0.085086  -0.005604   0.291329   0.000488   0.244067  -0.522382
     7  O    0.001425   0.000005   0.007990  -0.000006   0.015833  -0.023086
     8  O    0.001840   0.000122   0.002982   0.000005   0.005581  -0.008621
     9  C   -0.001188   0.000163  -0.001983  -0.000027   0.004685  -0.002159
    10  C   -0.000406   0.000048   0.003098   0.000017  -0.001276   0.000666
    11  H   -0.000003   0.000000   0.000243   0.000000   0.000836  -0.001100
    12  H   -0.000007  -0.000000   0.000044   0.000000   0.000045   0.000099
    13  H   -0.000001   0.000000   0.000037   0.000000   0.000193  -0.000263
    14  H    0.000000  -0.000000  -0.000072  -0.000000  -0.000123   0.000090
    15  H    0.000000  -0.000000   0.000134   0.000000   0.000293  -0.000457
               7          8          9         10         11         12
     1  O    0.001425   0.001840  -0.001188  -0.000406  -0.000003  -0.000007
     2  H    0.000005   0.000122   0.000163   0.000048   0.000000  -0.000000
     3  C    0.007990   0.002982  -0.001983   0.003098   0.000243   0.000044
     4  H   -0.000006   0.000005  -0.000027   0.000017   0.000000   0.000000
     5  C    0.015833   0.005581   0.004685  -0.001276   0.000836   0.000045
     6  C   -0.023086  -0.008621  -0.002159   0.000666  -0.001100   0.000099
     7  O   -0.013507   0.000012   0.000838   0.000092   0.000012   0.000116
     8  O    0.000012  -0.000797  -0.000635  -0.001111   0.000083  -0.000155
     9  C    0.000838  -0.000635   0.000478   0.000956  -0.000100  -0.000166
    10  C    0.000092  -0.001111   0.000956  -0.002605   0.000073   0.000006
    11  H    0.000012   0.000083  -0.000100   0.000073  -0.000148  -0.000004
    12  H    0.000116  -0.000155  -0.000166   0.000006  -0.000004  -0.000085
    13  H    0.000023  -0.000021  -0.000274   0.000265   0.000001   0.000003
    14  H   -0.000002  -0.000000   0.000015   0.000132  -0.000006  -0.000001
    15  H   -0.000049   0.000032  -0.000019   0.000095  -0.000003  -0.000006
              13         14         15
     1  O   -0.000001   0.000000   0.000000
     2  H    0.000000  -0.000000  -0.000000
     3  C    0.000037  -0.000072   0.000134
     4  H    0.000000  -0.000000   0.000000
     5  C    0.000193  -0.000123   0.000293
     6  C   -0.000263   0.000090  -0.000457
     7  O    0.000023  -0.000002  -0.000049
     8  O   -0.000021  -0.000000   0.000032
     9  C   -0.000274   0.000015  -0.000019
    10  C    0.000265   0.000132   0.000095
    11  H    0.000001  -0.000006  -0.000003
    12  H    0.000003  -0.000001  -0.000006
    13  H    0.000200  -0.000023  -0.000019
    14  H   -0.000023  -0.000030  -0.000010
    15  H   -0.000019  -0.000010  -0.000007
 Mulliken charges and spin densities:
               1          2
     1  O   -0.452471   0.710566
     2  H    0.404412  -0.024695
     3  C    0.229158   0.514504
     4  H    0.311714  -0.019098
     5  C   -0.568316  -0.228925
     6  C    0.278837   0.058152
     7  O   -0.347999  -0.010306
     8  O   -0.189126  -0.000681
     9  C   -0.207641   0.000584
    10  C   -0.578701   0.000049
    11  H    0.223738  -0.000117
    12  H    0.235379  -0.000110
    13  H    0.207482   0.000121
    14  H    0.219249  -0.000030
    15  H    0.234286  -0.000015
 Sum of Mulliken charges =  -0.00000   1.00000
 Mulliken charges and spin densities with hydrogens summed into heavy atoms:
               1          2
     1  O   -0.048059   0.685871
     3  C    0.540872   0.495407
     5  C   -0.568316  -0.228925
     6  C    0.278837   0.058152
     7  O   -0.347999  -0.010306
     8  O   -0.189126  -0.000681
     9  C    0.251476   0.000357
    10  C    0.082315   0.000125
 APT charges:
               1
     1  O   -0.160085
     2  H    0.240420
     3  C   -0.131050
     4  H    0.253473
     5  C   -0.482576
     6  C    1.445874
     7  O   -0.751864
     8  O   -0.925824
     9  C    0.500831
    10  C   -0.054262
    11  H   -0.002038
    12  H   -0.004136
    13  H    0.014803
    14  H    0.018144
    15  H    0.038289
 Sum of APT charges =   0.00000
 APT charges with hydrogens summed into heavy atoms:
               1
     1  O    0.080335
     3  C    0.122424
     5  C   -0.482576
     6  C    1.445874
     7  O   -0.751864
     8  O   -0.925824
     9  C    0.494657
    10  C    0.016974
 Electronic spatial extent (au):  <R**2>=           1127.6949
 Charge=             -0.0000 electrons
 Dipole moment (field-independent basis, Debye):
    X=              0.1948    Y=             -1.2601    Z=             -0.6083  Tot=              1.4127
 Quadrupole moment (field-independent basis, Debye-Ang):
   XX=            -31.5915   YY=            -47.3742   ZZ=            -52.9712
   XY=             -6.7115   XZ=              2.4949   YZ=              4.6013
 Traceless Quadrupole moment (field-independent basis, Debye-Ang):
   XX=             12.3875   YY=             -3.3953   ZZ=             -8.9922
   XY=             -6.7115   XZ=              2.4949   YZ=              4.6013
 Octapole moment (field-independent basis, Debye-Ang**2):
  XXX=             28.8904  YYY=              1.5913  ZZZ=             -4.1658  XYY=              1.9710
  XXY=             -8.8519  XXZ=              1.7505  XZZ=              3.0445  YZZ=              4.3013
  YYZ=              0.5643  XYZ=             11.5088
 Hexadecapole moment (field-independent basis, Debye-Ang**3):
 XXXX=           -900.5306 YYYY=           -236.3113 ZZZZ=           -187.1722 XXXY=            -44.8470
 XXXZ=              4.5457 YYYX=             -8.3352 YYYZ=              5.7513 ZZZX=              7.0848
 ZZZY=              3.6790 XXYY=           -192.0541 XXZZ=           -197.8901 YYZZ=            -64.4272
 XXYZ=             33.9169 YYXZ=              0.5346 ZZXY=              0.6712
 N-N= 3.598225708198D+02 E-N=-1.702354037947D+03  KE= 4.178244420250D+02
  Exact polarizability:  81.059  -5.780  75.886  -3.013   5.102  58.287
 Approx polarizability:  78.839 -13.104  81.490  -7.212   4.419  73.624
                          Isotropic Fermi Contact Couplings
        Atom                 a.u.       MegaHertz       Gauss      10(-4) cm-1
     1  O(17)              0.11384     -69.00866     -24.62401     -23.01881
     2  H(1)              -0.01289     -57.63371     -20.56514     -19.22453
     3  C(13)              0.04978      55.96661      19.97028      18.66845
     4  H(1)              -0.00800     -35.77875     -12.76675     -11.93451
     5  C(13)             -0.00272      -3.06294      -1.09293      -1.02169
     6  C(13)              0.02045      22.99078       8.20368       7.66890
     7  O(17)             -0.00290       1.75561       0.62645       0.58561
     8  O(17)              0.00166      -1.00928      -0.36014      -0.33666
     9  C(13)              0.00006       0.06637       0.02368       0.02214
    10  C(13)             -0.00005      -0.05122      -0.01828      -0.01709
    11  H(1)              -0.00003      -0.12417      -0.04431      -0.04142
    12  H(1)              -0.00009      -0.40421      -0.14423      -0.13483
    13  H(1)               0.00006       0.27526       0.09822       0.09182
    14  H(1)              -0.00000      -0.00453      -0.00162      -0.00151
    15  H(1)               0.00002       0.08634       0.03081       0.02880
 --------------------------------------------------------
       Center         ----  Spin Dipole Couplings  ----
                      3XX-RR        3YY-RR        3ZZ-RR
 --------------------------------------------------------
     1   Atom       -1.290736      2.526120     -1.235384
     2   Atom        0.006890     -0.038321      0.031431
     3   Atom       -0.094109      0.283733     -0.189624
     4   Atom        0.020463      0.004740     -0.025202
     5   Atom        0.063432     -0.026883     -0.036549
     6   Atom        0.022182     -0.003603     -0.018580
     7   Atom        0.059827     -0.072373      0.012546
     8   Atom        0.015106     -0.017830      0.002724
     9   Atom        0.004047     -0.001981     -0.002066
    10   Atom        0.001534     -0.000677     -0.000857
    11   Atom        0.002175     -0.001041     -0.001134
    12   Atom        0.002910     -0.001384     -0.001526
    13   Atom        0.000992     -0.000441     -0.000551
    14   Atom        0.001247     -0.000490     -0.000757
    15   Atom        0.001283     -0.000459     -0.000824
 --------------------------------------------------------
                        XY            XZ            YZ
 --------------------------------------------------------
     1   Atom        0.237022      0.023363      0.546474
     2   Atom       -0.016596      0.113688     -0.011513
     3   Atom        0.303894      0.034460      0.000891
     4   Atom       -0.020192     -0.020042      0.013643
     5   Atom       -0.043623     -0.039135      0.022558
     6   Atom        0.013353     -0.010752     -0.000563
     7   Atom        0.013789     -0.001108     -0.024872
     8   Atom        0.004104      0.008497      0.003744
     9   Atom       -0.000036     -0.000254     -0.000003
    10   Atom        0.000303     -0.000010      0.000014
    11   Atom       -0.000301      0.000727     -0.000058
    12   Atom       -0.000100     -0.000938      0.000169
    13   Atom        0.000187     -0.000077      0.000014
    14   Atom        0.000465      0.000321      0.000123
    15   Atom        0.000625     -0.000469     -0.000095
 --------------------------------------------------------


 ---------------------------------------------------------------------------------
              Anisotropic Spin Dipole Couplings in Principal Axis System
 ---------------------------------------------------------------------------------

       Atom             a.u.   MegaHertz   Gauss  10(-4) cm-1        Axes

              Baa    -1.3202    95.528    34.087    31.865  0.5640 -0.1501  0.8120
     1 O(17)  Bbb    -1.2982    93.937    33.519    31.334  0.8235  0.0299 -0.5665
              Bcc     2.6184  -189.465   -67.606   -63.199  0.0608  0.9882  0.1405
 
              Baa    -0.0956   -50.996   -18.197   -17.010  0.7462  0.0835 -0.6604
     2 H(1)   Bbb    -0.0402   -21.423    -7.644    -7.146  0.0125  0.9902  0.1394
              Bcc     0.1357    72.419    25.841    24.156  0.6656 -0.1123  0.7379
 
              Baa    -0.2736   -36.711   -13.099   -12.245  0.8275 -0.4507 -0.3349
     3 C(13)  Bbb    -0.1796   -24.094    -8.597    -8.037  0.2801 -0.1856  0.9419
              Bcc     0.4531    60.805    21.697    20.282  0.4866  0.8732  0.0273
 
              Baa    -0.0338   -18.052    -6.441    -6.022  0.2779 -0.1877  0.9421
     4 H(1)   Bbb    -0.0091    -4.838    -1.726    -1.614  0.5637  0.8260 -0.0017
              Bcc     0.0429    22.890     8.168     7.635  0.7778 -0.5315 -0.3354
 
              Baa    -0.0550    -7.379    -2.633    -2.461  0.0672 -0.5590  0.8264
     5 C(13)  Bbb    -0.0412    -5.526    -1.972    -1.843  0.4831  0.7430  0.4633
              Bcc     0.0962    12.905     4.605     4.305  0.8730 -0.3681 -0.3200
 
              Baa    -0.0217    -2.916    -1.041    -0.973  0.2855 -0.1810  0.9411
     6 C(13)  Bbb    -0.0082    -1.106    -0.395    -0.369 -0.3060  0.9134  0.2685
              Bcc     0.0300     4.022     1.435     1.342  0.9082  0.3646 -0.2054
 
              Baa    -0.0803     5.813     2.074     1.939 -0.0926  0.9621  0.2565
     7 O(17)  Bbb     0.0188    -1.359    -0.485    -0.453  0.1087 -0.2463  0.9631
              Bcc     0.0616    -4.454    -1.589    -1.486  0.9897  0.1171 -0.0818
 
              Baa    -0.0187     1.354     0.483     0.452 -0.0849  0.9867 -0.1387
     8 O(17)  Bbb    -0.0015     0.107     0.038     0.036 -0.4707  0.0830  0.8784
              Bcc     0.0202    -1.461    -0.521    -0.487  0.8782  0.1398  0.4574
 
              Baa    -0.0021    -0.279    -0.099    -0.093  0.0416  0.0430  0.9982
     9 C(13)  Bbb    -0.0020    -0.266    -0.095    -0.089  0.0042  0.9991 -0.0432
              Bcc     0.0041     0.545     0.194     0.182  0.9991 -0.0060 -0.0414
 
              Baa    -0.0009    -0.115    -0.041    -0.038  0.0172 -0.1042  0.9944
    10 C(13)  Bbb    -0.0007    -0.096    -0.034    -0.032 -0.1324  0.9856  0.1056
              Bcc     0.0016     0.211     0.075     0.070  0.9910  0.1335 -0.0031
 
              Baa    -0.0013    -0.686    -0.245    -0.229 -0.2076 -0.0249  0.9779
    11 H(1)   Bbb    -0.0011    -0.570    -0.203    -0.190  0.0827  0.9956  0.0429
              Bcc     0.0024     1.257     0.448     0.419  0.9747 -0.0898  0.2046
 
              Baa    -0.0018    -0.945    -0.337    -0.315  0.1763 -0.3550  0.9181
    12 H(1)   Bbb    -0.0013    -0.711    -0.254    -0.237  0.0977  0.9344  0.3425
              Bcc     0.0031     1.656     0.591     0.552  0.9795 -0.0293 -0.1995
 
              Baa    -0.0006    -0.299    -0.107    -0.100  0.0759 -0.2293  0.9704
    13 H(1)   Bbb    -0.0005    -0.245    -0.087    -0.082 -0.1115  0.9651  0.2368
              Bcc     0.0010     0.544     0.194     0.182  0.9909  0.1262 -0.0477
 
              Baa    -0.0008    -0.436    -0.156    -0.146 -0.1007 -0.2216  0.9699
    14 H(1)   Bbb    -0.0006    -0.320    -0.114    -0.107 -0.2705  0.9443  0.1877
              Bcc     0.0014     0.756     0.270     0.252  0.9574  0.2435  0.1550
 
              Baa    -0.0009    -0.495    -0.177    -0.165  0.2396 -0.1249  0.9628
    15 H(1)   Bbb    -0.0006    -0.347    -0.124    -0.116 -0.2607  0.9470  0.1877
              Bcc     0.0016     0.842     0.300     0.281  0.9352  0.2960 -0.1943
 

 ---------------------------------------------------------------------------------

 Calling FoFJK, ICntrl=    100127 FMM=F ISym2X=0 I1Cent= 0 IOpClX= 1 NMat=1 NMatS=1 NMatT=0.
 Full mass-weighted force constant matrix:
 Low frequencies --- -613.3091 -469.5493 -137.7230  -92.8380  -67.8505  -50.1045
 Low frequencies ---   -0.0010   -0.0007    0.0002
 ******    4 imaginary frequencies (negative Signs) ****** 
 Diagonal vibrational polarizability:
       94.8214323     155.7963635      32.3853161
 Harmonic frequencies (cm**-1), IR intensities (KM/Mole), Raman scattering
 activities (A**4/AMU), depolarization ratios for plane and unpolarized
 incident light, reduced masses (AMU), force constants (mDyne/A),
 and normal coordinates:
                      1                      2                      3
                      A                      A                      A
 Frequencies --   -613.2790              -468.8317               -99.9559
 Red. masses --     12.3478                 1.0775                 7.3765
 Frc consts  --      2.7362                 0.1395                 0.0434
 IR Inten    --     51.1127               114.1194                 8.0675
  Atom  AN      X      Y      Z        X      Y      Z        X      Y      Z
     1   8    -0.18  -0.46  -0.03    -0.05   0.02   0.04     0.10  -0.08   0.34
     2   1     0.02   0.07  -0.13     0.71  -0.11  -0.69     0.11  -0.40   0.27
     3   6    -0.10  -0.09   0.01     0.00  -0.00   0.01    -0.09   0.03  -0.28
     4   1    -0.13  -0.13  -0.02    -0.01  -0.03   0.01    -0.14   0.06  -0.44
     5   6     0.32   0.75   0.08    -0.00  -0.01   0.00    -0.01   0.02  -0.05
     6   6     0.01   0.05   0.01     0.00   0.00   0.01     0.01   0.04  -0.00
     7   8     0.01  -0.05  -0.02    -0.01  -0.00   0.00     0.12   0.36   0.07
     8   8     0.00  -0.02  -0.00     0.01   0.00  -0.00    -0.06  -0.21  -0.07
     9   6    -0.00  -0.01  -0.00     0.00  -0.00  -0.01    -0.03  -0.09  -0.09
    10   6    -0.00  -0.00  -0.00     0.00  -0.00  -0.01    -0.07  -0.05  -0.00
    11   1     0.00  -0.01  -0.00     0.00  -0.00  -0.01    -0.00  -0.13  -0.13
    12   1     0.01  -0.01  -0.01    -0.00   0.00  -0.01     0.01  -0.03  -0.12
    13   1    -0.00  -0.00  -0.00     0.00   0.00  -0.01    -0.05  -0.01   0.02
    14   1    -0.00  -0.00  -0.00     0.00  -0.00  -0.01    -0.12  -0.09   0.02
    15   1    -0.00  -0.00  -0.00    -0.00   0.00  -0.01    -0.07  -0.02   0.02
                      4                      5                      6
                      A                      A                      A
 Frequencies --    -32.6512                36.1866               106.5935
 Red. masses --      4.1947                 2.5699                 3.3046
 Frc consts  --      0.0026                 0.0020                 0.0221
 IR Inten    --      7.3050                 0.3069                 5.6249
  Atom  AN      X      Y      Z        X      Y      Z        X      Y      Z
     1   8     0.22  -0.02  -0.03     0.05  -0.00   0.10     0.04  -0.01   0.09
     2   1     0.18  -0.21  -0.03     0.04  -0.11   0.09     0.05  -0.17   0.05
     3   6    -0.15  -0.11   0.02    -0.01   0.01  -0.00     0.11  -0.04   0.22
     4   1    -0.22  -0.24   0.04    -0.01  -0.00   0.01     0.19  -0.10   0.51
     5   6    -0.06   0.04  -0.02    -0.01   0.02  -0.01     0.00   0.03  -0.14
     6   6    -0.02   0.13   0.01    -0.03   0.01  -0.06    -0.01   0.02  -0.16
     7   8    -0.02   0.06   0.01    -0.10  -0.07  -0.09     0.10   0.02  -0.12
     8   8    -0.03   0.21   0.06     0.02   0.07  -0.07    -0.11  -0.01  -0.09
     9   6    -0.11  -0.05   0.06    -0.01   0.02  -0.11    -0.06  -0.01   0.09
    10   6     0.10  -0.23  -0.09     0.08  -0.03   0.23    -0.09   0.01   0.07
    11   1    -0.20  -0.02   0.12    -0.10  -0.21  -0.27    -0.13   0.09   0.20
    12   1    -0.23  -0.14   0.11    -0.01   0.26  -0.25     0.06  -0.11   0.14
    13   1     0.04  -0.44  -0.08     0.05  -0.04   0.08    -0.02   0.00   0.40
    14   1     0.22  -0.12  -0.16     0.16  -0.34   0.40    -0.34   0.20  -0.04
    15   1     0.21  -0.26  -0.16     0.10   0.25   0.46     0.09  -0.17  -0.15
                      7                      8                      9
                      A                      A                      A
 Frequencies --    154.0003               188.8784               237.1544
 Red. masses --      5.5200                 1.3088                 4.5052
 Frc consts  --      0.0771                 0.0275                 0.1493
 IR Inten    --      1.2902                 1.8425                 0.4126
  Atom  AN      X      Y      Z        X      Y      Z        X      Y      Z
     1   8     0.38   0.04  -0.10     0.03   0.00  -0.02     0.00   0.30   0.06
     2   1     0.38  -0.12  -0.13     0.04   0.04  -0.01    -0.06   0.24   0.11
     3   6     0.03   0.18   0.02    -0.02   0.03  -0.03    -0.21  -0.27  -0.01
     4   1     0.05   0.24  -0.03    -0.03   0.06  -0.10    -0.42  -0.63  -0.02
     5   6     0.02   0.14   0.07     0.00   0.00   0.07     0.08   0.12   0.01
     6   6    -0.03  -0.03   0.05    -0.01  -0.01   0.02     0.07   0.03   0.01
     7   8    -0.07  -0.14   0.02    -0.10   0.00  -0.00     0.07  -0.11  -0.02
     8   8    -0.08  -0.15   0.02     0.03  -0.02  -0.03     0.03  -0.09  -0.02
     9   6    -0.07  -0.06  -0.03     0.03  -0.01  -0.03     0.04  -0.04  -0.05
    10   6    -0.22   0.06  -0.02     0.03  -0.00   0.03    -0.05   0.03   0.00
    11   1     0.02  -0.05  -0.05     0.02  -0.02  -0.03     0.07  -0.05  -0.07
    12   1    -0.05  -0.03  -0.04     0.05   0.00  -0.03     0.06  -0.01  -0.06
    13   1    -0.21   0.24  -0.24     0.14  -0.04   0.61    -0.00   0.14   0.08
    14   1    -0.14  -0.06   0.06    -0.43   0.27  -0.12    -0.18   0.04   0.00
    15   1    -0.45   0.13   0.13     0.38  -0.24  -0.30    -0.07   0.00  -0.02
                     10                     11                     12
                      A                      A                      A
 Frequencies --    312.0427               406.2566               552.1491
 Red. masses --      2.9210                 3.5916                 2.4215
 Frc consts  --      0.1676                 0.3493                 0.4350
 IR Inten    --     17.5184                 0.3769                32.9257
  Atom  AN      X      Y      Z        X      Y      Z        X      Y      Z
     1   8    -0.02  -0.03   0.00     0.03   0.03  -0.01     0.03  -0.01   0.02
     2   1    -0.03  -0.12  -0.00    -0.01  -0.23  -0.03     0.17   0.73   0.03
     3   6     0.02   0.02   0.02    -0.10   0.05   0.06     0.08  -0.06  -0.05
     4   1     0.06   0.04   0.09    -0.05   0.07   0.16     0.01  -0.06  -0.24
     5   6    -0.04  -0.01  -0.08    -0.13   0.09  -0.08     0.14  -0.07   0.15
     6   6    -0.00   0.01   0.06    -0.10  -0.08   0.01    -0.00  -0.01  -0.05
     7   8     0.19  -0.09   0.10     0.05  -0.05   0.06     0.03   0.00  -0.04
     8   8    -0.01   0.08   0.11    -0.12  -0.19  -0.01    -0.13  -0.02   0.01
     9   6    -0.10   0.03  -0.22     0.03   0.16   0.00    -0.15   0.12   0.00
    10   6    -0.06   0.01  -0.03     0.24   0.05  -0.03     0.01   0.01  -0.00
    11   1    -0.02  -0.21  -0.46     0.08   0.17  -0.01    -0.11   0.06  -0.07
    12   1    -0.30   0.32  -0.36     0.14   0.16  -0.00    -0.15   0.19  -0.03
    13   1     0.01  -0.00   0.29     0.12  -0.33  -0.04    -0.09  -0.30   0.01
    14   1    -0.33   0.02  -0.03     0.49   0.09  -0.06     0.18   0.03  -0.02
    15   1     0.17  -0.00  -0.12     0.47   0.10  -0.07     0.21   0.06  -0.04
                     13                     14                     15
                      A                      A                      A
 Frequencies --    605.5064               632.4976               667.4101
 Red. masses --      3.4450                 1.5222                 1.3827
 Frc consts  --      0.7442                 0.3588                 0.3629
 IR Inten    --     35.4511                15.8228                62.2404
  Atom  AN      X      Y      Z        X      Y      Z        X      Y      Z
     1   8     0.00  -0.05   0.00     0.01   0.05   0.00     0.03  -0.04   0.03
     2   1     0.11   0.39  -0.01     0.01  -0.07  -0.02     0.20   0.88   0.05
     3   6    -0.19   0.04   0.07    -0.03  -0.16   0.01    -0.03   0.01  -0.02
     4   1     0.04   0.68  -0.23     0.50   0.83  -0.09     0.09  -0.05   0.36
     5   6    -0.14  -0.03   0.21     0.05   0.03  -0.05    -0.06   0.02  -0.12
     6   6    -0.03   0.04  -0.07    -0.01  -0.07  -0.00    -0.02  -0.03   0.02
     7   8     0.20  -0.06  -0.02    -0.04   0.03   0.00    -0.03   0.02   0.02
     8   8     0.03   0.05  -0.15     0.00   0.01   0.04     0.02  -0.00   0.02
     9   6     0.05  -0.05  -0.01    -0.01   0.01   0.00     0.04  -0.03  -0.01
    10   6    -0.00  -0.01   0.01    -0.00  -0.00  -0.00     0.01  -0.00   0.00
    11   1    -0.06   0.08   0.13     0.01  -0.03  -0.04     0.04  -0.04  -0.01
    12   1     0.15  -0.19   0.06    -0.04   0.05  -0.02     0.02  -0.02  -0.01
    13   1     0.04   0.12  -0.00    -0.01  -0.01   0.00     0.04   0.08  -0.00
    14   1    -0.08  -0.06   0.04     0.00   0.01  -0.01    -0.04  -0.01   0.01
    15   1    -0.08   0.00   0.05    -0.00  -0.01  -0.01    -0.04  -0.02   0.01
                     16                     17                     18
                      A                      A                      A
 Frequencies --    717.5160               748.6063               814.7948
 Red. masses --      7.3712                 1.4232                 1.2677
 Frc consts  --      2.2359                 0.4699                 0.4959
 IR Inten    --     69.6055                49.1285                 7.2893
  Atom  AN      X      Y      Z        X      Y      Z        X      Y      Z
     1   8    -0.04  -0.08   0.01    -0.00   0.01  -0.01    -0.00  -0.01  -0.00
     2   1    -0.02   0.06   0.02    -0.04  -0.19  -0.02     0.00  -0.01  -0.00
     3   6    -0.00  -0.06  -0.03    -0.05   0.01  -0.14    -0.03   0.02   0.01
     4   1     0.39   0.47   0.19     0.34  -0.05   0.90    -0.03   0.02   0.02
     5   6    -0.04  -0.10  -0.09     0.03  -0.01   0.11    -0.02  -0.00   0.03
     6   6     0.22   0.62   0.15    -0.01  -0.02  -0.01     0.03   0.00  -0.04
     7   8    -0.08  -0.14  -0.05     0.02  -0.00  -0.00     0.01   0.01  -0.06
     8   8    -0.06  -0.18   0.00     0.00   0.01  -0.02    -0.01  -0.01   0.04
     9   6    -0.00   0.01   0.00    -0.02   0.01   0.00     0.03  -0.02   0.08
    10   6     0.02   0.02  -0.01    -0.01  -0.00   0.00     0.02   0.00   0.03
    11   1     0.04   0.04   0.01    -0.02   0.02   0.01    -0.06  -0.46  -0.28
    12   1     0.05  -0.01   0.01    -0.00  -0.00   0.01    -0.01   0.47  -0.20
    13   1    -0.02  -0.08  -0.01    -0.02  -0.03   0.00    -0.00   0.07  -0.17
    14   1     0.09   0.03  -0.01     0.01  -0.01   0.00     0.16   0.36  -0.18
    15   1     0.10   0.03  -0.03     0.01   0.01   0.00    -0.25  -0.33  -0.16
                     19                     20                     21
                      A                      A                      A
 Frequencies --    896.0133               940.9279              1111.8916
 Red. masses --      3.4070                 2.5585                 4.1366
 Frc consts  --      1.6116                 1.3346                 3.0131
 IR Inten    --     23.7262                 6.5729                 5.5818
  Atom  AN      X      Y      Z        X      Y      Z        X      Y      Z
     1   8    -0.01  -0.01  -0.00     0.00   0.01  -0.00     0.00   0.01  -0.00
     2   1    -0.00  -0.04  -0.01    -0.01  -0.03   0.00    -0.00  -0.01  -0.00
     3   6    -0.07   0.04   0.02     0.08  -0.05  -0.04     0.05  -0.03  -0.03
     4   1    -0.07   0.05   0.02     0.09  -0.05  -0.04     0.06  -0.04  -0.04
     5   6    -0.03  -0.01   0.07     0.07  -0.01   0.01     0.04  -0.01   0.02
     6   6     0.08  -0.02  -0.12    -0.14   0.05   0.02    -0.15   0.07  -0.03
     7   8     0.00   0.05  -0.19     0.01  -0.02   0.08     0.01  -0.01   0.01
     8   8    -0.09  -0.03   0.26    -0.15   0.04  -0.05    -0.16   0.04   0.06
     9   6     0.05  -0.08  -0.04     0.01  -0.13  -0.02     0.34   0.15  -0.07
    10   6     0.09   0.04  -0.07     0.19   0.06  -0.01    -0.11  -0.22   0.01
    11   1     0.32   0.08   0.00    -0.30  -0.17   0.06     0.37   0.24  -0.01
    12   1    -0.31  -0.28   0.10    -0.06  -0.13  -0.01     0.45   0.18  -0.08
    13   1     0.23   0.31   0.16     0.38   0.68  -0.07    -0.08  -0.10  -0.01
    14   1    -0.26  -0.31   0.15    -0.15   0.12  -0.03    -0.21  -0.24   0.02
    15   1     0.17   0.34   0.16    -0.25  -0.05   0.05    -0.26  -0.31   0.01
                     22                     23                     24
                      A                      A                      A
 Frequencies --   1157.4290              1227.2414              1325.7104
 Red. masses --      2.0769                 1.7480                 1.9951
 Frc consts  --      1.6393                 1.5512                 2.0659
 IR Inten    --     18.0123                 5.6750               337.2475
  Atom  AN      X      Y      Z        X      Y      Z        X      Y      Z
     1   8    -0.00  -0.00   0.00     0.00   0.00  -0.00     0.00   0.01   0.00
     2   1     0.00   0.01   0.00     0.00   0.00  -0.00     0.00   0.01  -0.00
     3   6    -0.02   0.01   0.01     0.02  -0.01  -0.01     0.03  -0.02  -0.02
     4   1    -0.02   0.01   0.02     0.02  -0.01  -0.01     0.04  -0.03  -0.03
     5   6    -0.01   0.00  -0.01     0.01   0.00  -0.00     0.00   0.00   0.00
     6   6     0.06  -0.02   0.01    -0.07   0.03  -0.01    -0.21   0.09  -0.06
     7   8    -0.01   0.00  -0.00     0.01  -0.01   0.03     0.03  -0.00  -0.02
     8   8     0.06  -0.06  -0.03    -0.00   0.01  -0.07     0.11  -0.04   0.03
     9   6    -0.08   0.20   0.07     0.05  -0.04   0.18    -0.08  -0.01   0.01
    10   6     0.07  -0.15  -0.05    -0.03   0.03  -0.13     0.03  -0.01   0.07
    11   1    -0.12   0.09  -0.03     0.29  -0.38  -0.21     0.77   0.16  -0.16
    12   1    -0.24   0.21   0.07    -0.19   0.38  -0.05    -0.36  -0.17   0.11
    13   1     0.27   0.50   0.02     0.01  -0.09   0.25     0.01   0.04  -0.10
    14   1    -0.47  -0.24   0.02    -0.12  -0.38   0.12     0.06   0.22  -0.06
    15   1    -0.37  -0.10   0.16     0.25   0.40   0.10    -0.11  -0.16  -0.01
                     25                     26                     27
                      A                      A                      A
 Frequencies --   1372.6584              1443.4713              1455.7377
 Red. masses --      1.7353                 1.3633                 1.2753
 Frc consts  --      1.9264                 1.6737                 1.5923
 IR Inten    --    282.4237                38.8150                13.5676
  Atom  AN      X      Y      Z        X      Y      Z        X      Y      Z
     1   8     0.00   0.00   0.00    -0.00  -0.00  -0.00     0.00   0.00   0.00
     2   1     0.00   0.01  -0.00    -0.00  -0.00   0.00     0.00   0.00  -0.00
     3   6     0.02  -0.01  -0.01    -0.01   0.01   0.01     0.00  -0.00  -0.00
     4   1     0.02  -0.02  -0.02    -0.01   0.01   0.01     0.01  -0.00  -0.00
     5   6     0.00   0.00   0.00     0.00  -0.00  -0.00     0.00   0.00   0.00
     6   6    -0.14   0.06  -0.05     0.08  -0.03   0.01    -0.03   0.01  -0.01
     7   8     0.02   0.00  -0.03    -0.01  -0.00   0.02     0.00  -0.00  -0.00
     8   8     0.10  -0.04   0.10    -0.05   0.04  -0.03     0.02  -0.02   0.01
     9   6    -0.08  -0.01   0.01    -0.10  -0.05   0.01     0.05   0.03  -0.00
    10   6     0.00  -0.00  -0.05    -0.00  -0.07  -0.00    -0.10  -0.09   0.01
    11   1    -0.43  -0.07   0.09     0.60   0.21  -0.04    -0.24  -0.10  -0.01
    12   1     0.81   0.12  -0.11     0.53   0.20  -0.16    -0.22  -0.10   0.08
    13   1     0.04   0.04   0.05     0.12   0.30  -0.01     0.12   0.51   0.05
    14   1    -0.09  -0.09   0.00     0.08   0.19  -0.14     0.43   0.27  -0.19
    15   1     0.06   0.16   0.06     0.13   0.16   0.12     0.45   0.26   0.08
                     28                     29                     30
                      A                      A                      A
 Frequencies --   1527.9352              1537.6808              1545.7282
 Red. masses --      1.0419                 1.0671                 1.0757
 Frc consts  --      1.4332                 1.4865                 1.5143
 IR Inten    --     14.3877                 2.3953                20.1596
  Atom  AN      X      Y      Z        X      Y      Z        X      Y      Z
     1   8     0.00   0.00   0.00     0.00   0.00   0.00     0.00   0.00   0.00
     2   1    -0.00   0.00   0.00     0.00   0.00   0.00    -0.00   0.00   0.00
     3   6     0.00   0.00   0.00     0.00  -0.00  -0.00     0.00  -0.00  -0.00
     4   1    -0.00  -0.00   0.00     0.00  -0.00  -0.00     0.00  -0.00  -0.00
     5   6    -0.00   0.00   0.00    -0.00   0.00   0.00    -0.00   0.00   0.00
     6   6    -0.00  -0.00   0.00    -0.02   0.00   0.00    -0.02   0.00   0.00
     7   8     0.00   0.00  -0.01     0.00   0.00  -0.01     0.00   0.00  -0.01
     8   8     0.00  -0.00   0.00     0.02  -0.01   0.00     0.01  -0.01   0.00
     9   6    -0.01  -0.01  -0.02     0.00  -0.06   0.00     0.03  -0.05  -0.01
    10   6    -0.02   0.02  -0.04    -0.02   0.02   0.02     0.02  -0.03  -0.01
    11   1     0.02   0.10   0.05    -0.05   0.38   0.38    -0.11   0.27   0.31
    12   1    -0.00   0.04  -0.04    -0.19   0.45  -0.26    -0.24   0.30  -0.19
    13   1     0.15   0.04   0.66     0.02   0.22  -0.18    -0.05  -0.27   0.10
    14   1     0.55  -0.14   0.06     0.07  -0.27   0.17    -0.15   0.40  -0.24
    15   1    -0.42  -0.14   0.00     0.25  -0.24  -0.30    -0.21   0.34   0.38
                     31                     32                     33
                      A                      A                      A
 Frequencies --   1912.4941              2150.0437              3107.4025
 Red. masses --     12.1271                 6.2947                 1.0351
 Frc consts  --     26.1340                17.1444                 5.8890
 IR Inten    --    312.5927                86.9637                13.6532
  Atom  AN      X      Y      Z        X      Y      Z        X      Y      Z
     1   8     0.01   0.01  -0.00    -0.01  -0.02  -0.00    -0.00   0.00   0.00
     2   1    -0.02   0.01   0.02    -0.01  -0.01   0.01    -0.00   0.00  -0.00
     3   6     0.08  -0.05  -0.03    -0.31   0.21   0.13     0.00  -0.00  -0.00
     4   1     0.12  -0.09  -0.03    -0.56   0.38   0.24    -0.00   0.00   0.00
     5   6    -0.08   0.04   0.01     0.47  -0.23  -0.18    -0.00   0.00   0.00
     6   6    -0.18  -0.12   0.76    -0.11   0.01   0.07     0.00  -0.00   0.00
     7   8     0.15   0.07  -0.49     0.01   0.00  -0.03     0.00   0.00  -0.00
     8   8    -0.04   0.03  -0.07    -0.00   0.00  -0.00    -0.00   0.00  -0.00
     9   6    -0.02   0.00   0.01     0.00  -0.00   0.00     0.00   0.00   0.00
    10   6     0.01  -0.01  -0.00    -0.00  -0.00  -0.00    -0.04  -0.03  -0.00
    11   1     0.12  -0.08  -0.11     0.01  -0.01  -0.00     0.00  -0.00   0.00
    12   1     0.13  -0.06   0.07     0.00  -0.00   0.00    -0.00  -0.01  -0.02
    13   1     0.01   0.05  -0.03     0.00   0.00  -0.00     0.57  -0.20  -0.12
    14   1    -0.03   0.01  -0.01    -0.00   0.00  -0.00    -0.00   0.29   0.52
    15   1     0.05   0.03   0.02     0.00   0.00   0.00    -0.15   0.31  -0.38
                     34                     35                     36
                      A                      A                      A
 Frequencies --   3139.2345              3186.8418              3191.6138
 Red. masses --      1.0603                 1.0999                 1.1027
 Frc consts  --      6.1562                 6.5816                 6.6181
 IR Inten    --     15.8730                15.3147                 4.3663
  Atom  AN      X      Y      Z        X      Y      Z        X      Y      Z
     1   8    -0.00  -0.00  -0.00    -0.00  -0.00  -0.00     0.00   0.00   0.00
     2   1     0.00  -0.00   0.00     0.00  -0.00   0.00    -0.00   0.00  -0.00
     3   6     0.00  -0.00  -0.00    -0.00   0.00   0.00    -0.00   0.00  -0.00
     4   1     0.00  -0.00  -0.00     0.00  -0.00  -0.00    -0.00   0.00   0.00
     5   6     0.00  -0.00   0.00     0.00   0.00  -0.00     0.00   0.00  -0.00
     6   6    -0.00   0.00  -0.00    -0.00   0.00  -0.00    -0.00   0.00   0.00
     7   8    -0.00   0.00   0.00     0.00  -0.00   0.00    -0.00  -0.00  -0.00
     8   8     0.00  -0.00   0.00    -0.00   0.00   0.00     0.00  -0.00   0.00
     9   6     0.01  -0.06  -0.02     0.01  -0.02   0.03     0.01  -0.01   0.06
    10   6    -0.01   0.01   0.01     0.04  -0.04  -0.06    -0.05   0.04  -0.03
    11   1    -0.15   0.34  -0.41    -0.10   0.24  -0.27    -0.12   0.28  -0.32
    12   1     0.04   0.39   0.72    -0.00  -0.05  -0.08    -0.02  -0.19  -0.34
    13   1     0.11  -0.04  -0.02    -0.55   0.18   0.10     0.45  -0.15  -0.10
    14   1    -0.00  -0.03  -0.06     0.01   0.34   0.61    -0.01   0.02   0.02
    15   1     0.01  -0.01   0.02     0.04  -0.07   0.06     0.17  -0.39   0.47
                     37                     38                     39
                      A                      A                      A
 Frequencies --   3212.7579              3514.9312              3834.8935
 Red. masses --      1.1054                 1.1514                 1.0673
 Frc consts  --      6.7223                 8.3816                 9.2480
 IR Inten    --     17.3036                63.9808                21.7951
  Atom  AN      X      Y      Z        X      Y      Z        X      Y      Z
     1   8    -0.00  -0.00   0.00    -0.00  -0.00  -0.00    -0.04   0.01  -0.05
     2   1    -0.00   0.00  -0.00     0.00   0.00   0.00     0.67  -0.14   0.72
     3   6     0.00  -0.00   0.00    -0.09   0.05   0.04     0.00  -0.00  -0.00
     4   1    -0.00   0.00   0.00     0.81  -0.46  -0.33    -0.00   0.00   0.00
     5   6    -0.00  -0.00   0.00     0.02  -0.01  -0.01    -0.00   0.00   0.00
     6   6     0.00   0.00  -0.00    -0.00  -0.00   0.00    -0.00   0.00  -0.00
     7   8    -0.00  -0.00   0.00     0.00   0.00   0.00     0.00  -0.00  -0.00
     8   8     0.00  -0.00  -0.00     0.00  -0.00   0.00     0.00  -0.00   0.00
     9   6    -0.02   0.02  -0.06    -0.00   0.00   0.00    -0.00   0.00   0.00
    10   6    -0.02   0.02  -0.06     0.00  -0.00  -0.00     0.00   0.00  -0.00
    11   1     0.16  -0.38   0.43     0.00  -0.00   0.00     0.00  -0.00   0.00
    12   1     0.02   0.20   0.34     0.00  -0.00  -0.00     0.00  -0.00  -0.00
    13   1     0.10  -0.03  -0.04     0.00  -0.00  -0.00     0.00  -0.00  -0.00
    14   1    -0.00   0.20   0.33    -0.00   0.00   0.00    -0.00   0.00  -0.00
    15   1     0.16  -0.36   0.41    -0.00  -0.00   0.00    -0.00  -0.00   0.00

 -------------------
 - Thermochemistry -
 -------------------
 Temperature   298.150 Kelvin.  Pressure   1.00000 Atm.
 Atom     1 has atomic number  8 and mass  15.99491
 Atom     2 has atomic number  1 and mass   1.00783
 Atom     3 has atomic number  6 and mass  12.00000
 Atom     4 has atomic number  1 and mass   1.00783
 Atom     5 has atomic number  6 and mass  12.00000
 Atom     6 has atomic number  6 and mass  12.00000
 Atom     7 has atomic number  8 and mass  15.99491
 Atom     8 has atomic number  8 and mass  15.99491
 Atom     9 has atomic number  6 and mass  12.00000
 Atom    10 has atomic number  6 and mass  12.00000
 Atom    11 has atomic number  1 and mass   1.00783
 Atom    12 has atomic number  1 and mass   1.00783
 Atom    13 has atomic number  1 and mass   1.00783
 Atom    14 has atomic number  1 and mass   1.00783
 Atom    15 has atomic number  1 and mass   1.00783
 Molecular mass:   115.03952 amu.
 Principal axes and moments of inertia in atomic units:
                           1         2         3
     Eigenvalues --   442.236061546.922731615.93725
           X            0.99998  -0.00360   0.00521
           Y            0.00298   0.99349   0.11392
           Z           -0.00558  -0.11390   0.99348
 This molecule is an asymmetric top.
 Rotational symmetry number  1.
 Warning -- assumption of classical behavior for rotation
           may cause significant error
 Rotational temperatures (Kelvin)      0.19585     0.05599     0.05360
 Rotational constants (GHZ):           4.08095     1.16667     1.11684
    4 imaginary frequencies ignored.
 Zero-point vibrational energy     292919.0 (Joules/Mol)
                                   70.00932 (Kcal/Mol)
 Warning -- explicit consideration of   9 degrees of freedom as
           vibrations may cause significant error
 Vibrational temperatures:     52.06   153.36   221.57   271.75   341.21
          (Kelvin)            448.96   584.51   794.42   871.19   910.02
                              960.25  1032.35  1077.08  1172.31  1289.16
                             1353.79  1599.76  1665.28  1765.73  1907.40
                             1974.95  2076.83  2094.48  2198.36  2212.38
                             2223.96  2751.65  3093.43  4470.86  4516.66
                             4585.15  4592.02  4622.44  5057.20  5517.56
 
 Zero-point correction=                           0.111567 (Hartree/Particle)
 Thermal correction to Energy=                    0.119507
 Thermal correction to Enthalpy=                  0.120451
 Thermal correction to Gibbs Free Energy=         0.077337
 Sum of electronic and zero-point Energies=           -419.841062
 Sum of electronic and thermal Energies=              -419.833121
 Sum of electronic and thermal Enthalpies=            -419.832177
 Sum of electronic and thermal Free Energies=         -419.875292
 
                     E (Thermal)             CV                S
                      KCal/Mol        Cal/Mol-Kelvin    Cal/Mol-Kelvin
 Total                   74.992             27.002             90.742
 Electronic               0.000              0.000              1.377
 Translational            0.889              2.981             40.136
 Rotational               0.889              2.981             28.493
 Vibrational             73.214             21.040             20.736
 Vibration     1          0.594              1.982              5.458
 Vibration     2          0.605              1.944              3.330
 Vibration     3          0.620              1.898              2.622
 Vibration     4          0.633              1.855              2.239
 Vibration     5          0.656              1.784              1.824
 Vibration     6          0.700              1.651              1.351
 Vibration     7          0.771              1.457              0.940
 Vibration     8          0.907              1.135              0.540
 Vibration     9          0.964              1.020              0.440
                       Q            Log10(Q)             Ln(Q)
 Total Bot       0.267672D-35        -35.572397        -81.908470
 Total V=0       0.555640D+16         15.744793         36.253726
 Vib (Bot)       0.733212D-49        -49.134770       -113.136989
 Vib (Bot)    1  0.571929D+01          0.757342          1.743844
 Vib (Bot)    2  0.192280D+01          0.283933          0.653780
 Vib (Bot)    3  0.131514D+01          0.118972          0.273942
 Vib (Bot)    4  0.106006D+01          0.025328          0.058321
 Vib (Bot)    5  0.827872D+00         -0.082037         -0.188896
 Vib (Bot)    6  0.605263D+00         -0.218056         -0.502092
 Vib (Bot)    7  0.436710D+00         -0.359807         -0.828487
 Vib (Bot)    8  0.283634D+00         -0.547242         -1.260070
 Vib (Bot)    9  0.245205D+00         -0.610471         -1.405661
 Vib (V=0)       0.152202D+03          2.182420          5.025207
 Vib (V=0)    1  0.624110D+01          0.795261          1.831157
 Vib (V=0)    2  0.248674D+01          0.395631          0.910973
 Vib (V=0)    3  0.190698D+01          0.280346          0.645520
 Vib (V=0)    4  0.167206D+01          0.223251          0.514054
 Vib (V=0)    5  0.146715D+01          0.166474          0.383320
 Vib (V=0)    6  0.128508D+01          0.108929          0.250817
 Vib (V=0)    7  0.116386D+01          0.065902          0.151745
 Vib (V=0)    8  0.107485D+01          0.031346          0.072178
 Vib (V=0)    9  0.105689D+01          0.024029          0.055330
 Electronic      0.200000D+01          0.301030          0.693147
 Translational   0.484981D+08          7.685724         17.697035
 Rotational      0.376374D+06          5.575619         12.838338
 ***** Axes restored to original set *****
 -------------------------------------------------------------------
 Center     Atomic                   Forces (Hartrees/Bohr)
 Number     Number              X              Y              Z
 -------------------------------------------------------------------
      1        8          -0.012517095    0.000999533   -0.011167916
      2        1           0.012647598   -0.000545250    0.012367774
      3        6           0.014916155   -0.009615785   -0.005860560
      4        1           0.000257188   -0.000752957   -0.000357763
      5        6          -0.019630898    0.009095727    0.006776528
      6        6           0.042457546   -0.002591132   -0.034430874
      7        8          -0.016649955   -0.006412003    0.047366353
      8        8          -0.002944910    0.003109276   -0.014860607
      9        6          -0.016016373    0.007579339   -0.001461162
     10        6          -0.000486034   -0.000089693    0.000081989
     11        1          -0.000285852    0.000573745   -0.000481236
     12        1          -0.000228834    0.000768483    0.001533577
     13        1          -0.001481929   -0.000063726    0.000374678
     14        1           0.000021449   -0.000734793   -0.000998678
     15        1          -0.000058056   -0.001320765    0.001117898
 -------------------------------------------------------------------
 Cartesian Forces:  Max     0.047366353 RMS     0.012980758

 GradGradGradGradGradGradGradGradGradGradGradGradGradGradGradGradGradGrad
 Berny optimization.
 Search for a local minimum.
 Step number   1 out of a maximum of    2
 All quantities printed in internal units (Hartrees-Bohrs-Radians)
 Second derivative matrix not updated -- analytic derivatives used.
 ITU=  0
     Eigenvalues ---   -0.18611  -0.01289  -0.00449  -0.00040   0.00004
     Eigenvalues ---    0.00128   0.00280   0.00675   0.00901   0.01802
     Eigenvalues ---    0.02496   0.03139   0.03461   0.05324   0.06079
     Eigenvalues ---    0.06614   0.07745   0.08491   0.10034   0.10598
     Eigenvalues ---    0.12009   0.14910   0.17686   0.18161   0.20925
     Eigenvalues ---    0.24609   0.29850   0.43008   0.49882   0.64350
     Eigenvalues ---    0.72597   0.77780   0.80168   0.88394   0.94370
     Eigenvalues ---    0.96820   0.99823   1.86860   2.48376
 Eigenvalue     1 is  -1.86D-01 should be greater than     0.000000 Eigenvector:
                          Y5        Y1        X5        X1        X3
   1                    0.73152  -0.54912   0.31564  -0.19256  -0.08173
                          Y3        Z5        Z2        Y6        X2
   1                   -0.07691   0.06652  -0.04801   0.04104  -0.03891
 Eigenvalue     2 is  -1.29D-02 should be greater than     0.000000 Eigenvector:
                          Z2        X2        X1        Z1        Y1
   1                    0.63279  -0.61840   0.33407  -0.27493  -0.06752
                          Y2        Z11       Z12       X12       X11
   1                    0.06474   0.04886   0.04577  -0.03870  -0.03829
 Eigenvalue     3 is  -4.49D-03 should be greater than     0.000000 Eigenvector:
                          Y7        Z1        Y8        Z4        Y2
   1                    0.56843   0.30597  -0.30161  -0.29696  -0.25695
                          X7        Z3        Z2        Z7        X14
   1                    0.22957  -0.21267   0.19728   0.15339  -0.14346
 Eigenvalue     4 is  -4.02D-04 should be greater than     0.000000 Eigenvector:
                          Y2        Y14       Y13       X14       X1
   1                    0.33738   0.28943   0.24370  -0.23737  -0.23615
                          Z15       Y8        X11       X4        Z14
   1                   -0.23156  -0.22247   0.20493   0.19646  -0.19215
 Quadratic step=3.639D+00 exceeds max=3.000D-01 adjusted using Lamda=-1.310D-03.
 Angle between NR and scaled steps=  60.20 degrees.
 Angle between quadratic step and forces=  74.85 degrees.
 Linear search not attempted -- first point.
 B after Tr=     0.000253   -0.013333    0.006421
         Rot=    1.000000   -0.000592    0.000265    0.000130 Ang=  -0.08 deg.
 Variable       Old X    -DE/DX   Delta X   Delta X   Delta X     New X
                                 (Linear)    (Quad)   (Total)
    X1        3.97023  -0.01252   0.00000  -0.10741  -0.10650   3.86373
    Y1        2.53823   0.00100   0.00000  -0.01844  -0.03276   2.50546
    Z1       -0.03934  -0.01117   0.00000   0.02546   0.03691  -0.00243
    X2        5.19930   0.01265   0.00000   0.02663   0.02684   5.22614
    Y2        2.28184  -0.00055   0.00000   0.18030   0.16409   2.44593
    Z2        1.29461   0.01237   0.00000  -0.01422  -0.00212   1.29249
    X3        4.51493   0.01492   0.00000   0.06332   0.06357   4.57850
    Y3       -2.23310  -0.00962   0.00000  -0.01266  -0.02588  -2.25898
    Z3       -1.06773  -0.00586   0.00000  -0.03099  -0.02480  -1.09253
    X4        6.16354   0.00026   0.00000   0.05194   0.05232   6.21586
    Y4       -3.17316  -0.00075   0.00000  -0.01209  -0.02490  -3.19806
    Z4       -1.74097  -0.00036   0.00000  -0.06499  -0.05905  -1.80001
    X5        2.74997  -0.01963   0.00000   0.03499   0.03515   2.78512
    Y5       -0.94555   0.00910   0.00000  -0.04716  -0.06085  -1.00639
    Z5       -0.33147   0.00678   0.00000   0.01722   0.02394  -0.30753
    X6        0.18868   0.04246   0.00000   0.06584   0.06567   0.25434
    Y6       -0.36171  -0.00259   0.00000  -0.03794  -0.05206  -0.41377
    Z6        0.59853  -0.03443   0.00000   0.00710   0.01319   0.61171
    X7       -0.44357  -0.01665   0.00000   0.02097   0.01956  -0.42401
    Y7       -0.66329  -0.00641   0.00000  -0.00534  -0.02188  -0.68517
    Z7        2.75097   0.04737   0.00000   0.05311   0.05852   2.80948
    X8       -1.23967  -0.00294   0.00000   0.01070   0.01175  -1.22791
    Y8        0.53562   0.00311   0.00000  -0.04840  -0.05991   0.47571
    Z8       -1.25280  -0.01486   0.00000  -0.01225  -0.00590  -1.25870
    X9       -3.75931  -0.01602   0.00000  -0.02196  -0.02107  -3.78037
    Y9        1.30819   0.00758   0.00000   0.02195   0.01027   1.31846
    Z9       -0.55378  -0.00146   0.00000  -0.00875  -0.00275  -0.55653
   X10       -5.52230  -0.00049   0.00000  -0.04320  -0.04297  -5.56527
   Y10       -0.94369  -0.00009   0.00000   0.03360   0.02219  -0.92149
   Z10       -0.39509   0.00008   0.00000  -0.00776  -0.00536  -0.40046
   X11       -4.31305  -0.00029   0.00000   0.02632   0.02836  -4.28469
   Y11        2.60794   0.00057   0.00000   0.02576   0.01600   2.62394
   Z11       -2.04844  -0.00048   0.00000  -0.02462  -0.01734  -2.06579
   X12       -3.65912  -0.00023   0.00000   0.00725   0.00746  -3.65167
   Y12        2.32190   0.00077   0.00000   0.01954   0.00570   2.32760
   Z12        1.23766   0.00153   0.00000  -0.00465   0.00261   1.24027
   X13       -7.43938  -0.00148   0.00000  -0.04764  -0.04744  -7.48682
   Y13       -0.29255  -0.00006   0.00000   0.03900   0.02763  -0.26492
   Z13        0.00141   0.00037   0.00000  -0.01673  -0.01458  -0.01317
   X14       -5.53943   0.00002   0.00000  -0.03704  -0.03613  -5.57556
   Y14       -1.97184  -0.00073   0.00000   0.02439   0.01510  -1.95674
   Z14       -2.18217  -0.00100   0.00000  -0.00632  -0.00516  -2.18733
   X15       -4.94206  -0.00006   0.00000  -0.05566  -0.05657  -4.99862
   Y15       -2.21709  -0.00132   0.00000   0.03061   0.01726  -2.19983
   Z15        1.11667   0.00112   0.00000   0.00072   0.00191   1.11858
         Item               Value     Threshold  Converged?
 Maximum Force            0.047366     0.000450     NO 
 RMS     Force            0.012981     0.000300     NO 
 Maximum Displacement     0.164086     0.001800     NO 
 RMS     Displacement     0.043975     0.001200     NO 
 Predicted change in Energy=-3.540333D-03
 GradGradGradGradGradGradGradGradGradGradGradGradGradGradGradGradGradGrad


 ----------------------------------------------------------------------

 Electric dipole moment (input orientation):
 (Debye = 10**-18 statcoulomb cm , SI units = C m)
                  (au)            (Debye)         (10**-30 SI)
   Tot        0.555805D+00      0.141272D+01      0.471231D+01
   x          0.762485D-01      0.193804D+00      0.646462D+00
   y         -0.496653D+00     -0.126236D+01     -0.421080D+01
   z         -0.237575D+00     -0.603856D+00     -0.201425D+01

 Dipole polarizability, Alpha (input orientation).
 (esu units = cm**3 , SI units = C**2 m**2 J**-1)
 Alpha(0;0):
               (au)            (10**-24 esu)      (10**-40 SI)
   iso        0.717440D+02      0.106314D+02      0.118290D+02
   aniso      0.251621D+02      0.372864D+01      0.414867D+01
   xx         0.810505D+02      0.120105D+02      0.133634D+02
   yx        -0.579502D+01     -0.858733D+00     -0.955470D+00
   yy         0.759310D+02      0.112518D+02      0.125193D+02
   zx        -0.298865D+01     -0.442872D+00     -0.492761D+00
   zy         0.504191D+01      0.747133D+00      0.831298D+00
   zz         0.582505D+02      0.863184D+01      0.960421D+01

 ----------------------------------------------------------------------

 Dipole orientation:
     8          4.13046658         -1.49451719         -1.70661571
     1          5.50430969         -0.29511714         -1.87909538
     6          4.11715180         -0.35785745          3.07121179
     1          5.57093511         -0.68680959          4.42516283
     6          2.58704200         -0.11571834          1.36385809
     6          0.23723658          0.67800499          0.09326408
     8         -0.11729370          2.78854552         -0.64403705
     8         -1.34918975         -1.24901631         -0.11318220
     6         -3.67336819         -0.74842534         -1.44797669
     6         -5.58473588          0.53701172          0.25455109
     1         -4.31323740         -2.60916932         -2.04647918
     1         -3.24169038          0.39708154         -3.10579719
     1         -7.36622390          0.76903968         -0.75976673
     1         -5.93509785         -0.60537213          1.93480781
     1         -4.91410846          2.39914780          0.82583866

 Electric dipole moment (dipole orientation):
 (Debye = 10**-18 statcoulomb cm , SI units = C m)
                  (au)            (Debye)         (10**-30 SI)
   Tot        0.555805D+00      0.141272D+01      0.471231D+01
   x          0.000000D+00      0.000000D+00      0.000000D+00
   y          0.000000D+00      0.000000D+00      0.000000D+00
   z          0.555805D+00      0.141272D+01      0.471231D+01

 Dipole polarizability, Alpha (dipole orientation).
 (esu units = cm**3 , SI units = C**2 m**2 J**-1)
 Alpha(0;0):
               (au)            (10**-24 esu)      (10**-40 SI)
   iso        0.717440D+02      0.106314D+02      0.118290D+02
   aniso      0.251621D+02      0.372864D+01      0.414867D+01
   xx         0.789111D+02      0.116934D+02      0.130107D+02
   yx        -0.255673D+01     -0.378869D+00     -0.421548D+00
   yy         0.579012D+02      0.858007D+01      0.954661D+01
   zx         0.717281D+01      0.106290D+01      0.118264D+01
   zy         0.304610D+01      0.451385D+00      0.502234D+00
   zz         0.784198D+02      0.116206D+02      0.129297D+02

 ----------------------------------------------------------------------
 1\1\GINC-AJ\Freq\UM062X\6-31+G\C5H7O3(2)\AAYUSH\20-Jun-2025\0\\# freq 
 6-31+g m062x\\Title Card Required\\0,2\O,2.100956,1.343171,-0.020817\H
 ,2.75135,1.207499,0.685078\C,2.389197,-1.181705,-0.565016\H,3.261603,-
 1.679164,-0.92128\C,1.455223,-0.500363,-0.175406\C,0.099844,-0.19141,0
 .316727\O,-0.234729,-0.350997,1.455749\O,-0.656003,0.283439,-0.662952\
 C,-1.989339,0.692264,-0.293047\C,-2.922276,-0.499377,-0.209074\H,-2.28
 2367,1.380062,-1.08399\H,-1.936324,1.228698,0.654941\H,-3.936749,-0.15
 4809,0.000746\H,-2.931341,-1.043453,-1.154757\H,-2.615225,-1.173233,0.
 590916\\Version=ES64L-G16RevA.03\State=2-A\HF=-419.9526285\S2=0.777931
 \S2-1=0.\S2A=0.750295\RMSD=7.277e-09\RMSF=1.298e-02\ZeroPoint=0.111567
 \Thermal=0.1195072\Dipole=0.0762485,-0.4966526,-0.2375751\DipoleDeriv=
 -0.3701197,0.0407864,0.1862079,0.1510896,0.1703886,0.0355466,0.1485837
 ,-0.0617676,-0.2805228,0.2331237,0.1325306,-0.1128904,0.0491341,0.2938
 285,0.0511017,-0.1145057,0.0974628,0.1943072,-0.4066743,-0.3400277,-0.
 0223465,0.1497167,0.1528499,0.0471028,0.0443023,0.1925777,-0.1393246,0
 .2437342,-0.0180008,-0.0035734,-0.0378973,0.2571956,0.0068377,0.000149
 ,-0.0033134,0.2594902,-0.302796,0.2041242,0.0713617,-0.2282863,-1.0038
 637,-0.155967,0.074461,-0.2223037,-0.1410692,2.1040484,-0.1678322,0.01
 39671,-0.5048414,0.6022269,-0.2801284,0.3182316,-0.3960508,1.6313479,-
 0.8030581,-0.0120652,0.1984205,0.1024928,-0.38793,0.0919963,0.0146547,
 0.2105404,-1.064605,-1.5375536,0.2311803,-0.3310114,0.4321266,-0.46050
 3,0.2098497,-0.4413425,0.1788983,-0.7794151,0.9055101,-0.0983482,0.078
 0077,-0.1257084,0.3522604,-0.0575664,-0.0493513,0.0148819,0.2447211,-0
 .1210953,-0.0277125,-0.0145193,-0.0574671,-0.0841395,0.0538998,0.01349
 32,0.0119091,0.04245,-0.0057322,0.0078419,-0.0100426,0.0374493,-0.0002
 522,0.0744778,-0.0354868,0.1079679,-0.000129,-0.0201927,-0.0335003,-0.
 0541218,-0.0027183,0.0193286,-0.0367391,0.0325541,-0.099311,-0.0115435
 ,-0.1196707,0.0433833,0.0259944,0.0702114,0.0603248,-0.0283624,0.04291
 73,-0.0162025,0.1037559,0.0977559,-0.0044813,0.0340342,-0.0405484,0.02
 10072,-0.0635967,-0.0163134,-0.096992,-0.0643322,0.1027203,0.0421215,-
 0.0594882,0.0052466,0.0072777,0.0515477,-0.0323473,0.081703,0.0048689\
 Polar=81.0505381,-5.7950195,75.9310375,-2.9886474,5.0419063,58.2505215
 \Quadrupole=9.202066,-2.4924336,-6.7096324,-4.9923323,1.8754134,3.4046
 204\PG=C01 [X(C5H7O3)]\NImag=4\\0.24057342,-0.06623778,-0.01575231,0.2
 6270148,-0.05901214,0.28104353,-0.23377755,0.04292116,-0.25998639,0.23
 569324,0.05675565,-0.01815919,0.06245114,-0.04616504,0.02369504,-0.263
 54284,0.05010318,-0.27501772,0.26184972,-0.05359693,0.27443293,0.01678
 396,0.04597254,0.00179897,0.00196034,-0.00125522,0.00200186,0.94154572
 ,-0.01869891,-0.06914889,-0.00721024,-0.00119106,-0.00120753,-0.001413
 45,-0.57792710,0.41422183,-0.00804251,-0.02645139,0.00071016,-0.000417
 88,-0.00043505,-0.00015832,-0.36418546,0.23590618,0.19997137,-0.000199
 16,-0.00077958,0.00004413,0.00030910,0.00009542,-0.00016915,-0.2992737
 8,0.16201127,0.11143691,0.28724405,-0.00013708,0.00094262,0.00032212,0
 .00035200,-0.00030227,-0.00040786,0.15225893,-0.10743411,-0.06171790,-
 0.15736042,0.10260052,0.00038021,0.00022479,-0.00004797,-0.00006031,-0
 .00015568,-0.00018145,0.11029115,-0.06497098,-0.07268645,-0.11068724,0
 .06425171,0.06168520,-0.01186062,-0.00490051,-0.00547695,-0.00268227,-
 0.00834943,0.00068843,-0.66983467,0.44925168,0.26367539,0.01133416,0.0
 0420778,-0.00149294,0.96504100,0.04209039,0.11894917,0.00480891,0.0050
 4546,-0.00246633,0.00494109,0.36327554,-0.22850990,-0.13921353,-0.0052
 7478,0.00141449,0.00196726,-0.50068081,0.14352987,0.00557597,0.0341010
 6,-0.00793044,-0.00020652,-0.00887484,-0.00006585,0.24909005,-0.163702
 92,-0.13414086,-0.00213636,-0.00183280,0.00689283,-0.33103998,0.139899
 16,0.24649125,-0.01334838,-0.02075319,0.00250781,-0.00267982,-0.002142
 60,-0.00282768,0.01899260,-0.02067755,-0.00520884,0.00023102,0.0015976
 3,0.00183672,-0.22358552,0.07622472,0.05750330,0.62255907,-0.01324579,
 -0.01992423,-0.00134753,-0.00004156,-0.00127720,0.00104186,0.01834820,
 -0.01023011,-0.00828789,0.00218367,0.00357972,-0.00126751,0.03378690,-
 0.05393291,-0.00944690,-0.11506608,0.26292234,0.00483636,0.00085325,-0
 .00305258,-0.00397089,0.00029845,0.00245048,0.00138353,0.00194304,0.00
 505186,0.00161581,-0.00024382,0.00446727,0.04116565,-0.01839275,-0.079
 89243,-0.14371450,-0.15152978,1.03562147,0.00050098,0.00137067,-0.0010
 5461,0.00034026,0.00051700,0.00073955,-0.00422153,0.00370934,0.0004490
 7,-0.00017870,-0.00023449,-0.00139623,-0.01994702,-0.00368346,0.052719
 49,-0.15192959,-0.02011351,0.21774700,0.14903213,0.00009026,0.00200461
 ,0.00094150,0.00027527,0.00001121,-0.00033703,-0.00098848,0.00135031,0
 .00079801,-0.00041688,-0.00054499,0.00016668,0.00495437,0.01694873,-0.
 00429365,-0.01643191,-0.07427306,0.08941680,0.01053322,0.03967610,-0.0
 0160137,-0.00113218,0.00370476,0.00172687,0.00008085,-0.00182587,0.001
 02906,-0.00082634,0.00078007,-0.00004410,-0.00028849,0.00034247,0.0352
 6946,0.00316143,-0.03422278,0.20930058,0.09668015,-0.75267066,-0.23322
 618,-0.12842677,0.88069038,0.00019568,0.00213122,-0.00050296,0.0008914
 0,0.00071710,0.00118185,-0.00622186,0.00397072,0.00254428,0.00067590,-
 0.00075566,0.00100632,-0.05125162,0.02092935,-0.02948681,-0.19750436,0
 .07161150,-0.12105717,0.02628180,0.00791132,-0.02087254,0.49909731,-0.
 00146484,-0.00069613,-0.00086895,-0.00133854,-0.00030886,-0.00039357,0
 .00175825,-0.00039303,-0.00136221,-0.00037598,-0.00005449,-0.00019923,
 0.02041045,0.00225270,0.01239110,0.06843791,-0.09781842,0.07897850,0.0
 0985338,0.01795657,0.03485189,-0.16827048,0.15530300,-0.00067750,0.001
 10099,0.00070968,0.00104228,0.00012148,0.00023656,-0.00056879,-0.00001
 814,-0.00012686,-0.00008771,-0.00007296,-0.00064316,-0.00009518,0.0003
 8498,0.00536709,-0.08470908,0.06159078,-0.21879203,-0.03046121,0.04021
 061,-0.09595570,0.08536587,-0.09831182,0.39856970,0.00104500,-0.000084
 58,0.00016652,-0.00013177,-0.00030743,-0.00013245,0.00149258,-0.000882
 54,-0.00075403,-0.00025051,0.00013333,0.00003687,0.00417985,0.00169417
 ,-0.00024001,-0.05255894,0.02608796,-0.01885763,0.00002832,-0.00552035
 ,0.01656503,-0.18153293,0.04371836,0.01968954,0.47159745,0.00065384,0.
 00193675,-0.00016556,0.00014289,0.00001022,0.00013051,-0.00181513,0.00
 158300,0.00090041,-0.00007688,-0.00026357,-0.00001373,0.00149168,0.001
 91143,0.00142252,0.02976381,-0.01168288,0.00887459,0.00030362,-0.00390
 190,-0.00697968,0.03788127,-0.07617778,-0.00577657,-0.01955133,0.57129
 974,0.00054130,0.00034971,-0.00026238,0.00001662,0.00014180,0.00017344
 ,-0.00101637,0.00042665,0.00075091,0.00003771,-0.00002060,0.00018727,-
 0.00335143,0.00279114,-0.00303813,-0.03420576,0.01045921,0.01253903,-0
 .00103942,0.00041033,-0.00388416,0.05322033,-0.01654623,-0.09480259,0.
 05696723,-0.01833185,0.64715118,0.00012293,0.00059571,-0.00009195,0.00
 004100,0.00005071,0.00009412,-0.00079303,0.00040068,0.00031293,0.00003
 843,-0.00006221,0.00003337,-0.00019903,0.00068533,-0.00030883,0.001808
 24,-0.00430290,0.00581901,-0.00044591,-0.00064161,-0.00266063,-0.04523
 565,-0.02381149,0.00443899,-0.11562166,-0.05494151,-0.00049016,0.55983
 980,0.00005733,-0.00022638,0.00006400,-0.00001781,-0.00000690,-0.00004
 497,0.00046447,-0.00023201,-0.00014549,0.00000293,0.00006033,-0.000016
 10,-0.00043191,-0.00027464,0.00018095,-0.00016702,0.00285948,-0.006161
 27,-0.00187219,-0.00087824,0.00199642,0.01321477,0.01160589,0.00221813
 ,-0.06776359,-0.17960558,0.00552071,-0.04941567,0.54501970,-0.00002812
 ,-0.00012890,0.00006373,-0.00001681,-0.00002840,-0.00003239,0.00018563
 ,-0.00021077,-0.00012790,0.00000688,0.00002826,0.00001609,0.00023574,-
 0.00013344,0.00001138,-0.00188454,-0.00007038,-0.00035835,0.00097008,0
 .00060386,0.00099436,0.01187789,0.00499483,0.00218732,-0.00204322,0.00
 440589,-0.08904113,0.00453796,0.00280326,0.60205861,-0.00003170,-0.000
 08379,0.00004455,0.00008050,0.00006794,0.00006616,-0.00043432,0.000118
 40,0.00021356,0.00004548,-0.00000472,0.00004344,-0.00097633,0.00018810
 ,-0.00101682,-0.00343392,0.00237941,0.00504151,0.00094914,-0.00023416,
 -0.00105411,-0.02851142,0.02659135,-0.02569642,-0.06148673,0.03999417,
 -0.04884991,0.00681495,-0.01587350,0.01688708,0.08676834,0.00006215,0.
 00004401,-0.00000179,-0.00000400,-0.00000884,-0.00000658,0.00006559,-0
 .00008595,-0.00004703,-0.00001022,0.00000951,-0.00000022,0.00056848,0.
 00004490,0.00026545,-0.00022710,0.00001599,-0.00371150,-0.00104529,0.0
 0075413,0.00057245,0.00943651,-0.00653228,0.00868858,0.04600425,-0.160
 67977,0.12534558,0.00466189,-0.01780444,0.02110256,-0.05147721,0.17372
 004,0.00001695,0.00011372,-0.00000238,0.00002768,0.00001864,0.00001883
 ,-0.00007562,0.00018333,-0.00000416,-0.00001232,-0.00002595,-0.0000206
 8,0.00021058,-0.00024866,0.00044301,0.00321740,-0.00058134,-0.00219566
 ,-0.00187179,0.00068934,0.00125957,0.00875543,-0.00941508,0.00822574,-
 0.06054886,0.13105648,-0.20947266,-0.00024352,-0.00164896,0.00098402,0
 .05721442,-0.13921949,0.21746469,0.00000871,-0.00012263,-0.00015980,-0
 .00002987,0.00003534,0.00007451,-0.00006672,-0.00001975,-0.00000266,0.
 00004477,0.00000316,0.00000306,-0.00018340,-0.00077156,-0.00032978,0.0
 0238630,-0.00063154,0.00812860,0.00016290,0.00068279,-0.00307648,-0.01
 838796,0.02532156,0.03298976,-0.05064034,-0.01163834,-0.02390772,-0.00
 011573,-0.01230825,-0.01970663,0.00135999,-0.00528317,-0.00735340,0.06
 684572,0.00008926,0.00004498,0.00003262,0.00004605,0.00002522,-0.00000
 390,-0.00015426,0.00012926,0.00005294,-0.00001090,-0.00000425,-0.00002
 357,-0.00009329,-0.00007143,0.00040902,0.00063176,0.00161945,-0.005642
 31,-0.00181779,-0.00019673,0.00233896,0.00678901,-0.00644394,-0.009241
 70,-0.00672975,-0.11616907,-0.11103100,-0.00407772,-0.01369504,-0.0240
 2268,0.00063015,0.01184914,0.01915492,0.00689949,0.12457949,-0.0001321
 8,-0.00018013,0.00006368,-0.00002995,-0.00003916,-0.00004423,0.0002206
 2,-0.00022198,-0.00007720,0.00000052,0.00002267,0.00000318,0.00025166,
 -0.00004484,-0.00010445,-0.00286280,0.00187706,-0.00137531,-0.00157254
 ,0.00125808,0.00069244,0.00786429,-0.00483909,-0.00623927,-0.01343570,
 -0.11756952,-0.26196772,0.00004295,0.00370179,0.00421575,-0.00209241,-
 0.01230638,-0.01858986,0.01182764,0.12749605,0.28196935,-0.00005742,0.
 00011552,-0.00001936,0.00002059,0.00002949,0.00002768,-0.00027033,0.00
 015936,0.00007680,0.00001845,-0.00003265,-0.00000385,-0.00007921,0.000
 05311,-0.00000006,0.00181037,-0.00093437,0.00211440,-0.00013886,-0.000
 12444,-0.00095340,-0.00381074,-0.00387433,-0.00100105,-0.01850250,0.01
 099236,0.00410486,-0.28521758,0.08014296,0.04889526,0.00058332,-0.0000
 2093,0.00047291,0.00030669,-0.00002392,-0.00067784,0.31263451,0.000017
 60,0.00007061,-0.00002105,-0.00000716,0.00000470,0.00000524,-0.0001350
 1,0.00007807,0.00005151,-0.00000556,-0.00002341,0.00001640,-0.00006063
 ,0.00022150,-0.00017374,-0.00010844,-0.00148846,0.00251721,0.00061610,
 0.00035284,-0.00098352,-0.00749701,-0.00333379,-0.00011843,-0.02511193
 ,0.00973152,0.00537231,0.08295886,-0.07776722,-0.01749039,0.00095149,0
 .00089805,0.00051593,0.00081137,0.00087120,-0.00070707,-0.08807945,0.0
 8186952,0.00001152,0.00001411,0.00000100,-0.00000232,0.00000085,0.0000
 0276,-0.00000714,0.00002855,0.00001193,-0.00000938,-0.00000383,-0.0000
 0198,0.00001952,0.00005133,0.00005993,0.00010621,0.00056575,-0.0011040
 0,-0.00055982,-0.00051608,0.00022874,0.00094830,0.00032251,0.00122749,
 0.00118013,-0.00130740,-0.00137026,0.04889692,-0.01655786,-0.05763974,
 -0.00007540,0.00006683,-0.00016270,0.00000184,-0.00001039,-0.00005501,
 -0.05477729,0.01856303,0.05846140,-0.00001635,-0.00006592,0.00003414,-
 0.00000190,-0.00002027,-0.00002245,0.00009219,-0.00006013,-0.00002575,
 -0.00002434,0.00000213,-0.00000619,0.00001432,0.00013141,0.00003664,-0
 .00081327,0.00039027,-0.00176710,-0.00037477,-0.00016001,0.00077038,0.
 00322811,0.00122128,0.00027151,-0.00284630,-0.01480768,-0.02039733,-0.
 04857705,0.00189490,-0.00016083,0.00059486,0.00107917,0.00026884,-0.00
 222751,-0.00339989,0.00067754,0.00101278,0.01610129,0.02861404,0.05011
 382,-0.00004737,-0.00002141,0.00004365,0.00001254,-0.00000155,-0.00001
 269,-0.00001101,-0.00001088,0.00001328,0.00000743,0.00000265,-0.000005
 54,-0.00007413,-0.00001427,-0.00007629,0.00006290,0.00007210,0.0000132
 8,0.00024688,0.00012654,0.00016596,0.00203854,0.00217800,0.00104179,-0
 .00093235,-0.01721948,-0.02747223,-0.00042631,-0.11559037,-0.11541199,
 0.00068810,0.00072191,0.00007895,-0.00355464,-0.00332191,0.00156646,-0
 .00063592,-0.00525768,-0.00892036,0.00315172,0.12705813,-0.00005198,-0
 .00001893,0.00002382,0.00000829,0.00000026,-0.00001011,-0.00004910,0.0
 0005428,0.00002366,-0.00001024,-0.00002313,-0.00001253,-0.00007479,0.0
 0007279,0.00010507,0.00029987,-0.00026805,-0.00065010,-0.00063591,-0.0
 0020131,0.00025529,-0.00136491,0.00078336,0.00036537,0.00212420,0.0028
 4818,0.00298369,-0.00156678,-0.11822042,-0.26038370,-0.00047338,-0.000
 28872,0.00077421,0.00101155,0.00079201,0.00106664,-0.00129411,-0.00185
 567,-0.00518791,0.00069799,0.13000019,0.28056002,0.00006048,-0.0000788
 5,-0.00000557,-0.00003325,-0.00002865,-0.00002931,0.00024884,-0.000164
 42,-0.00007181,-0.00001487,0.00003227,0.00001563,0.00003037,0.00009303
 ,-0.00016027,-0.00193379,-0.00045215,0.00151543,-0.00005916,0.00007061
 ,-0.00117259,0.00208633,0.00182313,-0.00050103,0.00522848,-0.01839277,
 0.01837004,-0.07245972,0.05207257,-0.05975636,-0.00232215,-0.00381013,
 -0.00007869,0.00053644,0.00122179,-0.00008181,-0.00831005,0.01954846,-
 0.02434713,-0.00017459,-0.00052639,0.00137931,0.07711663,0.00001528,-0
 .00006420,-0.00003668,-0.00003020,-0.00000771,-0.00000489,0.00014267,-
 0.00011006,-0.00006184,0.00001048,0.00001725,0.00002570,-0.00008061,-0
 .00000331,-0.00026812,-0.00114484,-0.00044181,0.00278631,0.00161651,0.
 00061387,-0.00121114,-0.00010815,0.00246257,-0.00181775,0.00924577,-0.
 02077263,0.02258446,0.04832623,-0.15346457,0.12355829,-0.00393572,-0.0
 0294642,-0.00067183,0.00057618,0.00078363,-0.00001395,0.00223318,-0.00
 622744,0.00770299,-0.00545827,0.01127821,-0.01367485,-0.05140852,0.168
 88261,0.00001272,0.00006286,-0.00000688,0.00001962,0.00001659,0.000020
 94,-0.00009839,0.00003279,0.00002179,0.00001452,0.00001257,-0.00000009
 ,0.00001482,-0.00004485,0.00002440,0.00064130,0.00058456,-0.00003902,-
 0.00080748,-0.00072037,-0.00038891,0.00051985,-0.00038601,-0.00032935,
 -0.00071764,0.00050573,0.00005352,-0.05881439,0.12630980,-0.20294805,-
 0.00025225,-0.00045975,0.00127803,0.00049952,-0.00030096,0.00044201,0.
 00303505,-0.00569178,0.00552836,-0.00899142,0.01897552,-0.01991341,0.0
 6492417,-0.13889670,0.21625665\\0.01251710,-0.00099953,0.01116792,-0.0
 1264760,0.00054525,-0.01236777,-0.01491615,0.00961579,0.00586056,-0.00
 025719,0.00075296,0.00035776,0.01963090,-0.00909573,-0.00677653,-0.042
 45755,0.00259113,0.03443087,0.01664995,0.00641200,-0.04736635,0.002944
 91,-0.00310928,0.01486061,0.01601637,-0.00757934,0.00146116,0.00048603
 ,0.00008969,-0.00008199,0.00028585,-0.00057375,0.00048124,0.00022883,-
 0.00076848,-0.00153358,0.00148193,0.00006373,-0.00037468,-0.00002145,0
 .00073479,0.00099868,0.00005806,0.00132076,-0.00111790\\\@


 BRING ME INTO THE COMPANY OF THOSE WHO SEEK TRUTH,
 AND DELIVER ME FROM THOSE WHO HAVE FOUND IT.
 Job cpu time:       0 days  0 hours 18 minutes 49.9 seconds.
 Elapsed time:       0 days  0 hours  0 minutes 47.1 seconds.
 File lengths (MBytes):  RWF=     59 Int=      0 D2E=      0 Chk=      8 Scr=      1
 Normal termination of Gaussian 16 at Fri Jun 20 14:34:29 2025.
